/*--------------------------------*- C++ -*----------------------------------*\
| =========                 |                                                 |
| \\      /  F ield         | OpenFOAM: The Open Source CFD Toolbox           |
|  \\    /   O peration     | Version:  v1906                                 |
|   \\  /    A nd           | Web:      www.OpenFOAM.com                      |
|    \\/     M anipulation  |                                                 |
\*---------------------------------------------------------------------------*/
FoamFile
{
    version     2.0;
    format      ascii;
    class       volScalarField;
    location    "0.4";
    object      p;
}
// * * * * * * * * * * * * * * * * * * * * * * * * * * * * * * * * * * * * * //

dimensions      [0 2 -2 0 0 0 0];


internalField   nonuniform List<scalar> 
19632
(
-0.07745077513323496
-0.01139874957847815
-0.01615663987659839
-1.399852879621013
-0.01827482663085776
-0.01406773851759797
-0.05238869091387066
-0.006237302430475069
-0.01725677435144073
-0.3610344607304594
-0.3054161119175621
-0.01603866156356593
-0.01923578772668451
-0.02585129373448511
-0.1386741649306175
-0.007317547413090567
-0.03500970479136513
-0.04943977957708402
-0.008424095508523431
-0.007475560857870076
-0.1327882192619975
-1.920906635457365
-0.08129104224551946
-0.007218421331629714
-0.009123109390121443
-0.008533996583506152
-0.008859020399417212
-1.547312531994329
-0.01721909805496119
-0.0233174874031758
-0.008202663291054797
-0.06744116781477201
-0.3354037019334679
-1.874747416553665
-0.02614988835179517
-0.01863865048085758
-0.007693205687389367
-0.008576888816100563
-0.008941303673497715
-0.1182033359952107
-0.008510514378548403
-0.07200023634968476
-0.00850201312154731
-0.07314634029644769
-0.007913926632888211
-0.005068273092071076
-0.007532949208571511
-0.01079380389864526
-0.01620421797770693
-0.06524011865613026
-0.02115907068408671
-0.01362262506985609
-0.006656696637839553
-0.02092132432189911
-0.01867121475063005
-0.01345195418824858
-0.0468529831737972
-0.01001931176881399
-0.008758405177115512
-0.5313721338766402
-0.00946851114349285
-0.01030834172453846
-1.847390745048746
-2.262035542232713
-0.008106750710135219
-2.377551410791952
-2.12094315350964
-0.005918532178008037
-0.02138722591504334
-0.07306370442521352
-0.07119651404733104
-0.01452455361330571
-0.005206496203572381
-0.004280877447590489
-0.009671148047138844
-0.009195525257288667
-0.005253948227086792
-0.1430219710529745
-0.03106730240462818
-0.1650524595887038
-0.05523759633251346
-0.009974506769064119
-0.01655993476590416
-0.01779250557103441
-0.005765346242182315
-0.04674540890628592
-0.007494353880289724
-0.008565265578012441
-0.04040772989048019
-0.02713031959773825
-0.2467703097468354
-0.008183797070921536
-0.07653867022007683
-0.09073634600092195
-0.01058856475994882
-0.03366291356340855
-0.01876493044622161
-0.01896958929977361
-0.007382281952748381
-0.00791859236881084
0.7219096828646908
-0.007354582373318904
-0.08039253218312671
-0.008154226739484438
-0.2055207056752431
-0.3680659017302593
-0.1463182585554338
-0.1465861307009757
-0.007361030265201392
-0.00999443397349432
-0.2951715381431154
-0.008263375581846154
-0.02860469749526271
-1.932240816097301
-0.009912860023321621
-0.1405541160599192
-2.481155613867026
-0.4918969166933491
-0.03805163028658802
-0.007782289341890778
-0.009351173483874282
-0.02965210809860279
-0.016149922179662
-0.01270592184053609
-1.503900592897816
-0.294443892516938
-0.007966183554611414
-0.03809222009560427
-0.01673149052719793
-0.003876208986068556
-0.02128835776590923
-0.01472504561876255
-0.1939038037523151
-0.005637233896836173
-0.02189866719737897
-0.1454966328993141
-0.04817227574515988
-0.02312128757237118
-0.008535552346616565
-0.06299000741887169
-3.192793160649348
-4.174433545610162
-2.391489406078772
-2.184450278563266
-3.074582815663338
-0.005911754881548549
-0.01045406209932689
-0.06157321887994394
-0.07617821394337268
-0.008073633864269077
-0.04951723733514822
-0.0521462505239637
-0.04003948078302656
-0.01040129078660263
-0.02276240194145855
-0.04168471721465134
-0.005411668031574255
-0.0101170455710521
-0.08166214475084919
-2.408734553961317
-3.458468861055863
-2.313049406914811
-3.108724442299565
-1.491969721688799
-0.03463293518218011
-0.00924183351275361
-0.01007678916648199
-0.01837760194163387
-1.414799864967274
-0.02094853375211752
-0.008213298768719525
-0.06533655857795866
-0.007860214929332997
-0.01637943888952796
-0.01674428172684774
-0.02322651645990182
-0.007313534388806634
-0.06937882485358333
-0.007795465820525201
-0.007853899189705063
-0.00428175225671636
-0.008202714120206525
-0.007282328589848055
-0.009091677431035864
-0.008964547140169518
-0.009536813420733807
-0.01492874735400429
-0.006353076200529507
-0.01056181740241841
-0.007573480641277848
-0.01153905767376683
-0.1071853479926816
-0.1756641286795813
-0.03788830798475082
-0.004243456508574233
-0.01676997653086961
-0.04204836604190677
-0.3801798663781824
-0.03794531299492604
-0.05092888817339262
-0.01010439108829408
-0.07301732418691252
-0.009224089652273787
-0.04176802941888948
-0.007872516667617827
-0.03491052425697789
-0.008273253874717898
-0.03262516364083183
-0.007414352062780029
-0.01171629990869875
-0.06630008219022544
-0.009201315951503331
-0.01011835958583009
-0.02572480802922221
-0.01151159729723463
-0.008192186095534735
-0.04309603905420688
-0.008513282555293395
-0.007330613228710614
-0.0404256279501862
-0.009534716018848793
-0.0181127516543932
-0.01197722686755203
-0.007366039584776054
-0.0145429905909569
-0.007781575287073505
-0.01503651929829012
-0.03165279297766553
-0.02954678525425002
-0.018429011363563
-0.008465308515435113
-0.01435277323177615
-0.00754256589487569
-0.01570620500425188
-0.06476898530712188
-0.007602973970036325
-0.01351876699710802
-0.01334643893599739
-0.0906033979847944
-0.01494655591653676
-0.009028701465567652
-0.04833009146515556
-0.1077147342074898
-0.01010834769570926
-0.01526430608377985
-0.01829122620037169
-0.01080182119906274
-0.09735357544855601
-0.007901823706226826
-0.01020112906446908
-0.007992621590186509
-0.01264926575935028
-0.01159518375210573
-0.06519277588727981
-0.06724613082844073
-0.02858586446644925
-0.007171145524514848
-0.02437855939859596
-0.1915006349325799
-0.05727381908260521
-0.07548017234156887
-0.05385004137601049
-0.003478782194947535
-0.01617009131526174
-0.02579765282010762
-0.01421576347108557
-0.0170679910166357
-0.03336034103233883
-0.01522904672233704
-0.008679941157066549
-0.0159945253343988
-0.00738351657975498
-0.009860704431576271
-0.008073318488736185
-0.01836178404218504
-0.009301271068316548
-0.05047583942330536
-0.02982160601948907
-0.009632223981464716
-0.05995372843279445
-0.00555328534950383
-0.01299922294225463
-0.03290525929874332
-0.01896107026892268
-0.5627886006001094
-0.03592783625162257
-0.06066882075261316
-0.04565889596477869
-0.06672344830275714
-0.06401985253369834
-0.01265362848086903
-0.03663626940178285
-0.01283572504985077
-0.008279796810004488
-0.006153961204907585
-0.005462937790588165
-0.008284305871030215
-0.04607144709486587
-0.01429758953347139
-0.0144883335823062
-0.1819407026545967
-0.01414566817924552
-0.01559772255541244
-0.00910638028559963
-1.520400444672779
-0.07729513283560716
-0.01888272072704212
-0.007663702626913347
-0.01324892844687528
-0.007295180061963821
-1.482913555153656
-2.077943289134496
-0.7588328620781865
-0.06923734608483768
-1.731256398381446
-2.478769452051164
-2.241018760091463
-0.005853738215356191
-1.790070521801138
-5.234999461439934
-0.007535089937255424
-0.009962303440692847
-0.09801265376817733
-2.293932988331832
-0.01332882375200526
-0.05890450738559722
-0.009923650120123639
-0.9496070338646948
-2.487529151133233
-0.01542159105384583
-0.01604984394184874
-0.008664792483731913
-0.01025228551164407
-0.06353946792364859
-0.01055553437603207
-0.03266831254015849
-0.02076241041721255
-2.888420859302383
-0.01622281121047688
-3.950151488974543
-0.03942878706471045
-1.287319071545707
-2.149202778609801
-0.04525938464958468
-1.586410607329957
-0.03756537324761969
-0.04052847640529129
-0.07433925015465885
-0.03464828352896296
-2.580428276919275
-0.05001546358844457
-0.01571189639614028
-0.03528560080211775
-1.417523964083155
-0.008539210841172054
-0.009566114826216523
-0.005803636854801808
-0.01556903889613501
-0.01550123078377261
-0.0158553495011081
-0.1782243579058569
-0.004689411223546116
-0.1639564515325937
-0.03177141701880901
-0.02937318135007648
-0.04321689502641304
-0.03084280812635947
-0.1337492002369664
-0.00846945805688035
-0.06469741782087521
-0.0989718937315059
-0.01058430445079364
-0.04469169808714923
-0.03627381414526314
-0.03790602295408601
-0.04240185079406105
-0.8272415661320769
-0.008246547744603819
-0.007163120638974259
-0.04014327364195179
0.01384986208473102
-0.01595300502251147
-0.03970692324082008
-0.009145226464837293
-0.1585523421677773
-0.0151504073862266
-0.008822702914260109
-0.04228190738810149
-0.2306968534686703
-0.01624202131024456
-0.01419678588447188
-0.04059930436471875
-0.03721605242044243
-0.01299821332667879
-0.02694176580217633
-0.02731361665113301
-0.02802526057119115
-0.02812944841439099
-0.004659161372372611
-0.01735717727456846
-0.03681053651473519
-0.03435833506916481
-0.06442129983570928
-0.03701786246692098
-0.04516965863692028
-0.01635165607951525
-0.01361627105046979
-0.0328620687026375
-0.1146559377517328
-0.006210102136052264
-0.1536896002058181
-0.01966467760164769
-0.2296444480211056
-0.02294686946668207
-0.02416702313944576
-0.0424293762639765
-0.03643692277871208
0.06592412307581504
-0.04104909308674344
-0.0492998007112681
-0.03327870504667024
-0.02373027445834641
-0.007611072570983846
-0.0605255601055075
-0.01825761493069491
-0.008164358376245413
-0.01559916206522263
-0.01381152319785734
-0.00777361393801158
-0.2820062022434704
-0.01627790310300806
-0.01605950570559454
-0.01810472389822308
-0.01648761862746889
-0.0157628280882629
-0.01610685462621621
-0.01682906350474932
-0.02047319464281458
-0.01999885989115861
-0.01914646528053097
-0.03615712000829747
-0.03042970043897336
-0.03305988545921295
-0.03491991597679132
-0.02304014292266032
-0.03500070450930051
-0.007036733938289087
-0.03930556097026603
-0.01987215287864826
-0.02153436935525937
-0.04084551300886757
-0.02811929991158558
-0.01076844411331113
-0.02933830114751046
-0.02252371819905514
-0.04093436472692467
-0.007850782355541193
-0.01199872309268531
-0.01188900313875969
-0.06359304605540832
-0.06299554849181832
-0.0240448597729744
-0.03071628809491877
-0.01413037090211418
-0.01081983762454232
-0.01086670903212584
-0.009878711541031886
-0.08808360861277008
-0.004779080639169164
-0.008055531877963162
-0.009710693105282182
-0.08119887157022454
-0.04294885703344373
-0.01440372380866307
-0.01276565585491181
-0.02939252736123431
-1.574887747751064
-0.009959712998972929
-0.01347422088300847
-0.04748419212640991
-0.02804183756326334
-0.05451170019994801
-0.009109732957971503
-0.02883993801976934
-0.02229574855694624
-0.6734858592632395
-0.02623314114049125
-1.368038259362831
-0.01261614063969902
-0.0227195493441441
-0.01162545890441206
-0.05285611808277323
-0.05860777177615301
-0.02642298875415455
-0.02601924874811557
-0.01958758122339759
-0.01097251255162161
-0.03150473572717866
-0.0648996590736112
-0.06505658335958039
-0.03265460614604782
-0.03444027652585584
-0.01142574448192712
-0.01481687748451864
-0.02844211313709397
-0.03447644153191783
-0.03854034609781402
-0.03265279625678402
-0.03482652187617084
-0.05396473006781818
-0.0304890729197813
-0.6052686602361108
-0.05347349838833045
-0.4709883787757988
-0.06271438054268502
-0.01385742907656272
-0.009955138649087848
-0.574294790014409
-0.0376861661363858
-0.2473738943254052
-0.007062975399460501
-0.01980447598834819
-0.02024558763930348
-1.291521265872856
-0.03449945260445653
-0.0398935066115935
-0.02681827629381784
-0.03366830078592463
-0.01281038479109711
-0.0464351491786675
-0.02267444476349393
-0.013109468813395
-0.02065130630669288
-0.01194921008646076
-0.05784521304955918
-0.04816850609099403
-0.03477425565804784
-0.05920214237994906
-0.05683322908666923
-0.0819672657222984
-0.07251862434821033
-0.01308549287118713
-0.01360442726806384
-0.01378424421559185
-0.03108401283387072
-0.0179709276941228
-0.08125288466445142
-0.01560779710971393
-0.01770554171354577
-0.02693357287515011
-0.07464697265792618
-0.01278993061753101
-0.008120301596306717
-0.009179202266160291
-0.05510726090109785
-1.467076545882866
-0.02949856258090337
-0.008799052150621992
-0.01190320019332815
-0.009555734558741025
-0.6489350921251905
-0.06012742512914563
-0.09789706688465086
-0.04623327963448353
-0.05036046188331766
-0.04500017682855187
-1.235060037357882
-0.01092558213102054
-0.01108134585013179
-0.00753211362658382
-1.262801220864774
-0.01005122841102019
-0.03975519461974884
-0.04416388415813878
-0.00573972719495168
0.5237797147138172
-1.774648347495246
-0.1463055341621818
-0.1188974538783001
-0.009854647990758216
-0.01974051880959451
-0.07428096478203218
-0.09600748477573581
-0.01936749038537815
-0.0271359578441126
-0.02446047629113565
-0.01696098440357201
-0.02983441811375134
-0.01697615555359562
-0.0261491042233907
-0.2238223735975427
-0.01597186682013005
-0.02205059602280023
-0.1438470250328056
-0.008441214926261141
-0.03374576391814447
-0.01833112368968177
-0.01059765177011547
-0.01090406148608094
-0.05878327929238714
-0.05944657439066036
-0.02052970658508905
-0.01169668966517601
-0.03873413713582892
-0.03297994910799179
-0.01344038667940693
-0.07913440218771992
-0.03533630960748067
-0.06161226016954539
-0.07141423201205371
-0.01517526174060869
-0.01441389276849064
-0.01296899291151498
-0.04555678378128127
-0.01478541498325094
-1.226010554366325
-0.01402479496834286
-0.07569642066847194
-0.4041052754185103
-0.01342875128246176
-0.01419176386631304
-0.01514904988992976
-0.01482061882724813
-0.008279787155821391
-0.008406790912383217
-0.1222007310272904
-0.01568923451822703
-0.0143150943245007
-0.01341536665171277
-0.01377098212705194
-0.0147301349785532
-0.00672996747477069
-0.07545011655047794
-0.1157566404053597
-0.01702778306240562
-0.01559650169701616
-0.005951133716496461
-0.01068688075143664
-0.03802633898864451
-0.008471450448571746
-0.01417773718703547
-0.01525008427297085
-0.03051252456253354
-0.06068667081933982
-4.165179057690033
-0.0348095684885138
-0.01114806415355908
-0.02206630530724417
-0.01115254644898952
-0.01164999750127708
-0.1030149389502104
-0.01163799456576237
-0.008805290524028763
-0.008956109954114349
-0.186115875008528
-0.1062186822517848
-0.009272160977150576
-0.01015242093438507
-0.01677982545497058
-0.006570231914943904
-0.3993564790699547
-0.05150902509703296
-0.005171676576521758
-0.1049050733293639
-0.04263516897416768
-0.006550056019609855
-1.091583403475401
-0.01461167010053424
-0.01847546236703658
-0.01313089151444647
-0.03113620023932914
-0.01248395792598559
-0.0601624872692192
-0.05426163332702651
-0.0787485725941785
-1.128877141153473
-1.734791741000394
-0.04653324504443925
-0.02990286273264676
-0.02143400068747265
-0.06178362146100681
-0.007123886325265397
-0.0453578086436888
-0.008367604341874316
-0.0584508503492126
-0.00892927490947182
-0.02800951059784379
-0.04202732876120673
-0.01074684517161015
-1.137139403997427
-0.01006603923641868
-0.01696559035429472
-0.01125189874491269
-0.01065747007237339
-0.02082454255919147
-0.01444242143336738
-1.567742955297751
-0.01683886077074708
-0.01927575375305372
-0.01830553318979778
-0.06921991581794357
-0.01461391717103172
-1.027599642179159
0.0837205211818033
-0.04388012603042031
-0.0189366821038678
-0.06953764400107847
-0.01556219846167763
-0.06597807765641459
-0.0688153145730718
-0.006470009820721621
-0.07037219016401974
-0.05509809749273516
-0.005995801719414533
-0.01646815431451132
-0.006171654661478627
-1.866001068671469
-0.05309610350284175
-0.277631403836117
-0.06955596591841193
-0.03919516481287588
-0.06952587875410982
-0.02020046205673411
-0.07308280663417746
-0.02783722107454643
-0.06841607816776894
-0.01609370200500526
-0.0350371773787156
-0.05900269895890267
-0.0259785043034173
-0.0544822206177799
-0.03025404080471205
-0.3819838493415506
-0.05115800005628812
-0.05009938817529067
-0.616686730228846
-0.9924551377656846
-0.04215124825832343
-0.01550635688129032
-0.02926702397193003
-0.04175500618372685
-0.04839389108545532
-0.02980663573868667
-0.5684645057512588
-0.05510821065947375
-0.3151031635394448
-0.0580601869559573
-0.0485105297793873
-0.03683874815166856
-0.07171283014670488
-0.05223457741274302
-0.03389876670229242
-0.06562719977990296
-0.06350484054654142
-0.03769389841118546
-0.06654414751694436
-0.05188169205338881
-0.009439415109524972
-0.01095973837684257
-0.03897238519913401
-0.01147641148565798
-0.01000447774520914
-0.007861329091948989
-0.007411722219299112
-0.007443967437944969
-0.1001903467746403
-1.388255787037381
-0.007353091793585173
-0.007653058844772056
-0.008048385996291943
-0.009557943348902923
-0.007607005013746737
-0.01906085787371507
-0.03687921374071847
-0.04066502812147432
-0.007763806050297026
-0.008981147144605312
-0.01089144936154953
-0.01067539931958733
-0.01101237150219915
-0.04163221219565964
-0.01031064389506115
-0.07389549569328339
-0.03640213460929029
-0.009482619658130581
-0.00473271841762452
-0.0288536107413994
-0.15658142939741
-0.1601067863895471
-0.01147522616399793
-0.01106143609509317
-0.06474020119977374
-0.5719691237208138
-0.07919191414098797
-0.03817577679458555
-0.02800604270232316
-0.0105360390773208
-0.130271565414529
-0.05940882995416899
-0.07396173954870097
-0.06448292559774817
-0.02481944374689292
-0.2668003846293471
-0.05613151292885134
-0.07366829551048888
-0.7353063644218049
-0.03015727958909903
-0.05190272973456864
-0.06516256808349846
-0.04095299798851529
-0.07206186279988455
-0.0703245025632681
-0.1643073697285024
-0.02460567494737922
-0.06248084368973728
-0.07096239727844912
-0.05537315110462588
-0.9925878983788045
-0.04389069413975095
-0.03237656812449067
-0.008972633351824615
-0.0683694139594011
-0.01588574215311533
-0.0198348413128177
-0.02187319208191782
-0.01829361712206169
-0.0191940636130361
-0.06906469226597893
-0.09084078745517656
-0.07744530406964645
-0.07425329249682697
-0.01707906056848245
-0.08269728560748088
-0.06615676003293097
-0.01359879606039056
-0.05818367254014125
-0.03159495719983514
-0.08225090703920283
-0.09647776759095232
-0.02812884394900211
-0.01179097946895655
-0.8619581990134405
-0.1240810673504148
-0.0185696367746977
-0.02212349673186161
-0.01107229542975555
-0.03180783442874208
-0.0726148866831226
-0.0136358959232645
-0.01115613211345824
-0.01844230410270074
-0.01426890888411478
-0.03933515531077091
-0.03214514819235259
-0.04467113696816952
-0.02577046518562563
-0.04226218692061963
-0.03887773835241806
-0.1651546289496254
-0.02301773768952337
-0.01013148220960078
-0.04158558330186618
-0.03439984941178392
-0.03494743735395595
-0.03564562988936013
-0.04333455946197078
-0.03956325086159895
-0.04365276636329776
-0.03452766839156143
-0.02606114472033731
-0.02396738274747367
-0.02295276738512287
-0.03753321983805786
-0.02190068274599148
-0.03928732200847428
-0.07571823318984658
-0.009431274924670234
-0.035032959868168
-1.200237712415948
-0.04751029702450614
-0.04523529406696566
-0.0282178064371958
-0.04853040528741215
-0.05263260920478364
-0.05476373895081382
-0.05226940127975058
-0.06130286457808101
-0.07855210977144336
-0.05720150558977239
-0.02492152062812741
-0.02169155033398826
-0.4263295453596374
-0.7788965610381591
-0.04301079198943755
0.6665133712004031
-0.08431496292572301
-0.0981313197224567
-0.06741239963779444
-0.03239375249122069
-0.0140747268062683
-0.01917305097011262
-0.0839858451639566
-0.03366902756413481
-0.07520919842377531
0.1850248014844525
-0.09168905047741653
-0.0800807149748974
-0.06459391361002195
-0.008200509121509018
-0.01290376331082007
-0.01698959738873965
-0.008455280706632399
-0.02859321805559725
-0.01875725541840484
-1.14542228404459
-0.08764131303195703
-0.07920284678499914
-0.03779989820652034
-0.0106078192821678
-0.074520972372089
-0.07232411294632794
-0.02239799674666011
-0.06865601577061653
-0.06812777236198587
-0.1027686106882096
-0.02104047743999523
-0.2792594439026555
-0.0956944247737946
-0.04568626571677918
-0.03987328756037758
-0.008344064353372954
-0.01213589677320641
-0.01001687624578264
0.2432625123668213
-0.01065509609650827
-0.02007757631315982
-0.0117853781474833
-0.01120680543388904
-0.01087423124889938
-1.062318055979224
-0.01286062568115819
-0.05662188799017243
-1.170592735523822
-0.03924687386683819
-0.03573448484401379
-0.04640252833279746
-0.04808008898304933
-0.03938610923555622
-0.06932267440701441
-0.1720617228436211
-0.03872609504750366
-0.1028473751670865
-0.06632492390242829
-0.08180327544822093
-0.009226696920056022
-0.06223814632097996
-0.03462975143542234
-0.3271046015854575
-0.05872173943776372
-0.07261549258716751
-0.06996413510412053
-0.07436175987225607
-0.05737905509093175
-0.01848729900033808
-0.02039404535359575
-0.009842503532471045
-0.03814426012726727
-0.0360481696093857
-0.008472902526817537
-0.008991019155876842
-0.7664131878401802
-0.0204326130661482
-0.03565159617862148
-0.02188690391398622
-0.005597472225487273
-1.249241886855694
-0.0563347455417339
-0.0102800384137021
-0.06052946636367224
-0.01093001223993139
-0.009965098325123507
-0.01081556905017627
-0.0117058592163649
-0.006686327770859661
-0.3344310454982137
-0.009447509967177841
-0.01075864470272078
-0.07001195339196821
-0.05843104328195862
-1.587796456872832
-0.006683800205092562
-0.02077326607829628
-0.02275109005056152
-0.01241012113294394
-0.7033120657914584
-0.1717769979801531
-0.03709725420699023
-0.01709229388492524
-0.01916379840569178
-0.1125425667872611
-0.02180735525690491
-0.01807913472859034
-0.01668268214114794
-0.01880093134640231
-0.01991939496424702
-0.01647603503198865
-0.1169858110079196
-0.0174171686980144
-0.1760213719006442
-0.01427154020209257
-0.08819171221203906
-0.017362384706702
-0.0208894621534003
-0.03018469645423877
-0.0364472294758685
-0.03297870343847682
-0.0313817295516185
-0.2918984931706715
-0.5852249941300938
-1.128523353396419
-0.07321822217812489
-0.5252959002171512
-2.051986488007396
-0.2478701663839118
-0.02100731316144782
-0.06568170571074038
-0.04605021181564101
-0.01448625155634439
-0.06100764076088858
-0.03560508879966317
-0.06752672913566911
-0.4762905447639871
-0.3924604742428749
-0.4496555971535013
-1.625648704830788
-0.06889439220586401
0.05838937946272839
-0.1196818143385782
-0.2356849406300367
-4.203830452854777
-0.07844740930683722
0.02611448873656542
-0.133108516323722
-0.08887486481786923
-0.03714732426301026
0.1242029066434567
-0.1133839688910495
-0.05790156975332738
-0.04644955021857591
-0.7091118123765784
-0.09247255426496213
-0.8433258263647879
-0.1965698204971437
-0.1821098074344278
-0.06536571003148799
0.1659040285011566
-0.007424217967078774
-0.03049268189668275
-0.1102132799634381
-0.2791220875963256
-0.4078962873609552
-0.0676800340379792
-0.1246445208559196
-0.3546438770889341
-0.0800103502008979
-0.06163847857200125
-0.07581415105160441
-0.007430079236476773
-0.008242936031597059
-0.007111801460710701
-0.007029950974452505
-0.006802421343209223
-0.07346898105428681
-0.06192024172126583
-0.8375978138721983
-0.05090232563525855
-0.0542897014783264
-0.1905491858016752
-0.09192530852966826
-0.1141872374613875
-0.060014122897039
-0.05796480153155019
-0.02348937714704558
-1.283818993398883
-0.02252254436236859
-0.01040775232910097
-0.06713126905968819
-0.053817689119445
-0.09695543731286896
-0.0151785839997323
-0.01662263643564669
-0.04917548115724472
-0.04812949890022077
-3.168713665422742
-0.01473323540649985
-0.03546933526621555
-0.0711742882047916
-0.08730148033130065
-0.02030155364354498
-0.01093081552229165
-0.01589471746575329
-0.007849027664507737
-0.118043175645469
-0.03192077420700801
-0.07869768187316695
-0.07904550043644333
-0.0613689824421372
-0.01657560201239619
-0.04334005505843997
-0.06521499693280518
-0.07191123492068412
-0.05069489588450206
-0.07191481269800648
-0.03799138252911859
-0.1520625888426362
-0.06217048899102481
-0.07932758030983517
-0.0684715247801186
-0.06250289984224107
-0.03008377701667
-0.006115655435445343
-0.04901188861026237
-0.04399447062126575
-0.1157662225749751
-0.07950488468485147
-0.09645872425120729
-0.02088519470620673
-0.07418954836474687
-0.08210876547604901
-0.01835899133201401
-0.02281752961297935
-0.07392003780079702
-0.8920911588025394
-0.02238005566007405
-0.3762833322746272
-0.1865079909865616
-0.004683911806096521
-0.2791585269617062
-0.04246131960856586
-0.03859480007341087
-0.03906626879664513
-0.03167557084275473
-0.03166079245633129
-0.03305689556375551
-0.03620148702997143
-0.03302135219708995
-0.05447651945802379
-0.03719911504723829
-1.47067419086736
-0.02700688105685927
-0.6486256812794021
-0.02722237552212877
-0.9955606595766024
-0.02376128104961932
-0.2939317220052287
-0.01519791906705371
-0.01518476399423492
-0.01418582776212305
-1.513538334239041
-0.01290861838746646
-0.01440577827662656
-0.04882945986396857
-0.04932924863289959
-0.05174941737416554
-0.0549515117881075
-0.01780632974045679
-0.01922587122519197
-0.02229162559485422
-0.02541218453070056
-0.02371489039840874
-0.03463952128191835
-1.68874568806644
-0.03303947031781176
-0.2941678384053309
-0.07296293986776364
-0.04530720136708906
-0.04507189577752208
-0.1046312778123153
-0.08241285497404481
-0.2616441638108744
-0.2163710501303143
-0.06094659464714042
-0.04620924686842399
-0.06083246315853919
-0.06369388663749302
-0.05032820770515258
-0.05138402018620419
-0.04866985077108242
-0.05311511481461971
-0.04439515235746649
-0.05391823265417011
-0.07702726767133121
-0.0408191436943851
-4.450504453929994
-0.06669765021283119
-0.03012033819482096
-0.03557871273933362
-0.03770809739234118
-0.009644836267529053
-0.04370231637423714
-0.006745495209796016
-0.03462935674757897
-0.0846479449965145
-0.009953456928279383
-0.7744292268190741
-0.06168651347387804
-0.02344856758389659
-0.1749044426232107
-0.05959014668730916
-0.02009181975266415
-0.01777458889138988
-0.3078226999399079
-0.0417876867994209
-0.01659331742947227
-0.1008973613330951
-0.1208538806178008
-0.02566380694434936
-0.03500589362542932
-0.01929518897349398
-0.01151863926062308
-0.02212867219918422
-0.06335057592484547
-0.01713340600707824
-0.07592458888082082
-0.1035242981417811
-0.08600258604845017
-0.8934022823796773
-0.02797512923075323
-0.05899910743465071
-0.06703102905765723
-0.02576000097572578
-0.03584720147889045
-0.0178583950216634
-0.006835564818937188
-0.01971483325175452
-0.01394092678856009
-0.01040906980268179
-0.03481257474814851
-0.5402516670680936
-1.118673558202362
-0.05719590577606693
-0.7436663475788983
-0.02899474915974019
-0.06540806349991174
-1.320171574500357
-0.05368514280965567
-0.01622374788920869
-0.02348564361003087
-0.01669900793141051
-0.1158113050074286
-0.02998446660771846
-0.03058620329804914
-0.03345781323702807
-0.03186805221059772
-0.2209697879344992
-0.06099828304919255
-0.0227209221510778
-0.01097061004640157
-0.0385491413675373
-0.01972476293118502
-0.05527234095200844
-0.05974612394749662
-0.1178348597271834
-0.1144727181661967
-0.03259164743916496
-0.05586759042566117
-0.1217118774585782
-0.0699737071232121
-0.2142425831511892
0.141700183668468
-0.8767081786506015
-0.07110419140549298
-0.3709874650214153
0.08897203017721109
-7.601870150073202
-0.537601584557604
-0.1356713774781419
-0.7426582554951209
-0.7384500222833426
-0.07224873358372015
-0.06152010431447522
-0.1018989440069588
-1.372596723917491
1.193825443640788
-0.8022825132269097
-2.833091179121406
-1.286180619428903
-0.07994696686075989
-0.3682639635799519
-0.01618123708022633
-0.1438329001259697
-0.04280112907754743
-0.1639605306286347
-5.840148806895786
-0.4765679479181926
-0.05433809066590758
-0.8228562542183834
-0.03341004357502786
-0.008424491790278852
-0.9218237199875349
-0.008775614459612655
-0.006858791302923395
-0.04615071236196278
-0.06687282661885877
-0.01288421005796763
-0.02892667692099646
-0.007618862899956339
-0.06233372801854813
-0.06744854108974278
-1.442897737189152
-0.07294037171199387
-0.09921290827242364
-0.09208839250645819
-0.05031730047380172
-0.08786835327754335
-0.02334716276644913
-0.02386092890864749
-0.0344370451831985
-0.06449943838986008
-0.05756206983536988
0.4747346980991255
-0.01634776727734536
-1.024835112370022
-0.05512285307598947
-0.03480326844414585
-1.571277774626481
-0.2290762549804604
-0.02409220149615027
0.02348499518029987
-0.009436488831266155
-0.06639103054272232
-0.009899447503075488
-0.05388052751493613
-0.05066164826082632
-0.01423426289479213
-0.01344102116883437
-0.05941488782211748
-0.1536183120495182
-0.01346669041933015
-0.1601023471293654
0.02616622377655657
-0.4603893279558376
-0.5493417240651688
-0.08434135896163168
-0.2229310168662803
-0.02328277841407541
-0.06079982234322934
-0.02241258512769391
-0.09633675526327949
-0.1346035853576411
-0.1251798861596888
-0.1121680739292264
-0.1143825781091834
-1.488401229293891
0.4169582202849982
-1.047244285589657
-0.4349185608445871
-1.001588196593779
-0.2044991470922544
-0.03054598755921316
-0.062049871769816
-0.01535272178786663
-0.960501611192058
-0.1859548893857384
-0.1078808303273731
-0.3183689685585377
-0.07246927715392903
-0.2107842500663248
-0.06175390152775603
-0.1211362560214196
-0.2164855962344746
-1.187959805214056
0.02639356663987509
-0.04437164536647591
-0.2115193516526451
-0.07490855861874382
1.646448003575024
-0.04518387386244078
-0.5529612642014696
-0.3621169452893465
-0.7035906120200486
-0.3165339423369548
-0.3397464957405569
-0.06835463828408553
-0.0319997731671588
-0.1710401077944301
-0.0795637243801012
-0.01887758977448956
-0.1893256911881568
-0.005478047625975651
-0.01044602671886103
-0.02925629588264229
-0.007038327020025438
-0.01874942684380313
-0.01926363870262634
-0.07220652032483432
-0.1489617956102811
-0.184503977055057
-0.08584796784757785
-0.01072779825588771
-0.01381941011038896
-0.07686988426893959
-0.3257504702107228