/*--------------------------------*- C++ -*----------------------------------*\
| =========                 |                                                 |
| \\      /  F ield         | OpenFOAM: The Open Source CFD Toolbox           |
|  \\    /   O peration     | Version:  v1906                                 |
|   \\  /    A nd           | Web:      www.OpenFOAM.com                      |
|    \\/     M anipulation  |                                                 |
\*---------------------------------------------------------------------------*/
FoamFile
{
    version     2.0;
    format      ascii;
    class       surfaceScalarField;
    location    "0.4";
    object      phi;
}
// * * * * * * * * * * * * * * * * * * * * * * * * * * * * * * * * * * * * * //

dimensions      [0 3 -1 0 0 0 0];
oriented        oriented;


internalField   nonuniform List<scalar> 
37377
(
0.01600613298318892
-0.8051620628687793
-1.449815769426021
2.238971699304975
20.61873025734162
-4.648350929584003
-15.97015603230247
-16.56006887956843
8.219745053840736
-13.2888739467709
21.62919777249959
0.2297211787817929
-0.01404594836069395
-0.03528253617340688
-0.1803926942413455
-13.91237702695204
-12.08020243634928
25.99295470889648
-15.08259065225148
-30.34677788356167
29.13061142097598
16.29875711483565
-8.941555218856841
-24.35793991969956
21.2236309085477
12.07586422999241
22.75482171173442
-22.15932597753734
0.5021324417832895
-1.097628175984561
-11.26688366145144
-5.807546282233584
17.07510169453413
0.1601462597379633
-0.4925833758680099
0.4051121591142914
-0.07267504296077192
-0.6964870220948663
0.5694298176078493
-0.6302679807293569
0.7573251852371912
26.5826798911141
-24.12318943671737
9.1894216763221
-11.64891213074274
1.512706227813119
-14.62471348512686
-14.30914344245991
27.42115069976466
-10.10280737777982
3.661718148038589
-11.81512448361235
18.25621371333968
-1.428720492797107
-0.6485285228839496
2.209885959667045
-4.876791591648858
-9.486634269909658
-3.428208815613846
-17.1393864691725
14.55136145853219
-25.46220321691511
28.05022822754743
-14.87457561530297
29.44449222178429
-14.56903199692442
5.336149215343762
-18.77932795660085
-5.077916453219517
18.52109519447303
-19.60258234562668
18.71641127801347
0.8863287625467809
-0.8205911530006267
0.3060415444429432
1.124064845267947
-0.6095152366892161
-0.2338394446690343
0.1656522750936427
0.2084195851349381
-0.1402324155530257
-14.02063650539819
17.84156254014695
-2.567135350725494
-1.253790684059068
-21.67282716765738
-14.97591562201998
17.04616044405025
-4.708228421718503
15.79287481291763
-23.88654476641657
12.80189837521635
14.84896066615508
-11.62237761744673
-0.3790363019707136
-2.847546746738197
-17.09376328693117
-9.020524636181555
14.6997953771621
11.41449254594891
-0.02973166354670637
0.02561339766062354
9.729164680546138
-20.24708066687671
-8.190361275174146
-8.442543227931603
32.55751302933901
-27.41382276971335
3.298852968302407
39.66447890927719
-16.63452446212713
0.7800040148505568
-23.8099584620027
23.52386930028895
-16.29716479666104
4.25702859455448
-11.4837330981879
0.1609494329167798
-0.2614518986951805
-0.4859981580653864
0.5865006238626033
-0.1234674616610259
0.1097468334061866
0.009777018732937688
0.003943609527951549
-10.20528369592949
3.514366900854994
-11.98911095884764
18.68002775385344
-30.53945451240888
25.67119136148716
1.53193747691192
3.33632567400286
16.6052484619978
-19.01103088484039
-17.95814361684874
20.3639260396912
-26.56129949493716
-1.125899365412163
4.119678550100022
23.56752031024851
-3.482834796264573
4.908980723984886
18.21419467353789
-19.64034060125993
-0.9387615176193067
-1.518849543623092
1.348736083558254
1.108874977683415
-11.21648330802219
2.013964204435188
24.94840022366503
-15.74588112007801
14.27012364190782
7.284870671187064
-5.884816056731568
-15.67017825640744
7.32197780718858
19.97889689993849
-43.18862464345207
15.8877499363239
2.851365583800622
-19.32614451997661
-3.911329735629793
-12.72047921503426
-10.77436081335847
-15.57509125222187
39.06993128061462
-18.93569744982515
28.59378113254013
-5.703156354758861
-3.954927327958558
27.31951561049819
-27.16853010116021
-3.799660156442377
3.648674647102441
-21.590077975306
-16.4950901701025
10.12415984277477
27.96100830263697
18.5982760946431
14.14264027411
2.996960651894808
-35.73787702064995
-20.22026922067739
-6.324029842913765
28.07430097802178
-1.530001914466409
11.48310621152169
-20.38589366798427
9.051837291125196
-0.1490498346619892
14.56299833049794
-17.4830664955545
2.920405381232238
-23.26529556636775
11.40178298355975
10.94331063937151
0.9202019434361491
21.60471307636617
5.18676660755593
-2.037527978111535
-24.75395170579946
31.03895949400816
-9.16182185354789
-0.9271869299861548
-20.94995071048312
-2.969475443956689
17.53282366082629
11.34080935016798
6.698201860471986
-18.90885746934601
0.8698462586606769
-17.50408320698031
-3.5665422168983
21.07083511118112
10.3201451270743
-4.162220383616877
6.500490985140655
-12.65841572860041
-0.4907011681264137
0.07867564156013837
-0.9180921849902941
1.330117711584377
-14.69444319434179
-2.093633092994582
16.78835756306584
36.66768942183515
-9.098435907890925
-16.7484805716962
-10.82077294224981
0.02633232536941849
-0.1010341727396477
-0.04876561428741898
0.06171413383478833
0.1204043588786088
-0.07237165930159263
29.21667550313714
-20.03570319551302
18.46524722143945
-27.64621952905936
0.1349512848538399
-0.1262567926046708
0.001082526489287799
0.2167273681050224
-0.08788979956961425
0.03681470656156133
-19.9720783365454
0.001858962194267807
19.9703563847573
-23.7930261913477
23.96291494701069
5.815716502446263
-5.985605258105473
-1.563457217411776
26.57886579538834
-10.69569833549665
-14.31971024253758
2.287299851950504
-2.214364636456915
-3.679372703579752
3.606437488115069
-0.1426437466269207
-17.2848420441533
2.527389398600909
14.90009639218761
5.841594040229613
-27.41348026229339
-2.277845325585713
23.8497315476486
0.02304910371362981
-19.99502734959362
35.21605378230682
-9.092522585098356
-46.46664587510972
20.3431146778985
-7.244317206845619
-4.340673412883004
32.36277682509132
-20.77778620536274
-23.05714986261162
14.84809545172382
6.140306818419003
2.068747592470176
-14.47673076060759
1.088240457000547
-5.757449847184375
-18.50007960875141
-8.57455507939807
13.82239726639371
13.25223742172673
0.8070381425159819
-0.5467694440200539
0.2066803387695748
-0.4669490372598304
-9.621536210756732
-20.23047267480242
9.220627722633813
0.0747923610948051
-0.1183249228117507
0.02759928940768619
0.01593327231778341
5.395382361967803
23.76367096100901
-7.649687654611165
0.0512221340534325
-28.53205313328136
25.78939262860622
2.691438370613516
2.399598682918415
-0.393402524349791
12.56936072603998
-14.57555688460891
24.20831145334886
-0.257173050457328
-5.280981131066963
-18.67015727183699
-15.87724278227212
-0.165403012186247
-5.630181373200451
16.45248512138278
-18.3878981181121
-24.62588649820838
11.78286256256169
1.861252613817669
-15.06742243012817
1.423307253727337
-25.41944111254001
-0.5513700289426784
0.651878695532368
25.31893244594919
0.8943310932077853
-0.9466131647302003
-0.3257994984790155
0.3780815700132958
-13.11552576874611
0.221170454764152
12.89454511605942
-18.25037202385658
17.07748548466433
-17.07614609600708
18.24903263515483
-1.725755218842853
0.2421762992355866
1.455692290989548
0.02788662860887887
-6.396723221543835
22.84953642606079
12.99877623738623
-24.8549645441686
25.29213964787294
-13.43595134103385
15.69580637917768
-19.43649776144333
11.03997624863712
-7.299284866373141
27.80234300815573
-13.26435013354263
3.667287475969877
-18.20528035061007
17.65351738433879
21.90019425613128
-22.27332322366971
-17.2803884168032
16.7532778141505
0.9004491133736963
0.1535273623668693
-0.01531427019482963
-0.07947656642086592
-0.05873652574418717
1.843795554929771
14.08693533891339
-10.87198553315026
-5.058745360693398
2.79733818062488
1.385127554324272
-1.425620798481902
-2.756844936422466
-11.65667754410402
-5.961482380703072
-2.59841516792338
20.21657509272733
0.008575170972973689
-0.1237685316507071
0.03272650288106828
0.0824668578017143
0.3474228426400655
0.06758803280119483
-0.4169139932809255
0.00190311784761597
0.01037807918122819
0.5804766616827038
-0.5946177105503946
0.003762969695093536
-0.7643129777123523
0.6899963547131464
-0.596786589105772
0.6711032121419834
-26.03374205099151
14.37586318346167
28.41115668167773
-13.88212821631502
-3.600624736564464
-0.027597664880786
0.1550542165364911
-0.1276831571909299
0.0002266055420661994
24.20916598841572
-23.65369823871441
-3.524943193658559
7.999049088841701
-13.58215985286541
23.76646267456237
-18.18335191061075
0.02700958234070215
-0.04748035242947178
0.23719813819848
4.272990202113723
-21.77681912345329
-0.3087538243145992
-0.2448635339313838
0.4122946497601713
0.1413227084998633
0.02148198076054678
0.175183437931218
0.0844416675094677
-0.1280031478934838
0.04995291195363026
-0.006391431558682171
-17.78990950072697
17.28666665736819
4.546445958335594
-4.043203114972298
-15.79022533896482
23.34314902259479
-3.566587140950188
-19.77639127683014
4.775498508047842
-19.93050023807626
1.992801216109206
13.16220051401679
-27.28550382307978
-0.7023268868831123
31.60294980144236
-3.61511909148481
-6.580226698043431
-23.89659026107332
23.80544319523559
6.671373763876725
0.1089343449456947
-0.08169935403908093
0.000458519759494006
-0.02769351065749564
0.5025867566878133
-0.7189004051524563
-0.01721237395930535
0.2335260224426187
14.9230458209374
-0.1697956814503092
7.204023861221201
-21.95727400070935
-0.4493453999194419
1.085089349573672
-9.373292777311617
8.737548827641655
-9.638393921021247
-16.78105049247892
19.61657192596543
6.802872487527424
15.56285993481483
0.1039216518938215
-15.55068472003674
-0.1160968666723635
19.76803105407966
-24.19576096280271
-8.449939616962679
12.87766952568686
13.1647475188003
18.19118653241861
-7.823462811398349
-23.53247123982128
-0.2102271364905512
-0.5398162212352955
0.348438579240005
0.4016047784930171
-7.314724672409925
11.12044913462842
11.6016643515698
0.5242883078122279
22.04530336570162
-16.01173425912234
-6.557857414390156
-0.09900310366937747
1.430077474741258
-1.323794736573556
2.41447261832598
6.053315390500288
-9.717158249369238
1.24937024056226
-24.93217472984049
14.3610154952377
32.17587231099285
19.06911386801742
-8.14947422763168
4.00340618055095
-6.796290745460789
-1.402206770966157
9.519564146399263
-1.321066629932434
0.1090683267105834
-0.1208060808470254
0.01173775414108131
0.0779819944032225
-0.1489282791205495
0.09261356940042732
-0.02166728467856873
0.0914397758240522
0.09857541858163651
-0.1343397694559415
-0.05567542494548561
-0.08201229397981223
0.1227791920683523
-0.01443457271511704
0.1305503074726479
2.90525820512299
30.42799872770812
-25.16925607431266
-8.164000858517491
-5.747673396957485
2.591451421774623
-19.39506829010204
17.12487205283016
-10.07266876636699
-8.325121822318383
1.27291853585173
-1.753897914225921
1.883886913227544
4.443067975897511
-4.573056974825202
16.01463388964767
14.20165676410515
-17.08708089633373
-13.12920975742058
23.88644715063098
-8.361815546374272
-1.223813992081079
-14.30081761219785
14.39907637111963
9.376759494321913
0.110611285171326
-14.87193891088491
3.034530565740918
-4.510639282952031
16.34804762807087
-16.93588184280855
20.58747279012168
-16.37207016234778
1.809816010416943
-10.52031896265765
-9.383242745392021
15.47343651582643
-18.28305571167645
12.19286194122635
2.774077131239749
23.11985687689802
1.169532783563704
-20.46481230858621
-2.428142028985994
22.89319997418884
-16.93896279303839
-13.5887988615379
5.857516759085155
24.67024489544994
0.004909857604813146
-0.1158876819682624
-0.01527896823755219
-0.1468300954760287
0.00723065801202389
0.1666090198086461
-0.1432489441288785
0.07440084305780835
-0.0828532611920835
0.02536475789870684
-0.2474242154166672
0.0162854717203045
-14.49313794360637
21.84285849268389
2.990609179491293
-10.34032972858159
10.48704359964686
9.268709839769707
-8.605016163508106
-11.15073727590871
-12.72516420271298
15.29714655776844
-19.07162622662339
16.49964387156708
22.33315945661168
-22.35032019592456
-0.260763396391663
0.2779241356963464
-0.1412452737917074
-0.007603523041211264
-27.09331827222429
16.41797933113958
1.940490547650182
8.734848393408621
2.337211075172279
-26.29628984492801
3.140932517331696
20.81814625242369
6.158657707780391
-0.9932614452590873
0.3461939108135282
-5.511590173272916
13.83556476963631
18.06977091638731
-17.32938670593445
-14.57594898008939
35.42102609771742
-13.28644248764452
3.237524267686259
-25.37210787776337
2.395155906294252
19.63791596102881
3.503886375091189
-25.53695824241858
-15.14905677641183
-2.791681267013088
-1.94330975518763
5.729531074518102
-3.107426731221338
24.14683981791511
0.5048418171214256
2.396659020545867
0.2290795393584132
-3.130580376966389
-20.69959846566581
23.99624466045294
2.432884879729973
-0.990429356581193
-20.04058149425882
-0.1392526395905848
21.17026349043143
2.424976830543941
-13.06735435460494
6.667585106037514
3.974792418022142
-28.48627682103057
28.52625680295104
-1.030409338500139
2.504179453248915
-30.35731873833518
7.812557790828016
-16.6191459991621
1.095405923871346
15.52396307179295
-2.324510169772346
-19.28127637934428
21.60600672311243
8.10252736486188
-7.836250586050499
22.03923691395498
-22.30551369276899
6.12649871340146
-12.12038481590445
-17.20135909569625
-11.56793045889668
12.07950150532255
-5.426884680637379
4.91531363421043
15.57904244184059
25.16624623446671
-44.83822757018476
4.092938893873101
-21.6295123796024
22.70188351570563
-29.55864795713096
-5.539737047943276
5.516150995358273
32.48231989355246
-32.45873384097226
-0.7092036428968728
-1.12941515799948
0.02246049940575986
1.816158301504523
0.3780203250925223
0.5844216027961996
-0.7165617926767975
-11.81261462402416
-11.07649749278835
22.89029071697239
-2.733243704080184
8.18505943939928
6.683245423681704
-17.07292746097065
10.62601582200254
28.41631547009188
-21.96940383111605
0.5682764277372422
6.666648903420651
-7.684270731130235
-0.2634418544219174
-0.1710936050210083
0.1939736374254988
0.2405618220302178
15.22951612402175
-8.464530563031913
-14.80299051151057
8.038004950516486
18.8368654868036
-26.93382458993253
-19.17757205827989
27.27453116139497
-4.195288871772171
18.6808851077229
-14.48531632190223
-1.887181156675618
1.6694700025874
-1.296106156998503
1.513817311111208
0.4987614796598213
-20.26105937328454
1.311906759755103
18.4503911338671
-3.987595558334168
-20.29246994506383
24.05031992977748
0.2297455736221248
8.223108272993054
13.8402261266058
-10.0554372696504
-12.00789712994868
-22.8729957039779
11.06146779604611
6.78188253402281
-21.17956544422664
14.22788722875301
1.698547402071392
21.99603463670976
2.469179062471981
-26.16376110125604
13.0546339171852
-33.60749756898259
18.08784273741898
2.465020914377226
-34.72944459299703
-2.037288658626211
22.58357824994128
14.18315500168779
13.45341440437094
-12.66812075853522
5.300793151706763
-6.086086797480879
23.74148233564517
-20.54151626368832
-7.213640202538014
4.01367413057465
30.25951115939058
3.414642383766456
-8.73392461288606
-24.9402289302737
-35.13833917596752
24.90114828128182
18.43558120932103
-8.198390314601273
-16.17770603132999
24.54558200490915
-8.367433308601965
20.76962897236561
5.946728936680461
-19.51233404782522
1.167350516769029
-7.144716019104993
-4.778989030873804
10.75635453331007
14.72954862765646
3.196182445498726
-15.52268584048994
-2.403045232666435
26.10476630463198
-3.606987326096094
-29.07512444143175
6.577345462894539
-28.80581923068388
20.08220262612791
3.84314508970571
4.880471514832887
-3.228003726588452
-20.36406022063248
3.205317276554152
12.5172370192973
-8.37948456537943
9.745518177946854
-13.88327063186834
-12.19733203642499
12.15554742287226
1.546147445725257
-1.504362832178272
21.44803499082122
-4.274720950409062
-18.39258223242919
1.219268192015737
-0.5368801803454685
-2.603987772948591
-16.30920831845417
15.07811907257548
4.732771824862968
1.346692472564996
-21.15758337000457
-17.55008406224661
11.35403807657096
6.666992256996535
-0.4709462713205842
15.11565683925437
-21.10336697360831
-10.66507398733161
16.65278412167578
29.363767560101
-8.923706312377766
1.362398617454811
-21.80245986521322
-22.11802210972625
-15.08592243476014
10.77546791450104
26.42847662997438
20.24991516695274
-5.433211638181588
0.2614155438037213
7.584235485506892
16.42745858484234
-30.27858789373942
5.929137870981759
13.87205135565429
10.47739866710224
-11.13729282338105
26.50818310696268
-0.481625152679482
-14.88926513093041
12.58845261886482
0.7459723622481684
-17.77551189997263
4.441086918935564
30.7386503026026
-7.233297060236251
-21.05666017350491
-2.448693068861835
12.68548858845839
8.437136964004431
-0.5637376056265072
-20.55888794683576
-2.95908429731429
-1.179072971884212
-17.05997925517131
0.8209975639637864
-5.156142543500812
-1.435585820978109
5.770730800636775
-1.278818960197129
-22.13101478534243
22.88961500589877
0.5202187396333025
-21.64349290891307
-3.428781797057003
3.683075135028181
21.389199570941
0.4833790180956677
-2.216493982881319
-17.4546901899898
-2.440495188217413
0.04937653324054444
0.03444283431615216
2.356675820759779
-15.5380395982062
12.04761340422735
-11.71736312212339
15.20778931610041
20.11302023040658
-18.43031245979646
22.66123544589116
-24.34394321651092
32.622761255645
-12.85457534805681
11.27077358641522
0.01034021317560636
17.56081086116952
-17.57089124402811
1.92072549594099
1.715783297851892
-1.801840972788734
-1.834667820949633
4.264534220403695
-3.53848845374174
26.01680158433998
-26.74284735100502
22.59414916929283
-23.3322216321057
-4.796186795584648
5.53425925839405
20.59692599360992
5.668963404833395
-7.041824328634511
-19.2240650698132
-14.01158373161345
9.120456808637545
14.10683202173155
-9.21570509875656
18.66989965962701
-10.99447857829254
15.0329145558106
-22.70833563714688
4.26309528677336
1.234564455100202
0.6609979659757732
6.539067639664841
4.676219122716101
6.190077317337529
-17.40536407971404
-2.211871153884326
-10.23546004448491
-6.633009626587119
-20.47035905184932
-15.2990003814037
50.14522261671238
0.0220625457219809
0.2781271756333743
0.3018795267527776
-0.6020692480776558
0.6261797369248305
-1.345998834463519
0.443687820726719
0.2761312768292686
22.52499922851652
-28.6403331657795
-8.852586257546045
14.96792019480322
6.680167191481966
-4.876802535646581
2.517561907065021
-4.32092656293184
12.74528432948222
4.637075874422337
6.547659494757779
-23.93001969865413
15.01674145470163
15.67575196572337
-15.76334230285905
-12.94641916979462
12.2660144812204
12.79910427302065
-12.11869958444663
-22.89760265855386
10.66859621068362
12.22967646114977
-21.95737182221502
10.01592965624583
-1.004977003824571
-8.968921641390752
-2.582705536858379
23.81764165946111
-23.66030980580778
-0.4294365811664003
-0.5724895654698883
24.66223595241712
24.44120339131848
-5.403958294429986
6.992165604632389
-26.02941070152364
5.881530531135797
15.2547112355745
-21.29548512477782
0.1592433580657762
-11.28512772637088
13.18947966759642
-19.94717494724311
18.04282300601594
15.72593192404119
29.4410872812381
-46.36858364521816
1.20156443993735
20.45525976577923
19.4742027189877
-32.60748467757912
-16.73127534262137
-0.3308227151307543
21.32663227815393
-11.16373905068047
-21.08048627746335
25.65164254298488
6.592582785149532
19.94597190710131
-1.336826530736056
-18.60885397430126
15.76073645377821
-0.6525424415018726
1.609001557750909
-16.7171955699854
-6.115735526894974
32.35191863053999
-22.51892361762304
26.46074554342784
-15.57412342383656
4.614006790638014
-15.50062891023493
30.09316925555751
10.77180217713706
-38.79663386271329
-2.068337570017261
6.040367506554857
9.473225824270351
8.44665378102145
-23.96024711184817
22.61795012829318
-20.83772154090134
-1.779950402087227
14.83798178588616
8.904873059479756
-10.35206102930633
-13.39079381607325
20.44244898376827
1.92147079847242
-22.315148783382
-0.04877099885733818
-0.03365315816751321
0.0484297698389401
0.1594902618154193
-0.1742668734773542
-15.84461786976081
10.3171912978498
5.528191512360443
26.73371046106617
-10.61419365470533
-2.099265255577207
-14.02025155078429
-9.616442766399881
-9.916819086104164
19.53477167407566
1.599933271213092
12.21481054547621
-16.92516153450674
3.110417717808949
-23.34140738326015
19.71346534034193
-14.8656364522503
18.49357849513033
-0.2539998534723386
-31.54345610789655
7.776825618988493
24.02063034237098
-16.26251533313643
-12.82887731266776
-8.14427057678555
37.23566322259231
-9.154226654308202
-32.40458207057078
10.62902211683725
30.92978660803993
-2.931566859396062
19.60476148769088
-17.64426038057119
0.9710657522769959
11.99953808560952
-13.86028175712226
12.40210449512345
-10.54136082361157
19.60573330261014
0.1965711642241011
-19.80218283280726
6.021649637883134
-6.239153813589964
-4.634424348556647
4.85192852426293
-4.085772759461907
-19.45806434285426
4.536396815814116
-8.498307786854195
10.46497816043844
17.41705640278716
-19.383726776369
-1.727871029917818
19.57546523080146
-28.32197360248826
10.4743794016043
0.06194248290099943
0.8535543168902636
-0.2893170628483304
8.102701550978896
-7.713010271161046
-12.21308818679183
11.82339690697384
17.82622658938856
-5.818178032837178
16.94719475965518
-28.95524331620605
-1.653900558974759
14.42235316832707
6.663541110845069
-19.43199372020021
-0.01332518450773471
-0.1576517528274028
-17.68772341266165
30.39438983716207
-8.797804045379207
-21.79056164851133
12.20059962610872
18.38776606777479
-26.86799576889857
-2.857118055233319
12.99383848150921
5.700094014407138
5.807465611878357
-20.47144341567968
8.963883789393472
-24.19886304908466
-12.81142630263818
10.14229358282248
0.09714992840240787
-0.07153653073996452
0.1074192483488328
-0.01026931994434199
-0.06481900699777618
-0.2225727407980835
0.1233678692024113
0.1640238786119564
-7.160322022431898
6.51726053229977
-0.0930131777268786
0.7360746679109514
-0.03367885639754678
0.1946180891065036
-0.1002468100957483
-0.01564941314397229
0.0737403919521205
-21.61356441777787
-16.43212944008097
42.17735085534809
-4.131656997489999
0.1475369217142183
-0.1075778690197171
-0.0282212985493156
0.09984422741493834
-11.43775406646195
15.46317756365949
13.41589433185705
-17.44131782905666
10.0786137087524
-10.30998918892132
11.79688364279011
-11.56550816262169
0.9114278800672705
-3.804432857085612
0.008401848990347009
-0.09125511017858637
25.00088832835493
-22.57671597709706
-6.239563636853677
3.815391285593948
15.58746075754358
-13.19955229231925
-5.665088151222625
3.277179686104933
9.623876026128995
15.54128634359648
-40.70320196793295
-0.13926310497156
0.02156133888406197
-0.02668808257401682
-0.09590742904477026
-5.571993735832835
0.9238613164036213
-15.58025264525842
4.555595062033757
-16.80266070272239
12.70618410433311
-0.4591184636367387
-8.671675510403793
1.511869374381303
-10.37932712043319
17.53913325645562
-8.240964086561785
-12.75740476778806
-16.46132321466898
37.45969206901575
3.561387264569302
-6.683912577395858
16.46494431733293
-13.34241900447088
-22.57716761186527
29.80818840344583
-7.230798853272663
-11.14440610581791
14.21227211896161
31.40608838349291
-34.47395439665441
24.11931840555003
-17.51182892939373
-9.777821211469242
3.170331735306152
0.0004025826808099426
-0.09472892576206356
-11.97924968256415
-5.302518824464977
-5.175443328190445
-14.20486546519956
24.20055761993054
-17.38879429676338
7.393102142043078
-0.03831165512073613
-0.04370063885655619
-0.06499973769337086
-6.055106883122971
-0.07754762851843854
5.399576493851137
0.7330780177987464
0.008014706724080528
-0.02435656164157474
0.136746213800349
8.472159683257487
-12.84632492190642
7.848372982358453
-3.474207743700293
-1.041594337436812
-14.68849968873564
-3.667016141247772
10.6695418883067
-4.293055298372183
-13.60984843027696
7.23336184038408
2.647288375486311
-2.702813278166985
20.81490054762439
-20.75937564494656
0.05040753276949558
1.116944114331419
25.55160895679158
-22.14164404150968
-4.526909029652564
-24.54585568350566
6.481374779954659
0.2279538536454242
17.83652704990374
0.7120074060805017
24.01762177335911
-24.72847384329361
0.1157595890985434
0.1623276400917923
-8.414475433416648
11.52918595517843
20.22843850083249
-0.6562525270875822
13.27077444870013
-24.56901037643564
11.95448845482049
10.32660787209628
-0.7395062608392374
-2.047076795724009
-7.540024815534212
-20.45776650517384
7.656982087257744
4.302476631064455
-2.735170869224397
-0.9989839169959679
20.9910223673907
-17.25686758117855
11.80176619145713
6.33386126768353
-18.13507432842875
-0.4681054652180024
0.007535963900247893
0.5125687807565963
-0.05199927942164653
15.22701804252982
-9.33436052863188
9.67020242091645
0.9746819212716423
0.1418805112040245
-0.004223285121361745
-1.112339147246221
1.223614810249318
27.40440550396265
0.7357472458480627
4.156431361597868
-1.260638820208636
9.409395860437055
-12.30518840183994
-3.89813787738408
-9.027786727833355
-0.4186222116169588
0.8913979251547182
5.198556211334378
14.2129852929173
-20.30293942941165
-0.4314625264428541
1.450721145885901
0.9410011458597727
-1.960259765244729
17.57479451135988
4.741313463750764
7.587390905427938
15.53419182269285
-19.73299932592605
-3.388583402194147
-3.690233417836418
-0.3703229076966488
3.309850296587177
0.7507060289489449
-1.378891308118768
-15.05998583096388
16.43915549278899
1.127541400177519
-11.13766344279162
-7.18446381450393
-0.5871224399559561
-7.860650253627775
12.50565622213449
-4.057883528557959
14.48095990151816
-9.864458982264834
-5.203623359214709
4.981896274375335
0.190497602740582
-7.48432970202763
2.311935824921183
-0.06530038475306064
-0.00866712034839786
0.03030388959228506
0.04366361551307132
-15.88211602147807
-3.027527762508758
18.17639364465004
0.7332501393339265
21.1745094507958
-22.2420806684937
2.31984583639537
-1.252274618701249
10.95455331312467
-6.638621073448352
10.16502766184205
-0.4724800204240028
0.3757515583315373
0.09462849512036473
0.002099967013060027
24.16365720863475
-5.666432907861813
-0.9869741146550002
-17.51025018612361
5.017690368197391
19.15078404042535
-1.000392462295041
-23.16808194635717
21.93037305017748
-12.22563638386177
-0.9451531357916606
-8.759583530529415
1.249736138093546
-0.1993788880212394
-0.9771359263451971
-0.07322132370584115
20.95731243297813
-13.36005275407966
4.156960136196628
-11.7542198151017
22.85196267966509
4.231742190901866
-9.350040329466648
-17.73366454110277
-16.93028194853622
-15.48352163254258
30.71045990634049
1.703343674747409
0.3279594247414383
-1.01131442757596
0.548867260977339
0.1344877418844674
13.69376382714185
31.42720581446732
21.79504977129011
-3.365918114078729
-12.99648925526697
-5.432642401951043
0.369501519225253
16.54159373612304
-18.4123321718318
1.501236916461549
-31.34150195605876
15.48458075060202
8.202002062897353
7.654919142540855
-20.23105357861663
-25.09538464112714
25.91364258403183
19.41279563571223
-2.355330127626006
-8.117771938875906
19.4548360688518
-8.981734002350649
25.16633606041729
-12.38630504969029
-15.13536113835712
17.5355081883146
-0.579317131644998
8.210145003742381
-2.616762992240293
6.624414032646663
13.52785714790062
30.49349895964032
-39.18568351157037
-14.36496531068049
-26.31982853614378
-7.582921776964436
29.69265806127987
4.210092251823742
-13.49581920177055
16.6409617526508
21.47589607821446
-24.62103862911853
29.01148795811936
-34.68166149250571
20.2770541629192
-14.60688062855346
-18.54669297082336
-8.350855250845591
22.99068426982918
3.906863951770125
11.48186700948009
-29.62816064593861
4.650474434636591
6.447747227041879
-10.84910415503574
6.994930556315757
-2.593573628215264
32.95231970532846
9.609407095360035
-1.659431968601629
36.351729608051
-13.24290590008683
-21.44939173937199
23.2102040649652
-11.89647176256822
-11.31303680651799
-16.37646932610906
19.11462645377704
-3.057934338019582
-16.05652501177578
-1.062048131556024
0.5603610324326382
-0.261770085453547
0.7634571845645111
-10.94944083097475
-18.67451064368376
6.139870388636045
23.48408108603832
0.1595436783392218
-0.1755646353740339
26.07408931457053
-8.892148459071256
-3.896238613502803
-13.28570224199008
12.45571981084881
9.719374766531319
-10.69198836585793
-11.28760054004169
15.80852277806057
-21.38239242244254
16.86147018438367
5.428736308126633
2.844787001931022
19.02458304964111
-27.29810635970762
0.2921923917957363
-0.4056407747728493
0.3162301506833248
-0.202781767674158
22.19033390837454
8.883282247489769
-25.64487984776844
22.40821335189011
-18.15917471735027
12.00781779726427
-16.25685643180737
32.31940345551233
1.083012427107678
-9.532326501361471
-23.87008938124958
2.437565299899542
-27.779158792359
26.51046125887801
-1.168867766434257
-12.24313863900013
24.39848376062401
-18.87937188458881
6.724026762968204
-17.18095464460109
11.93049484189025
-4.822208963667932
12.7023770083047
-30.6375077174613
22.49969326847161
-4.564562559311664
4.409712715145989
-5.172527713989479
-21.19445900186638
-32.78450393289994
26.64990891624663
-3.608298955247508
9.742893971897111
-4.559677317415994
-22.27190139063041
13.57376202155028
13.25781668649517
14.21341951866134
-11.92273136211418
-5.805967171184665
3.515279014636898
-0.2904002206985878
-0.7217833159949919
0.56740184301882
-23.79985043510558
26.12219068046378
-35.10684417826368
21.70857807787879
-2.199405770687261
7.14073660905193
-2.900218009018357
27.99441047140847
-2.615502234499567
-22.47869022789525
-21.95742553257629
24.56280269880835
5.384663013028791
-7.990040179267341
17.11105787197341
22.30019513655034
-28.95659519687901
-10.4546578116384
32.32791963412417
-30.13576983986249
3.544777537249031
-5.736927331501391
24.29162805362586
-14.48961859558363
-13.9939776330905
4.191968175044074
-34.38807615633107
12.18832699842551
32.90624838542335
-10.70649922752875
-24.23282401968094
12.35058636546984
-22.50583850212805
26.85739213647751
-13.15635891024241
0.3062980909899729
20.15357988832292
1.58620208129218
-22.04608006060394
-5.882741277620192
-19.77902637470411
24.83714790840597