/*--------------------------------*- C++ -*----------------------------------*\
| =========                 |                                                 |
| \\      /  F ield         | OpenFOAM: The Open Source CFD Toolbox           |
|  \\    /   O peration     | Version:  v1906                                 |
|   \\  /    A nd           | Web:      www.OpenFOAM.com                      |
|    \\/     M anipulation  |                                                 |
\*---------------------------------------------------------------------------*/
FoamFile
{
    version     2.0;
    format      ascii;
    class       volVectorField;
    location    "0.4";
    object      U;
}
// * * * * * * * * * * * * * * * * * * * * * * * * * * * * * * * * * * * * * //

dimensions      [0 1 -1 0 0 0 0];


internalField   nonuniform List<vector> 
19632
(
(5.013308384210649 0.006515240434629932 -0.007706170134787286)
(5.000023329553546 -0.001873765270147374 -5.078075170134723e-05)
(5.000258241488369 -0.0003495578047994655 -0.0001778552933160407)
(5.114144248940146 -0.05581249514324801 -0.06001692691893181)
(5.000291911701193 -0.0003373349167451168 -0.002620395951884758)
(5.000351719467613 -0.0002475115781236823 -0.0002329729842197793)
(5.00084078720239 -0.001499092339614741 0.001014607274878848)
(5.000134000178861 1.404547751633381e-05 -2.940081752261009e-06)
(5.000074045200376 -0.0002907470500028339 0.003611111308763395)
(5.074617171338247 -0.03018933738759702 0.04568951046128313)
(5.023286204762376 0.03954365536174281 0.04409632484302842)
(5.00064739940498 -0.000182184919360356 -5.782515728938712e-05)
(5.000105066185086 -0.0004451682901204679 0.0002102707549298597)
(5.000638310825961 -0.0006354611746185778 0.0003578936321108696)
(5.006841042556479 -0.01046435351422667 0.01482634452851454)
(4.998108024840245 -0.0001476018240592639 -0.0001483072014550156)
(5.000096307152671 -0.000557052919121476 0.0003864654800804242)
(5.000119538217262 -0.0006146511601915567 -0.01016774092938827)
(5.000084531787406 -7.587287258698221e-05 8.834495148493405e-05)
(5.000107766412606 -0.001143948251569463 4.161694965941608e-05)
(5.014673705398792 -0.00686844377543094 0.001366603454141118)
(5.246232620795857 0.351484405804989 -0.09412045060171172)
(5.008837155508679 -0.001671667626533762 -0.001150407670485921)
(5.00010363702262 -7.174669386232437e-05 1.349956161998036e-05)
(5.000016847534926 -0.0004879219015367243 2.495706811939887e-05)
(5.000061965020058 -5.345049478710828e-05 8.773365880090621e-05)
(5.000118641705487 -0.0003021523691878748 -3.093470460020731e-05)
(5.068869899286215 -0.2219197884002428 0.03039794972066701)
(4.996433092478529 -0.001155281061432753 -0.0001660037141168285)
(5.000079246076779 -0.0005214005031541045 2.471869108811697e-05)
(4.999963223882411 -0.0001238620208294676 -8.266933451450478e-05)
(4.999251013404556 -0.002238405115966098 -0.001685765068298595)
(5.058527857500459 -0.02883619751496689 -0.03970596293415913)
(5.382164663868521 0.1279444202386166 -0.1143695387924653)
(5.001047964105379 -0.0006702907640191588 -0.0009959843178876753)
(5.000086912111655 -0.0003307611363915425 9.080334485506198e-05)
(5.000008743035765 0.0002959589035515405 6.491152926509479e-05)
(5.000092254215891 -5.477318405262663e-05 -4.882043844893824e-05)
(5.000002424885238 -0.0001685569651534916 -3.876003015930486e-05)
(5.011030548740324 -0.007248798985401646 0.001352605413571052)
(5.000035200354512 -0.0001064994874720609 9.789935761354937e-05)
(5.000333603434806 -0.001660373710608995 0.001596612575610642)
(5.000019721255391 -0.0001179199257577867 1.100599811681941e-05)
(4.974053594139888 -0.00836474766357883 -0.001409464496002523)
(4.999904639243186 -0.000145164036452245 -1.868411366147682e-05)
(5.000130927383963 -3.463056450134873e-05 -1.825677540585612e-05)
(5.000127446634961 -0.0001198728765420973 -3.139331575763333e-05)
(5.000190315760936 -0.0001777789823089957 -2.82435473420014e-05)
(4.999865752203055 -0.0004120833448278821 0.0002564653771545435)
(5.000718229009298 -0.001605175507147518 0.0008774486565697291)
(4.999978125524534 -0.0005592793630644778 -8.855652292615695e-05)
(5.000221818894475 -0.002888580192725307 0.0002585739640397019)
(4.999931087444359 -0.000116275221924093 4.133969518953194e-05)
(5.001141402117041 -0.0001614309295697845 -0.0003951444516342791)
(4.999909312586667 -0.000555835705364679 -9.275032689779921e-05)
(4.999887561690403 -0.003185540230269699 -4.752330737678731e-05)
(5.000538898136757 -0.001414123681019641 -0.002194120011663369)
(5.000161527168257 -0.002051491695498007 4.894562004694628e-05)
(4.999970587822888 -0.0002147830989520777 7.417628497967277e-05)
(5.094541468652358 -0.04125310435044972 0.06651127072000677)
(5.000094025356239 -0.001517535006026201 -5.791056611293044e-06)
(5.000006257119646 -0.0001710353006288632 8.185954886143706e-05)
(5.146705494599155 0.1483003932457827 0.1684780829932576)
(4.754107135389638 -0.1605200641778601 -0.4447661525773932)
(5.000252659407039 -0.0001017970376477658 -6.344142679517434e-06)
(5.302342568961718 -0.1863147318471375 -0.2808234606428275)
(5.314900388183739 0.04443180537219229 -0.07027462126659309)
(5.000166186670985 -0.0007693722726253046 9.234988878636412e-06)
(5.00032897864158 -0.0004404981613458801 -0.0001722102084655468)
(5.000427657048445 -0.001873403117654252 0.001290981923073283)
(5.009691691442908 -0.003949407868955749 -0.0003498142016693251)
(5.000170165740451 -0.0003159120650659348 2.38015545426202e-05)
(5.000068335042949 -2.67859848540777e-05 -2.994059155663146e-05)
(5.000138878431146 -0.000383647203145912 -0.0001112605156741256)
(5.000085856682469 -0.0001120566825435445 -5.056059057138842e-05)
(4.999978435336773 -0.0001489603807231892 6.399220818245067e-05)
(5.000109363090674 -7.033983193916343e-05 -7.123353587935927e-05)
(4.920814361434665 0.001067261144475626 -0.0005054739040302092)
(5.001710293742784 -0.002947102260882635 -0.002832146144243642)
(5.021490461834486 -0.01146881195600558 0.003108875733460959)
(4.983988892509008 -0.0007160436670102156 0.00407434372538224)
(5.023992878038525 0.3258882130166892 0.3609688132274221)
(5.00088457928797 -0.0002296709311854738 -3.231129122065164e-05)
(5.000095308244482 -0.000388089270169931 0.0001696575763205535)
(4.999947467055811 -1.887701209067093e-05 6.228888735380893e-05)
(5.000041130777982 -0.0009138111778578139 -0.0004916234526273015)
(5.000080936698482 -7.712172292646256e-05 5.522792501997864e-05)
(5.000108564130347 -0.0002742317166157694 -6.305369473157138e-05)
(5.000866911204723 -0.0008843489231287755 -0.0008715383355183764)
(5.001158113866337 -0.0003923831558535488 0.0009439201195883141)
(5.022250421786297 0.01321948740556557 -0.03882169841728401)
(4.999980596139782 -0.002154043379352212 6.235888715678582e-05)
(4.998996095460248 -0.002021184576014005 -0.0002707404982737862)
(5.016183451203518 0.0007312342665121904 0.01019841199119442)
(5.000114821522497 -0.001594585470438229 -7.129619784139334e-05)
(5.002332551278425 -0.0005057960322318255 -0.001373506031521882)
(5.000211440269032 -0.0002019260570024455 -8.830477552069813e-05)
(5.000347546829144 -0.0003101847917736582 9.378601981547814e-05)
(5.000093345751066 0.0001007711606053233 -5.278366272176805e-05)
(5.000070375739631 -0.001827050129784561 2.418410829104392e-05)
(4.393354231086388 0.4143030795947054 0.5043981227108807)
(4.999952296117002 -0.0001012815135435798 0.0001292908395092212)
(5.007602278662792 -0.005589378560322066 -0.003123978166041392)
(5.000050141425593 -6.553371103765422e-05 -6.092143495153968e-05)
(5.037294409608987 0.06717553725995845 0.2162148413488476)
(5.06384150571813 -0.03782707275746344 0.01124247511907811)
(4.880908666711903 -0.03303018664647667 0.05478299410566176)
(5.01565963215285 -0.02896895205959169 -0.002933255842205224)
(5.000074907258319 -0.0001540331126640217 -2.575091108341489e-05)
(5.000155388082358 -0.002133419021372193 -1.171175965496129e-05)
(5.011053655110849 0.1395014676382471 0.4319932098333856)
(4.999817752660142 8.554223949404588e-05 6.69723888571288e-05)
(5.001152960976781 -0.0005428249501884861 -0.000511826155336858)
(5.243415110442538 0.04363996794738541 0.1796444427031708)
(5.000033534275555 -0.001528922812152967 1.058937884757791e-05)
(5.037951449625263 -0.04022582953242108 0.0003914330129343219)
(5.324508889617654 -0.1194246079586518 -0.6583954299515616)
(5.086645348434948 0.1123118524793629 -0.002429299516791696)
(4.999885398631739 -0.001212941749590886 0.0002072091108624636)
(5.000094197456246 -6.260486128502015e-05 -4.704397621269405e-05)
(5.000003338122843 -0.001595097583137169 3.830463900471408e-05)
(5.002119930830488 -0.0008230255167427853 0.0001876717660607671)
(5.000044099297263 -0.0004514881256929301 0.0002573465883672036)
(5.000151993664229 -0.0002691370551735557 -2.891080555833161e-05)
(5.262711202254615 -0.168687492562926 0.04385518597946515)
(4.990571952545546 -0.03120556877687474 -0.02832542530771673)
(5.00000991586231 -8.557304264538976e-05 6.685051716472475e-05)
(5.00409104756567 -0.001260542869795739 0.0005508699075151699)
(5.000239919324025 -0.0004499704386284958 -9.871381793810664e-05)
(5.00009274595846 1.208611064804543e-06 7.783700703792137e-05)
(5.000008675176037 -0.000437267546326674 0.0001354758844741392)
(4.99995874528644 -0.0002161956053849655 0.0001108104772686889)
(5.022232339670055 -0.02341144682314531 0.006577261404969999)
(5.000159694112241 -7.446579093987372e-05 -1.306065248334589e-05)
(5.001669388571396 -0.000637780196459566 0.0003716359698488819)
(5.012098665919537 -0.006651578242524922 0.003448830103750149)
(5.00344950790555 -0.002278888609651917 -0.001846192049398808)
(5.00104525132587 2.867599911979581e-05 -0.000415767953795895)
(5.000007690019178 -0.0002050984491282351 0.0001535313875174283)
(5.000971424908051 -0.004661054232939862 -0.002874251908973604)
(4.531990825323073 0.1088215476765556 0.4994812675310472)
(4.961922325514655 0.862741407530954 -0.6445386355410333)
(5.315702302169915 0.5904219984657003 -0.0996857996967119)
(4.499214628851183 0.3390003543802155 0.1455586213541933)
(3.057557112364695 -0.7386153839315078 -0.7494606686861286)
(5.000146335993404 -7.769533007219089e-05 2.843166597216671e-05)
(4.998013099574982 -0.0002963721930792684 -0.0001358761999465706)
(5.001907940217034 -0.001105749866114242 -0.0001920260149443639)
(5.010784443124084 0.001820726947952834 -0.000125034258500535)
(5.000047974290863 -8.277516025130367e-05 6.154896266380462e-05)
(5.000925877191585 -0.0007673966380421415 0.0006324404932470634)
(5.000785206121553 -0.0009460772216564548 0.0006790929991743095)
(5.000802255999335 -0.0008882229048560262 0.0007156106810163635)
(5.000080418874606 -0.0003704524180167756 3.685592594355441e-06)
(4.985820546857692 -0.001289751734494829 0.000459827257464469)
(5.001034737292569 -0.0004582988715693664 0.0007451241018950958)
(5.000171807604737 -0.000103015424790047 -6.621272313374198e-05)
(5.000061790409267 -0.001324239257207705 -4.272077193755603e-05)
(5.000651358110535 -0.002408412833686836 0.0004335694272038556)
(5.219646291712695 0.1120431451066651 -0.3959284768092947)
(5.204574551100276 0.1843041625075353 0.4683395489651516)
(5.157685706735097 0.164947192765766 0.1352512961938284)
(4.644398139728889 0.2079027944095372 0.8117632052511268)
(5.247092045537057 0.255392225201143 0.009078590547280885)
(5.000653993398707 -0.000467878410286769 0.001122036392861965)
(5.000031050526154 -0.0001476071263718685 0.0003400778447625826)
(4.999950929670791 -0.0002141865719249153 -4.15890186244488e-05)
(5.001032925440803 -0.0001507822270785601 0.001069904780182022)
(5.174575720042486 0.3005093669093135 -0.04637598193930166)
(5.001178002558409 -0.0001930440012668658 -0.0005035400419445597)
(4.999957880575359 -0.0001264049512675488 -0.0004695993915912518)
(5.007088357445052 -0.003237459858538142 0.0006541734870288628)
(5.000018580974747 -7.017760713048292e-05 -1.860656271545106e-05)
(4.999999302370198 -0.0003627741245473891 2.245693325081438e-05)
(4.999868932569751 -0.0002915365648727394 -0.0001124719180853171)
(4.990974622427323 -0.001384985755904868 0.0003390482554398146)
(5.000300484758884 -7.868760539871118e-05 -7.434369431052642e-06)
(5.008899125885796 -0.004705783319718234 -0.001439330081937783)
(5.000251175539653 -0.0001007166303297071 1.87997680247218e-05)
(5.000195591310407 -0.0001171392569453149 9.584882673940494e-05)
(5.000074096283313 -6.333037693161359e-05 4.953963965181332e-05)
(5.000249213382173 -6.930160214103497e-05 2.998928602412604e-05)
(5.000212446659125 -0.0001019852474736377 -1.900555974767895e-05)
(5.000028454647254 -3.057994475889096e-05 -0.001064216262749811)
(5.000107477537044 -0.001382429300646036 -2.720619381445099e-05)
(5.000076018589766 -0.0001525689259045466 -9.090704508227099e-05)
(4.996871805346005 -0.0005088419243440618 -1.33506771164581e-05)
(5.00008743290232 -9.436185803776656e-05 0.0001129964546279384)
(4.999959270192575 -0.0001837826294518964 4.299100153378408e-05)
(5.000310210084111 -5.728761418819244e-05 3.274230730450266e-05)
(4.999959542277445 -0.0001922931785364138 -0.0001074801854832274)
(5.013888745369692 -0.003914649742867367 0.001943676345533643)
(5.015380524177502 -0.02098676268691099 0.008969495373273429)
(5.000439835740323 -0.0004234163129643447 0.0129984873655183)
(5.000112386446894 -1.608709189240639e-05 2.431069577096232e-05)
(5.000296163597628 -0.0002414401496318105 -2.258778572986555e-05)
(5.005433154414331 -0.0003675930737141278 -0.0002472878352771977)
(5.000929848514134 -0.2811836300959519 0.215219755865187)
(5.000534405207471 -0.0006403062374609263 0.0004120397494810432)
(5.000562265852695 -0.0005499407483259204 -0.002118284608701526)
(5.000126473606794 -0.002094647596491558 6.07550647640652e-05)
(5.008709044035335 -0.007003805486669572 0.001017469054631076)
(5.000022550854333 -9.657503744323334e-05 -2.253172410425552e-05)
(5.00041136670475 -0.0004333716537891888 3.934260063463027e-05)
(4.999987753087699 -0.0003053898345612006 0.0001232855128076005)
(5.000600312230319 -0.0008796358935272167 0.0072430567479037)
(4.999992558211158 -0.0001472948767159916 0.0001231699309004041)
(5.000238789058652 -0.0007886345839181151 -8.398153075459512e-06)
(4.999971589452419 -9.804997243842733e-05 -7.196322413549338e-05)
(5.000204327554758 -0.0002305981496484345 7.545006664645754e-05)
(4.997817919258207 -0.003566577248773547 -0.0004290244049144994)
(5.000240449256935 -9.680106714245233e-05 -6.664202600649757e-06)
(5.000059740190718 -0.0001649532306731286 -7.60665376407564e-05)
(5.001313904462161 -0.0003407976471059838 -0.0007522085612827891)
(5.000227312882568 -0.000125383129886806 0.002608573587658484)
(4.999868408973937 -0.0001046687276425385 0.0002916162475824612)
(5.001928829640434 -0.001851790335787619 -0.001422969528456966)
(4.999964973619874 0.0002043437185044608 -6.124624204617446e-05)
(4.999921367937818 -9.825313207750689e-05 -4.631429258405478e-05)
(5.000013293686552 -0.001223577953562716 -0.0002647579997474093)
(4.997525237869767 4.227953089121165e-05 -0.0002330478172532258)
(5.000209222537005 2.397242735357328e-05 0.0001118851452172538)
(5.000088343607374 -0.0002310940777367281 0.0001547888989521157)
(5.000097344934739 -5.302451792445605e-05 -4.509035540111824e-05)
(4.995444063164094 -0.0003610298886770662 -0.0003721951333263523)
(4.999906027393066 -2.533951805542763e-05 9.769177663667356e-05)
(5.000057520302278 -0.0005555712810873713 -0.0002742531334578484)
(4.999847682440345 -0.0005063247995373195 0.0003311405594256946)
(5.00099395403555 -0.001092323616997488 -0.0003125223355483975)
(5.000775524173497 -0.0003333956171990219 0.0001110337935440435)
(4.999984173726405 -0.0001801343135726303 4.380806515693945e-06)
(5.000947998381499 -0.0001782436161304799 -0.0001380033800615988)
(4.99994466051319 -0.0001182977116114447 -7.50308844268167e-05)
(5.000780020479429 -0.0001513032775721943 -2.540129360546146e-05)
(4.998812959558825 -0.003098649249802866 0.001414173470074297)
(4.999996142781657 -0.0001139910370905353 4.439262807039909e-05)
(5.000070038451097 -0.0002712460991848453 -1.972354140965141e-05)
(4.995899147697201 -0.0005458685908227856 0.0003240752672724987)
(5.009347983125885 -0.002216773913738982 0.0004566803549036322)
(5.000090073710554 -0.0002484018163676045 -6.879752130341996e-05)
(4.999957930851516 -4.391714865144789e-05 7.656540925055542e-05)
(4.980572509708095 -0.003986624553126983 -0.0007178834884015875)
(5.010712322978135 -0.008029007860289074 -0.003933091447848187)
(5.000078367206738 -0.0001708171202838453 -6.085928081387076e-05)
(5.00033040253852 -0.0003630118286394613 1.540048530221767e-05)
(5.000094997436197 -0.0005369265844068772 -5.517515298092896e-05)
(5.000135959865698 -0.001606156519931973 -4.306764770724815e-07)
(5.013221428969959 -0.005387348154422141 0.001453711064285761)
(5.000109438817614 -6.111796035593442e-05 -1.401440205006169e-05)
(4.999948767855371 -0.0001755252180848002 -0.0001541431864544298)
(5.000200035154798 -0.0001048028408622872 -2.741113694063334e-05)
(5.000001359445243 -0.0002254861997812929 -3.386008640772063e-06)
(4.999942888475722 -0.0001426539763013095 4.980604613471348e-05)
(5.006456373075194 -0.004639454465135443 0.002985969834592154)
(4.999192983027841 -0.002494866630837268 -0.0001277275483555233)
(4.992521006330164 -0.001233390582004622 0.0007519600020162554)
(5.000087969759761 -9.789897918540953e-05 -2.814147554572819e-05)
(5.006271099227948 0.02165407385779228 0.01918360723038226)
(5.017698212260021 -0.01419921709793629 0.002830368725004099)
(4.999283506200305 -0.001570741056599234 -7.842249770076217e-05)
(4.995094317382702 -0.003982674683892611 -0.001900180635348675)
(5.000278330432034 -0.001913171049730147 -0.000976103662734565)
(5.000120601558262 -2.910905130371374e-05 -2.437464614678563e-05)
(5.000465417957993 -0.0003210146549395411 0.0001495795216733779)
(5.000043340147361 -0.0004570155378920764 0.008719791022285782)
(5.000426669051925 -0.0002908892009544252 9.123572656238788e-05)
(5.000497999677532 -0.000347663256789897 6.865089762449855e-05)
(5.000203834395634 -0.0007880457047248745 -0.0004734282931856393)
(5.000375812762025 -0.0003124802682650715 0.0001109396276176692)
(5.000079899009745 -8.688234643600984e-05 9.014018866562777e-06)
(5.000572690802552 -0.0002459538447769395 9.52441655812154e-05)
(5.00004685750203 -7.648527109591888e-05 -5.194153497102553e-05)
(4.999935322623948 -0.0001556177049061717 -0.0005623096431315745)
(5.000105695490747 -5.88895854003354e-05 -2.654781009629473e-05)
(5.000026358195468 -0.0004447931012518994 -0.0002753488935074394)
(4.999957745417531 -0.001164158333728565 -0.0002163860776663768)
(5.001951536304014 -0.002719857632165893 -0.001421426826877455)
(5.001152556011084 -0.0001024693655000447 -0.001015711531608191)
(5.0001445355721 -0.0001512561884401729 -6.827025331981935e-05)
(5.000189917936504 -0.001625147144852971 -0.0006197429045635581)
(5.000090724355398 1.139451337692378e-05 -3.891638268963755e-05)
(5.00072876951414 7.442764136306432e-06 -0.004249378567788605)
(5.000033223800093 -0.001245992180410644 0.0006823359610623781)
(5.000217732974556 -0.0005328567468936035 -4.677066094083556e-05)
(4.218984242043178 1.111023475122519 2.238171971703931)
(5.000478708600411 -0.0006652815896627081 -0.006764456829893167)
(5.00019861388119 -0.002228435556913209 -0.000717613766318624)
(5.000308423973395 -0.0008197677883084696 0.009732168366378234)
(5.000817901775086 -0.0006483273515206295 0.001127256370865192)
(4.999788603660205 -0.002231946749919406 0.0009764443467334686)
(5.0003768674272 -0.0002425945800383343 2.882020294844495e-06)
(5.000239188611804 -0.0005888564139777081 0.0004118166690944995)
(5.000046767533737 -0.0002397401378721703 4.814042330946066e-05)
(4.999936160027139 -0.0001713252421426242 7.19818307602034e-05)
(5.000136423061886 -9.758003331809325e-05 0.0002591711699328625)
(5.000102273488125 -4.930932443972603e-05 0.0007917760617670118)
(4.999986720483256 -0.0002053468636335195 0.0002145645420352914)
(4.987697094943557 -0.002321559243484317 0.0002454067530775855)
(4.99988806509588 -0.0003377945462884114 -2.734325472324572e-05)
(4.999903514030363 -0.0003259639813985558 0.0001016737299558736)
(5.017621347046419 -0.01821516673824962 0.002895883106118662)
(4.999960456265703 -0.000282217731720482 0.0001147088957989019)
(4.999938385958564 -0.0003383749216461145 0.0001630433042274811)
(5.000088777631309 -0.0001698555099430088 4.637669040877585e-05)
(5.128923134497548 0.2093062905727902 -0.2486254808035274)
(5.00061532085602 -0.001830350332230302 0.001371032196405154)
(5.000323427233651 -0.0002973069791468263 0.0001143202368368241)
(5.000118429509105 -5.762450860637691e-05 -3.830649744613853e-05)
(4.999954438595775 -0.0002210666259090826 -7.065655637097252e-05)
(5.000144546931537 -6.113190652416808e-05 -4.790969855696664e-05)
(4.543329958759514 -0.05065027014176101 -0.1289886207649394)
(4.362484694371555 0.1741564209962784 -0.08714820677099445)
(4.771886176547809 -0.07908319693518048 0.02802172638025831)
(4.998493306074258 -0.004157811189287001 -0.001876753041638793)
(5.139125191325323 0.3909467438069246 -0.1821356062916165)
(4.224568108809004 0.06060730208855712 -0.05225462552196328)
(4.180236285724926 0.1875585792629576 -0.2623274293232665)
(5.000120695009562 -6.407793035308063e-05 2.423069073965481e-05)
(5.23500899346569 0.01364766487051405 0.8179062563484686)
(5.0952400766392 -0.3412629068864674 0.5678747380673184)
(5.000090819390832 9.329088321614028e-06 7.198340267446777e-06)
(4.999964148718006 -0.0002493245484527466 0.0003934303877178378)
(4.947001986727583 -0.001162991346257608 -0.004919398747676212)
(3.188937363799211 2.019019179788757 -0.5752899377406004)
(5.000103796046339 -0.0002525670620477478 6.233237840729493e-05)
(5.000269797646125 -0.003937758504581899 -0.0002846331710889773)
(5.000067338771998 -0.0002125604959924816 -5.093107642502551e-05)
(4.86407707086304 0.5306684769959992 -0.3367133633766232)
(4.982683873534726 0.367234762335032 0.1527437601448806)
(4.994510714029258 -0.0007770809310381593 -8.915925805254642e-05)
(5.000741220699462 -0.0003128485586157899 -0.0001337469129203902)
(5.000042074605616 -0.000119504629176572 6.543371789440344e-06)
(4.999938530524857 -0.0001853715458682521 -6.504687616600361e-05)
(4.999072590253014 -0.002762859287414795 -0.002996759427782804)
(5.00007058358847 -0.0001456174064407159 -0.001489451240071397)
(5.000153556730118 -0.0007458702130034319 0.0008706277302547857)
(4.999900612409708 -0.0005430412110318739 0.0002409986847210153)
(5.247817011395016 0.0759376513369254 -0.3598191421807208)
(4.995584559744001 -0.0005359930948558527 -6.491160588194707e-05)
(4.142850566986897 0.6537037036858423 -0.1142732281703239)
(4.999929590935502 -0.0008988463601106457 0.0004857183846074041)
(3.112817304058855 0.5568778711222341 0.2147611977831692)
(4.280423624488773 0.1318844533167743 0.2936805754821081)
(5.003248005176754 -0.002079344199408809 -8.421156569019779e-05)
(4.532636509982507 0.02212673746250256 -0.2118080157274782)
(5.002651265000486 -0.001252716341896497 0.000517393782103158)
(4.982169438778687 -0.0009858142075227917 -0.002131147333729574)
(5.000558881181874 -0.00496105998846853 0.003550561168438118)
(5.005470410864056 -0.0005252939339475007 -0.001314354391654355)
(3.825646788619903 0.4305596592997391 0.179708184833346)
(4.999686134044974 -0.001373275459874162 -0.0002968692747348022)
(5.000014854789057 -0.000350993490804017 7.922510684354904e-05)
(5.000876593657431 -0.0006944035497682111 -0.006729137068741634)
(4.251617791381262 -0.5228407294164608 0.2171949022073481)
(4.99995033035041 -0.0006196900937300659 7.454881876695198e-06)
(5.000061039941601 -5.770300247102119e-05 1.98597271243264e-05)
(5.000091241987246 -0.0001492466281272289 6.524832139269018e-05)
(4.999923933038466 -0.0004040056744714682 -0.0001483297130284848)
(5.000528927409231 -0.0001301709965444381 4.679171062627529e-05)
(5.000128638511248 -0.00051210744534381 0.00273966720713872)
(5.0264817443323 0.03582824351665451 0.01338272780209592)
(5.000114376900179 -2.913160876796368e-05 3.78359864517333e-05)
(5.015527652623496 -0.01398576447189291 0.01208974740387696)
(5.000974328570424 -0.001111788262643947 -0.0002598667291268367)
(5.000348155424022 -0.0009887838118518091 0.0005738993360334568)
(4.977066687565257 -0.0006476318275715414 0.0007043028404235666)
(5.000157084105058 -0.0005647125665568832 0.0002206528124674723)
(5.01317804128468 -0.01187717647831871 0.004326950584632006)
(4.999979173014941 -9.579795051576707e-05 -5.315832897201832e-05)
(5.002754908617755 -0.002555427161548936 -0.0008436929348229887)
(5.00928525522258 -0.00671098876304279 0.003051675507565121)
(5.000096637377246 -0.0002003129189283086 0.002819035223799614)
(4.975145886195765 -0.001125450561557009 0.0009794969116305944)
(5.00030198789861 -0.0008676446287101131 0.0003174201301464876)
(5.000196218572962 -0.001064859355750092 0.0004156650760958399)
(5.0037407308341 -0.001662446498262932 -0.0003997418861195186)
(3.890270939184398 0.4112001467464702 -0.2138101708998284)
(5.000081162550068 -0.0001239143711900687 -3.860872550218994e-05)
(5.000113024899937 -0.0001192135616749704 -3.50477396494525e-05)
(5.00015081044499 -0.0009785888141951283 0.0004117445625311953)
(5.004502405142832 0.02483747214972292 -0.02321369488034783)
(5.000240157842636 -0.0002936458814125278 9.1861714675976e-05)
(5.000119463658423 -0.001167730029621408 -0.0004567350944971744)
(5.000102854375093 -0.0001137550616131634 5.172659489308149e-05)
(5.018164253003593 -0.00134855502956751 0.0007607354179087987)
(5.000222014140205 -0.0003155555047164198 -1.830215987487087e-05)
(5.000085599937267 -0.0001279660746507208 5.503974201225151e-05)
(5.000324466663487 -0.001000610812769475 0.0006037480700558106)
(5.029357297526334 -0.04665504683866068 -0.06646322193004739)
(5.000248801558643 -0.0003070229840754131 3.199503171231139e-05)
(5.000337290327962 -0.0002983549290134893 2.310931807896405e-05)
(4.999944366281982 -0.001026572492937179 -3.019120892709856e-05)
(5.000199837020877 -0.001271934818883363 0.0003342237873579852)
(4.999981922099884 -0.0002275690093356277 0.0001249249152882196)
(5.000123604509543 -0.0007075081638837179 0.0002605917374925809)
(5.000214047157865 -0.0007242803232347641 0.0001993011528016478)
(5.000187725285174 -0.0006876878450458205 0.0001761791350549145)
(5.000162465075479 -0.0008586633145161224 8.857379161408912e-05)
(5.000134097340069 -4.458666735458275e-05 -1.4952397182853e-05)
(4.999986031358651 -0.0003293224547932287 0.0001020307242859163)
(5.000265793664146 -0.000995173729672282 -0.0003620212195807823)
(5.000144002176979 -0.001013253357867303 -0.0001325622264911169)
(4.998972011383467 -0.0003135498842351631 0.0005424539173554942)
(5.000213282946256 -0.001039762050466442 -0.0005041920750034221)
(5.004116275961462 -0.00294364850262727 0.0009110035438468937)
(5.00152662528633 -5.083466691956799e-05 -5.060638083412894e-05)
(5.000248334944366 -0.0002322849473438921 8.899336067703321e-06)
(4.999955728539428 -0.0007103436635751404 -0.00492270800786623)
(4.934421845550028 -0.005660630120840979 0.00612927248235347)
(5.000165064201821 -4.172701203934656e-05 0.001423007738029618)
(5.021086588553528 0.003896032216467588 -0.01184496478776499)
(5.000186053477806 -0.0004704163703722776 -0.0001587503513042253)
(5.033724341453249 -0.04435146492491173 -0.01062774755560584)
(5.000300367603966 -0.0005514876533537766 -6.775251976257282e-05)
(4.999651698945896 -0.001137245860372608 0.0008966705194310484)
(4.999866922751229 -0.001146946345237021 -8.20664069683984e-05)
(4.999911801898151 -0.001246855131875548 -0.0002178501726547567)
(4.990456437185121 0.04077389202941498 -0.02693540712330204)
(4.999943089750438 -0.001149113894548396 -0.0001133789163992279)
(5.000268920792403 -0.0005666268271053523 0.0008017066509547609)
(5.000055743076958 -0.001145985490518609 -0.0001967629920218496)
(5.000179307095793 -0.0004885198617793787 0.0003270923148556945)
(5.00015402557471 -0.0001227726841311045 -9.193206704046307e-05)
(4.999409592869402 -0.002018286461767863 -0.0003915810089730387)
(4.999992939148984 -0.000427332983101653 0.0001704801704113335)
(4.999987760282778 -8.406610282861099e-05 1.521594102426181e-05)
(5.000044056092957 -0.0003016196146278523 8.693701716827605e-05)
(5.000001251024827 -0.0002515967333248793 5.851811385331824e-05)
(4.999705469096394 2.143803210125057e-05 6.85132961525792e-06)
(5.040268687461182 -0.05262198615887364 0.009088157370796799)
(5.00011282261 -0.000269951755978758 3.778729008829434e-05)
(5.000072107557154 -0.0002857968260544724 0.0001327962643155472)
(5.000035900205428 -0.0003756630845724973 0.0002096721271226606)
(5.00004682888393 -0.0003119398880185968 0.0001078548878139546)
(5.00018594887954 -0.0003020339175392506 -2.346183241062802e-08)
(5.000212260052018 -0.0003211620184575584 -4.575410325978325e-06)
(5.000016085150576 -0.0003297434263559554 2.463486794712977e-05)
(5.000089546997857 -0.0003880822081027667 0.0001697036729811455)
(5.000180773546126 -0.0004245670099086981 0.0003293281051082932)
(5.000106432622571 -0.000473206059897976 0.0001215209358764502)
(5.00019268778616 -0.0006083122921353962 -0.0001753223284594843)
(5.000345265074082 0.0003059607495154907 -0.004234660075601599)
(5.000284868228027 -0.0007984309119737094 0.0002395654761718579)
(5.000051114494802 -0.0005576250038237495 0.001075231225464021)
(5.000281157033933 -0.000539200338525734 -1.880664937448865e-06)
(5.00034967484346 -0.0007600941649551475 0.0004790645209849162)
(5.000052204507463 -4.708433020197084e-05 3.491073929122315e-05)
(5.000215567390272 -0.0007331493731008982 0.0004232764122084634)
(5.00030494854325 -0.0005386761929658585 0.0001936624050369544)
(5.000324744207973 -0.0004255153893435313 0.0003270910691161359)
(5.00034722706946 -0.0007539676580510552 0.0004756862531020801)
(5.000050629905203 -0.000569102864723369 0.0003686030016335613)
(5.000234635760831 -0.0002353984717185617 -6.808832453975147e-05)
(5.000130720924548 -0.0005866096723145944 0.0002774205046646567)
(5.000339992321836 -0.0003090799203463147 0.0002846585779697957)
(5.000968400847608 -0.002162016208510203 -0.0002458763641327133)