/*--------------------------------*- C++ -*----------------------------------*\
| =========                 |                                                 |
| \\      /  F ield         | OpenFOAM: The Open Source CFD Toolbox           |
|  \\    /   O peration     | Version:  v1906                                 |
|   \\  /    A nd           | Web:      www.OpenFOAM.com                      |
|    \\/     M anipulation  |                                                 |
\*---------------------------------------------------------------------------*/
FoamFile
{
    version     2.0;
    format      ascii;
    class       volScalarField;
    location    "0.4";
    object      p;
}
// * * * * * * * * * * * * * * * * * * * * * * * * * * * * * * * * * * * * * //

dimensions      [0 2 -2 0 0 0 0];


internalField   nonuniform List<scalar> 
19631
(
-0.03550541283041185
-0.09251952767034917
-0.5114965495323864
-0.5896067233530973
-0.03582232562511293
-0.4301701476126654
-0.1203116953123815
-0.1783608094389942
-0.07515927464273828
-0.1902883854977405
-0.1033042156968275
-0.1373968820403468
-1.594008974269034
-0.1541525518165003
-0.1105099484861528
-0.02917356047231189
-0.7282931788563031
-0.09792534256959562
-0.03042018623632787
-0.07340879710628063
-0.07417783447710741
-0.1474767882223667
-0.1047488989021696
-0.5100699123551072
-0.1478030354389374
-0.1205323976582955
-0.1576759317298501
-0.2264846211250316
0.0234803280635251
-0.138220617470817
-0.09299388535511623
-0.6861121434598485
-0.08428060264517519
-0.1531838720492829
-0.1756234481502582
-0.1335910776778241
-0.201469299449276
-0.1185035076189616
-0.2053818864080221
-0.2230098843719956
-0.7159534000171677
-0.2446458391321871
-0.4102413671474313
-0.4477831858323702
-0.3228802100225318
-1.214239135042624
-0.7784083964131051
-0.5099637061572914
-0.3120301817963675
-0.0574542544109374
-0.05196283328594799
-0.1321017540380005
-0.4094086460467408
-0.1469071077978774
-0.08413351365092921
-0.4640818860541588
-0.2796145015319461
-0.1060578297478082
-0.1756046262163818
-0.6695680516604977
-0.6765591963672891
-0.8009733230039796
-1.065369028691195
-0.5078983845243761
-0.1002957380322238
-0.1813339610523227
-0.1933926552175484
-0.03169915696151537
-0.4839132402868156
-0.03730977670157883
-0.7830349403450676
-0.5548824755438133
-0.3008135101188987
-0.09942815479490133
-0.1300652246618879
-0.623851576609518
-0.1164269148032276
-0.7772260114482185
-1.764163852832438
-0.1355681050984416
-0.11897660976084
-0.3118456053476298
0.1182561567388736
0.4556116110468943
-0.3541668043734675
-0.3742438486179964
-0.5940181909116964
-0.2413992079214981
-0.4682927097223619
-0.382322779973596
-0.5743268931930092
-0.07398661066736398
-0.4663926958299247
-0.6886275146145825
-0.3606577731830047
-0.5238036992370256
-0.454435354429892
-0.05603273817274523
-0.6509919795021468
-0.2839072096372185
-0.1246876004836749
-1.656340535143531
-0.1163571171993051
-2.182558735978294
-0.8958683200182521
-0.5643630351468928
-0.1665522260147396
-0.2882720966325815
-0.1802040214260031
-0.02407446890173937
-0.1856102566601153
-1.078203839751607
-0.1380859051015269
-0.2358904255967848
0.3490658155830801
-1.207798887795383
-0.584288650824366
-0.1681730706917782
-1.352757206504325
-0.04461345362672924
0.01707287459922613
-0.1385171118543922
-0.1470547019705048
-0.1537230213463132
-0.2098840864046557
-0.1487801371732745
-0.07910023232522562
-0.1386461804631077
-0.1072310556097024
-0.1247106438942987
0.01500024812326176
-0.8711685662540922
-0.01695588380818654
-0.941048880169191
-0.1638009768822644
-0.1545724126428343
-0.1857601249315689
-0.1027155780726198
-0.2065364286295871
-0.1799859543153444
-0.089593727912231
-0.2152229590770615
0.1071452876387861
-0.4563076830793157
-0.1945124808091252
-0.2237064649253306
-0.1974543145586379
-0.136146167728347
-0.6861417298130392
-0.6807111777837054
-0.06298533905474346
-0.1343867913694531
-0.1259129580900063
-0.1387953586236133
-0.0894053549887022
-0.1853993961874576
-0.6929983864658509
-0.2320030745040146
-0.3209953114430625
-0.1570229647100192
-0.03995948383503006
-0.1225292314496139
-1.058499112024683
-0.119496808375661
-0.1192884223159555
-0.1313116203900343
-0.117031026792795
-0.1010669284494159
-0.1140944752519713
-0.6678479261472285
-0.1542392109564276
-0.4040178974426955
-0.1490773154882672
-0.05103228607309185
-0.1232950228300619
-0.2005785262656111
-0.1120300872060559
-0.7135427789163961
-0.1857818110585104
0.1719871084801016
-0.3351825292450931
-0.07930009630448649
-0.09745972216991129
-0.09737425552747435
-0.5236591525454292
-2.153226031649194
-0.3808543218871804
-0.01819838734356248
-0.03452403512889905
-0.190480305604906
0.1156207480849809
-0.5722603381660081
-0.1435982932619179
-0.08005349678787539
-1.032737529695921
-0.6017235956805596
-0.1337578515088048
-0.7402676987485847
0.09972889316983438
-0.5543763789723238
-0.1631216121409017
0.3754257843330561
-0.437598693698646
-1.480190252184805
-0.1204314052176629
-0.08990809068983723
-0.03844272514823247
-0.9167588818969822
-0.09491800207976837
-0.3007389919772553
-0.2369891839922944
-0.1846513479593805
-0.3301428626687703
-0.1154271360913416
-0.253231280546235
-0.5519892671058042
-0.4826663129494197
-0.2980711027876956
-0.1216667497315628
-0.1909357193001998
-0.07629618854293017
-0.4673147125530499
-0.1329101059705206
0.244547972753871
-0.2365763078205272
-1.665870415030963
-0.3361504915819832
-0.3197106846106793
-0.5339302937823751
-0.4325572812849442
-0.8091615311904411
-0.6044864454568312
-0.9789219324889995
-0.6322560712539101
-0.01029017995628554
-0.1206538280983965
-0.2278180511327289
-0.4848566802197812
-0.4911192284729158
-0.4824899586612812
-0.1202923994511466
-0.1665727410786803
-0.05122764614849446
-0.04098717482804266
-0.7624482031398832
-0.7654924970432538
-0.09200221311828938
-0.4498939407848005
-0.8409516567876377
-1.682149267893645
-0.381658625908867
-1.037183220067004
-0.8891556275462345
-0.6527964042824289
-0.7721933511491185
-0.5205113483101788
-0.1893111248468015
-1.16401580564778
-0.03381956165052454
-0.02859949397691918
-0.1083231908177165
-0.6649153808662727
-0.4837078217087353
-0.5485487472998014
-0.1207790572075541
-0.5194102610953236
0.06394524118359629
-1.323748014698954
-1.18753443509965
-0.6146368320246446
-1.35636985956209
-0.1022816301513697
-0.5458385524154168
-0.06992707397368404
0.001264977921753052
-0.4071837147489364
-0.8016565047672858
-1.411891528287955
-0.4813101258687636
0.1854215886664771
-0.9272064211712976
-0.7358332818019966
-0.3703904885854853
-0.257227691361497
-0.9833666778256537
-0.3768688204663316
-0.05181952424710766
-0.3874072185312863
-0.7787088704109784
-0.2742682429102529
-0.3513039526226992
-0.821049017964721
0.1368141272228424
-0.1328828307577367
-0.02719780173195758
-0.5610886771794479
-0.8287617459337036
-0.7267873420752475
-0.3031616305302246
0.004174211090767436
-0.8462826699407422
0.2362807487022676
-0.09856936526500487
-0.5575034689502972
-0.8327864075147139
-0.204244409534023
-1.900932609316837
-0.04997275098221077
-0.08781571079877594
-0.1659501093991957
-0.04210434501790111
-0.3429712026034971
-1.192709979756854
-0.2712638450492021
-0.1248273094889318
-0.05668047811298564
-0.08056644037106675
-0.08174518458598982
-0.3805747430759226
-0.06312880751334136
-0.4728639390793897
-1.820385544593207
-0.5826606138771186
-0.11455408487666
0.04418004754663724
-0.5555660752378999
-0.03315300227396506
-1.083047588191633
-0.4325498483776147
-0.3500027151191366
0.1592791858022041
-0.1925499376042985
-0.02105156382695062
0.04727861690443273
-0.4766832165131322
-0.08202439441780998
-1.482975761966676
-0.7135502334927082
-0.1238814452343657
-0.2867913660942554
-0.1491071267134708
-0.6157441838677811
-0.2525918202314983
-1.455360983990253
-0.05875123428902303
-0.530400895913777
-0.09538462623767251
0.008548342146785317
-0.2763025936670766
-0.2922959411668515
-0.3341265946846943
-0.6236676968872793
-0.2621840888503137
-0.5127514243023514
-0.4057504519783279
-0.8055940691209115
-0.1623134794406947
-0.5590839815388652
-0.4858265711529511
-0.6779330405276977
-0.3003589534747932
-0.7415532300631551
0.1778918778675598
0.03713191645017681
0.5932558205278357
-0.2578050679424682
-1.454900666448195
-0.1467152750641593
-0.3015581559896038
-0.4884718579064136
-0.06730079230632424
-0.06585932292606567
-0.6191802100355968
-0.07049001456617018
-0.1513114816179307
-0.04723335690988113
-0.104781007680608
-0.1021112035901054
-0.3212641685569323
-0.06752326387500937
-0.7150767644839018
-0.1019563991492386
-0.09509859232296577
-0.04674666356254632
-0.6093454766810819
-0.2764469924286063
-0.1091171646707758
-0.04882534447558531
-0.06902288996958932
-0.4454316300663373
-0.337822945171986
-0.008046100065192619
-0.4637849707004777
-0.5887670596269022
-0.2649538576860372
-0.01181148942433797
-0.01996560817678282
-0.5033836876829317
-0.2143968707693213
-0.3407673716273404
-0.6137409087799811
-0.5969694545665707
-0.01567452765158345
-1.759060683447676
-0.5735486187595955
-2.278390756328568
-1.181395150699972
-0.568296068949984
-1.399511644211973
-0.2558952190134317
-1.30877441393675
-0.8184072681745274
0.1199064842596683
-0.5305732382501739
-0.3933979078906689
-0.5119858586836701
-0.9207362002246705
-0.3856849122437671
-0.9121736979870815
-0.419872607155862
-0.01762419672664836
-0.1469334128654101
0.4687948957311862
-2.531671434202529
0.2383044227261756
-0.2463280552130536
-0.6095422233141382
-0.4462586036462012
-0.114049102476941
-0.2276546016198118
-0.09738841234367157
-1.557548819237843
0.14377974678385
-0.1607684265427737
0.1209184747883167
-0.3155465655820566
-0.06440363568100137
-2.263677766975326
-0.2986664571318797
-0.3204841276116424
-0.06812350954803671
-0.3726312203600959
0.2830502507833332
-0.263474323923746
-0.03670214775728919
-1.210932896094566
-0.04054151501613994
-1.300388374557925
-0.6647905220288945
-0.2615004636835936
-0.3825622324890796
-0.4228668185288079
-0.8255976266782437
-0.39280043048389
-0.03141422438896552
-0.03358447561421041
-0.1161008830022842
-0.4808346440899466
-0.3283137890353851
-0.161013912917902
-0.09059709146549874
-0.1323433624936625
-0.353147542891657
-0.08212708474227527
0.01507699630792334
-0.2402021489754755
-0.6222099236111767
-1.092370855069475
-0.0183885375146949
-0.03233766243672544
-0.0453534842082355
-0.4511245207327075
-0.0865497492716676
-0.04662654342713712
-0.2030306091833074
-0.4343653520812364
-0.1071988322313539
-0.3460921837038374
-0.8758505023180203
-0.2640085340446015
-0.5621771385804822
-0.5011221708088214
-0.07595297517218094
-0.9458062344301947
-0.6601107612210199
-0.5058535907476369
-0.2643583327378475
-0.2915100153174284
0.0552981156138721
-0.1291242998930753
0.1052482509709204
-0.3212234470194789
-0.02727459658538618
-0.02341405590643946
-0.8997041116289387
-0.02446197456729355
-0.2771842229922054
-0.5811730558135052
-0.5802052220240145
-0.7051992733021341
-0.2175840106627291
-0.1585740267415789
-0.01770407666286682
-0.03102885811820938
-0.03888132488060755
-0.09712525293582387
0.4162014766920549
-0.02784956644252701
-0.06370322409512384
-0.07902658294143541
-0.8700440657327364
-0.1870150132916472
-0.5165318466060524
-0.1294566440661287
-0.07648672281383806
-0.07475823270299817
-0.1914294549090903
-0.05963592750895052
-0.6197784809506066
-0.8464452034987312
-0.255343807074275
-0.5265276616186095
-0.2345341136983817
-0.2202652622241844
-0.01348706288792429
-0.01170504026234392
-0.4554915248463452
-0.765540277526974
-0.4948690999458061
-0.07444997551560963
-0.07144795508569073
-0.08905386954884655
-0.07620945597043609
-0.09256693081435281
-0.1032172979358639
-0.06782714928265797
-0.3358524469316884
-1.230002191925391
-0.463017221064878
-0.3878569219245909
-0.3264562199305234
-0.3298911893447926
-0.1691993927009256
-0.01211004858975177
-0.2041215989357798
-0.9769725509940747
-0.09020347615107262
-1.641083984653721
-0.3135948135464269
-0.2041561552253362
-0.3905499723155594
-0.2897244010795969
-0.5293523498466731
-0.5233315158209266
-0.5530967596496867
-0.07554339665163695
-0.9966133194936118
0.6938450280280236
-0.2379260417830637
-0.440374309552264
-0.6046129663398957
-0.2290475638031358
-0.681364285552745
-0.439754811143052
-0.3468470212151498
-0.1845199420010609
-0.3515559403110471
-0.9727041025987754
-0.3888626487954718
-0.2590394774245031
-0.7875256978704428
-0.6304248260598132
-0.1717195973436053
-0.1724523182267469
-0.5151456290277526
-0.06784321751190416
-0.5846044534126602
-0.03092372075413824
-1.44080971660639
-0.7333575494958375
-0.04358295354812882
-1.391772457896476
-0.1881991243859569
-0.5250903183390665
-0.5023476227177783
-0.4084223427026842
-0.7502044805878951
-0.3061085251814665
-0.0616545596481336
-0.3012119518024273
-0.2180170217105553
-0.2010247454481351
0.08242023479496018
-0.239720280779834
-0.1819649395463793
-0.1890256620123565
-0.3401980118041072
0.01553111715961321
-0.326321063699497
-0.2563285049350999
-0.3120259829472918
-0.35913798024043
-0.464387182493702
-0.2755145874848791
-0.09465475305952965
-0.3957202108583449
-0.5834857904374664
-0.1449376674855075
-0.08280002130145488
-0.06551875820225582
-0.5843675339640125
-0.4300653648977107
-0.5019378456649788
-0.5593520263233173
-0.648549083555232
-0.6304011447064098
-0.3574426949260431
-0.2065042611109578
-0.7667050938222741
-0.8088763610754151
-0.6361465843160501
-0.4803360457033459
-0.48226945033033
-0.1620064803676241
-2.167813043289804
-0.1455724012805676
-0.3113347104622812
-0.1215604210226679
-0.01715192370717464
-0.2086276727732478
-0.7027793268644263
-0.9433478325558199
-0.06111184572498277
-2.054159996817223
-0.3428696506935228
0.05370584138698029
-1.222154812544421
-0.9210950820894868
-0.2768893706701501
-0.3181134815768382
-0.2586855522436636
0.6013628716254932
-1.045860384843889
-2.206411456218258
-1.443157070904028
-0.3517443345296986
-0.539821867264215
-0.503168034120489
-0.6649544357017769
-0.6883237884068387
-0.319319964984728
-0.4332201965733842
-0.5001877585201751
-0.3159727002974703
-0.5525827843513014
-0.527080224876994
-0.733486345268885
-0.4504446318287175
-0.544260748649538
-0.303636854748691
-0.2515046554047484
-0.05928570146013801
0.1071405549651406
-0.9175534808278606
-0.5530003342770365
-0.3917482403583402
-1.002270849200053
-0.8363001137916061
-0.1883167502349517
-0.8950046747529871
-0.1255993154554052
-1.413809229448755
-0.4410122399238956
-0.04285199108413858
-0.259119635306309
-0.377936043969763
-0.4751741395146853
-0.4732896167347023
-0.5855579251383092
-0.5685040477590972
-1.708328769057992
-0.7350040653697629
-0.8787953721940129
-0.574851422908273
-0.7557051375362124
-0.8841471716749444
-0.2090809286060619
-0.8268210069811346
-0.560162570654514
0.1014707321658735
-0.7417642194476171
-0.5903038942878849
-0.6800671024249321
0.03148796576769126
-0.4240270624539949
-0.5083148847249972
-0.3718684197633106
-0.5768233834799604
-0.7775694099148451
-0.4657487079166538
-0.6993983485293548
-0.4121876056421788
-0.2409879993914695
-1.221749378267546
-0.4422925388856679
-0.8576237037026709
-0.7411383575857061
-0.6016098565839721
-0.4488352116106487
-0.3134991265444274
-1.3489748886319
0.3411101401856242
-0.835949730902912
-0.7241327948836078
-0.009768277094617195
-0.3075350568944321
-0.5458612299735527
-0.6585105809442515
-0.1843569840757994
-0.5294901205307292
-1.013416575562753
-0.3360514588804809
-0.5248920262859469
-0.6800283163373889
-1.201626514600481
-0.8637041406417461
0.02754499443545555
-2.819032470982902
-1.238890566603439
-0.1238903672402776
-0.1664747082139983
0.3027518445692295
-0.5029336450697648
-0.5732854596892532
-0.3828173438219516
0.1663810469630646
-0.591681213836268
-0.2592190989279581
-0.3550810715076594
-0.3206359157464661
-0.06333239711864071
0.2591748456764246
-0.9963538089324712
-0.3022917462327666
-0.310682903274936
-0.8181644203691261
-0.2939227742774427
-0.882498969134218
-0.4379734413545658
-0.6895134043176203
-0.2365223183095931
-1.114475548778791
-1.009014089008323
-0.03515770816111206
-0.4205454860846699
-0.5664640943602643
-0.7284053814986776
-0.3240899498066716
-0.6744959075417516
-0.3679123928792888
-0.4767821638514283
-1.754544738172864
-0.6951290669906052
-0.3395009473264964
-0.5940189653493928
-0.3725179309831697
-0.3198608008332685
-0.3454246215959954
-0.4888696067262516
-0.1882039369826299
-0.5141906982597901
-0.07976282676426052
-0.07923959858915403
-0.5480808910344509
-0.1732894564874426
-0.1865385010089517
-0.3519950806293655
-0.1041645314833219
-0.4499131628230619
-0.07980279702345709
-1.04832004653584
-0.2243915210535238
-1.13729599414197
-3.273613875785592
-0.3473100803313965
-0.1565110207978216
-0.9675299017432598
-1.776629289119865
-0.2316365064301889
-0.2433112280038646
-0.261701885022553
-0.3064485677326829
-0.1070082410988003
-0.3032701931116357
-0.8159217378508491
-0.2953993462512134
-0.5470591685846109
-0.4846442989230724
-0.1523580316608426
-0.5959481692424036
-0.558836768326843
-0.7502850975909585
-0.8108802787137888
-1.094055326573322
-0.8179029556932371
-0.7988970576386386
-0.2360013544383707
-0.6084303913807804
-0.2853139253568091
-0.3205497380633693
-0.08689539404538615
-0.4456716873761024
-0.04394427908380281
-0.1828175962008646
-0.3747598318615268
-0.5057896980935865
-0.4931444153084191
-0.442320649366523
-0.4807631422445957
-0.3220281767443055
-0.4396542588817029
-0.727923896807029
-0.6151661023131243
-0.5038781570242662
0.2330084536825025
-0.8783949772317913
0.7828341725246877
-0.1955960479139301
-0.7974259341765488
-0.6698705035398876
-2.858266084127267
-0.4312302313389781
-0.0006648227632996803
-0.3639435074168629
-0.1020560335920391
-0.05854162300474383
-0.3714322876716056
-0.2406426253943245
-0.1043931611233023
-0.01815758002234238
-0.2474353372476412
-0.8474888641883832
-0.8139141029684029
-0.4091435136199884
-0.5200709873721016
0.1024607023811734
-1.087717238174043
-0.5759473756348188
-0.1084307354526825
-0.101833070367643
-0.4693630960101998
-0.5211073727727583
-1.340701872343716
-0.7019352942025836
-0.5180634611123637
-0.05889149102678969
-0.2479072796577662
-0.4773633785425833
-0.3761036224915902
-0.3017788795323316
-0.6119163407230056
-0.397503922325622
-0.1618391440619491
-0.3078079038010695
-0.850505711206932
-0.5172506266847777
-0.4503752195439101
0.2986455666472319
-1.270647601077892
-0.6697932010184851
-0.6672477098509911
-0.2266134778515328
-0.8827518022720696
-0.469327286053939
-0.5795702920502618
-0.2641575647980339
-0.05691520771774956
-0.7251489883545291
-1.017019876826221
-0.6788950248933494
-0.5097294710782406
-0.3768412947399323
-0.1228226423344137
-0.7768626442308948
-0.07466014084161257
0.1428692729072711
-0.891219015428542
-0.2444435506942292
-0.06657020745828454
-0.5676015347033062
-0.7479006683491554
-0.314657987572207
-0.2544607063164075
-0.2167006435307762
-0.4038222436407471
-2.599760322111305
-2.087133693277275
-0.3543912987704006
-1.659482321934859
-0.7155522717090436
-1.334281530711314
-0.4841331197186618
-0.4400177091933749
0.2245370582418326
-0.3322860930452
-0.5401085063450717
-0.4978304501011395
-0.05514951903139426
-0.632426829992787
-0.4358406057380317
-0.7822098745260294
-0.3462929478309503
-0.7750351084563981
-0.5228292695286749
-0.6733484066649158
-0.6739105645865904
-0.7517465098961131
-0.3910843537545983
-0.2883463720896377
-0.4223681219355435
-0.2714935730175799
-0.8629388823621571
-0.1784926999124764
-0.7011380523923649
-1.562225843835593
-0.8625204425025861
-0.2444495657692755
-0.9076583930682927
-0.6986127089933077
-1.096742952014981
-0.2373118743175928
-0.7179102381275402
-0.6074114062878087
-0.3432901367999436
0.5784938779399353
-0.4265546151868995
-0.5258048279121903
0.03935513632828151
-0.5636709703844419
-1.585899362045983
-0.6684893794402992
1.199210620164147
-1.405670935570038
-0.3939947111681339
-0.5151375392819343
-0.4258387026241225
-0.5978679644001679
-0.4624413323587248
-0.4303388464650064
-1.460294689360342
-0.4310069863591333
-0.07697828798209658
-0.08901798180446376
-0.1128152249253315
-0.08117518715740127
-0.3130878038466287
-1.11389650901809
-1.653632567909526
-2.718450385853792
-0.3768511827993381
-0.1691267156887012
-0.267785976655573
-0.4378411813010622
-0.1741326231068981
-0.3826588363656278
-0.8429109662731551
-0.3316512998631788
-0.4980900060165586
-0.4519589290140512
-0.9700533888095222
-1.35040836759088
-0.3257983405865195
-0.6255722474688
-0.7680835441680791
-2.043539372041406
0.5023188026377825
-0.5630335504551452
-0.1218131295807331
-0.6848766218794248
-0.1330294095890846
-0.2648619095688923
-0.09474470453561842
-0.8860475948999955
-0.4497405175396662
-0.1090366079580827
0.6931957444479261
-0.1547272553804584
-0.4798760027348838
-0.7974237280318509
-0.2545812250772644
-0.4583839390668359
-0.1981119751384638
-0.634595890505282
-0.5779985805508682
-0.6310740648786531
-0.6597819884710636
-0.4776177828632153
-0.2189819052625438
-0.5065429161355208
-4.251663633500577
-0.1567789478419822
-0.5598214525648725
-0.6152946810939277
-0.2801297491163383
-0.7405613640817874
-0.5096186884596605
-0.08878072190526171
-0.1546004344097132
-1.520083206218062
-0.5663990495666336
-0.09618490038634941
-0.07216928316151219
-0.09734189755572563
-0.2014793192612007
-0.5504276483177013
-0.2125745739125751
-0.1173265858428108
-0.1528049371363555
-0.1055315530774867
-0.5452408679073152
-0.330414907918629
-0.1020979332912203
0.04362701429035117
-0.3773082345800971
-0.135015149409076
-0.6606449362614787
-1.036381946029114
-0.1598350296054943
-0.4020189478829644
-0.08688015121957408
0.1865388736932994
-0.494187426880282
-0.05884955188653834
-0.05817779348171331
-0.2787551181615149
-0.1560339097406649
-0.0892093292659307
-0.1492073115475155
-1.003127207196439
-0.2823652666352495
-0.5362096373532496
-0.05261189888930445
-0.343699114479023
-0.3587917492548385
-0.1590156571380247
-0.161172509544102
-0.05746152186664056
-0.3355134055807916
-0.4054909487433683
-0.01489613391288033
-1.091101038213679
-0.6848704131190596
-0.5988426221339608
-0.3539135533270181
-0.1270355952481722
-0.3216674587296499
-0.2874042459272558
-0.8999900764145529
-0.7139536152245808
-0.3479371945614772
-0.3294000557189162
-0.4234523422784293
-0.1029432135864836
-1.69357965744641
-1.27762292822973
-0.3424054889002199
-0.3282083024627157
-0.1105822252038229
-0.7429974117149933
-0.2867928794660961
-0.5818614880883298
-0.7299206335574171
-1.386520013288472
-0.9662147854787885
-0.260633795319057
-0.2340605454208239
-0.6021417593097419
-1.315499130275524
-0.3317950451970437
-0.2196831497883336
-1.415772572435974
-1.155505740536777
-0.1848128669670545
-0.3955271897676846
-0.3822717945007182
-0.6985030841576181
-0.5534917578364517
-0.5615857033327893
0.009762577506758066
1.02806566556961
0.9328255697935018
-0.1785264964594518
-0.1031418030953863
-0.2466994227227591
0.03065501979866505
-0.09545243864891437
-0.4588546791039279
0.5817735630848531
-0.3015089907880076
0.1331832735986358
-0.8617336621834204
-0.58198369284162
-0.5425003029549079
-0.5478541860651942
-0.6041853766658758
-0.7058171052295578
-0.7232608139273593
-0.8257364741909735
-1.278051735306728
-0.1236759537793759
-0.1511123457497795
-0.249372548525978
-0.5041570454225208
-0.1076586237995404
-0.5627812777458365
-0.140237069211535
-0.5208285311194782
-0.9217645624647016
-0.1399653996091351
-0.6965971936228943
-0.4644642814333711
-1.388297780410043
-0.1750965464161063
-0.1710784996234504
-0.3433596901213454
-1.425173849600492
-0.1090722675782345
-0.03279546109655748
-2.300413064299498
-0.1771083232331929
-0.9026733617791743
-0.6993116399899515
-0.3616948430511495
-1.347572406943004
-1.082800410177445
-0.1662785974691929
-0.07634061585348298
-0.6485349886436784
-1.698692859459158
-0.7619907426360507
-0.6379542633107947
0.01358609354978003
-1.06094025034894
-0.5774013443709267
-2.916048414427061
-0.6733655161941607
-1.360588151320985
-0.7227579352910558
-0.5689928041990819
-0.5086796861688225
-0.0647982931563555
-1.020961123028211
-0.0705985545457042
-0.7977791708073124
-0.1070215394980322
-0.06200289866727213
-0.1001389861606078
-0.07513539189144759
-1.573488495300026
-0.08769100179734322
-0.1674180820991473
-0.8587295941789428
-0.05446233770012997
-1.088243942567836
0.4278511384860941
-1.186015127762321
-0.1030360975845646
-0.192703152344687
-0.08733984088427392
-1.343182403160178
-0.07017823607235975
-2.001512545652224
-0.064706080157457
-0.3612662871214166
-0.1491911611264967
-0.006979577934193613
-0.305721803176896
-0.3041027772030592
-0.2976702195561928
-0.5777029243455096
-0.4755003995323696
-0.7165477914779534
-0.1450094705955894
-0.781451436879479
-0.7640529031676885
-0.1019094167194625
-1.636263405811853
-1.233060155724338
-0.3067911393543689
0.2602522912510281
0.2356930893764818
-1.757924377841578
-1.767443638031276
-1.580480415684915
-0.2111747095899408
-0.1950701481949564
-0.08595600320877364
0.4093273568900779
-0.1195643109465126
-0.4834376329760712
-0.09036527608397192
-0.6556228931027651
-0.2605116942704492
-0.07900587099052699
0.3833144696179448
-0.09073925816712085
-1.081302461466253
-0.6171955937248084
-0.08984782580221967
-0.5364293843004674
-0.2321619154313047
-0.6883819409446377
-0.08702690495360496
-0.2261788133004246
-2.886643499462886
-0.6879247872900754
-1.430068110158633
-0.6156184850685942
0.2445365433863947
-0.1841722418951133
-1.544675480622175
-0.4321447239339525
-0.1134998025628538
0.02615631875731382
-0.07246446899246529
-0.265826971470867
-0.1912155161345868
-0.07301774512998513
-0.4642652186127406
-0.3398425630934686
-0.5675278604902669
-0.08540088257459154
-1.994928977813294
-0.08730079387728013
-0.3432085302995998
0.1559632761344522
0.09737942365604989
-0.2577676505817223
-1.415699458806165
-0.1495063696161855
-0.8750865310344
-1.099300923064629
-4.319612940780029
-0.7374388178881899
-0.2100328811620679
-0.6192460973072231
-0.1260365684202735
-0.1996208998169103
-0.153616622958172
-0.08739429549393622
-0.1229063068890133
-0.8934950868643847
-0.4950193381093439
-0.2080952951541012
-0.3976666963484277
-0.1703095763456774
-1.29660390877329
-2.184717065575553
-3.513529190906124
-1.207797716623441
-0.3622233113284182
-0.4150296096884337
-0.2769466263647259
0.09526321840462609
-0.6417425377596596
-0.6356876459269238
-0.3367239850840509
-1.407154066091229
-0.5576017705642238
-0.1739897743607273
0.1114767777241796
-0.4286948040138914
-0.09992166330398571
-0.2406890964761667
-0.9681732784880018
-0.06673308186562853
-0.5901582937687295
-1.06605825582181
-0.6738085286024533
-2.433760243027485
-1.014198419643261
1.607956747044044
-0.4538384363560163
-0.6701498437521576
-0.1878745520356939
-0.007604596279076759
-0.4203216491962894
-0.2840771559310165
-0.2950429622067247
-0.1832206630635994
0.03674259413597392
-0.6915964352936445
-0.2620419370632242
-0.5286140812600819
-0.2958453727496381
-0.5782379108768853
-1.437750744571757
-0.2351403175486945
-0.5473952366794187
-1.767539706386771
0.1091762951028941
-1.252439624608126
-0.1356927700008549
-0.7041043791771265
-0.5745602295728481
-0.02421603344424702
0.1390804394406308
-0.7064663921958769
-1.819489141358807
-0.2032189735007518
0.3551459723863155
-0.3209622631327281
0.02412280335059487
0.03436050619990266
-0.3277543673235951
-0.7726154055989473
-0.227165181373992
-1.393941338265821
-0.2985167191518429
-0.4054221966842554
-0.08437568680655977
-0.2280646858473268
0.01435453932769238
-0.6945112162284317
0.05632781673994073
0.5258179045947936
-0.197014681365731
-1.605385050071837
-1.560331830041227
-0.0804769826137989
0.08559628860616862
-0.3349448684913654
-0.2489530843059953
-0.5788075916264813
-0.2720954012294536
0.5417556865351959
0.2437431177239598
-0.08005944494273888
-0.2784639077535262
-0.1559314930617504
1.418925790398742
-0.5079527666382994
-0.3642095110954755
-0.5910992111258442
-0.7491167054928947
-0.1650705291406136
-0.1706052757434843
-0.7598720038010027
-0.4184969346084734
-2.001819571065874
-0.2311450359303354
-0.1182937202986333
-0.1606161383021652
0.1236742674970701
-1.110651497986368
0.1993208040740905
-1.153632430328353
-0.6392644607816237
-1.168329534789649
-1.001271923010097
-1.169542452998637
-0.4440944663989457
-0.08386448314301509
-0.04749488169882789
-0.2510992743937927
-0.03964995195502662
-0.02534976265177715
-1.576400214808788
-0.07794558354207108
0.006841572625659256
-0.07643330546604801
-0.9123273254464077
-0.8519718656046469
-0.0416468254822231
-0.256436996970993
-0.1474422387581618
-1.348632576342968
0.04847323722793626
-0.4394830186235713
0.4321108763690522
-0.1103171970807568
-0.1305657633726464
-0.288507070126459
-0.1003328715386027
-0.3651265439424011
-0.08458335458615761
-0.8854273912777317
-0.3216186902471828
-0.1055055731382232
0.3185357997665875
-0.4684729841951306
-0.1604858158851214
-0.7842808259481986
-1.23818887340662
-1.028648468281106
-0.1098729747725712
-0.473916618400157
0.5104546299060894
-0.0959171331846766
-0.5679574299909205
0.7145717321584975
-1.226561480839429
-0.3327448446240162
-0.06969094653797846
-0.4445833899607104
-0.09015990966747774
-0.1281051274988912
-0.1518632383316764
-0.08271356279428155
-0.4175744081211478
0.01725725154437711
-0.4371688863240368
-0.03114508137012083
-0.5499336516179113
-0.1198638816634973
-0.1811307170909581
0.5219347415393381
-0.8930187875435972
-0.3282840200225662
-0.03433346807497829
-0.3441909005086308
-0.07452860635622847
-0.1410021523886763
-0.4982242451258451
-0.9870343878693199
-0.2248160402645402
-0.2371189682595752
-0.2155988561734803
0.1930538528649718
-0.9318380090945221
-2.266895663749294
-0.8253080117240318
0.07836504283824898
-0.8776921517471016
-1.213170391837758
-1.981823651552444
-0.1981995262454359
-0.7622447574550422
-0.1052700978251148
-0.8092848061550759
-0.9622108723531094
-0.00723691055301023
-0.8333182065798118
-0.08962852168173957
-1.755723471059862
0.04835105062537907
-1.871766141972661
-0.6493581813165706
-0.9203093012076928
0.2729352713306133
-0.07853456495787631
-0.05770311419552926
-0.1477244207456077
-0.3981839048754811
-0.6988693165845
-0.6918979041087315
2.054369201428668
-0.4215422817903574
-0.4285535528458455
-0.517705136328012
-0.8340671915584843
0.1912362403441987
-1.355206424987605
-0.8154351916747109
-0.7678891079197456