/*--------------------------------*- C++ -*----------------------------------*\
| =========                 |                                                 |
| \\      /  F ield         | OpenFOAM: The Open Source CFD Toolbox           |
|  \\    /   O peration     | Version:  v1906                                 |
|   \\  /    A nd           | Web:      www.OpenFOAM.com                      |
|    \\/     M anipulation  |                                                 |
\*---------------------------------------------------------------------------*/
FoamFile
{
    version     2.0;
    format      ascii;
    class       volVectorField;
    location    "0.4";
    object      vorticity;
}
// * * * * * * * * * * * * * * * * * * * * * * * * * * * * * * * * * * * * * //

dimensions      [0 0 -1 0 0 0 0];


internalField   nonuniform List<vector> 
19631
(
(0.0007459138064134025 -0.000434832631906535 -7.373199210988768e-05)
(-0.00166106318298839 0.008713804509732529 0.001105239550696526)
(-0.1204455911431904 -0.1725770280517254 -0.2847602063686395)
(-2.101815611988762 -4.319676646238571 1.198481999928968)
(-0.003297832456722712 0.003425519580640747 5.345071467257885e-05)
(0.0483524872108817 0.02744118400453389 0.02416514489539469)
(-0.0152868013161645 -0.01252377268849238 0.01541532985227781)
(-0.0120461227624914 -0.04611939711619747 -5.714821020994553)
(-0.002239435188248944 0.0008350621633919832 -0.001150411819263548)
(0.002939106336660998 -0.005032875164390158 0.0003258899010232812)
(-0.003800542709823077 -0.003870228977168854 0.007490185489372169)
(0.005638697766442848 0.0105664145685876 0.007332061691060749)
(8.745682264687222 12.70736754776125 4.430013970656251)
(0.01533851596284653 0.01640598953563999 0.002259628767479596)
(-0.0007046487016427643 -0.002258127305650187 -0.001278800572537882)
(-0.004847615552891869 -0.0009716918307381871 -0.001395021716150817)
(0.2545045357023992 0.6694298872785949 0.2233470746338289)
(0.002143513384926365 -0.0004008296362022976 -0.0007481625826685843)
(0.001716830930698916 -0.0004290366479826898 -0.000810182228142771)
(0.002308350930950285 -0.03225351614357931 -0.01097328733268335)
(0.0002656751375837888 9.932121045822846e-05 0.0001495013440420183)
(0.0001853939791290221 0.03129531193382161 -0.01997350581291219)
(-0.001357834874357778 -0.0007540510901886746 0.0008660091217051032)
(0.1833324013627689 0.07730478937139978 -0.2837623754947154)
(-0.01222635509743714 0.005408483172715853 0.004066978749055487)
(-0.007524170737265096 -0.004834235099948026 -0.00337843068226495)
(-0.001681773476214893 -0.004998201614977821 -0.0004142854388027325)
(0.0008297039208059118 0.03148084592646342 -5.867829286424542)
(-5.752465201112018 3.485029358875287 1.861771169657614)
(0.02031588935257217 -0.003175566242913879 0.01606465790864736)
(-9.601205514287695e-06 8.587711700002226e-05 -0.001096876184271072)
(0.01512486847184736 -0.01842165250925908 -0.01043989287069918)
(0.0004102962167052127 0.0004540234417452164 -0.003540122501265995)
(-0.01347570525069272 0.001757842929783276 0.0008120806395352088)
(-0.0328288577369803 -0.7223588212787161 0.08946132096837628)
(-0.003808064172361438 0.0005622774872114465 -0.002949596785636567)
(0.01246230637207292 0.002009356892930912 0.01441387076221099)
(0.001590216276638152 0.0004308144058768151 -0.000657958594614722)
(0.03139250438651684 -0.01453158670905007 0.09580520927089406)
(0.1216227388781435 -0.01869809808568023 0.02523409231966302)
(-0.2302218968238014 -0.02776536813732361 -0.2086045455272995)
(0.1153720203743207 3.860195190912195 3.644582750455351)
(0.03929806507024811 -0.002278639850218193 -0.02725930247706293)
(-0.05141764116120132 0.912141797728402 -1.864645060636057)
(0.01542425037465639 0.03996407156194326 -0.2518543433161699)
(-0.3441829879007646 0.9449190174158064 1.345531311920015)
(-1.286854455247131 -2.032100101199926 0.8936317420981352)
(-5.793212770922382 -1.832726712409232 -0.7663852967956721)
(0.02473175691993293 -0.003370521622396119 -0.01321237633333804)
(-0.05615030158092849 -0.01699228433199685 0.009047507734623497)
(-0.001695790174941829 0.0006229205351863142 -0.005402115445646018)
(-0.00363985021665583 -0.0005083304377613986 0.003734343079017177)
(0.3106688126369764 0.3537594665032225 -0.09357861198734101)
(-0.0002500923553471583 -0.003826660724107304 0.01499735342908382)
(-0.004307488071274148 -0.0009959060545507853 -0.004433713509124118)
(0.1344567783741675 0.1408811549217968 -0.06241229364419155)
(0.3435434764757016 0.2816592669051224 0.2877299312204064)
(0.001388117072329168 0.00247002364039195 -0.002463619853000775)
(0.161682756811643 0.07951710774890992 0.04201948453815356)
(-0.6896556733455532 -0.3306320637812528 0.4685529154949319)
(-6.711402808699361 0.4278651668479938 4.027182261464278)
(-0.1754681270333568 1.338038916577142 -0.3806742642394897)
(0.2707245722210179 -1.408541555480913 0.3664355730766325)
(-0.1940011245274024 -0.1940897847300165 0.05513424092071368)
(-0.4531735740881759 0.2191379984436344 -0.5517729573230199)
(1.144645838778818 -1.242806166215537 -0.2321182077823897)
(0.0146734274554154 0.002204713506105466 -0.002676340480154258)
(0.001921919038279535 0.002441246796567242 -4.744776487418283)
(1.098470008234924 0.01366302469227154 -2.353735303439004)
(0.03051905691975501 0.02096434702862476 0.04310281693274358)
(2.02226228613928 2.881401010574963 -1.339739358385962)
(0.1239117987853888 0.07352066286430203 -0.04838080441102911)
(-0.01612362043266091 0.008906384154737046 -0.03181164327878606)
(-0.3703598874330584 0.7940370784922059 1.017249977497407)
(-0.1173775997731975 -0.02271310591346106 0.06773151499139698)
(-0.8872996316295776 -0.2517066138627044 1.290019913885465)
(0.0008119368929572848 -0.0003839759046639713 -0.008214206551259526)
(3.398550075531378 -0.06666949204066264 0.1284282282533808)
(2.082828090748202 -14.11509493836282 1.379883673196429)
(0.004951430516752443 -0.004898787660059754 -0.002839993760156488)
(-7.72432382733569 -49.42860575529433 -10.68400338503911)
(-0.03761736035131023 0.04688651602307132 -0.3611809512149103)
(1.537995839214217 6.863620985892793 -0.1319376572040796)
(6.216858818858468 1.273230412176875 0.7619514644692114)
(0.1452995807332617 -0.02248441481426537 0.03388123614133687)
(-0.01909853930191105 0.03290701938368779 0.01918306035588493)
(-0.1656867027315056 -0.1594754767454049 -0.08084952796687213)
(-0.9553856884442713 -1.405991369023111 1.424298168695175)
(-0.8242177797587759 -2.488306944206645 1.123327671324146)
(-0.2601882174666289 -0.4401611852834434 -0.3342716616140382)
(-0.1180940212114377 -0.0628826012081467 0.1067639764142225)
(-0.03231273779078467 0.110746514606903 0.08521395993966957)
(0.2749789392069217 0.07549005156961802 0.05432130750649991)
(0.04597267907024131 0.1644741456313209 0.03276117368184278)
(0.1743427334681068 0.06603037398498814 -0.1108161584460057)
(0.281266351576113 -0.0306302723137799 0.06733857690862362)
(-0.2455910949289212 -0.02374411166719148 -0.4818960247114337)
(0.145887905588108 0.107154156474596 0.06632557217659264)
(-0.2387896088275467 0.001968330419528663 -0.1600307972086748)
(-0.0888302925859243 0.01719238788536603 0.0058006123086992)
(0.003103147978483105 -0.0009010297913125721 0.001143703314086352)
(2.428480914524383 70.56466237569805 12.95346796854838)
(0.003216282515036249 -0.005546815917967685 0.007095297898840154)
(1.349464358421973 65.09188478540295 -11.41973957987076)
(-0.7846516041326538 -0.6189859109210303 1.074870127322737)
(-0.2931306364664451 -0.2162755886780754 -0.1529384083382461)
(0.00857835240788608 0.003781465452713886 -0.007195874408324292)
(-2.509920730425669 -7.058107620308155 0.9765574361490593)
(0.007191498781240509 0.0007559749847915559 -0.007848076764792725)
(0.006137314129528101 -0.00858840840206156 -4.582823014032395)
(-0.01495272382297919 -0.03114559300654307 -0.0009942944212853119)
(3.212976697627409 7.570572697696901 2.686382451072513)
(-0.002306881493103081 -0.00369417811333745 0.0003316886859275052)
(1.13603241248403 43.35955471076822 3.2236505273532)
(0.006387625841272004 0.6720073358043037 -0.7124120584921498)
(0.4527440049520234 1.228276291940436 0.1748062061151741)
(0.03460046713161274 1.165744193280827 -0.4767551781395904)
(0.04701279751575502 0.008489877611753082 -0.04889363165089289)
(4.200272953692719 20.40379100072695 -18.54856307878)
(0.0002205636284002747 -0.0002463861565226412 0.000411496683091851)
(0.006199672595092424 0.03019819192233553 -0.01545561688456377)
(0.01266738498442471 0.002778272187461669 0.0062452091383517)
(0.04313174527445428 -0.01435598579873799 0.01181280828838614)
(-0.0238795301916667 0.0462504540579983 -0.04826473250416199)
(0.001131465408959528 -0.01026354148081283 -0.02982685095532612)
(0.005212405591450642 -0.0005078270131250512 -0.001777543699136655)
(0.01355333930195736 0.004222454501732686 -5.641638738950652)
(-0.008722286375998789 0.007305466620117378 -0.0002516223733396631)
(0.003088905418220338 0.001315032298300207 0.001725988388129076)
(0.009910429010665399 -0.004142328863717418 6.496001449749151e-05)
(0.001366306479975369 0.01600242039328846 -0.007575134547956526)
(-0.215460270886327 1.077171424849262 0.335616118081925)
(-2.289582652482633 -43.76734338482478 7.898817797273426)
(-0.2241302652998921 0.3532259808289762 2.656407667600243)
(-0.01935312184177906 0.009422192163529665 -0.007231370015926726)
(0.002268016987373926 0.007583822594312254 -0.005903368827586927)
(0.001549310235923304 -0.004854452807819683 0.008641423585941509)
(-0.006352120568227634 -0.002759055322989491 -0.00917653699491144)
(-0.008791051967249011 0.004402095384407575 0.02773063582164131)
(0.02175614239714926 0.01171688476059485 -0.001876927915758255)
(-0.005060629185573248 0.0005302272730336672 -0.009529082010434344)
(-0.00706900382690287 -0.0001508053883862263 -6.018275694282599)
(-0.7282611253181519 -0.1018902141040866 0.6871037274070506)
(-0.1173564145714614 0.0799156950009771 -0.02953403952033605)
(0.03201900132288469 -0.04217196598916181 -0.163539887697)
(0.09403673318399047 0.07429132017969264 -0.01983022761239966)
(-0.03177369757294081 -0.03343032233545564 0.05314917595045157)
(0.009572406411131098 0.003508388606953167 0.002814527495368722)
(-1.119173627522726 3.963250457055036 2.020684782100719)
(-2.476464143441761 -1.346697616853547 0.5401656196680013)
(0.002615865450792865 -0.0006012617617094198 -0.001052983899782648)
(0.005129469222131705 0.002538513096172963 -0.0003796507013251631)
(-0.006918345234649048 -0.002182368295839507 0.003271066459260939)
(-0.0005954646946026033 -0.01432615624626673 0.01259770176660989)
(0.001795679919487647 -0.001935198027435918 0.003532734547817303)
(-0.0002488349603343362 -0.004919858464918951 -0.01077239215004543)
(0.3087699115117472 0.04525697750935401 -30.98460398634064)
(0.03665248395306725 -0.01713444938257061 0.03546138099193463)
(-0.1156062778880176 0.02023234144145412 0.03026869812887902)
(0.01005061823945895 -0.002464442022834087 -0.002232684410066957)
(0.0007468695629599904 -0.004741455852211921 -0.00294034480540308)
(0.01010862955036419 -0.01174352489885823 -0.02038769655366678)
(-0.2099893955503012 3.111890796238304 2.797099320867293)
(-0.005680310983651848 -0.008739745820989022 -0.005306086982806647)
(-0.008119328153476775 -0.002921032871928008 -0.0004719669379859505)
(0.001806380504999616 -0.003735786713567977 1.671320489377232e-05)
(-0.0004726939924058698 -0.003336688809599213 0.001107788452392925)
(0.00177619928710422 -0.0001352692148438091 -0.003041115635208477)
(0.001798952994293273 0.002622528476925407 -4.199301818292526)
(0.2709965791414712 -1.434292763674854 1.105782570437851)
(-0.005365516079218194 0.00803866070674659 0.006106854154155673)
(-0.1417681994103183 0.2200145754338027 -0.343797055939095)
(-0.00552852793717722 0.0225903604194185 -0.1959566453060834)
(-0.01367671448567771 0.07023213610104451 -0.04545735466393364)
(0.03065688604302599 -0.03169525812239312 0.02945458755960859)
(0.01282244850926185 0.05095038816227183 -13.18467794056671)
(-0.007441756316206648 0.00841683608404141 0.01202824512805794)
(-0.2338065329531767 -3.23338511462375 -6.533110884634755)
(-0.01102208375258338 -0.0134026811153136 0.003556824912510625)
(-0.4458015024932813 0.5001942300287119 -0.06135371784911239)
(0.9974154184764195 0.4111458896422668 0.07976959643646209)
(0.0006349576871713382 -0.001987282688611549 0.0001366292880551696)
(-0.002152758528840168 -0.001940386327780338 0.0005944589747433459)
(0.008693621376665425 -0.007076924893790756 0.009889384732696922)
(-1.721893637735285 -41.48434204539782 3.425865809594424)
(-0.2781638481218307 -35.46128339175887 1.908794975198281)
(0.9067166998409455 0.5344817296848792 0.02304145832722854)
(0.003136808176620918 0.00629772003754761 -0.0003650368880899378)
(0.4361129702730951 -0.02553384411084161 -0.3700515371358962)
(-0.01709492568136912 -0.002574710714088494 0.00346493093598436)
(-3.164947097411932 -30.65764966772321 -3.262265394272896)
(-0.05621006984434625 -0.01513957853803158 0.1808497049708533)
(-0.005598753262634171 -0.07118951942763299 0.01183178798943071)
(0.05156023008834973 0.03106729162802753 -0.006041669626683164)
(-1.580847431111722 -12.07993663194667 -3.21215473640615)
(0.227584921941364 0.08500926981262125 -0.5129250246318203)
(0.002229785933024724 -0.0002590104118844933 -0.003394978255832055)
(-0.09814025774843978 -0.1912157109162894 -0.04339283797709632)
(4.036416372800806 39.59292079054132 2.669396829573315)
(1.075170586173511 4.415884449502736 -1.195151743657974)
(0.004881887803687061 0.004491583824483222 0.009310436788065151)
(0.2304448657558458 0.624815929745474 -1.041212968154135)
(-0.6654821834320629 49.5602613630595 2.579844413556159)
(-3.053797840312985 5.520971950597568 0.829668072466245)
(0.003850664027242063 -0.0008147235109983741 0.006672129612503985)
(0.004409651992128666 0.0003966100575101157 -0.005976475812333548)
(0.00342782413976323 -0.008958018222314668 -0.0007682747953741288)
(0.7426566061778878 7.468855051427509 -0.9453688559647678)
(0.001863860613904143 0.001798934634347586 -0.001329012069176021)
(-0.01227454579436999 -0.0233467010551591 -0.003836719899634305)
(0.08852464336092548 -0.04521510858033814 0.007805307346936892)
(-0.0006900924735017498 -0.03172360092688079 -0.02260727268655234)
(0.09282348082846978 0.2780137167193792 0.2201763920931422)
(0.001320403376498276 0.003617036508277875 -0.001701630626733432)
(0.03112592237060898 0.04337278644736856 0.009631688721615655)
(3.610137674388427 -68.12972961801663 -4.422644228793788)
(-0.3338415123694202 -0.2179651567854939 0.2839262531725235)
(-1.687094457903259 -2.958879083726917 0.1576005787623024)
(0.002398868949927004 0.001142885667208816 -0.001389717321325608)
(0.1020885690943934 0.1107431267641015 -0.05578770401211595)
(-0.0007658765246357747 0.0009787547138572781 0.0009427501993052768)
(0.1677909851290735 -0.2075229913059095 -0.8405556928146638)
(0.005310995476178067 -0.008163572562915831 0.008601675154804136)
(-1.395930655283827 0.01934701432449759 -0.4457744707757644)
(-0.03909622804831219 0.07636919099502383 -5.684456757483742)
(-0.9986721492488572 4.93727277612622 7.931149041607752)
(-0.1937479393472268 -0.004316394688325356 0.02386687452950741)
(-0.03012027575607054 -0.001754850448862921 0.009471660474941745)
(-0.3052400005126015 1.874531312430864 -0.2495603608377494)
(0.2745563475195495 0.4726721857732428 0.1633961363764903)
(0.06791008968170767 -0.4181092031168342 0.0703211517657347)
(0.1123616379205145 -0.1079967934140174 0.06634401744559995)
(0.6403020088766165 -40.1114492316477 -0.7261564288462458)
(4.921225860005349 70.15323893809986 1.071537345226166)
(-0.00942949639967804 0.03264794305799557 -5.972747323300946)
(-0.03040008579244143 0.01568075198798751 -0.02311653718300043)
(-0.7043736367657323 -0.1739039996913767 -0.07564142677564355)
(-0.1162691152515038 0.1250063198276411 -0.005572985654329045)
(3.92518645403996 -3.252354691842777 2.099825430218592)
(-0.2181150278930754 0.06189860625603455 -0.07498990983148433)
(0.002941569946559297 -0.004557875374131574 -0.00395104306752875)
(-0.004236544959144854 -0.002414848961552644 0.001486869753913175)
(0.009562976311969871 0.004022884677645779 -0.004032269098263899)
(0.001159262169473827 0.0002138283099236873 0.0003007720529372163)
(-0.8888009002379308 47.5599145742929 -0.8860464177086609)
(0.01623815781319445 5.200209045856175 0.689031867163899)
(-0.007972069590178554 0.0005147064416033574 0.002482500888625984)
(-0.008388170578293254 -0.01830798990108226 -0.005338417253638547)
(-0.1206420059815106 -7.077680423959134 0.235745050583746)
(1.502233430965586 13.35216576541997 -6.028138270688894)
(2.591519381219674 12.40402061266251 0.4637482713881358)
(-0.3281871130670051 -40.39339502487563 -0.9982834313188231)
(0.2916314660928878 0.9996058928484665 -0.4313073686635971)
(-0.02732338375079885 -0.07397498161250594 -0.1023816156419794)
(2.607146120239402 37.96134371867698 2.745473239299109)
(-0.02071929955180635 1.108767103989365 -0.0980560129584099)
(-0.01724112775506018 0.04577672825448434 -0.01252401033513699)
(-0.6726400365321877 -7.739903673011791 0.1145374443122162)
(-0.00259662744509177 0.0005849919440718254 0.002229207824831618)
(0.77487603059584 0.9183010220698402 0.1521284656631993)
(0.1047474144544207 -0.01422487457746144 -0.103272387159692)
(0.1838273280681211 -0.2009483927593392 -0.12908265287519)
(-0.1091301258136039 0.022891736789361 0.1506829276564747)
(-0.1101216526453494 -0.07876270850282814 -0.08557384234635618)
(0.006379277571489084 -0.0001617864387041866 -0.008570241809960114)
(-0.7195761374689517 -1.451322898981742 -2.575530854456946)
(0.2232077487704782 -0.8758337635722109 1.166148011954285)
(-1.97284638813237 -6.454535520011853 -2.243676304893578)
(1.615946511390166 12.98714779457329 -7.109199016366216)
(-0.104609415703517 0.0168452944274088 0.08301368664683252)
(1.148905804402347 0.9692132683113439 -2.237900547481727)
(-0.02601789975389637 -0.002036048732137741 0.02663518005216201)
(-8.197529430169761 -7.600143205888859 7.49101505690416)
(-0.001515527655418159 0.001542665239494895 -0.01154942507871717)
(0.001031827663402908 -0.002295672150525187 -0.002904055941039731)
(0.1496254401691812 -0.04135677165156856 -0.04325170961884787)
(0.2779893921962577 -1.66490610879838 0.3125215957301669)
(1.499928813932558 -14.9958399044651 3.867762835653474)
(0.02789622086687642 -0.03065661116279476 -0.04436309379730722)
(-0.09900709214511635 -0.1520566817943095 -0.2091624453287868)
(1.964494076146599 -0.2945933146998487 1.441939285362022)
(-1.121620800522281 -4.776211053324391 9.87214050134291)
(0.1401012082415911 -0.1251423797446564 0.04942263593554821)
(0.08826615335122018 -0.02124888695329803 -0.03539305867779256)
(-1.251682604816543 -0.8235204542208014 0.03006216505447745)
(-0.04096871972686586 0.1052225150628397 0.2532617810996732)
(-0.0005573602312135156 0.002038923161692037 -0.001816404334832949)
(0.04299609828867508 -0.02161609737228287 -0.03478006397452768)
(-0.0393807560355276 0.07420741293031448 0.8163197285844337)
(-0.01543590926551797 -0.008936930013361488 0.02114931436318558)
(0.7132259471520777 -0.3146614571394262 -0.2829119290809035)
(-0.322292475540829 4.352097253851618 -3.214425256791608)
(-0.1868937306661997 -0.08968279504140979 -0.03321179874665624)
(0.00885789677500908 -0.0005056497286118388 0.003481099300964328)
(-0.0006344725179820498 -0.0009197737141297973 0.0009376841698098433)
(-3.413764902169686 3.041244064742844 -9.78884487676693)
(0.05872123367945067 0.2959634685569444 0.1422876351309056)
(0.7134367375504274 -0.6032410380157257 -0.4485209698885102)
(-0.9873816310230394 -0.6165649334432876 0.6222120536473709)
(9.644924623560966 1.590373436081023 3.116301179809395)
(0.6939671320340277 3.78406815324282 0.4884160285831967)
(-1.352520415330434 0.696860094384821 -0.4410390775057034)
(-0.000838152674453441 0.01426814009926091 -0.01627784743436746)
(-0.5254575271222875 0.01843238692301349 0.04659725772724656)
(-1.085058552191444 0.4532469893583948 -0.3286873257243196)
(0.03755893326037229 -0.04600849960417155 -0.09197799920849484)
(1.346432511115119 66.18557713723411 1.604338630019978)
(0.004231468789632657 -0.002161361949913626 -0.01907880610094215)
(0.0003186776587096731 -0.001669674267185414 -0.0103284168360757)
(-0.002977740272212554 0.01481606499317267 0.01474756718130348)
(-0.001460749361362143 -0.007746042192103977 0.000936674724598725)
(-0.5328006068561486 43.48028132676 -0.2872600061764978)
(-3.614421936482428 -2.899096540823749 0.8477286329414476)
(0.004870630489435824 -0.001635592292458601 0.01258336002093479)
(-0.01665735978560778 -0.003363644316419625 -0.006717006052248864)
(0.01000863992057643 0.008553108795373736 0.002698439010014583)
(0.0004265734478522058 -0.0001455813959235359 -2.759952485543679e-05)
(0.0007895856383931991 -9.227236658515607e-05 -1.963074083330602e-05)
(-0.7261856124731472 1.245807531565073 -1.596756527864017)
(-0.0002435067411013918 -0.000148753731028331 0.0003909196581504306)
(0.2402725221638616 -0.6830106202320062 0.6788398479971972)
(3.782875474903221 60.11586864208841 1.718530276424438)
(0.4538694745075911 0.2720566442572077 0.003410439818241018)
(-0.001721276019015506 0.001030074831215276 0.017427293344387)
(-0.2333550740030886 1.465762547192189 -4.877581545403797)
(2.451193536378296 0.1038157196205158 0.9484593446902583)
(-0.08605725095400543 0.08862578182719116 0.091028886953632)
(-0.5278234506673249 -4.431734919775838 -0.7660999803033386)
(-0.1187336395450713 0.0485747654107458 0.04241968513538732)
(-0.160979074828695 -0.05405383674402103 0.159470789362523)
(-0.2647431432288858 0.09803991332257728 0.1061144790791093)
(-0.005420226134904805 -0.006930191005930814 -0.005287485326468618)
(-0.04601705148773828 -0.02126864944137332 0.01431859791742913)
(0.05150880938672782 -0.01406854122044436 -0.07126347169917577)
(5.264515384264695 -49.25701112065794 11.04099588788086)
(0.002013490109609686 0.007868013538651956 -0.0003160575337776627)
(6.120105895643736 -46.92814988673306 2.875044905367864)
(1.179037472967694 1.928683972993195 0.9974223068195804)
(-0.0006651611546671886 0.003182476145352559 -0.002893527619087776)
(0.03303159853687195 -0.001324844228338357 0.009709753438145365)
(-0.01026007503873959 -0.002103625672155431 0.001642135302112045)
(0.7025090587649736 0.2164393598857544 -0.3110781455322334)
(-0.001855757004578345 0.001970335037707284 -0.002216184534051773)
(7.594508587740568 8.865825088614693 -5.859827357726157)
(-4.049745745432583 -5.565678081142858 -0.8474617770380852)
(0.4738427596441641 -2.610650395758595 -15.61442038490028)
(-0.009783521245777242 0.006013909824595151 -0.01748455781403142)
(-0.7385681132341753 0.2599800563563303 -0.3040586289453235)
(-0.003509268736553051 -0.02402942576037721 0.0008013986066857104)
(-0.2619805092020536 -0.09971664702719019 0.00709357472090956)
(-0.01934552745882007 0.02284234174548529 -0.004494881332401147)
(-0.3918615685770778 0.1226851327368796 -0.02380091381390623)
(0.1775796098308897 -0.2308598873078088 -4.148463388839983)
(3.762879154354714 1.926984485196464 0.1610283542511326)
(0.006535838413711371 0.01559546419407505 -0.02755105233483129)
(-1.185248673027302 0.2434884935145809 -2.761703735461246)
(0.01915751528225879 0.04224519444854823 0.08052232109703067)
(1.425740256819545 35.49132047569017 2.332914801815877)
(0.0512268184205637 0.01448249556055736 1.080692646445371)
(-0.1869442697394902 -0.6682556231851418 -1.16219843204645)
(0.001758820470626372 0.01527073186679894 0.01411904703475542)
(-2.163829767964217 10.21542363476704 0.5333372192621501)
(-0.9412830970264359 -0.6313782707329196 0.3336679312790234)
(0.05121550112165896 -0.008835732354121462 0.1683297714497138)
(-0.431724441745241 -0.00433294218398576 -0.008374691445076465)
(-0.05120261767646598 0.01153323771349167 -0.01214852606123417)
(2.633818539203865 -6.195512893940355 -4.729768916590378)
(-0.002675428842908461 -0.002855484577524035 0.009208616321648225)
(-0.01307418050057584 0.02505353743052004 0.01036780090262022)
(0.985582087619799 -0.6173092992120255 0.9326881908761135)
(-0.001988002670302259 0.0004746654017521087 0.0004255843632408286)
(-0.0007803227310601705 -0.001351033124937919 -0.0002197439697351504)
(-0.119393374760333 0.005915741013411691 0.1827494717586383)
(-0.2292206797254214 -0.06826122521595972 0.05642351792433594)
(0.0356069061242891 -0.04292608093553241 0.02799133185227454)
(-0.002002589830037129 0.000109893425243855 -0.001666098533314676)
(-0.005622017755031171 0.03253023750480238 -0.03629215741782609)
(0.004694763202298478 0.00291718572824598 0.0002935870348371112)
(0.06191927799221181 -0.02610500480272588 -0.006513532326875513)
(0.001541896836444052 0.002728503209610789 0.00487714165206712)
(0.483548328322858 10.00199087203068 0.01802311373729321)
(-0.002736191975746785 -0.001673641302260344 0.0009183129535820441)
(0.003119697690141243 0.001026366909606099 -0.0009106234214091645)
(0.00124036144491143 -0.001100364794473128 0.001646962683295642)
(-0.4708489176677877 0.3855460241902666 0.4463206496553243)
(0.5738750986268497 0.04950770119633413 0.03919293251576428)
(-0.0007261613012514176 0.002526620970961881 -0.006050942580267499)
(-0.006724839408619163 0.03119374182506671 -6.579220058677851)
(0.000744484628762205 0.0007026191025089031 -0.0008594731792638732)
(1.191987251615287 -2.344455621858923 -0.01420617196186991)
(-1.653707022904393 0.6082455264121732 -0.3822102591561995)
(-0.0007787542050723395 5.815338919697894e-05 0.0004851446686094236)
(-3.090045832920504 -3.615947697778636 -6.066468367012821)
(-0.9879287618046187 -53.61618850997755 -4.924036971397054)
(-0.06143827006139396 -0.008877634475235548 -0.03842395736053451)
(0.0003024533633586379 3.961662398468416e-05 0.0003476419972981291)
(-9.531584426542485e-06 0.0001205114996703791 -0.000240403463353544)
(0.5490276649770515 -0.4677276883398107 -0.0524658808794822)
(-0.03670489317057626 0.07420405787365456 -5.610873465815769)
(-0.762174636810601 -0.93990438864899 0.04052946224952878)
(1.566162684290093 -78.29499105982859 -10.82627752769205)
(0.07030353243013263 0.02416017410926267 0.09536774024767027)
(0.01018523019872392 -0.04478105947196815 -0.009614433378142922)
(1.154228954586847 -18.24572162837703 1.287225345693855)
(-2.550878680670795 -0.7517926692916281 -4.655578149330662)
(-6.76444205088857 -69.82001311045612 0.4574872899040254)
(-1.968276623413096 -0.7882916192999506 -0.4542571755576695)
(-0.9365277984393567 -0.9786690730633432 -2.37228943205942)
(-5.023230395400803 -75.48947678763835 -8.682250633206865)
(-0.9773534639598117 0.7036256759777736 -0.6927021595508559)
(-4.915703219568359 -53.21871071813495 -5.608736171350391)
(0.7532900054810178 -1.150999574070821 0.9988838808573015)
(-0.3268732432652506 -0.1644999910150778 -0.1289672766835565)
(0.05862148444955181 -0.02500569209506491 0.07151388431837931)
(0.0202424910188716 -0.01741733230065801 -0.008605979193375152)
(-0.4735811361551281 0.03865030003682046 -0.09269570631813437)
(1.246175873119715 1.29211160385596 1.693539996146651)
(-0.01265981863022886 0.06871400250097359 -0.1366808068133993)
(-12.20938034780787 -47.66733262380722 0.8328259531858349)
(0.7816267668188709 0.7062083062254967 -0.1389152618674024)
(0.140751727498427 0.03168890086835136 -0.04326582972793173)
(-0.00799481033541188 -0.001354727571660111 -0.001592527127955504)
(1.735425745756274 1.073832108028049 -1.255952667858035)
(11.9462988613341 98.7541996633896 -1.63619197888722)
(0.4141124487326571 0.05616051041971359 0.1672154629015741)
(0.005746797112467947 0.006134116234522889 -0.008909756400739103)
(-0.1136871117033429 0.17061224923461 0.1833728803433996)
(-0.2585662374170963 -0.01900750791158407 -0.6829756528546848)
(0.02717590901308083 0.008578006398388949 0.005409769787287951)
(-0.007949968233608318 -0.005941255391802066 0.006793109297364024)
(0.002802910264682303 -0.002676545348439079 0.003164146946758147)
(5.855808892426254 82.35759674689018 -3.288314567980799)
(-2.195836717020195 -1.29850751567347 -1.54461306403469)
(0.01049708180454337 0.006888928298385198 0.01234110431624652)
(-0.9829954436131787 -4.481982522077413 0.8990664308682459)
(5.660724315582316 19.42263134690575 -2.339434723537295)
(-0.001790610465247644 -0.0002601939132558131 -0.0001077032553864598)
(-17.30884643835874 -16.09611956957196 -1.431969164749457)
(-2.427103303039373 -0.6090762590077716 0.4718920289472744)
(0.9067966773754103 0.5712704021653531 -5.078557531533372)
(0.0002640315765123576 0.0004115891854470135 0.0001225901956380779)
(-0.1819660474382997 -0.2052603592429015 0.02289142777241293)
(-5.513551596648331 -6.605629301353531 3.914269183394868)
(0.38373637259508 0.8477879953460091 -0.4623759201146111)
(0.0005785473823710069 0.0002237796694233196 -0.0007432746282592254)
(1.436526556673032 -6.441752134356221 4.989822988552158)
(0.001217704117264223 6.893103589035026e-05 7.723407345523969e-05)
(9.115721296553335 2.724179458442394 5.036566627126111)
(0.7609047106933216 1.707661882315329 -49.21676588183252)
(0.001338247131229726 -0.01425304209001982 0.01610436598321249)
(0.3156470398103561 -0.6675377417485601 -0.02650692883250978)
(-0.2890127166653483 0.3191212330163927 0.1380529008017017)
(-3.980675436276267 9.079746969961281 5.074033836655073)
(-0.6158247663781874 -3.965157595156289 0.3188350194819838)
(0.0003031861417314158 0.0001957512939969342 -0.0003234386184671762)
(0.0005744669978423725 0.0002102941052663518 -0.0001475679559051064)
(-0.02117296597909517 -0.002418886037645946 -0.00533525928936168)
(-0.1315991546086151 -0.0873789660008932 -0.03635018597113582)
(-0.01651155051720663 -0.0324570701283208 -0.001051431275547014)
(0.003353006270981802 0.003356183457906691 -0.03574747588737574)
(0.003169027406101829 -0.01272150843020593 -0.007498464871453917)
(0.0006169993347575194 0.001037731389730173 -0.005321307216050313)
(0.003649048210200824 -0.01821990552775221 -0.01493063037826655)
(0.00262394459238873 0.004555935794287105 0.01156360994339084)
(-0.1138447706915404 0.3141377805048046 0.0003615306165453969)
(-0.00624329411788006 -0.0009606779656497928 0.00876903257494341)