/*--------------------------------*- C++ -*----------------------------------*\
| =========                 |                                                 |
| \\      /  F ield         | OpenFOAM: The Open Source CFD Toolbox           |
|  \\    /   O peration     | Version:  v1906                                 |
|   \\  /    A nd           | Web:      www.OpenFOAM.com                      |
|    \\/     M anipulation  |                                                 |
\*---------------------------------------------------------------------------*/
FoamFile
{
    version     2.0;
    format      ascii;
    class       surfaceScalarField;
    location    "1.1";
    object      phi;
}
// * * * * * * * * * * * * * * * * * * * * * * * * * * * * * * * * * * * * * //

dimensions      [0 3 -1 0 0 0 0];
oriented        oriented;


internalField   nonuniform List<scalar> 
37377
(
0.01501772748831269
-0.8080201806212561
-1.449026477421877
2.242028930543155
20.61970700645548
-4.648879502093689
-15.97056568083515
-16.56252950272174
8.222930529716477
-13.29053195366527
21.63013092667269
0.2233433969333039
-0.01542002629461569
-0.03195926064493185
-0.1759641099788331
-13.910699549294
-12.08145809388331
25.99153890030871
-15.07926617357502
-30.35306303612241
29.13151071144379
16.30081849825029
-8.941551314130534
-24.34296473446551
21.28112161218097
12.00339443637937
22.75644339448156
-22.15993871797296
0.5015423974597456
-1.098047073977613
-11.2753600148266
-5.81095342719315
17.08774560854614
0.1570533962560463
-0.4823240275811189
0.4000186168426327
-0.07474798547158297
-0.7265149659338695
0.5874321048258061
-0.6655282937415566
0.8046111548936919
26.58926492146801
-24.14624289113162
9.192309964233976
-11.6353319946239
1.511631621382193
-14.62320376258491
-14.31336779564367
27.42493993682663
-10.10326948422487
3.662841439495844
-11.81907720467662
18.25950524937589
-1.432775703750813
-0.6500040580356072
2.209883096645522
-4.873487971292057
-9.485419797705219
-3.432910087083265
-17.14048601077737
14.55744735289453
-25.46237602345761
28.04541468132243
-14.91654098224046
29.47850821994532
-14.56471047494923
5.336965466464355
-18.78062161140303
-5.07732270155992
18.52097884649075
-19.60388189054597
18.72097372804776
0.8832951043783585
-0.8240699050706567
0.3084914173227391
1.128097484440219
-0.6125189966496837
-0.2397021201376064
0.1652786160821142
0.208839631034966
-0.1344161269651871
-14.0992748094478
17.92112255461906
-2.549266945767333
-1.272580799480445
-21.67939748633313
-14.97605009025623
17.05156568604243
-4.709906434361832
15.79298998643184
-23.88964780787379
12.80656425580141
14.85036773242514
-11.62431088352809
-0.3798254271660291
-2.846231421732228
-17.09542610790463
-9.023799300569483
14.70572808533922
11.41349732313119
-0.02713932259566238
0.01078059939370326
9.713742732835671
-20.25220275841133
-8.171277242100595
-8.444015691831751
32.55891699507309
-27.41921519266775
3.304313889418757
39.66850163669076
-16.63538542175516
0.7779048834716945
-23.81102109841188
23.53395779095092
-16.28418863550789
4.243203955169131
-11.49297311062169
0.1597773542582708
-0.2670185298598513
-0.4820867092320341
0.5893278848759952
-0.1217311462292635
0.1055424909898194
0.01449120346966176
0.001697451781457589
-10.20335080236483
3.517273919343988
-11.99656921896269
18.6826461018336
-30.5426057134101
25.67652613628406
1.530658615783877
3.335420961326986
16.61594926029414
-19.01141641891026
-17.95652986873317
20.35199702734902
-26.56178652963889
-1.131819195052627
4.120204586957982
23.57340113773177
-3.483213482770073
4.90729177569467
18.21488125313669
-19.63895954606511
-0.9408478526734597
-1.522346429969593
1.352270263181545
1.110924019465504
-11.21942495527083
2.014932460339739
24.95211343667996
-15.74762094174884
14.27481558786837
7.288481294150299
-5.892615416159488
-15.67068146595163
7.333764357662457
19.98143782415323
-43.19769055663728
15.88248837481915
3.145000051969697
-19.42884633190435
-4.105699493823214
-12.71836010440009
-10.77085201445515
-15.57466972107517
39.06388183993044
-18.93645584845695
28.59516706919949
-5.702562352982947
-3.956148867765047
27.32183351390796
-27.16892667995642
-3.799910972903204
3.647004138947385
-21.59159770408199
-16.49687256318885
10.12561554497378
27.96285472230432
18.59416928625095
14.13515794856833
3.006834634189315
-35.73616186901312
-20.22602126427712
-6.319899729607213
28.08210225239507
-1.53618125858589
11.48806346548944
-20.38078650453411
9.051662791188301
-0.1589397521421878
14.58412647655961
-17.49914000232663
2.915963703889917
-23.26494379806737
11.40108770743422
10.94241001465979
0.9214460759725976
21.61087961294774
5.184935924326517
-2.020740993309428
-24.77507454394079
31.04185606954917
-9.162576093427717
-0.9223786122599729
-20.95690136388122
-2.966145973453596
17.55121718813747
11.35744900079938
6.677545964485271
-18.90437787098616
0.869382905600535
-17.51256122036729
-3.567696956126307
21.0809486108509
10.32157496043206
-4.163818504133599
6.501514531378103
-12.65927098768172
-0.5038691630558056
0.07399942118784145
-0.9046614250340961
1.334531166960619
-14.69429337528237
-2.095944667356552
16.79019509965286
36.66892573748138
-9.0974230969401
-16.74910754103379
-10.82239509951144
0.02824413703089322
-0.09743951193476622
-0.05253577131883416
0.05654372144887154
0.1202835957218009
-0.07128482616994634
29.21889239318317
-20.03734564486115
18.46737978599928
-27.64892653431193
0.1351703289964423
-0.1198783337475018
-0.0008007917693056076
0.214366550437881
-0.0868270238617386
0.03773908951253611
-19.97840975989611
0.002395237754471627
19.97591932089533
-23.79845117112955
23.96492401339411
5.820875009865645
-5.987347852121757
-1.555155249248959
26.58157587124304
-10.7041688907856
-14.32225173133112
2.289102986998965
-2.216240848385963
-3.681887485488479
3.60902534694002
-0.1427449970241201
-17.28660311579251
2.526713240525188
14.90263487231002
5.844023473817309
-27.41823861298785
-2.277129625158105
23.85134476432668
0.01945308195508428
-19.99799505768517
35.21864730044368
-9.093421531461424
-46.46886459295998
20.34363882397172
-7.246253474709706
-4.339903010481316
32.36445853690387
-20.7783020517129
-23.0578194928546
14.84880148336902
6.140092634660553
2.068925374828049
-14.32445818240187
0.9293095942633759
-5.755541104667829
-18.46803066862144
-8.643820737455421
13.93658100565429
13.17527040035983
0.8083942283403796
-0.5482333436464473
0.205577995116404
-0.4657388797981123
-9.77665872768787
-20.33413937821992
9.451950946352113
0.05709574852898937
-0.1162569223540824
0.03806880055323851
0.02109237328854998
5.397166946550625
23.76923676316217
-7.652576254038361
0.05076870843070806
-28.53325527570589
25.7919490117227
2.690537555534284
2.398610679408577
-0.3941091150054002
12.56836397196876
-14.57286553637263
24.21356710076198
-0.2341030015727163
-5.286286184724642
-18.69317791449188
-15.8725918260666
-0.1787210743881367
-5.628084585881584
16.45574224392664
-18.38705948039496
-24.63046929317175
11.79106657837653
1.860685244504777
-15.06525823129645
1.413506408367892
-25.42102301370373
-0.5750567224459727
0.6644511741311337
25.33162856201618
0.8963234959467588
-0.9465108824156009
-0.3261051182238563
0.3762925047150761
-13.11834558052695
0.2218227085546642
12.89681391781891
-18.25353486454037
17.09134969425125
-17.06721657149607
18.22940174168804
-1.726895191235545
0.2451790726691675
1.456509774508481
0.02520634404674706
-6.396787087157794
22.85257346112764
13.0053875197368
-24.87299645163746
25.29856122371757
-13.43095229169576
15.70077808688418
-19.44888021637119
11.0458658011266
-7.297763671643305
27.80581378466101
-13.26436156302128
3.66678818786637
-18.20824040956541
17.65496297108774
21.90069271373807
-22.27447387865376
-17.28118180617831
16.75415887884987
0.9007457269039799
0.1528949570697737
-0.01110362410160178
-0.08252555869047366
-0.05926577426225427
1.844056315918635
14.08587074597992
-10.87097654722286
-5.058950514676793
2.797700736614467
1.388554918878525
-1.424389870034415
-2.761865785359323
-11.65946767183388
-5.958144236275423
-2.600729206889095
20.21834111499154
0.007836445917038842
-0.1237323839533331
0.03247265450131352
0.08342328354881023
0.3491795425693138
0.07019349291065889
-0.4161081605375987
-0.003264874925440885
0.01663581869081943
0.5700511498528323
-0.5846165289712829
-0.002070439553931708
-0.7666546828709871
0.6954000202451905
-0.6020434930703139
0.6732981557724367
-26.03671219426124
14.37902649774263
28.41184457536282
-13.88313485430797
-3.615529793072511
-0.02695357934034407
0.1497150077235007
-0.1251887114481551
0.002427283077593797
24.20633255158455
-23.65313776892796
-3.51934075611146
8.007620529915751
-13.58178099339802
23.76852296708085
-18.19436250376263
0.01680076999279845
-0.04047055664693482
0.2380363371007731
4.270447659079275
-21.78240619631055
-0.3099990289972664
-0.243501489864328
0.4099842151925084
0.1435163036972325
0.01841710418293192
0.1732969462681664
0.08428208327747105
-0.1281281915265629
0.05144759088887588
-0.007601482620642306
-17.79461305387223
17.28453474369607
4.549884313671698
-4.039806003485872
-15.79548715235831
23.34161964352293
-3.565219812230262
-19.77609489781169
4.77569040946155
-19.93723983734617
1.995879706787258
13.16566972130906
-27.28722099719827
-0.6996484888327226
31.6016635613188
-3.614794075299405
-6.579895676451271
-23.89874377849181
23.80686203830284
6.671777416630488
0.107878372926616
-0.08127013139236482
-0.0001018381682578366
-0.02650640334793641
0.5073612377469687
-0.7269419893110055
-0.009330075007984112
0.2289108266125404
14.92609762458379
-0.1707455015252303
7.201980210221161
-21.95733233328212
-0.4492009753047292
1.086587342184896
-9.379416864712757
8.742030497801652
-9.637648485748326
-16.78184020830305
19.61910407929447
6.800384614740752
15.56358079712593
0.101477932621742
-15.55025933340415
-0.1147993963445508
19.76657815605754
-24.19781164475937
-8.452541080537735
12.8837745692421
13.16265376645153
18.19488836836333
-7.825355966907372
-23.53218616790907
-0.2114930689676183
-0.542223187721688
0.3499923665992768
0.4037238901036486
-7.315238647344356
11.12027437307079
11.60305831103426
0.5174245197325597
22.0831111028399
-16.03097565173798
-6.569559970831564
-0.09460016758495765
1.429818182540718
-1.329902155286213
2.417376937497337
6.054860214496388
-9.723132148715477
1.250894996763815
-24.95262681957142
14.38710597665864
32.17640045591388
19.07159156844206
-8.147170926564373
4.001676982704513
-6.809425016753659
-1.399154836278456
9.521940250037135
-1.313360396917891
0.1120863668169376
-0.1247242489546048
0.01263788214648669
0.07289545238491155
-0.1430867322533285
0.08818362892037482
-0.01799234904360311
0.08485697705262872
0.1017204361815301
-0.132613190486215
-0.05396422273908785
-0.07529614055556053
0.1175537754835129
-0.01401349788878741
0.1305034710027889
2.904851387984849
30.42956156160975
-25.17028959716877
-8.164123352423792
-5.758211745119101
2.594781370455064
-19.38828227634901
16.99493141920244
-10.05687940054166
-8.301591376071825
1.363539357403823
-1.757523429792957
1.88726742583594
4.447789818862669
-4.577533814742538
16.01476123278597
14.20037208493918
-17.08721641974081
-13.12791689798764
23.88683836790277
-8.355586601670105
-1.225120755167015
-14.30613101111257
14.39972793723942
9.383856289565992
0.1032541410583029
-14.87604599524877
3.041112359571433
-4.516352087884442
16.35128572350591
-16.93709889063355
20.59587366655296
-16.37713488032034
1.801503960732331
-10.52906663905826
-9.379728206187801
15.46978680900883
-18.29319372565034
12.20313512279609
2.773334110422337
23.1212775121103
1.170510289443482
-20.46870730992323
-2.429858374352033
22.89864013627659
-16.96648071031609
-13.58330297662688
5.842582323978521
24.70720136287764
0.008875499904710715
-0.1120027415867431
-0.01675109205831994
-0.138872583861818
-0.007538476998539588
0.1632118308604845
-0.1389039019477102
0.07292677047407387
-0.07754365698244178
0.01931390178831908
-0.2461500739638135
0.02041914815835567
-14.4916062123247
21.85862673142619
2.965228779519505
-10.33224929864937
10.48627681119018
9.269600771916101
-8.607185562800751
-11.1486920203061
-12.72443480791474
15.30111900730081
-19.07144017446456
16.49475597507664
22.35082528056551
-22.37774155504719
-0.2012716248415155
0.2281878993045386
-0.1401273685379139
-0.004302269240645835
-27.10024321748719
16.43032276289002
1.947247622845398
8.722672831693398
2.347242749325509
-26.29546448724613
3.137195137822472
20.81102660009737
6.162604180635195
-0.9962584405301937
0.3500377925836828
-5.516383532557794
13.83429606372612
18.06853681983488
-17.3287431550838
-14.57408972847769
35.42234018581453
-13.28990367248703
3.242074737366629
-25.37451125070349
2.391026979276218
19.64440601316045
3.503121387032832
-25.53855437947894
-15.12505471198267
-2.793496072905655
-1.96400173856117
5.731421703912948
-3.113970618491275
24.15359698492831
0.5045364460097717
2.398855715975042
0.2300973393229033
-3.133489501176905
-20.70168252464119
23.99959160967607
2.433512618875852
-0.9906228418982946
-20.04328209750051
-0.1366547458471281
21.17055968524776
2.424935737519093
-13.06692492860509
6.666084962796786
3.975904228286213
-28.48910045272889
28.52740694620751
-1.028929335373645
2.505341106252556
-30.36067325408099
7.812050050329202
-16.62239384823566
1.097686168071945
15.52509182471978
-2.322297742761724
-19.28831746980008
21.61073447916464
8.103157168818861
-7.836852497735149
22.04037636987443
-22.30668104096401
6.138061021072954
-12.11957816731227
-17.21462436228483
-11.56942433130146
12.07837210883
-5.427944002038632
4.91899622450774
15.57981306726959
25.16854999617459
-44.83997077581516
4.091607712361343
-21.63110172025779
22.70334933750441
-29.56134806996926
-5.53437302879044
5.510569038363736
32.48093279543887
-32.45712880502289
-0.710061557773223
-1.128300942700968
0.01976888635383596
1.818593614151991
0.3789173260703311
0.5853527585482103
-0.7193434925229112
-11.82617900889652
-11.0751882020679
22.90253808004052
-2.735572223015724
8.185498613558428
6.685895030741463
-17.0765398077443
10.6257452071015
28.42026512061559
-21.96947051995578
0.5704186010298151
6.67076764214381
-7.690387218593153
-0.264831742821559
-0.1552748083994795
0.1922899515027821
0.2278165997455152
15.23346505119398
-8.467562454463398
-14.80442642147748
8.038523824737876
18.78175355324835
-26.87624906736438
-19.18368422395011
27.27817973803603
-4.196897291967237
18.68365251587336
-14.48653040357516
-1.886373553663209
1.66865237226694
-1.297392972354415
1.515114153802396
0.4987367066807011
-20.26149844546793
1.310105252795814
18.45265648598594
-3.990851338355657
-20.29539411605326
24.05665606163829
0.2295893927742531
8.228188905088574
13.83392993988124
-10.04949226527597
-12.01262657969437
-22.8779815129343
11.05297032601029
6.779419190898646
-21.17997994678369
14.22981525435867
1.704095795989195
21.99771715799626
2.462590893871043
-26.16440384786271
13.05392976022671
-33.60850668939528
18.08545688690674
2.469120042259147
-34.73197408964193
-2.037530864754175
22.58612098694439
14.1833839674645
13.44906359620764
-12.67308120173875
5.296696074173886
-6.072678468510711
23.74363001182636
-20.54288159182804
-7.215535065145549
4.014786645133
30.26005730140143
3.414776299325098
-8.73380299417099
-24.9410306065616
-35.14585670257592
24.89820965354731
18.42537918037769
-8.177732131276008
-16.18633155522518
24.55460125457668
-8.367635937031507
20.76917579511264
5.949157541810662
-19.51635312670294
1.160455460221173
-7.145232489260148
-4.777224492946678
10.76200152220598
14.72430385319584
3.202681439363451
-15.52987032745438
-2.397114965107611
26.11070955766458
-3.604069393735846
-29.08220123409001
6.575561070158314
-28.81704198739384
20.10892322573969
3.843836424602799
4.8642823370128
-3.225559868352574
-20.38565013405075
3.224474644027865
12.53597630007429
-8.405148337014438
9.75167800203762
-13.88250596510549
-12.19746216389754
12.15709845010257
1.543372564041995
-1.503008850259727
21.44888123550689
-4.275158045607123
-18.39351458115505
1.219791391252339
-0.5469647409851457
-2.615562439460198
-16.28895502573531
15.08051160613038
4.733491147432672
1.345101119194177
-21.15910387275975
-17.5522281920078
11.35786011454188
6.662796711585521
-0.4684286341189438
15.12198902897172
-21.09915899970216
-10.66845727935909
16.64562725006777
29.3744704800521
-8.922345843639409
1.35864492168483
-21.81076955817428
-22.12151533819358
-15.08913202118544
10.77785602315317
26.43279133620178
20.25462215376615
-5.446266717633944
0.2721561699968078
7.584567276329914
16.43194417750046
-30.27805855894269
5.926475373393933
13.87473311412776
10.4768500714185
-11.14035065217331
26.51380096072149
-0.4815322597361629
-14.89191804887388
12.60139405089193
0.7281178328178293
-17.77637178346165
4.446859899915328
30.74033883974299
-7.243032529574482
-21.05420295675181
-2.44310335341756
12.68756318315639
8.43633858392232
-0.5632303493228343
-20.56067141775454
-2.972766571306475
-1.170539599327701
-17.05437173253909
0.8253144345759936
-5.157621674390632
-1.446457774119119
5.778765014198601
-1.280641987427939
-22.12415518294646
22.8975970330112
0.5072001373467023
-21.64888133457518
-3.426465744874303
3.685121884014422
21.39022519543301
0.4044610414613935
-2.182658901107944
-17.42315723884888
-2.441078709129417
0.04488273837486922
0.03488133910044077
2.3613146318837
-15.51616793327798
12.03345934000452
-11.7210053717
15.20371396496942
20.11678936122955
-18.43198492003742
22.66224891684709
-24.34705335806022
32.61224035709827
-12.84727477844655
11.27689049088693
0.01244179822897582
17.56339131393592
-17.57579667863579
1.923944975912547
1.719308926120749
-1.803422266674652
-1.839831635236932
4.26708329174114
-3.539596521913951
26.01739691891828
-26.74488368875231
22.5938167556936
-23.33170246693609
-4.796929798804708
5.534815510039589
20.59876253421557
5.66825020917869
-7.041598344488768
-19.22541439891519
-14.01279473536673
9.121876515853359
14.10718989335846
-9.216271673847114
18.66572530532294
-10.99138306325662
15.03505456100914
-22.70939680307943
4.268463559901274
1.234887101761087
0.6592535191210306
6.541785240539627
4.679368376601024
6.181330898998909
-17.4024845161289
-2.197283445969541
-10.2586800604134
-6.625538120560425
-20.46941269888032
-15.30294100299389
50.15138019961164
0.02000280872214216
0.2780160479672074
0.305130622149704
-0.6031494787743891
0.6261975242166312
-1.34876468701946
0.4455478808289567
0.2770192820121418
22.53529721925637
-28.64852697499151
-8.857959409645083
14.97118916536867
6.676666300666548
-4.85195483566755
2.504132914538535
-4.328844379602845
12.74081523851222
4.632882462988091
6.561070459419667
-23.93476816090068
15.02321624257263
15.67320182325231
-15.7670847862634
-12.94874923161168
12.2679252553929
12.80038075108025
-12.1195567748616
-22.90496353291205
10.67141349365938
12.23436071743647
-21.96025743542597
10.01751883104921
-1.006010627232992
-8.971018070428403
-2.581820743735236
23.82076406953812
-23.65892594874338
-0.4435645138988973
-0.5678953497779808
24.67038581236087
24.44364154108703
-5.403442520466316
6.991637685130301
-26.03183670575704
5.884079723932796
15.25472767209404
-21.29900274979323
0.1601953537625437
-11.28614874826876
13.19176244070722
-19.95129967156808
18.04568597912645
15.72621603079832
29.44414583523484
-46.36788686116203
1.197524995125445
20.52171486026737
19.43336477481229
-32.62131527741892
-16.73371479291806
-0.3258263297689947
21.32662441442408
-11.16398479634223
-21.08453783977118
25.65327518295237
6.595247453139891
19.95204798651911
-1.354255067605123
-18.59758790092126
15.76275113505054
-0.653548938838625
1.616884106507828
-16.72608630262609
-6.108801306851119
32.37596380755406
-22.51119729332731
26.46242723673708
-15.57460357336707
4.613655501144967
-15.50147916452748
30.09232877643174
10.85918786196264
-38.85391235241645
-2.097604286056419
6.045534341924101
9.473183772374314
8.446003362391666
-23.9647214766935
22.62028043253742
-20.8345281266781
-1.787402734138587
14.84933747446496
8.898968228472986
-10.34929168391938
-13.39901401904816
20.4446809165246
1.921423217755975
-22.31899862449971
-0.04710550977793337
-0.06384093672404735
0.08315050710064022
0.137775802163277
-0.1570853725212264
-15.85508650928976
10.32325547848567
5.52998409462631
26.74068456069767
-10.63422414704532
-2.092132805236548
-14.01432760841515
-9.598430828201389
-9.933103184974591
19.53242980515083
1.599234147661215
12.20886410981515
-16.93013999630231
3.122041738807326
-23.33889237447721
19.72639444774595
-14.87938720598319
18.49188513263103
-0.2529599800430226
-31.54743553616756
7.778084830716542
24.02231068547355
-16.26880669376619
-12.8250130491265
-8.137700364760411
37.23152010765907
-9.152495498309369
-32.40576085263972
10.63116330798056
30.92709304296455
-2.928148157930556
19.60126608316002
-17.64367194882348
0.9705540235953882
11.99554145353174
-13.85821472490538
12.40215283071991
-10.53947955934819
19.60725702398157
0.1937262645574209
-19.8007705910887
6.014930182103789
-6.238022096136469
-4.636023353645614
4.859115267677076
-4.068788174231621
-19.46472756573308
4.523517302921153
-8.496866407382624
10.46579013169595
17.41524025212022
-19.38416397642824
-1.726247206447359
19.57042932730048
-28.32015162921905
10.47596950836526
0.06201143817032335
0.855144727390928
-0.2909586413068682
8.112043794870633
-7.706719626383842
-12.21337585010317
11.80805168161608
17.82984820274616
-5.814906884970961
16.94115782817627
-28.95609914595027
-1.653626040574234
14.42354511866672
6.663086314549882
-19.43300539264858
-0.01193823973089346
-0.1553284513973614
-17.6858512586435
30.40551159727403
-8.795870011146246
-21.79315377457083
12.20292681883284
18.38609696686908
-26.87070478627251
-2.857049096202773
12.9940390895543
5.701689729148995
5.806079623018766
-20.47266784372031
8.964898491550956
-24.20079123594822
-12.81306202077315
10.1431484704449
0.08570718981820631
-0.07492659042104602
0.1045220412362028
-0.0188148514139623
-0.03482116105832728
-0.2585040552695954
0.072631957151523
0.2206932592105863
-7.165704214036316
6.514991032994719
-0.08158668983786878
0.732299870994937
-0.02789479879058675
0.196263873186253
-0.09291081296760935
-0.02293793607754558
0.07662724244708033
-21.62034742575104
-16.43103412521636
42.1798826513613
-4.12850110039558
0.1358019857552673
-0.1022650367863857
-0.02089906681437063
0.08064515192654911
-11.43987120495024
15.46570086566119
13.41391992028075
-17.43974958099616
10.07608807509379
-10.31418040704079
11.80082402317526
-11.56273169122936
0.8731407289327658
-3.912678843845451
0.0002646523206462793
-0.07780830929534771
25.0015872560289
-22.57869242023899
-6.23950641958158
3.81661158378769
15.58804311321624
-13.20907157377449
-5.665481911572795
3.286510372369412
9.64236622177892
15.54117838128907
-40.69971253634881
-0.1442867778933489
0.02619445093604521
-0.02503599380087799
-0.09859796906050472
-5.582739734476916
0.9292932546543206
-15.57581009036707
4.552668089792729
-16.80297524050729
12.71103359144113
-0.460726440709278
-8.672225651458954
1.511399504524761
-10.38027544626695
17.54110159320103
-8.240993084519067
-12.75901543487983
-16.46059287585329
37.46060139524538
3.541696923736329
-6.674809485791077
16.47828990703072
-13.34517734489544
-22.58576357437867
29.81582958933296
-7.229932599458608
-11.13440136190296
14.20494379844124
31.42538154510909
-34.4959239816864
24.14322091974613
-17.51951777632336
-9.789021057035724
3.165317913598136
0.01226566104106023
-0.09807395168657369
-11.96528603619324
-5.305610127896263
-5.186800093421867
-14.20640675425368
24.20400242842878
-17.38702766112562
7.389431986974375
-0.039247729799309
-0.03604841075127024
-0.06428372359753205
-6.057025087541264
-0.07909462476917796
5.403642741867159
0.7324769704649906
0.007017451970825793
-0.02295562467287676
0.1362217684320915
8.476666737641217
-12.85186221290344
7.850209824681628
-3.475014349398861
-1.064758039362473
-14.65404281799496
-3.678269098584215
10.67034708364174
-4.276724300259305
-13.62238789005128
7.22876510675989
2.620417984556834
-2.746398174656514
20.86723356351899
-20.74125337342548
0.04626894931900016
1.107359203755364
25.56884662121105
-22.14345980234446
-4.532746022706498
-24.54846815562371
6.480531411413081
0.2303887338650117
17.83754801034151
0.7184004974569389
24.0310236409955
-24.75306915150316
0.1070725321181159
0.1592329246463468
-8.413452894148447
11.52917074284246
20.22590179482774
-0.6529739340267039
13.26916931355346
-24.57147159483756
11.9552762153049
10.32795684087824
-0.7417539339989864
-2.046689769043279
-7.53951313783856
-20.4547245070629
7.656031370869616
4.301826728816287
-2.73574332088272
-0.9975418858269965
20.99325834021284
-17.25997313352137
11.78550402278484
6.343906972221888
-18.1281698513417
-0.468258113873811
0.003516333892948849
0.5125846582304182
-0.04784287821513852
15.22704577638775
-9.334900158930392
9.671435179667572
0.979557094443965
0.1386282379081119
-0.003918650996579474
-1.114266681126395
1.227888699799185
27.4078626740166
0.7387191061453471
4.217409020758338
-1.24659012267579
9.334806491448418
-12.30562538956105
-3.972661172490687
-8.914254419826804
-0.4555816976673561
0.8896182545551511
5.199321612131924
14.21562584063488
-20.30456570733364
-0.4317569719593625
1.456011560607873
0.9396285744493122
-1.963883162980565
17.59320102882115
4.735479544657301
7.564023966777994
15.6563488361008
-19.76455622885565
-3.455816574021456
-3.692545801194874
-0.373446027372374
3.313133098362366
0.7528587302116706
-1.375333008796049
-15.07027004581723
16.44596999418359
1.055471236378483
-11.0698186460721
-7.182039305940576
-0.584687036444686
-7.864461338633366
12.50696818898846
-4.057819813926716
14.4838834129147
-9.867009250509707
-5.201561198861927
4.984747423972031
0.1914749216263885
-7.489135836062526
2.312913490487274
-0.06627261999725233
-0.006917047530442861
0.02907637506084662
0.04411329247284421
-15.88288602659624
-3.027619171171667
18.17805463267228
0.7324505650893214
21.17325019183465
-22.24152165440824
2.320748029783764
-1.25247656721877
10.95402139990784
-6.637318440542273
10.1671804535496
-0.4730686137321766
0.3729432922269902
0.09660129729680442
0.003524024298074726
24.16567626720814
-5.665740612008586
-0.9870185036308688
-17.51291715158112
5.024136925376476
19.15179875999156
-1.002388261876747
-23.17354742355494
21.93155712473626
-12.22566561260332
-0.9451379074170337
-8.760753604727805
1.254834683888181
-0.2017365319011111
-0.9800889493553997
-0.07300920258706869
20.96057456752231
-13.36233415094643
4.156582928896782
-11.75482334548706
22.85337041662946
4.232701826630077
-9.352137485733497
-17.73393475753157
-16.93381250404475
-15.47994418769342
30.71171308161241
1.702043610146173
0.3256529222215931
-1.011212883938213
0.5491642732053653
0.1363956885663931
13.69648884325837
31.42976199146392
21.79714012192049
-3.365692800858545
-12.99821871666756
-5.433228604408949
0.3706365422902329
16.55750095682595
-18.4211176220568
1.492980122892117
-31.34784359946285
15.49254821037242
8.198624589268563
7.656670799780861
-20.22966691441682
-25.09627730245615
25.91513011773558
19.41081409913808
-2.354326085276805
-8.12120447595114
19.45678936191588
-8.981258800689252
25.17013041887316
-12.39117024481881
-15.13328625933984
17.53733667615917
-0.5823679812883797
8.215161723991011
-2.617305261487025
6.622234394109217
13.53240754352057
30.49419018729998
-39.1859989628521
-14.36601071730007
-26.32237396812713
-7.583369555226946
29.69744839541628
4.208295127927708
-13.49120606883309
16.64306649006936
21.4826536662958
-24.63451408758258
29.01824799365103
-34.6850233994152
20.2753978773363
-14.60862247161642
-18.52166391052265
-8.328288954393008
22.98064930539771
3.869303559365693
11.49073382765578
-29.63779938697553
4.655859490375017
6.454496281399256
-10.85813059739296
7.001869688053911
-2.598235371834787
32.96347105328746
9.611944832594615
-1.659270178220389
36.35473838255342
-13.24541847506605
-21.45004972928745
23.2078093031439
-11.89853720194159
-11.3111099535894
-16.12272218406915
19.11657854110978
-3.060263141093579
-16.05622019059087
-1.060201037366476
0.5631136852821325
-0.2612674391734118
0.7583547912314091
-10.94943007791124
-18.67788395430898
6.140610549337047
23.4867034829174
0.1610973654558116
-0.1787867253639966
26.07667284101162
-8.89143435507067
-3.89723116891634
-13.28800731701046
12.45502649988687
9.727013479524018
-10.69397651392029
-11.2897791474738
15.81293909690278
-21.38454338901894
16.86138343950227
5.437366486145555
2.844195468119663
19.0231315536712
-27.3046935079555
0.2896953496408916
-0.4046229739329592
0.318586724942681
-0.2036591005821292
22.19559985513375
8.88751090597032
-25.64574427502649
22.41825807146473
-18.15048067084954
11.99746740539264
-16.26524480601483
32.3295385338569
1.085491663398152
-9.542080001466298
-23.87295019576916
2.441031103828315
-27.78334045065338
26.51070871510457
-1.168399368313521
-12.24371873242193
24.39989537102965
-18.88068092490151
6.724504286301123
-17.17432911394149
11.9249046819536
-4.807454968578408
12.70741028274883
-30.63969238257963
22.50183444356288
-4.569552343724641
4.408150914854424
-5.170113298698674
-21.19536994943902
-32.78410484785935
26.6513318382051
-3.610019830504664
9.742792840150743
-4.559329458891687
-22.27265367662966
13.57426942297314
13.25771371254607
14.21112049155197
-11.91941947721928
-5.805201500813668
3.5135004864796
-0.2925066833388374
-0.7190055655020715
0.5691080554097359
-23.79935170370606
26.12521756162489
-35.10997070579023
21.71159185078945
-2.200849028474549
7.140589015883239
-2.900969548419658
27.99588837604239
-2.612739542122663
-22.48217928551042
-21.95836565488857
24.56630482620713
5.383189490724269
-7.991128662057121
17.11175736442546
22.30199299459053
-28.96019759715573
-10.45355276184639
32.33090950959327
-30.13790929637221
3.543871347607531
-5.736871560807677
24.2930672757941
-14.49158701414378
-13.99228897620992
4.190808714550528
-34.39300893886351
12.18771848101612
32.91022363235047
-10.70493317452712
-24.23319873063986
12.35151363562726
-22.51132384386873
26.86005897271518
-13.16070887032455
0.3028639483485138
20.13080530344466
1.622387067904624
-22.05605631969519
-5.883545140689952