/*--------------------------------*- C++ -*----------------------------------*\
| =========                 |                                                 |
| \\      /  F ield         | OpenFOAM: The Open Source CFD Toolbox           |
|  \\    /   O peration     | Version:  v1906                                 |
|   \\  /    A nd           | Web:      www.OpenFOAM.com                      |
|    \\/     M anipulation  |                                                 |
\*---------------------------------------------------------------------------*/
FoamFile
{
    version     2.0;
    format      ascii;
    class       volVectorField;
    location    "1.1";
    object      vorticity;
}
// * * * * * * * * * * * * * * * * * * * * * * * * * * * * * * * * * * * * * //

dimensions      [0 0 -1 0 0 0 0];


internalField   nonuniform List<vector> 
19632
(
(-0.009138571293756021 0.0008800808164085933 -0.001368915358252504)
(-0.004240030792415616 0.001800031640091907 -0.0002105671234630973)
(9.140520905506616e-05 -2.332251697511186e-05 4.263716186167609e-05)
(-10.51349062476979 2.574656110187812 4.439693575334497)
(-0.000243056254189581 -0.001684394420202334 0.0005927342461769498)
(-0.001246026525395585 -0.000703720469214003 -0.0006219309496683265)
(-0.003599937741904945 0.006523266741413803 0.005353735179046722)
(-0.00213517321577363 0.000143832372628353 0.0001647003381659262)
(-0.004045147236249545 0.0001831365560742292 -0.0004516611093876016)
(-0.3139534909323894 0.1631900506041593 -0.00336896300120175)
(-0.312505474698507 -0.9483935597707075 -0.9576321150686767)
(0.0006354968222080643 0.0015539163860667 0.000473583106205343)
(-9.910456619031542e-05 -0.0001065590099080362 -5.395456951085198e-06)
(0.0002340354707158899 -4.839957040522725e-05 2.952587751206721e-05)
(-0.008235481504594003 0.001029743559209284 0.005769603653092113)
(-0.001045745171656444 -0.0001674897710442178 -0.001735023678345228)
(-0.001017994375584626 9.457607854538609e-05 -6.666072989462268e-05)
(-0.002777496347284636 0.007157793981621112 0.007011754898916834)
(-0.0002456624236757226 -3.999118901307249e-06 0.000588810063287126)
(-0.001358462780901391 -0.0003287877979673102 0.003235169711403656)
(0.02832633631183417 0.04427619020488806 0.03778547436260819)
(2.779712996896181 -7.969953571753988 -9.121251511201134)
(-0.03725826576675627 -0.02365839451367446 0.04012223170165774)
(-0.004983778929304268 -0.001643277185988686 0.001791050650815578)
(0.001475872186557521 0.0006229803738870222 -0.0003374680282571645)
(0.000259746325758673 0.00159975217933133 -0.0003712213808196973)
(0.0001360539964545417 0.0003797306440704076 -0.0005503781663351883)
(-3.491553330485977 0.005654316642603519 0.6722723410280329)
(0.007188445528468092 -0.007922292620701925 0.01909811430327506)
(-0.0001382564647300218 3.604287958988262e-05 -4.615904175963318e-07)
(-3.116829028085224e-05 -0.0001888142521173532 6.348867404613019e-05)
(-0.000524875854365296 0.0007887104395085589 -0.000685456209651155)
(0.07513504486536343 -0.03944682506759308 -0.03490782159219413)
(-3.294145504294335 1.728680239547535 -2.965697619074874)
(-0.0002398270834333884 4.687593493362459e-05 -5.013339943665776e-05)
(-6.40115809816332e-05 9.903112103585719e-05 -8.526974399248922e-05)
(-0.0003530748850057892 -0.001493591710029591 -0.001302671256866911)
(0.001033445700499667 -0.0001344452625707988 -0.0007386311956436523)
(7.641286055253544e-05 -8.513919643514616e-05 5.374329532227074e-05)
(-0.001396610503176567 0.001504559218105315 0.0001308044874226304)
(0.001937526316641486 -0.0002304158513070463 0.0008923904689680915)
(0.001168106667757505 -0.0003474219777119522 0.0003860496617154726)
(0.002662558240817693 -0.0008468820268949606 4.598124398285747e-05)
(-0.08054174270087892 -0.05851933272371013 -0.144386932437803)
(-0.001172494606397376 5.8128190320488e-05 0.001769605896584122)
(0.001413394251732835 -7.715430321205e-05 0.0003264513050770149)
(-0.0002260022234859305 -3.561545985546788e-06 6.789807103366343e-05)
(3.164699783171855e-05 3.848942883026693e-05 5.216169737659415e-05)
(-0.000813382963540399 -0.005290368367176057 -0.005410331988798792)
(-0.0008302147195212894 0.0005076845825212834 0.0002501374760114263)
(-0.00496019394026048 -0.002241672158919168 -0.001449445966747837)
(0.007507818372981916 -0.002444046436520938 -0.009693136855312711)
(0.002447834217652612 0.002453637775130825 -5.777818280504885e-05)
(0.0001861323688463841 -0.0004890217902130869 0.0004528290733381468)
(0.002441977772124087 -0.002871582984175626 -0.0001070805520403695)
(-0.006662213610155504 -0.0008834494671565007 0.001508869468223101)
(-0.0002798590156132821 -0.0008486199006018813 0.0005194861339752045)
(0.001570569848390433 -0.0003106803733193858 -0.003778397923498002)
(-0.001227588578640114 -0.02232358987756685 -0.01265088032983585)
(0.2471458256073139 0.2565685902053986 0.07874286767950603)
(0.003010407408628997 -0.0001831347820112732 0.0008705746782426432)
(8.911041548917227e-06 0.0001549088769762715 -0.0001939659951528089)
(-0.5050201668311207 3.568436285719733 -6.471730649090246)
(-4.197128593248686 -1.313862165920766 -14.28965686519177)
(-6.362712859983851e-05 -1.848784340445942e-05 1.629821842334876e-06)
(-0.8130344287137899 0.03214573125225345 -0.5843587010621114)
(-0.007491419425599277 -2.590619400788866 -2.084767378704287)
(0.00107189796795932 -0.0007729591111552774 -0.001686327604640841)
(-0.0001724102198580144 2.719665351123161e-05 9.528472928615392e-05)
(-0.0002991757802968142 -0.000328529888358072 -0.0004929017100548342)
(-0.001070723227367464 -0.001023389659247143 -0.001262296865305592)
(-7.328895036591337e-05 9.538721284177386e-05 9.694654527540301e-05)
(-0.0002308349539996688 -0.0002570268234190967 8.176990201828512e-05)
(-0.0009640845144322718 -0.0003832223798438624 -0.0002610612098631313)
(-4.159932998330575e-05 7.430635857356319e-05 6.169998251734058e-05)
(-5.478874482554125e-05 -3.331217613390134e-05 -1.029338546167793e-05)
(-3.247890212246312e-05 3.629290661365052e-05 -2.567918122342008e-05)
(-0.07049788726625215 -0.02751903115707385 0.2279146000483755)
(-0.08217827158896188 0.2868207005422964 -0.2147930359473929)
(-0.01183667323900828 -0.006205978804460607 -0.0002120341767497536)
(-0.09010638799536766 0.03080317383139512 -0.01384851749500485)
(4.029335383116559 2.820752119436859 1.4227072541898)
(-0.0001966340860736932 -7.07898001432044e-05 -4.368023087540624e-06)
(0.0001246581270716683 0.0001137207775059863 -0.000163070856120362)
(0.001030545076157131 0.0002429771748187327 -0.0007499679481280748)
(-0.0003340316288481878 -0.0006301406978642643 -0.0001904419671188952)
(-0.001415305576004111 0.0001678159273467158 -0.002205359318666661)
(0.001919711260561877 0.0002622466886192765 0.00350593135994243)
(0.0009357938269208455 0.0004571149381847158 0.0001447381165733384)
(-0.0001798525281473035 -0.0004156618190737165 0.002071556593359958)
(0.03249223350743477 0.0003197642608773754 -0.01682215232034684)
(0.002483207519805915 0.0005256575062266529 0.001491743203914748)
(-0.0001821613467732977 -0.0008283934146532852 0.0004744530948911851)
(-0.03192380233165829 -0.01085181545219726 0.01608591033247591)
(-0.002839395786307385 0.0003041146154674141 0.000153760158600245)
(0.002108790306190417 -0.0009379253899876633 -0.001181303746801254)
(-0.001701240907163889 -0.001343047641863844 -0.0007913395086095951)
(-5.007981647968797e-05 8.174911956595645e-05 6.903148799285378e-05)
(0.002587454542983874 -0.000125934771223957 0.002307622275064615)
(-0.0002561552044337305 -0.0009819897948899377 -0.0006659724356503644)
(-1.94451990299245 9.485358766927753 -2.103883905613134)
(-0.0002540302337656613 -0.0007098518245413083 0.002248961237707773)
(0.002550566048329316 0.006754375671784976 -0.001786321925968807)
(-0.004214053244193713 -0.0008375664064780514 -0.001945672002508495)
(-1.226217243730148 -0.1381736943822106 -0.1220261138441411)
(-0.004442306416947317 -0.09966629781746278 -0.1028427131751119)
(0.01694711442232488 -0.2103612381572977 3.718694338711808)
(0.01766710760767868 0.03076052617920582 -0.03107229606702839)
(0.004070036328002528 -0.0009515860095879365 -0.002588503289470327)
(-0.00266971579956897 -1.657975288588522e-05 -0.00478694703139115)
(-4.534263828590253 6.407898634787741 2.244418952480605)
(-0.002188775705355146 0.001315081349037998 -0.001725755651915085)
(-0.0003051627382469696 0.000925540410455082 -0.0006609847498362021)
(0.1379024631403517 -0.9148930229361322 0.2745025808139264)
(0.001660073710928498 0.0005901494283714853 -0.002351616873455674)
(0.130038129216184 -0.0007162279743794242 -0.0853015419944223)
(-6.125187084237767 15.72256171601507 -3.66006411104738)
(0.3888971951518178 -0.1387335197423669 -0.3571209628127928)
(2.480274420510191e-05 -9.893664314322928e-05 -0.0007956896367630628)
(0.002620886274872498 -0.0007714484047336679 0.0006822596333795137)
(-0.00141103598739959 0.001565595511326238 -0.0007313037024931886)
(-0.001579312332373313 -0.001626336713166479 0.0003853705427795721)
(-2.574825446815026e-05 -6.180412712937669e-05 -7.171216392043383e-05)
(-2.71720059030177e-05 1.011528481456976e-05 -4.642360127402418e-05)
(0.3138935985385048 -0.5504311821959633 -0.6669966440130735)
(0.1005445966070994 -0.002376649646685688 -0.0528335304629937)
(0.002500912142526911 -0.0006525263080272905 0.0004852812647350678)
(0.002063397620647003 -0.0006784550276632445 0.0007923067226755013)
(-0.002191378390009148 0.005300636155115698 -0.01006489717496564)
(0.001120039717313619 -0.0002324419461493652 2.273986310070254e-05)
(-0.0002035931450901779 -0.0001236005006293718 8.751206295699853e-05)
(1.951124334859157e-05 8.048780335391084e-05 0.0002106956823433344)
(0.02778532341133699 -0.05421525870425487 -0.01582525805102804)
(2.974813081977605e-05 -7.421387990341584e-06 -3.735684360440464e-05)
(0.001693012886031737 -0.007907468651551345 -0.02035964199589414)
(-0.01425239082043161 0.00219866405066659 -0.008244344706284474)
(-0.0001910061859302284 -0.0003143142673850225 -1.301882676621891e-05)
(-0.0001093895962754903 -6.104941031728165e-05 -0.0005705556169698937)
(0.0002964799032899541 -0.0004269134924708579 -0.0003772531294900619)
(-9.902708244278503e-05 -0.0004375944857438239 -0.0009917766995112443)
(9.896907564523493 -15.15166497071871 -47.59612517707561)
(-1.580353773399023 2.992294580437071 -10.66419958722676)
(-4.997532813425911 -6.703147966461661 -1.194358850255405)
(1.705220185232206 11.70858701139132 -1.94259274513677)
(-4.673627594633989 10.61011141815889 -39.33524657071551)
(5.480519436978206e-06 -6.757306192282556e-06 2.931923873605676e-05)
(-0.0003244582966631938 0.0046334451741743 0.002432890933061866)
(-0.03130879232251231 0.04260661808794568 -0.08736779255921601)
(-0.003708810171164686 0.01177331988280578 0.008444661624039382)
(0.0006599082549974361 0.0001591640401915097 -0.00058839297543074)
(-0.0005247631601394355 -0.00047956990589522 -0.0002849578247338537)
(-0.000183403126031329 0.0003890120464012653 0.0002885134686285872)
(-0.001636995498456733 0.0003229451318387409 -0.000166061660618084)
(0.001849913749898056 2.67948022212159e-05 -0.003822136058591485)
(0.003078361314203876 -0.0387536025127609 0.01218567192716555)
(0.0003377294744168583 0.0002012350254003588 -0.000359389834112456)
(8.966541768046444e-05 -2.650222377529485e-05 -3.435226403101272e-05)
(0.0004865742356351365 0.0005278319460177732 -0.001400303760134829)
(0.0004040705823859732 -0.001132777036268562 0.001600312023370268)
(-1.563077715703741 7.551624242589684 -2.919308203104997)
(0.2985399612892917 -5.189928553325313 -2.595709006721649)
(-2.073681997348828 -3.368245169487203 -3.785895262125293)
(3.607219442653312 -0.9654251466778005 -10.70559445275471)
(-0.5118731078048857 -2.176603661952549 -1.53579684137491)
(-0.0002534915733359991 -0.0006440920127904258 0.0002166055213711575)
(-0.005184265783208617 -0.005268594396611592 -0.005274097345504871)
(-0.001794977059467923 -0.0001353818861096536 0.0004609696298289837)
(-9.215913446013906e-05 -0.0003829872091717752 -0.001690224450359295)
(0.0893597324454003 1.0453560710633 -0.1606475812371633)
(0.0007931447795565794 -6.025101291636639e-05 6.034258548792676e-05)
(-1.459354594271619e-05 0.001572333691848438 6.331433278231806e-05)
(-0.0004888323502314393 0.0005539951336005278 0.00112363035376488)
(0.01442854957659331 -0.009276603480019217 0.003051758650959027)
(-0.0005222119182097807 -0.0001203543728183462 -0.000166610026600374)
(0.0002661653332167772 -0.0009263781669746171 0.00136551742804609)
(-0.0014179347014642 -0.007338996634360776 0.005443467388719495)
(-0.002906327483049905 0.0007343529412921008 -0.0003885260195950688)
(-0.004258822604023469 0.003965999695609465 0.003529067821724323)
(0.0004529252708430639 2.647801872260842e-06 -3.549959879735958e-05)
(-0.0001193334814253513 -0.0002921043822984822 1.747932319130271e-05)
(-0.0006853270662923981 -0.0001708603208437524 -0.0002258460422265833)
(-0.0002792128289803347 -1.014905081097575e-05 7.780868450305985e-05)
(0.0003117811577048749 0.000113026175863267 -5.707360652497898e-05)
(-0.002525143289426754 0.003028849162103549 0.001185953682073645)
(-0.003313449815198894 0.0003225194687021568 -0.00115364801554448)
(-4.518149391841703e-05 -8.586198202322043e-06 1.067984970511912e-05)
(0.002324368022511647 -0.01140233581749798 -0.008732523986779263)
(-0.000279591508133657 0.0001784684183609884 -1.4777784604925e-05)
(0.0004602165312731241 -0.0002006110422249192 0.0008357972434012797)
(-2.955636517812997e-05 2.27837699398094e-05 -5.727158696176789e-05)
(0.0006103707880360895 0.0003013714617310429 4.506627676186026e-05)
(0.007648470980045459 -0.01026156173505355 0.002274387496536965)
(0.01835568973372543 -0.0154047541427802 0.009999282897937695)
(0.01006203902967864 0.004073832814184934 0.001165138934237572)
(-0.0002424452193870779 4.635112853082049e-05 -0.0008177467548814025)
(3.836411294490109e-05 -6.479445981817667e-05 -6.533831692372818e-05)
(0.004892332020472748 -0.001212415552610981 -0.0001146922203768709)
(-0.07632502909699707 0.2033623440823804 -0.7051880160944297)
(-0.0007030576467859288 0.0001333936590840542 -0.0007487083622819107)
(-0.007712735715689067 -0.002654406853633187 0.002589372309472366)
(0.001698436629166059 -0.0006105572092775561 0.001476209703712434)
(-0.00283829076506042 0.001148928573568453 0.007823458871608849)
(-0.001097192916249922 0.0002414082325084596 0.0008085151455910033)
(0.00453446640485367 0.001872789693497733 0.0005108847659480083)
(-0.01688957382110141 0.01083144377878515 -0.01826491189948522)
(-0.009103161655131038 0.0005363013771534958 -0.0005324443940833103)
(0.000545288913379003 -0.0006610082948531243 -5.83106013319297e-05)
(-0.003947427265330782 -0.001185207582136357 0.0002186526979023464)
(-0.0003797161713834903 0.0001349299333599319 0.0003419528547067495)
(1.876525269638644e-05 -3.320272600004408e-05 7.010027403297714e-06)
(0.0003866329158353817 -0.0008673164417705233 0.001460673939103068)
(0.0001185254829316075 6.558378536297191e-06 9.611504994480069e-05)
(1.789964831783885e-05 3.037952453690483e-05 -3.593171271142142e-05)
(-0.0003356684471202087 -0.0006927298770194488 0.0002311795059972582)
(0.002855989540703687 0.001173675883474563 -0.00044787266321632)
(0.0009251165505797832 0.006784983484433613 -0.0009306044655745132)
(-0.0007903156170006282 -0.0004542475488526338 -8.44324581724453e-05)
(-0.00192298272433706 0.000742796683473935 0.002651575458294604)
(-0.0004467176940887656 0.001142925776485895 -0.0002160301170575684)
(-0.004835231753505526 -0.0001418544816350941 -0.02145716210800592)
(-0.01585955105812676 0.01008608980712821 -0.008731173150602206)
(0.01292028102948885 0.005678514935662776 0.000463739205911998)
(-0.0002952194184172473 -0.0002379015401463151 3.95119373106002e-05)
(0.0001853285552287387 2.030647729216251e-05 6.25135648575153e-05)
(0.004494954526236002 0.006400588994558018 0.007174708298714596)
(-0.001686731043659971 0.001347269165645435 0.001464759118787507)
(-0.000286117768359559 0.006604225075326954 -0.005467151352056569)
(-0.0006202645248557748 -0.003111085154077546 0.0006336283891228965)
(0.0004085458474472118 5.124665708685925e-05 -1.319556349618079e-05)
(-8.138244279423533e-05 4.574210816424554e-05 -0.0001209764692457341)
(3.180198443491784e-05 0.003021399613371558 -0.003091671724806737)
(-0.0005501982910896784 9.460175690740828e-05 -0.000223195797215871)
(-0.0007500493120095227 0.001172504488806373 0.002315426035498312)
(0.0001258190059370968 -6.395548661159501e-05 -1.326611475386444e-05)
(-0.0001329758742051057 0.0002013979650652903 -0.000321622547383085)
(0.002043165991640704 0.0002441792160131757 0.001527088913079508)
(-9.110521744262546e-06 5.224874977193436e-05 7.171172814889138e-06)
(0.0003837122656461058 -0.004842088085501319 0.007957305937256819)
(-0.005049957682280015 0.00160538017291757 -0.0009792233713376529)
(0.001804103161465345 -0.003260820167519945 -0.00184302162621121)
(0.0004646993023279299 0.0003912669835707002 -0.0007693700718722268)
(0.07480326231459465 0.01222326622674611 -0.03400257433637754)
(-0.01703641921655303 0.0183851158776075 -0.004701727486245416)
(-0.000432695093930761 0.001485116623148189 -0.000134784062207245)
(0.0001372958259479972 8.251633286301923e-05 -0.0001729184826768311)
(0.005431521214337284 0.002166457356965319 -5.837104739359845e-05)
(-0.0001766917812058115 0.0001280195666660574 0.0008238088702283641)
(0.001533707359684726 0.006627496201767325 0.0008804063416488495)
(4.298925227077368e-05 -3.183854743671448e-05 -1.627538689066892e-05)
(-0.0006303585437931448 0.0001650992285724289 5.562867444095763e-05)
(-5.383849446933335e-05 4.740371535838172e-06 -4.11626153279394e-05)
(-9.262089235663232e-05 0.0001042024708485474 6.156750505428567e-05)
(0.000345153468568287 0.002779773809448576 0.0007250277711311992)
(-0.0004842037000810607 0.0006660565523354928 5.311593911664676e-05)
(0.0002440431915510169 0.000123173972026714 0.0008793220753964724)
(-0.005606499704800962 -0.002897372740928904 0.007269666805762275)
(-0.0006210415595654042 -0.0002436015200435774 -0.0007590808962647437)
(0.03009320139635892 0.009172388701716659 -0.03537884013634657)
(-0.001253793900254679 0.0210349849568403 -0.004295169957508085)
(-0.0003291850754041886 -0.002070918347413264 -0.001399166081967953)
(-0.0002778241475513393 0.002554179604277368 -0.002897822517717363)
(0.001064035994112352 0.0001580116443869968 0.0002490222736779436)
(-0.0005838291350062216 0.0005158944666235163 -0.00233568108270962)
(9.160119779132167e-05 -5.059857597645039e-05 -5.928641333905134e-05)
(0.003540424796773351 0.003448040502846228 0.001159330509799266)
(2.714962474193317e-05 -4.826420120505483e-05 -0.0001017924424289743)
(0.0001036192596837543 -4.51103688008782e-06 9.441155725302479e-06)
(-0.0003021189027944673 -5.110716116965021e-05 -8.963384861468494e-05)
(7.114696291665582e-05 9.289879652303774e-05 -5.262710893984064e-05)
(-0.0002535847883145918 0.0005791400859107428 0.0001642395324713363)
(-0.0002153604361832717 -8.684413816806089e-07 -4.799768594922713e-05)
(0.001141922694388005 0.0001091126303098389 -7.782538839398083e-06)
(0.01356276603859989 0.01292503846017056 0.0009696715754454083)
(0.0003257156732410399 -2.766812257048216e-06 0.0001690200811447076)
(-0.001383085909114323 0.01397956569555473 -0.001428737421381804)
(0.006386312651540558 0.002429662306334295 -0.007994003824291525)
(-0.0003137936039895095 0.0002276863832187448 -0.0001910478176661611)
(0.000988454289751749 -0.0001367393352076875 0.0006499864091037343)
(-8.319014385889597e-06 3.934027715238585e-05 -8.299395874251535e-06)
(-0.0003518788900865514 -0.001689345870285493 -0.0002156898341568426)
(-0.001159044050311347 0.0005797517617141827 -0.0001623899292033197)
(0.004205384305247785 0.002029801341593571 -0.0002634342245666461)
(0.0006312532758791058 0.0003719240256631916 0.0008176441110082627)
(6.554090458938514e-05 2.247586013790452e-05 -0.0001065059522360042)
(4.835201785592395 8.3087405012219 -2.521584133733838)
(-0.005056152217456888 -0.00464816560385361 -0.0008658550139412476)
(-1.57347938989938e-05 -0.0005255936548222821 -0.0006888642191922078)
(-0.01156432872919981 0.001287717115412468 0.0007634329517559157)
(0.001278150954766221 -0.001347263212864815 7.869138692016603e-05)
(0.0006630588017435334 8.081531786983698e-05 7.596108415635765e-05)
(-0.0002055867424181708 6.816873540969567e-06 -4.043582509127104e-05)
(-0.001374658817278827 0.0005221936567564968 -0.0003093046616810213)
(0.0006631268847083578 0.00132620123420625 -0.000499944495086243)
(-8.10108834874249e-05 -1.818133441594677e-06 -5.962367309113184e-05)
(-0.006149166000960557 -0.005165146393100638 -0.0001142411898220172)
(0.002782899704158744 0.001543765547734764 0.0004418261720730679)
(0.002881195065288145 0.002973955394460064 0.0051240485312381)
(-0.0166153378895718 0.03284008875889913 -0.0134018988475243)
(0.000144019082018958 -0.0006036639266220984 6.006089511291012e-05)
(-0.0003706209892627192 0.001164683070733305 -0.0004172348899034589)
(-0.006489040710136299 0.009646501869772398 0.00128810738261884)
(-0.001832710587622161 -0.007006209276905137 0.003826960787798274)
(-0.0001778164529283761 0.0001897369203838972 0.0001617247945973016)
(-0.0001920645002125708 -6.585559764065197e-05 -0.0001129757888545565)
(4.060539308817331 -0.204704493867842 0.3758466413190991)
(-0.0005168948312197277 -0.0004577071346954614 0.0007406152952347841)
(0.0008399434077752007 -0.0002366372629549021 -0.0003109922008547267)
(-1.840775444008131e-05 -2.704333799645021e-05 2.718838961071607e-05)
(0.001594793386500897 -0.001153076944943076 0.0004490521359837156)
(6.898839001733399e-05 -0.0001340288672713038 1.847925347740839e-05)
(1.797199902241877 -59.68501928980658 -3.815545824474598)
(4.276365625506612 -50.1028212510607 -4.636604971296114)
(2.772901682557853 0.3538654768077647 2.731918740140493)
(-0.0005876131951166224 0.0007356795160130133 -0.00245243783944402)
(6.956219416045123 -2.257950940527378 -6.634907933361803)
(-0.4098690306554809 -3.752767010968801 -10.49340338030355)
(2.185618520568647 -56.50704075217283 -10.1144276570253)
(0.0005393404059705311 -0.0001279871574972347 0.0005003648239696348)
(5.608643939665362 -8.719313975079753 -4.055970449793453)
(-1.79346326069212 -5.523439410825059 -66.56968949709764)
(-0.0009314439887082114 -0.0002732651080971832 0.002315982071915968)
(0.003608829629813587 -0.002174611491624782 0.006392515239634784)
(0.07516676759392736 0.2370030477956132 0.1214303886878993)
(-4.368424552764648 -4.51921260206069 -51.89309878431794)
(-5.382001568993845e-05 4.450365776915544e-05 3.983705442383943e-05)
(-0.0007975275761555581 -0.001179277288517166 -0.0008730349464987126)
(-0.01167441809893564 0.002225352415446495 -0.0006966209647799678)
(-1.338554531450511 -12.78451743842301 -9.952720008615715)
(-4.333977241380799 4.846755980757447 -7.802013260928029)
(0.001370319168912222 -0.007265454357031277 -0.0007830757214202493)
(-3.109985703113425e-05 5.05451399898858e-05 -0.0002048209481745028)
(4.991668789977082e-05 1.795080780703478e-05 7.680028449903903e-05)
(-4.058603512969065e-05 6.846686211564864e-06 0.000190165866747353)
(0.001166028573101942 0.0007061518193315531 -0.001278709317547988)
(-0.001533457951722938 0.00335507207066271 0.0006158456203126791)
(-0.004981351343199623 0.0007579457301242773 0.0002778540911289597)
(0.0009574453158218616 -0.005509945828906306 0.001110785716059519)
(4.690127863212867 11.33821923132024 -4.353687115012162)
(-0.0005770802835637062 0.001788396653541266 0.0004385546758795351)
(-4.749106297477073 5.192348512320009 -59.85639470022081)
(0.0001642594148734585 1.186125550585523e-05 0.0003314720055554226)
(-3.774850880480013 61.08071607488364 0.05079028638875971)
(-6.857810531195058 74.70819445082037 -14.18288967173461)
(0.0001567879529067822 0.0001798233442532727 0.0003263955377419245)
(-2.208649685758127 4.639590780560584 -1.841000752655465)
(0.001107861864938539 -2.872026867508206e-05 -0.0006147372915745644)
(-0.02017190271098352 -0.07604730472661 0.008785540615457808)
(-0.003488404840275993 0.001062191032930191 -4.394985864969035e-05)
(-0.01948905610395269 0.01097139931889281 0.01978568769922014)
(-4.360877850121266 46.08213085752761 -2.870365493754682)
(0.0003143325582549778 0.002445571557272927 0.001521710983362402)
(-0.0001699535526218069 -5.755542826283215e-05 0.0001338778773803614)
(-0.001698411186575828 0.00168791457426798 -0.0002896984714580712)
(3.772351142293958 -3.539192425507417 -3.924339188515157)
(-0.000142907485324314 -0.0003049868235370702 0.001406129902363623)
(-0.000528395455162973 -0.0001932527115823148 4.210077035377309e-05)
(-0.0001564401065586992 -0.0001874512089007821 -0.0001134914499625347)
(0.0005107551648087785 -0.0007817825470464722 0.0005313691328613732)
(-0.0009688923278852567 8.534252246966071e-05 0.00031660150395911)
(-0.007557725090921188 0.0006827932393848828 0.001182444828986741)
(-0.2110422115968362 -0.05526626574338749 -0.002309466988446991)
(4.238170745785998e-05 0.0001868342062643714 -0.0001591466353056326)
(-0.009090423416673075 -0.009819639570873053 -0.003136513704858145)
(-1.848498968381185e-05 -0.0001122931740940761 -0.0001275210549113709)
(0.01384730840575415 0.007136367487484865 0.1048163255713517)
(0.02217374851866561 0.06626247421786587 0.01395500386597324)
(-0.0001527662858179503 1.425922738581563e-05 -0.000209469377869822)
(-0.00192220036327683 -0.01205719338851726 -0.01581627269029346)
(-0.0006380966411806885 -0.004046492240899416 -0.001286409497407937)
(0.0389713587653716 0.05239599890561824 -0.08021934761608364)
(-0.004766295580369868 0.01618040710705585 0.01685311088368234)
(-0.001357517626327734 0.001591079323817364 0.0004471495699489445)
(0.01919706863116791 0.02062478005658623 0.0571290042723408)
(-0.0002943919425626595 0.0001180549303758879 -0.0001004542240367722)
(-0.0001079685033608147 4.562423994982951e-05 2.63834165310706e-05)
(0.0004956147846421825 -0.0002905260947865229 0.0004031995145097064)
(-1.093397823530521 19.74659793379173 4.440167207188013)
(-0.0002600042010474709 0.0001195057142002963 -0.0002014856607523621)
(0.000699286845317766 0.0001456048407728185 0.0002471005128297156)
(-2.138507817813786e-06 -0.0001665966139479725 0.0001305111747790282)
(-0.05637431848198329 0.001894578517808554 0.004534413796803151)
(-6.504590625557526e-07 5.159115350422088e-05 3.538619179557094e-05)
(-0.0003788400852780674 -0.0001809142123163277 -0.0002329629019948254)
(-3.000052889793478e-05 -4.245834613073285e-05 2.860825629762897e-05)
(1.797008486008334e-05 0.004021554739241685 0.01486064226690429)
(0.0002749473785523635 1.960792437580854e-06 8.426502827877043e-05)
(2.895263371098999e-05 0.0001686986254945243 9.331287127715721e-05)
(0.0002544017748099634 7.65639795346115e-05 -1.889915067020611e-05)
(0.01926520765193204 0.03997392008378185 0.01607220769622478)
(-4.907731470609566e-05 3.665350293030016e-05 2.31941194179746e-05)
(4.751566185708509e-05 1.840526545247212e-05 -3.70294418075261e-05)
(0.0009003797642211879 0.00142581485484483 -0.0002911160433217748)
(6.697911123646513e-05 -0.0001043714307207669 -0.0001051147955343163)
(-0.000132147974548862 0.0001808450582682235 2.041172482346844e-05)
(9.233402326576338e-05 -6.603988664846677e-05 2.1671546459089e-05)
(9.163255001482404e-05 -6.714688266567487e-05 0.0001787009318957894)
(0.0002609339829852379 2.48131403825324e-05 -0.0001663997796439625)
(-0.0001135917592491024 -0.0001095418058009309 -3.469408584455539e-05)
(1.020056874655695e-05 4.349089450834238e-05 -5.850177735605352e-05)
(0.0003497486201545253 0.000284115799464224 -0.0002415803352441128)
(0.0002117711989545222 -0.000306640777814102 -8.322089943619149e-05)
(-4.966744845624531e-05 -0.0003391980814077675 -0.0001506960434015811)
(0.004829127433113299 -0.02013030508617761 0.05216447428655847)
(-0.000184365743053337 0.0001827180631727082 -3.992870932028524e-05)
(-0.001078147281497547 0.0007267871886232846 0.0001875343452016659)
(9.529310469009295e-05 -5.762210377667032e-05 -2.145203103836126e-05)
(1.482166369016489e-05 8.280039579126094e-05 -0.0001068366745033409)
(0.001720409774732629 -6.300512551237023e-05 0.0003890085693207735)
(-0.003427113457358609 0.07962151680010875 -0.01102689000340543)
(0.005327376642615011 0.001674358332925778 0.0002007963552611782)
(0.07933424819713158 0.01482582344425206 -0.01694042602425383)
(9.269642925135722e-05 4.507115633380799e-05 6.699409142030393e-05)
(-0.2086967378728986 -0.07270385277800215 -0.08726174212104965)
(0.0001671836759520761 -0.0002436475998381028 0.0001010662833517301)
(-0.01373905600818101 0.00396511598769712 3.349492615639711e-05)
(3.55056500636888e-05 4.709027196710124e-05 3.34701756367564e-05)
(-0.0004227673286435311 -0.0002354994821222575 -9.489932263965519e-06)
(-0.03394004717618446 0.02650084004647552 0.02603753116636572)
(-3.089402768011233e-05 0.000349964478850753 0.0001745880040446152)
(-0.0007740353219936413 0.001022069162837694 -0.0009205263179863883)
(0.000102955525946552 0.0001482874662112688 0.0001999200087565816)
(3.206261418073151e-05 0.0001569510502238029 3.428273745962691e-05)
(-0.000115758531222329 0.0001619636124098018 -0.0001377112191453134)
(-0.003781628088898262 0.007756231079097144 0.00639724237923465)
(0.0002170488331540007 0.0006662174905093041 0.0001374291286356688)
(0.0006897933363137646 0.001092981931470066 0.0007173664577499238)
(5.54368601150449e-05 5.86256407251804e-05 0.0001036477839921606)
(0.0004340263168450545 0.001419698918812838 0.001096289282628059)
(0.003210647748544413 -0.001384893683175997 0.002045070232793719)
(-0.130885092840533 0.02518003261890884 -0.0942367737558214)
(2.66297390866741e-05 -3.66879697396588e-05 -3.570727716509386e-05)
(0.0001532232582045891 -3.865110139935489e-05 9.576319912874669e-06)
(1.196188768726902e-05 1.569265783783893e-05 -3.814353993173388e-05)
(6.634913608061963e-06 3.308587917543714e-05 -3.271607458487074e-05)
(-4.885336342616469e-06 3.195012371814977e-05 8.861463549928892e-06)
(0.000150272872565978 -3.157996210416003e-05 -4.699469453728411e-06)
(1.991119993604266e-05 2.391310213456129e-05 4.650903013857569e-05)