/*--------------------------------*- C++ -*----------------------------------*\
| =========                 |                                                 |
| \\      /  F ield         | OpenFOAM: The Open Source CFD Toolbox           |
|  \\    /   O peration     | Version:  v1906                                 |
|   \\  /    A nd           | Web:      www.OpenFOAM.com                      |
|    \\/     M anipulation  |                                                 |
\*---------------------------------------------------------------------------*/
FoamFile
{
    version     2.0;
    format      ascii;
    class       volScalarField;
    location    "0.9";
    object      p;
}
// * * * * * * * * * * * * * * * * * * * * * * * * * * * * * * * * * * * * * //

dimensions      [0 2 -2 0 0 0 0];


internalField   nonuniform List<scalar> 
19631
(
0.09800264094017606
-0.04145252169706234
-2.169133783942687
-0.7657196045460398
-0.03056471539898845
-0.4233717249871459
-0.08707331661879521
0.09818564860414006
-0.05665662899394561
-0.1080814721338105
-0.02384644238147905
-0.204943053462792
-1.520896816552222
-0.1822577598883892
-0.1575476692386418
0.0007134246474149956
-0.7474436136142817
-0.1603210633647118
0.09679327421221803
-0.02396763550091122
-0.07198560926462803
-0.005745366113264779
-0.0630736398062815
-0.227481169615132
-0.1915402800426271
-0.1543311668667587
-0.2270871077948728
-0.08954040864746735
-0.3924458764899966
-0.2523627053148068
-0.05751958232848647
-0.6181350493225859
0.8956088775096007
-0.1890945221026348
-0.4085351974603105
-0.1612468555509989
-0.3074974671627813
-0.06444787445966565
-0.245236216928129
-0.3147587647854446
-0.5409577979151386
-0.8706710862681547
-0.3003095268545687
-0.6168927352340511
-0.5582748837446947
-1.177360693070597
-0.9738252594813643
-0.4028130774098319
-0.269479306629146
-0.1384189794608119
0.03510886057391324
-0.2110884049665334
-0.05389678143313011
-0.3034357879390698
0.06596600953533571
-0.3674245562707683
-0.3762459648722682
-0.1772614900677647
-0.1359249830492173
-0.6484071550779954
-1.153694939818849
-0.4282549033443854
-0.4648979721309227
-0.1587951543096844
-2.043598046386509
-0.06920227418692708
-0.2737991180107823
-0.2135906829411917
-0.8368861319081876
0.08727124256800597
-1.144321479739479
-0.5160225823669181
-0.3018287046478462
-0.3475604449109769
-0.1097362909513828
0.5386609846834141
-0.1232320823034863
-0.3691745676684894
-1.233229507492627
-0.1802440740036168
-1.601551103429094
-0.4643255411976661
0.1159105505702045
-0.06116864883809159
-0.4348148145324577
-0.4732873692281372
-0.2357218051399454
-0.3812156762363711
-0.6595614320857494
-0.9984733364573678
-0.7311657919038149
0.01662102249474559
-0.5652619088269029
-0.5754242619002387
-0.4713284311642559
-0.4781319112475125
-1.326661320329219
-0.120627174400606
-0.3567930168788823
-0.3681866091174847
-0.1279857973595219
-1.347359195893186
-0.1759559614551901
-1.838983898977134
-0.7172972768891059
-0.6740146279122469
-0.2262327753680514
-0.42714522979068
-0.1216854590694467
-0.05528378010863031
-0.4594349144377221
-0.9250968354679853
-0.09012120991615939
-0.3780318737013654
0.6814537048265763
-0.9882952180875463
-0.6536797815247231
-0.2082384068696674
-1.525340523342101
-0.04241756368474342
0.4068248708443358
-0.1267195704453305
-0.2543450740347488
-0.1859461165746654
-0.3606232184456297
-0.1894910042964716
-0.135030091316355
-0.1758293932494744
-0.1381200232104197
-0.2068500220185643
0.4222994903826254
-0.8740863522742666
-1.220995235911645
-0.658078246849352
-0.2555937986270641
-0.281095152041607
-0.3009784511062235
-0.04749542158584907
-0.1857678732861566
-0.2449867864971517
0.04384970337175478
0.8694494829384299
0.1316989047611735
-0.5273554683647059
-0.3772650088441591
-0.1748027945602609
-0.1454765443332275
-0.1459284583843097
-0.8883096418954917
-0.8546638654681716
-0.07033268650998668
-0.2138158583145518
-0.2113642316475845
-0.2046935607671204
-0.08245733540033565
-0.2341345181833512
0.4905189322250587
-0.2658792591667237
-0.3394156612156657
-0.2262531645920286
0.04591413434636761
-0.09413914253770353
-0.6838942242146234
-0.06436109987095986
-0.2064364280548848
-0.1956875939813759
-0.1859962058486415
-0.1480260064502164
-0.1595808801658545
-0.4821259087110287
-0.4775188916292181
-0.6685985796174095
-0.5956245230917097
0.1726897750573918
-0.268226586131264
-0.3262873259405645
0.04318398151710762
-0.8410469142155661
-0.1353485288554248
-0.2502200555899777
-0.6814845514076292
-0.02808669625612713
0.003342104227328209
-0.001615020025569232
-0.7036845757880029
-0.8035614469857923
-0.3280178480858855
-0.01334603110521697
-0.3245895667456696
-0.1159355361312744
-0.2411167269315584
-0.6732867093813464
-0.2331059079350114
-0.1020068162874973
-0.7700126086317917
-0.6018151633576665
-0.04754432821199004
-0.3774561490763859
-1.174242843566724
-0.6258564485996512
-0.9007669016483513
0.02847365705147051
-0.7897974213519121
-0.9190493352124131
-0.0853689442618619
-0.110960576299996
-0.07137049057605981
-0.8656853316217222
-0.1769653284195291
-0.1745407547788782
-0.3062985377260058
-0.1795994267019128
-0.4868858026922744
-0.2260290953272294
-0.3939739134124838
-0.4458573447900718
-0.3745009965543151
-0.3700257241751538
0.008747759873434863
-0.04472582346405783
-0.01207968512207571
0.1042374573980645
-0.0577344010898786
0.1203372472691825
-0.7842397760059636
-1.245735114327222
-0.2079751939442817
-0.2597967155285668
-0.844716686781434
-0.01737155187842269
-0.7390181663432018
-0.5962040109489154
-1.135087586855668
-0.3499210679596816
0.2014296465637535
-0.4072071215946901
-0.3635077477293853
-0.4741623895313951
-0.8953477861702691
-0.4912886928802267
-0.005589860969646612
-0.1632925457503727
0.1837031042271752
-0.0106964885139987
-1.130163885116807
-0.5600713853711077
-0.05198722000160405
-0.5104560328956447
-0.7603991801320606
-0.9634144251677845
-0.7813623751055948
-0.2184155341861563
0.08353711475342716
-0.6163830974970511
-0.3350515104679898
-0.5023296420907316
-0.3233205842724623
-0.5191921537699863
0.03675616791507286
-0.4851188824286666
0.005548020866441281
-0.6377396035828684
-0.309417321690755
-0.4051990401920345
-0.08070734479307295
-0.1189897042363407
0.1521096615200711
-0.5969661732541426
-0.7032970403784903
-0.4040745922042875
-1.516619185809371
-0.3278310519000731
-0.9888139637614723
0.02027360343837757
0.09770632280194319
-0.4292171921245378
-0.4923333690519641
-1.481646165173586
-0.3306847428578572
0.09502876048481711
-0.6890084396325777
-1.400817051362943
-0.28278611506905
-0.3831709437716222
-0.5801944240034131
-0.4463589030238015
0.005788674798751507
-0.6951997186116194
-0.7128192583051449
-0.2409929352173103
-0.3717274386047916
-0.6089341888357934
-0.03978418029441957
-0.227003740756053
0.002967585384041558
-0.657683511034308
-0.6299111897882421
-0.3590484289741005
-0.2849234761202213
-0.532762729398701
-0.4166519620983331
0.1843624334926449
-0.07578419659766036
-0.6257424135929168
-1.023585757163591
-0.2534173999312782
-2.32365569801039
0.08918230675762882
0.007853534804748397
-0.1905939772451648
0.03480907425458314
-0.7098026221402857
-0.6873668351038077
-0.3714700109924661
-0.2093309109847074
0.1189272618165536
0.0008332481942906732
-0.0005840386538137651
0.004775645235457239
-0.03470415428855088
-0.528471694919683
-1.510221817923675
-0.4188988080996966
-0.07369465309437075
0.1327353130487138
-0.139424900208421
0.0322178529099227
-1.314361736815768
-0.5502251486952033
-0.4196188800699838
0.00592918407509339
-0.1696804966569853
-0.1439189201026083
-0.1292458059770047
-0.7373232731999425
-0.09526308610094665
-1.188802461016565
-0.5842372833752171
-0.06165757504389307
-0.353330110828742
-0.2473425302965628
-0.7579485446569808
-0.3008516873682479
-1.031633886225182
-0.8222308378035661
-0.7557218641346903
-0.1176558809578835
0.2960497567293798
-0.3442931070279598
-0.541649338812851
-0.3905229121179512
-0.607921834337933
0.1317880419948295
-0.9966402471954516
-0.4663778522555044
-0.6593531974233034
-0.3050727927878708
-0.5219014009143057
-1.077635516189477
-0.816145539729049
-0.4049870386638402
-1.371548849845132
-0.02054371205150959
-0.0172462369806904
0.1650409096744274
-0.3225354500116553
-1.488906364794875
-0.1599472829335791
-0.1286800560067747
-1.584005008159634
-0.04215941645689522
-0.08306103467153947
-0.589630553510786
-0.1129373825072484
-0.2731794497753132
-0.002052988237571777
0.1845857264842895
-0.1787763814264318
-0.3845720927686871
-0.07523023256349338
-0.8417428940321846
-0.1609758930549578
-0.01908324970917386
-0.06878636087608948
-1.210765448554856
-0.6089902005884241
0.03974178840120916
0.2297939606099408
0.1010923048182765
-0.6275883081607055
-0.743220516267921
0.1441562359022824
-0.7542910269974304
-0.910115001269803
-0.4506976516729498
0.1202660117154995
0.04850735169853936
-0.9461912376100163
-0.9129884349940733
-0.3573070981125415
-1.179408184632498
-0.5243321396506159
-0.05668146342689066
-1.371614789068269
-0.04557797189199345
-1.783065279736254
-1.248454356973781
-0.5791130112454973
-0.8908621515443219
-0.1391034158057999
-0.6666123735157239
-0.5046024424222169
0.0169483778442004
-0.6028533116733901
-0.4919747240688729
-0.3309199413860467
-1.044020155914557
-0.2638423734218284
-0.4740228633432169
-0.2565851006605295
-0.02302688599631706
-0.05522674427858354
0.2202812137764971
-1.804296342333122
0.1064126609120152
-0.230013241926759
-0.03704729693863914
-0.4371973912677999
-0.1160270378798857
-0.3009224819760412
0.08184931928581979
-1.032001761692839
-1.02001189386017
-0.1916051449456853
-0.2412632274174686
-0.160672291626726
-0.03410153056304174
-1.599193950999994
-0.191896369268872
-1.011578117230374
-0.03391800574280837
-0.08508969779697173
-0.3600938392905136
-0.4276698756063569
-0.03095180868544246
-1.617659905563747
-0.01874165806313748
-1.288242340268006
-2.119392457251978
-0.1937981563124123
-0.6831348529282005
-0.7041009489332222
-1.481117888347074
-1.156190454161641
-0.02136374197653166
-0.0205218677115151
0.04846513287007237
-0.6698497198822336
-0.4496347022152946
-0.1135916515528145
0.0003978607431026094
-0.1598797606271981
-0.2340187912806106
-0.06637184523717671
0.04948835818162878
-0.3180131672868587
-0.7521404075013721
-0.9674807114065963
0.1213565222829275
0.1743838892212398
-0.318963525515931
-0.5735249558267239
0.0326755614303463
-0.05222141080698479
-0.4840303582299683
-0.516755577363586
-0.06759298375920389
-0.6870800511411476
-0.7612987207069624
-0.09443904431465404
-0.7447808619729909
-0.3319528718679066
-0.01681084162183732
-0.4346289121274402
-0.7875950939489741
-0.4492688429569436
-0.1127383204201545
-0.3038197528596757
0.07119439883982037
-0.1795109498767242
0.1786858816692991
-0.5222103472635491
-0.02892165080513445
-0.01846710811268005
-0.5145107537958828
-0.08981355881490735
0.1020942520367922
-1.047320435403029
-1.028297169553037
-0.7107480396791407
-0.1715722552924556
0.04315517327645929
0.03125669638181837
-0.06713309454593032
-0.8354802593350322
-0.1263346883824289
0.3525597706648469
-0.01693932291268445
-0.01547989163263163
-0.0287371959684346
-0.6685454367015495
-0.09586272906393514
-0.4406328133474721
-0.08324008737195131
-0.05084214762414073
-0.03544631580311797
-0.06111202741633059
-0.03118276276108539
-0.6305581190834404
-0.712559319435308
-1.311561234278989
-0.342919306783349
0.3396551229032643
-0.3650096948778878
0.1961597451513444
-0.2433612982593864
-1.18213559006491
-0.4182584713270917
-0.46669481948406
-0.02289835715544698
-0.02617512785697796
-0.03830458539110423
-0.05494634454063071
-0.03406639241124033
-0.1321696261455757
-0.02962642964025033
-0.4448851627239791
-0.5988940777348313
-0.8812013823927705
-0.2417582355230455
-0.789794414220842
-0.4321179985403265
-0.253117513452546
-0.2347777371585119
-0.28777391712545
-0.6365173831056218
0.1304563357195629
-0.8641407818261494
-0.436462161908249
-0.04916042608190885
-0.4678531496481637
-0.2595531901215596
-0.8958294446163044
-0.4881743371871136
-0.8062618688905477
-0.05543834257604945
-0.5389014168371322
0.2224806315691668
-0.3372275595942472
-0.6870736072218234
-0.5345154309657462
-0.3113047450093572
-0.7519670766784534
-0.7978952468640466
0.01972240242555323
-0.3908386744031901
-0.3603738398859975
-1.585066543952751
-0.1086616475158142
-0.7174228112672457
-0.9582246516969426
-0.6028353459832522
-0.1326871715699757
-0.4079100720866865
-0.8191612476731154
0.157225473195094
-0.7470545779359278
-0.03676920215400446
-1.15194500104489
-0.6861092587226114
-0.1352059581057364
-1.674868075763632
0.1706335353352502
-1.062911608607906
-0.4808904918862585
-0.5574202434554334
-1.134272624995323
-0.08471428457317845
-0.6462663330344866
-0.4581522927950992
-0.2846971521381881
-0.285675982054915
-0.7015516081032446
-0.7913406815527129
0.1814690356030209
-0.1449215312425544
-0.3461227417578051
-0.5025450678522917
-0.2630672446345411
-0.5579733997248046
-0.9313177109451494
-0.2271967271094759
-1.742674956963035
-0.4876071013918692
0.03903226283226977
-0.3716187791614935
-2.422932444411093
-0.2674479995913358
-0.01994631716109005
-0.424431653796062
-0.8442180701477604
-0.3143951358803803
0.08630746621072777
1.094702010802902
-0.9387522175715156
-1.358143258908547
-0.3357096070626369
-0.1682084917630389
0.1207700016543606
-0.9139746442257061
-1.020253805712813
-0.9957626354771031
-0.2952242215191152
-0.2571454033892363
-1.616542509772058
-0.8951283470582491
-0.65003952235174
-0.2473933611240459
0.02786749391836036
0.06760221349651815
-0.5208344786359497
-0.7990179661678404
0.1310095515887355
-1.382811396855611
-0.263318711263713
-0.7398957907155429
0.6085731564828193
-0.2763858056596326
-0.3250534944049951
-0.4705512819612804
-0.279553590068661
-0.6789049340912054
-1.371705666405999
-1.682184769000797
-0.6385715010652684
-1.229624972307277
-0.6323055341107442
-0.6352661797352149
-0.8127275328023816
-0.6126825742160384
-0.2912218925719368
-0.6228832894583214
-0.668108035006501
-0.2668837011701012
-0.7434053092890811
-0.5873337506956807
-0.402759932038595
-0.5005851191725993
-0.4401826089185689
-0.2614482923087122
-0.09441351610369067
-0.01627055932520001
-0.7272909886027458
-0.7301676943554823
-0.3733155678494851
-0.7591611544211867
-0.628627251651221
-0.8730782954606902
-0.03623965633363366
-0.9863211222313615
-0.2117369618948021
-1.388731983215598
-1.920159074780419
0.05300190804779083
-0.3594345652582441
-0.6224802027891144
-0.699973675456495
-0.3033054558552577
-0.723186669109587
-0.804562827682014
-1.134953141046772
-0.5874017850563793
-0.9865285461456392
-0.6432396375880388
-0.6345720893332885
-1.047276227909347
-0.09407062571069212
-0.8992073606143172
-0.9689207220362944
-0.4118261333208741
-0.807971281352336
0.03583015744912086
-0.854861244694468
-0.2598486837899371
-1.447404467662316
-0.8330347226773694
-1.061539027751099
-1.198352698199857
-0.8634572594604162
-0.4641976479968496
-0.4836969098698548
-0.3468841229786414
-0.1979055115458011
-1.065299751205199
-0.6404848799031121
-1.330413989704283
-0.6729902503121654
-0.4766667424425551
-0.6811669363268439
-0.1423204243361421
-1.477525351896416
-0.308568732644858
-0.9359634574245421
-0.4969482689127991
-0.713366463101103
-0.6708486542984902
-1.099482988907219
-0.8122835839292259
-0.4233239139395358
-0.5674202823243267
-0.641249137416921
-0.4789583637824216
-1.041552296988108
-0.7591634101350347
-0.6843279996086056
-1.155461984729736
-0.4052947259918289
-1.15758251929408
-0.6550350259573982
-0.05819737047013537
-0.2416302127167451
0.1287601613378769
-0.5090489668389778
-1.40982136355594
-0.4618848802525939
-0.60165962870965
-0.8619333509533295
-0.355675331850249
-0.4624007676089819
-0.7377392104297112
-0.05068723658359093
-0.5341578457435011
-1.049386937281935
-0.310966240987557
-0.2980800559561057
-0.7720477718846168
-0.2814135693421512
-1.026220785822639
-0.5161244494172965
-0.5022293839843235
-0.8558233257521893
-1.349934865859225
-1.14320764594747
0.1351415092078786
-0.9877470389387076
0.2503770329000021
-0.9621683084819249
-0.8747163396339215
-0.4943458277691734
-0.3292490618190451
-0.7003692754266428
-2.162492286719993
-1.283887437167761
-0.481386928558293
-0.2054316384659027
-0.3742233986862933
-0.7513644276592876
-0.8830353949741904
-0.5717630806381404
-0.2815978644657106
-1.037423046004573
0.2937159586099557
0.006969636732835974
-0.5480015117253436
0.0185006670594632
-0.02099235433056191
-0.5399729678257381
-0.07112589055836258
-1.309960945304074
-0.008650098453152478
-0.6481626319360039
-0.3645367302921939
-1.335650423876772
-2.074652692151044
-0.639332826080959
-0.2123179645077114
-1.467689979775136
-1.337440365613051
-0.1097237886578035
-0.3428781298592749
-0.2019768664282195
-0.3521359616284565
-0.07563854559777539
-0.2993645561300333
-0.467885721633221
-0.3335470493169644
-0.7822982078073548
-0.6106131277651252
-0.05653290263737617
-0.3592493257888331
-0.4856199407105125
-0.6497368436830043
-1.370554582408887
-1.694194769736481
-1.012577595619184
-0.6117965788685158
-0.8482299458233838
-0.6232158507957219
-0.7656319321754754
-1.096910500541371
0.1100905456891731
-0.4769011117626434
-0.07286273365638801
-0.2710048516455392
-0.3678845017208219
-0.6837242299928362
-0.9192365680699891
-0.5761717378746696
-0.4802737066349028
-0.2925758752548453
-0.5132420826611107
-0.766434330601502
-1.072756653784599
-0.5915260427482755
-0.577613896816804
-1.16600923592588
0.2217702104901302
-0.2251114697780985
-0.5028166319180425
-1.092981323383959
-2.898571681175233
-0.6829819923068243
0.07104086977278967
-0.8608404136386008
0.04874256464680387
0.05793988889332099
-0.3213779170173802
-0.5246417150085951
0.03631320468945212
0.1448132401758024
-0.1749096653237504
-0.3647015960236488
-0.3940257807555139
-0.3392929892719423
-0.4036062917574926
0.008244298811717609
-0.9607342577727782
-0.6211779342194508
-0.05913385338749396
-0.04969108470658554
-0.9196394932016366
-0.5568949769363737
-0.3588541626042137
-0.4351725012960797
-0.5339431064041997
0.06910592664466787
-0.3458788795515498
-0.4484760370632961
-0.2866920696367653
-0.04496698454481902
0.6831442030672784
-0.2974307490740109
-0.36516943823692
-0.4689760131855003
-0.7580204014488229
-0.2590209014265771
-0.5804584862135084
-0.002059720036486501
-0.842534395849565
-0.4830872112810489
-0.721740869509255
-0.3358389518252859
-0.9842214989346106
-0.527264698967595
-0.2986275576240025
-0.3301161643769326
0.01303676240674401
-0.6595126908687364
-1.062623202353297
-0.4176621035798414
-0.4682979795717613
-1.047810566336958
-0.01059452261557415
-0.7153637717977404
0.07582167214392126
-0.1450786700540163
-0.7962297056316691
-0.07300938860614148
0.07841582378058222
-0.5315279178929485
-1.344305036113912
-0.2077351376435662
-0.114253601216312
-0.2589839294689402
-0.2937826184787892
-1.005529001058402
-0.843031335475961
-0.365330160670718
-1.48045438954958
-0.6191247478052361
-1.040169694936567
-0.2964821439876714
-0.2861221092260419
-0.07008842516513125
-0.1434799849037876
-0.5251062552209848
-0.6965279581202262
0.1075638039378384
-0.2630924057818001
-0.5787633548475218
-0.620187686673412
-0.5327896032467629
-0.7052248570180272
-0.8730963070297015
-0.719530236602032
-0.7824276860070076
-0.2525776011404173
-0.3812913494814524
-0.2442140683142058
-0.4603519875095952
-0.4708074212189335
-0.688463140926007
-0.112112233227271
-0.7183675353297755
-1.297584616392376
-0.7499704625907808
-0.1486767928015136
-0.830344476478074
-0.5393133596893356
-1.42426355297658
-0.1502467468898476
-0.4260350559250884
-0.9338045925349641
-0.6227044513104029
-1.574203800343656
-1.138219844544151
-0.4974679390563393
-0.01638482472080939
-0.8774648517894224
-0.9279010374836675
-0.7016010574048496
1.122814134378259
-0.2663948253707173
-0.8131367997977819
-0.6212908393207085
-0.3751403372278095
-0.473627350972841
-0.4873281695340791
-0.6830887590226263
-1.458098184392046
-0.4349038937737104
0.01133032189608619
-0.02641771212100142
-0.1411950249277241
-0.00486341532693715
-0.4691127668424333
-1.424058188444574
-1.284874296038242
-1.921840798349818
-0.164275344131721
-0.1773983151165717
-0.3500374684773912
-0.5422042968482944
-0.221502160033014
-0.1403596235396353
-0.8051414230171245
-0.4786142068328969
-0.4055736176917797
-0.4482302698582142
-0.7080505428694739
-1.808875276278902
-0.8285897578135187
-0.5579846996274958
-0.7865334211694943
-1.49833428141007
0.5399532474848683
-0.6642925192343603
-0.1069308065713035
-0.5499004286014165
0.03820075216103972
-0.3593253669892659
-0.1837820276743681
-1.3104539524932
-0.2566340949875842
-0.255026506829404
-0.9079199541570325
-0.1197515784955324
-0.5247574547107753
-0.8524693954605028
-0.2193975977066067
-0.7334811201983124
-0.1271315451388062
-0.4855473178785045
-0.3794713112740251
-0.5481318460911643
-0.6669367079654651
-0.428190708073357
1.003909397517561
-0.3688115739091516
-2.644335776282782
-0.9338708288050442
-0.741255618210693
-0.3774781118547081
-0.106260492196907
-0.8246226690975333
-0.5759539260259436
-0.006202060341714918
-0.08300847156086538
-1.520671819245619
-0.3659906263083215
-0.0829479912038025
-0.05937573993852297
-0.03879693594537193
0.0319092623980907
-0.3560256551325534
-0.07426604348595356
-0.2663701281771593
-0.05672605202764161
0.01933526868167336
-0.1607167930638755
-0.4560677754187212
0.06919186539634498
0.2508929243947832
-0.0841775237177254
-0.008641617685614215
-0.2430954804067126
-1.381134392674195
-0.05084328300511256
-0.3113895474207339
-0.03329554564262387
0.3668229134643672
-0.449241419809457
-0.07915826892122906
-0.02609866933619421
-0.334574580390767
-0.1992760929845127
-0.0377040463366514
-0.2287619617085779
-0.9933655798724274
-0.4099996505912256
-0.3681216824611147
0.03953738887475967
-0.390115799421821
-0.3576614382936986
-0.5874319705214621
-0.1041953693027825
0.1441042789812847
-0.2101886595170273
-1.098145178256839
-0.4799037813011512
-0.9820044835004369
-0.4602373741865438
-0.7975041405768122
-0.747547936159114
-0.05147385246069595
-0.3363804011816944
-0.1961916566166126
-1.51594139258996
-0.7334974223493229
-0.3520900221996131
-0.3099431372904074
-0.1692084854110815
-0.06348284524058437
-1.551463043258879
-1.758342398112698
-0.4847708977700712
-0.3944356703188248
-0.04295740713829819
-0.649750558272093
-0.1355578965221534
-0.3233831870744088
-0.5159689328522915
-1.047972170639741
-0.8658857235216912
-0.03758038124366009
-0.1583538687353639
-0.456195682166808
-1.146764420536172
-0.8602192160838096
0.08471187337087822
-1.034620590479961
-1.597892178378125
-0.2455649944063387
-1.064494684317476
-0.4496331557937953
-0.6950119619712078
-0.3107217283083805
-0.9407155933787081
-0.2548512871653436
0.2378589755014246
0.2185092183365294
-0.2459729453092236
0.07946716653029738
-0.1020661957840215
-0.02614469643137541
0.04343106135555369
-0.6717563812193117
0.1639627158482415
-0.2508692878301124
0.2004783899075463
-0.729442815637295
-0.3733382278399521
-0.7526892239996968
-0.8263913876457171
-0.2941088040212481
-0.2746501037427244
-0.6585669723860893
-0.9750856044915337
-0.9124994035348455
-0.2355676354185164
-0.1891287713950574
-0.2986687015165372
-1.276640144753592
-0.05257508762249464
-0.6888634246754234
-0.2357050390601744
-0.4660535911490134
-1.538996514431044
-0.2734318293301747
-1.685587671365552
-0.3951935140218326
-0.7432451856541971
0.2612440134932429
-0.1954991115871158
0.1024539718468412
-1.522223350749252
-0.003007019449339754
-0.08051143539818949
-2.204117054181131
-0.0717254243755609
-0.5081555579937065
-0.9979815107175568
-0.2762584883129737
0.4178355344475689
-0.2251575705554701
-0.1143293185797863
0.1446733293563467
-0.4482573836375593
-1.206530541414943
-0.7228880249995725
-0.5162579989405519
0.6189389233088468
-0.9102615806325368
-0.7585895359084898
-2.060295520272044
-0.6155984526823498
-0.9081577051652375
-0.5759226254827127
-0.5488068818330166
-0.6948641866396447
0.04564882867553093
-1.01840703230315
0.1515725141197912
-0.9617628049537906
-0.04159994695615582
-0.007792124524751772
-0.06591148179371834
-0.0135024008301617
-1.899309987454854
-0.01145266707616764
-0.1070380632887636
-0.6616009908673799
-0.05855774731691259
-0.9179915056156288
0.3463741417797641
-1.004935038376422
0.03314150911665206
-0.3201299487087783
0.0128769089909541
-0.9906339975325698
-0.04062146889105652
-1.458978401738551
-0.5655793203790151
-0.3902926839924127
-0.2433521057303801
0.1508844961326339
-0.2750856957175543
-0.3768561443829389
-0.2972226978045601
-0.6010954929549835
-0.818664045492897
-0.3838867029989105
-0.05509884460354047
-0.7755066993573283
-0.524123624571861
0.08348455868180425
-1.067063799516623
-1.036904207914781
-0.1505011256543456
0.2783444171220561
-1.363428829941926
-1.449510904432639
-1.442254978347584
-1.798572992227462
-1.070665206223094
-0.09398438520636293
-0.004964128207216839
0.2446874694902249
0.1493180638158857
-0.2414168859322409
0.03252479882767241
-0.5530833507598388
-0.08634867788622158
-0.002293823498849014
-1.274735663996144
0.07138262328131377
-1.046343859435264
-0.8195459461126823
-0.06030265938630425
-0.05904405042953014
-0.1225779417769921
0.5990697215859366
-0.08240969021498158
-0.05554263225866155
-2.593593722578114
-0.5177567351333975
-0.8434944800019724
-0.2726836075793997
-0.0802822336233322
-0.2801224120276016
-0.74363467529629
-0.09444239040070379
-0.1664461027169526
0.1508493240501702
0.02044227972204593
-0.3974417439647455
-0.0363633987507897
-0.01255448719020844
-0.3415607499738555
-0.30193361240478
-0.6883615457285803
0.08580309652934308
-1.662185617827952
0.09403060218816364
-0.2274591455571309
0.3886510815604386
0.1062678105180694
-0.003304757851577338
-1.385336590676374
-0.06363101083453059
-0.4893947855029636
-0.7288104060858349
-3.138955407549096
-0.6132000523643247
-0.23524038995893
-0.7434770701007259
-0.1498122951704515
-0.09057633658664992
0.001350489183807381
0.007210234141440466
0.02367510915529552
-0.5297237819251368
-0.3686329396221265
-0.2945805631372944
-0.350505079610901
0.3771818074089364
-1.061160423938221
-1.480229617281216
-0.1030303113706633
-0.7608404914977882
-0.3340332027147612
-0.4804956571398942
-0.3558888070497732
0.5298799282227216
-0.6840994663915215
-0.6048673372304879
-0.08962010458026376
-1.353084947144208
-0.8888851947371325
-0.2714837328439056
-0.2976401627350317
-0.3569299811591131
-0.1036379485634817
-0.2414846860398991
-1.036317698837158
0.4408652172377722
-0.6131634365061953
-0.6324081254780404
-0.7121094273613101
-2.02416825678564
-0.5770160624695467
1.457710512319095
-0.386909050286537
-0.7515221439836213
-0.1390636201460182
0.1830943722463712
-0.3274414327473195
-0.1793997602267614
-0.1262811452623951
0.046911235895651
-0.03933886973569898
-1.133896402665852
-0.3249299956001405
-0.2991940817866819
-0.1918768878926624
-0.5147036802224614
-0.6792136967107647
-0.1506286679551583
-0.1942036455404001
-1.260334472596793
-0.07943852801457277
-1.270587042744709
-0.1488436135532986
-0.7358297626938026
-0.4223408416996486
-0.4166117379207226
-0.08012854895713457
-0.6668742483386813
-0.7612564949423642
-0.1096478643841337
-0.02871584272145192
-0.1560278936705627
0.2120683010706672
0.07238476099621922
-0.6922813867380404
0.3603393486762125
-0.2803262398642763
-1.79025834794704
-0.124088855550099
-0.2263373808653104
-0.1029248796953201
-0.1634761135945948
0.3617088166188208
-0.6119780315901978
0.3694669152170467
0.2177750092280886
-0.2647059828047139
-1.764735222355919
-1.286624333250527
-0.005254683302519138
-0.3147690307174346
-0.3259700033303117
-0.2929483951992575
-0.4767136904562441
-0.6833246637149948
0.2058130789977666
0.06862571141632619
0.1711714342948578
-0.3007251746921526
-0.1744787948748696
-0.5446726581772593
-0.5812122345358006
-0.274055062596521
-0.818345313359358
-0.3954130942175874
-1.145148143489381
0.2613516514447866
-0.7541594283272217
-0.7086244709622558
-1.45463927239447
0.006164959408343805
-0.007617468521246096
-0.1018795426855319
0.2180759224885764
-0.6178808265377976
0.4762839243129577
-1.184356682498706
-0.1491123140586887
-0.3488178112305063
-1.063641083233482
-0.4694810942510177
-0.3959497163663775
-0.03357085939205764
-0.0575257740390702
-0.3657840532710669
0.3221585476530942
-0.0372353389983495
-0.6406010759773929
0.02323211019713789
0.1837415179792473
0.03073124559901303
-0.7468006738032096
-0.5269427612632227
0.07527193724899688
-0.2269010848433249
-0.1291614584662791
-1.071106661832112
-0.005914698912576608
-0.4753657669189081
0.379024087068003
-0.1754682681827385
0.05279544437230153
-0.1353732379791777
-0.131834451073935
-0.4210612453187394
-0.001029762461914867
-0.3930519219331837
-0.1921366023315048
-0.1457905936520206
0.1264287334529288
-0.2889430750285388
-0.08303860088936478
-0.9594459681340926
-0.8432579307320136
-0.6619028010523658
-0.1333709483047524
-0.5620032182995569
0.1259624958519927
0.09948197459783345
-0.2621880278052915
-0.7214340529520703
-0.2166354286224529
-0.2704442534165463
-0.044668800897162
-0.3305750966954468
-0.006998327121697634
-0.2034091419800284
-0.06159770822844929
0.002515714563282147
-0.9626162672320839
-0.2200619745299215
-0.4236575516966525
-0.1235497511874837
-0.4320086538461962
0.05854345243105716
-0.09737707167764501
0.5737777491893283
-0.4760318477875565
-0.4220308094478956
0.09749424108299568
-0.2686619840799482
-0.2074041679141073
-0.1236090367499588
-0.214946408309665
-0.636311619217548
-0.2034760005768172
-0.2673631678572889
0.03821682449558091
0.3876740526976309
-0.7921620771492343
-1.754359411679371
-1.182117891097286
0.1315745862025799
-1.150746361718989
-0.843973199286038
-1.221756428316504
0.1104760498235129
-0.7404724666936698
-0.1737486422685605
-0.7033386433076541
-0.7396420422922517
-0.02326366539517036
-0.980729673885401
0.03884410822023496
-1.068705260389385
0.02062430893431566
-1.454167714212343
-0.4161741138206972
-0.7190615037811161
0.05723903152156398
0.1018123402010937
0.1815722387159257
0.04338486682770774
-0.5436484060622742
-1.278504682894821
-0.7031115461926979
0.3900532043675222
-0.6110785530041382
-0.4070659209932844
-1.039499374419752
-0.5945561125087202
0.09449000971524071
-1.435410926704513
-0.1295280289441258
-0.524786327211641
-0.552840815813509
-0.7264202129213794
0.09222961063201014