/*--------------------------------*- C++ -*----------------------------------*\
| =========                 |                                                 |
| \\      /  F ield         | OpenFOAM: The Open Source CFD Toolbox           |
|  \\    /   O peration     | Version:  v1906                                 |
|   \\  /    A nd           | Web:      www.OpenFOAM.com                      |
|    \\/     M anipulation  |                                                 |
\*---------------------------------------------------------------------------*/
FoamFile
{
    version     2.0;
    format      ascii;
    class       surfaceScalarField;
    location    "0.9";
    object      phi;
}
// * * * * * * * * * * * * * * * * * * * * * * * * * * * * * * * * * * * * * //

dimensions      [0 3 -1 0 0 0 0];
oriented        oriented;


internalField   nonuniform List<scalar> 
37503
(
-7.331359766809292
-11.01824347448893
26.12133250663007
-7.771729265451881
-10.54509162629785
4.565029783307383
16.51079124110725
0.02875829138941248
-0.5066367036175105
0.8327541006437911
-0.3548756884182992
-0.1028261449689609
0.1281242380945168
0.005849780763659301
-0.03114787388252734
12.38864647810443
7.186403925186607
0.6047294824175107
-0.02222870895302292
-0.08567289752458578
-0.4968278759311415
0.08364528641178612
-1.610297097074934
1.577137373286175
-0.05048556258664309
-0.6638421420289355
14.53670790555573
-13.8728657635527
-7.694787955914666
-5.791384999511801
-7.842989538776915
21.3291624941207
1.794478021578995
-3.126241664520394
1.486706969755615
-0.1549433267827269
1.472109369631672
0.1874931164967335
0.4093796690329805
-2.068982155178457
1.718362334631985
2.109045316697265
-2.715899760552347
-1.111507890846335
-0.02916961208505633
0.004170249611829139
-0.0300068254773178
0.05500618796064545
1.098428252062958
-3.571903452825629
-1.015002668413378
3.488477869058746
-0.8876776033820546
1.963053695790102
-2.774467705822295
1.699091613340832
4.252600282275536
10.59460526827421
4.529035348168285
-0.01115264892331831
-0.1648833829295354
0.1453095634567972
0.03072646841635344
2.091426295096142
-4.63840530659404
-1.985725001366194
4.532704012768712
-0.4588627716616401
-1.280508699235942
-16.67680360267809
13.1138545155023
17.9672588506543
-6.646648207164343
14.16117512369991
-8.120475219728565
6.963755498082839
-8.160739251141786
9.317458972748089
20.02400975939192
-25.71625409192673
12.02877169276691
-0.06058154704593853
0.464516071521804
0.02196199793667702
-0.4258965224074819
-0.4502882236801739
-2.180459088167938
3.729175563840457
1.397744712499312
-2.669098084354711
0.3836757684197252
-1.442947218160062
1.912678306463322
2.212811323956628
-2.682542412350399
-9.704312743914242
-9.525990669250797
0.2475500882812174
-0.2871017977191886
-0.01924474973446985
0.05879645919535256
-2.303383847006977
0.4498427287781516
13.09821479455215
-16.18665729404201
-23.76719393210163
26.85563643168125
-0.1517701095495969
0.1288527103843299
0.07673498570297771
-0.05381758652408522
3.751625783965834
2.141652690046546
-19.83755772804754
-1.548601488564593
-0.9990228592477434
2.097336124042174
0.2254555883187651
-0.01932985034322462
0.2072470756366512
-0.4133728135903322
1.326330941009146
-1.184589774048412
0.5147241870807261
-2.05243487105692
2.722300457954598
21.43353333028251
5.091684837849016
-4.452546701495157
-22.07267146673561
0.05358268557600607
-0.3120895971850733
0.1175569715192957
0.1409499401158679
0.3021225392244449
-0.6128889799293553
-2.143704835545983
2.454471276300023
-0.04680333394973837
-0.2257765886748767
0.3823067161326189
-0.1097267934932394
-0.05695234341848018
-0.05203253779592388
-0.007419060712306641
0.1164039419362903
-0.4978356848374131
0.4475064807226126
0.2993635669261772
-0.2490343627932075
-0.05371111136895233
-0.3769213830126503
0.5896909647353077
-0.1590584703152287
3.904866017219332
-2.531938031677513
2.310762292946413
-3.683690278485351
-0.1380948146544551
0.03064578339534823
0.01916419396426229
0.08828483730743446
-0.03849350889438254
-0.0865962870051348
0.03277945814706243
0.09231033776759073
-0.02514527043218709
0.1205541623254144
-0.1459495632009491
0.05054067131908832
1.960321153373233
-0.9823053728720811
-0.2487202911244364
-0.7292954893629519
-0.6630635551562448
0.1839191854531131
0.3241077671070384
0.1550366026447855
8.810275222077742
21.07452406216161
-27.32750979851365
-2.55728948572812
-1.246186764753029
-0.08351769469296466
-1.386195301138345
0.4633203907372417
-0.1315626858064066
0.1009194151210089
-0.4326771200414223
0.8121896780291203
-2.166350266254229
-0.949223258831857
-0.2150949347736202
1.51915486469486
-2.095503761709201
0.7914438318243938
-0.1554534222798555
0.2140331591073982
0.003797537512517374
-0.06237727432442892
-0.2367686800035397
0.1303417706440518
0.1603731522139587
-0.05394624283776438
-0.8994392281310706
-0.5301054631196884
3.163854836567043
-0.05091528997012615
0.3250776487268905
-0.3167802054200413
0.04261784668947043
-5.140584038394619e-05
-0.113334407979278
-0.01996367759888627
0.1333494914381348
-0.002461651346021661
0.05307803050668499
-0.08288384035577906
0.03226746120476773
0.005966418190220264
-0.1344153439913917
0.1208371682012662
0.007611757614371299
-0.07151833623501622
0.07278825338762188
-0.03250038482372097
0.03123046767692699
-0.2384633857724658
-0.230086191367977
0.4589245114080873
0.009625065756701776
-0.1595137034167479
0.06680475956478524
0.08167180330149543
0.01103714056270784
-0.1055952499369384
-0.008281819920784757
0.09788782822599032
0.01598924164339799
-1.936543239395089
-1.151497059599091
0.0536521405834528
3.034388158312919
-19.98090471538211
19.5869449217437
0.393959793623342
-0.1709211687893885
0.04886728103213459
0.08750635350370467
0.034547534267529
17.83596365288384
-14.71001745664169
-15.19702731669437
12.07108112036297
0.09042161285056415
0.02746085953187221
-0.08959133542344026
-0.02829113693675064
-0.1521168966519912
-0.4911677473388232
0.437707386623185
0.2055772573858388
0.1239624982774973
-0.5817197473505277
0.4855701133939866
-0.02781286427089504
0.1485639836048823
-0.08122471626827232
-0.09781057885655298
0.03047131153743411
0.1948545259637673
-0.2213354598989576
-0.1527990037193419
0.1792799376803108
-0.06987917509421376
0.1668118751999429
0.199523821264403
-0.2964565213520454
0.842361760147028
0.6136124845349784
-2.187171708658478
0.7311974639997154
-0.01606966022437646
0.1248060972986317
-0.04716838153670996
-0.06156805552439552
0.06460117604985498
0.01517633169212968
-0.04450761462363129
-0.03526989310388106
0.8096924677439518
0.8461570299389949
-0.05845323056737033
0.01671661035380891
0.04173662021871582
2.866007785346318
-1.732521957026903
1.038873898162158
-2.172359726469203
0.2298873386233766
-0.09551766609130544
-0.1128915710462198
-0.02147810146458768
0.1049045115951543
-0.02291239614840103
-0.05760513071975734
-0.02438698471265113
-0.08085870364432203
0.4510972558879201
0.4011552388694747
-0.7713937910680574
0.2568920447555199
-0.1854930556657592
0.1563270930841633
-0.2277260821634164
0.1150196528360941
-0.1664663321433338
-0.2500600169014517
0.3015066962288537
0.06519500823380291
-0.1365805483833003
-0.02860650565120503
0.09999204580949086
-0.1018291876513475
-0.01553782485185127
0.01454086753849632
-0.08334376630926027
-0.1100205405112539
0.09266844986647534
0.1006958569700285
0.1912083874460547
-0.1111753064777708
0.02171267557771736
-0.1017457565412906
0.9773225150660747
-0.6305840207905429
-0.389725960305838
0.042987466086516
0.06514403431120862
-0.2819558535583142
0.2975647672177144
-0.08075294794531253
0.2534795483871747
-0.04041735059385835
0.02191821760847275
-0.2349804153803393
-0.06083566836231879
-0.2393202555149165
-0.1924692346191271
0.4926251585037565
-0.0329667227154546
-0.1945863605318211
0.410188522758907
-0.1826354394959491
-0.1185571648047694
-0.2674470051086192
0.1012999795695541
0.2847041903544776
0.02852693801971978
0.144147845492403
-0.1955503121111016
0.02287552861909125
-0.1030068692353875
-0.08999587572514181
-0.2535385833099852
0.4465413282833626
-0.2031946210902224
-0.2830887250375362
0.3424954415232145
0.1437879046066337
4.793928855807374
-1.504544219037787
0.04772060177669232
-0.05077503833779713
0.003054436568949995
0.9802979695022094
-2.21142652945443
-1.437969524447613
0.03789102309417077
-0.02631801984465093
-0.01157300324391538
-0.1962582051520146
0.04807635171685536
0.02717219540526625
0.1210096580427976
0.003905837282798719
-0.06660782459933502
0.159099262035523
-0.09639727469960711
-2.331267365972338
-0.8106156968138728
2.606305109062873
0.5355779536406043
-0.03949269149686342
-0.07808009379598764
0.1298274307638261
-0.01225464546022596
-0.4290123433513428
-1.178945287523687
-0.8672791225312328
2.475236753396394
21.07506875992033
0.02046862893596528
-0.3268027826848314
2.955722064980947
-3.813509056364106
0.06768782860456027
-0.1008810847594267
-0.0322875255085993
0.06548078167234021
-3.045167452747386
4.86126853457461
-0.1524534211365584
-1.663647660601973
0.1178088879410856
-0.05733114129246512
-0.3180106287690163
-0.2766137866241992
0.4084200947680215
0.1862043206418267
0.1889865664677648
-0.09826922623855665
-0.029897168853205
-0.06082017136696058
-0.06750028889237723
0.251409349750065
-0.2263922572532339
0.04248319643110045
0.1841355532202789
-0.2893103546588231
0.3018362884056184
-0.1966614869461193
0.03772737530643008
-0.01830082119850059
-0.0493020913909245
0.02987553728963957
20.19964764473795
-18.63104020258731
-0.4674321903222314
26.74186225248367
-26.93827220423753
-3.342938770107154
0.2595707965295703
3.85115242768736
-0.767784454185066
-2.04377404879962
0.3425599581977617
0.9175546307156941
0.7836594598885304
-8.036778265066022
-4.954845768530651
6.980267887663707
6.011356146119167
-13.86457862852073
-20.76514326964391
34.63623344818017
0.7592968816282325
1.589807927200185
1.380070754953047
19.08635445194957
-10.92648977547991
-8.159864676462314
1.195248149803135
-2.360173869981676
-0.06476837064499115
-1.72940136567468
1.131957390868963
2.319886929181263
-30.34381838237616
-0.8947671599356641
1.23779721010221
30.00078833210401
0.1077196924813567
0.004779235633759362
-0.1302792241127729
0.01778029601619546
-0.1886659962016087
0.03375576647345345
0.1549102297368698
-0.1050187872835402
0.04347350568980537
0.1128119113805189
-0.05126662977298818
0.5436340689347779
1.426420641707493
0.529823871792006
-2.499878582532666
-0.6180481230533228
0.1994590635455256
-1.776822506232588
3.103736371278419
1.998408319432899
0.804231830665414
-3.61088781605309
0.8082476659899603
-1.895752369803738
1.90902741047649
-3.150683758603308
3.137408717810641
-0.3746268790861909
0.1814390039216501
-1.988310961034988
1.703425103312856
-9.315944592839323
-9.438889367911658
-0.05522204962571571
-0.1504915362165208
0.1164860490789558
0.08922753677676352
0.1176444604049294
-0.3410633679578078
-0.3540917200034467
0.5775106275943704
-0.5202480035882874
0.3555839445950586
0.1152886997321053
0.04937535931014858
0.4590434954397825
0.2107525662975066
-0.8236089298020631
0.1538128680874517
-0.3573719996606839
0.4847580070491022
2.210286967320162
-0.1497879600077987
0.0560196866942887
0.01256330075334999
0.08120497256420024
0.01106441762520083
0.01627570204931046
-0.1253203904570487
0.09798027078941973
3.122291234790136
-1.082963485151028
-2.566380001018781
-1.162986833286319
0.5895697679268332
4.751931149802593
5.582908397015449
-10.92440931477926
0.1929813330362265
-0.9424887529582584
0.494416186016578
0.4480725669445413
0.07176911132235932
-0.2720084703053323
-0.2141834960276173
0.4144228550317491
-0.6390420098052874
0.2514582652271556
0.54646445672948
-0.1588807121239435
1.800263582824727
-26.1415876728943
1.855188225334585
2.87825220442077
21.40814724310258
-13.88530809365327
7.796134124223447
6.678743737260102
0.1910007940111003
-0.06619044754137932
-0.1301833684021653
0.005373021946076577
4.873017060905112
6.599141879237759
-28.8902777975566
17.41811885727893
1.65954111778394
-0.7776237130635517
0.2817239689065901
2.678377294814985
-1.764853113976328
4.072241877333492
-1.730426586373168
-2.972747090895421
27.61778964485291
-13.62585880973388
-13.99193083519412
-0.0888894901681203
-0.004052030066638359
0.1034742865883571
-0.01053276634144621
2.412190544528862
-3.688216586046007
2.084875216923895
-1.946398647552587
2.81724549554962
2.360087895181505
2.314917237978699
-2.262814588682885
-18.85173364820711
8.521663909316665
-8.666360534769325
4.413751783792313
-1.603821159878705
4.399792454873136
12.52498224267292
-7.689717660522159
-4.26549982392652
-0.5697647581497467
-0.01165702390948311
0.07408099271424645
0.008650347064250158
-0.07107431585666335
-1.277016852790448
-0.7466046964975794
-0.4588871774894847
2.482508726829006
0.4027442526094908
-0.2449685881945553
0.1223405373091691
-0.280116201705662
0.0500429296000713
-0.06429774113167383
-0.222513868460027
-8.108016724411591
9.069227948659821
5.263472427149408
-6.224683651416494
2.683137683521173
-2.053808866444064
0.725948488199741
-1.355277305212414
-0.05755797405678852
-9.085056659891702
-1.744047225384578
10.88666185955329
0.225083732497219
-0.1729991601664293
-0.05208457232697052
0.0971669649445558
-0.2090235020726409
0.1118565371398723
-0.0578426533890597
0.3133737836108621
-0.05803795363820446
-0.1974931765688474
3.711813424971291
-21.78337848718945
-4.075584032542956
22.1471490946882
-0.1586677984813909
0.1561948555429477
0.1652831568100453
-0.1628102138471072
2.626978310532976
-1.257733894027016
-1.798256759873174
0.2308278851752937
-0.1336609202212773
-0.1460175948012778
-0.05321532534857485
0.2328606126027748
-0.03362769242675932
3.015451919593089
-3.576593662210572
-0.0005743627544131173
0.5617161054662801
0.3643016516521946
-0.0247892479482388
-0.01991486979490121
-0.3195975338495768
-0.01364890778555663
0.01539078951319393
0.08994936860563985
-0.09169125031983663
-0.4326597247125906
-0.1172427708831145
0.2692180595142899
0.2806844361195232
-2.305433527620249
-2.121184797560228
-1.446566192811747
5.87318451797073
-0.09502467520242221
-0.1641487115967755
0.1077304769065729
0.1514429099007136
0.0723785441393094
-0.1960984136437651
0.1237198695152104
0.06835671022868765
-0.02776917193861936
-0.0835946525052297
0.0430071142295952
-8.036724969895266
-0.129071270430065
0.007743715728660758
-0.03734612524709852
0.1586736799640646
0.02085267889851949
0.04378640751868476
-0.06463908640345456
0.03189666453116375
0.0571506440065192
-0.1085620002425035
0.01951469171947675
5.865214220316715
-4.037447589014145
-5.308426350784504
3.480659719590711
1.991102020171517
6.07858184327591
-2.41475903507526
-5.654924828321933
10.33246006555042
-6.626967701199762
-20.833142147469
17.12764978303533
-0.07182577096322219
0.04747688136685708
-0.08924734813098641
0.1135962377455673
-27.61247862698816
15.26528594991391
-4.329610925617199
0.712628660423509
-0.3572384900455295
0.704942716457877
-1.060332886855675
0.7290251483879026
0.1458096851069166
-0.7180919885760958
-0.156742844898887
7.493563380852495
-0.9282073041434513
2.026388108606122
-8.591744185291901
0.08512150086738868
-0.1233175825893366
-0.306734094272927
0.3449301760123272
17.015116145165
-13.21092382137282
15.28216212815934
-0.6396422426130476
0.1880531976778201
-0.06233150658750548
0.09457744851862741
-0.03224594192407446
0.059078965323599
0.1305684810359556
-0.1707126047583301
-0.01893484159026033
0.1063789248018262
0.03581070788993241
0.01297026970299721
-0.1551599023702638
-27.13207766294414
14.97183152192505
1.19247547585796
10.96777066502198
0.3220184284870293
0.4558588463344675
-0.3806988568933647
-0.3971784179154297
-12.72074148160404
16.41603020571425
0.1002598680860912
-0.3872224389512108
-0.1240543800536575
0.4110169509552676
-31.49551600779107
9.111982304763112
7.04830983571672
15.33522386725698
-0.1630744517067098
0.04078703857572674
0.0564264631749436
0.06586094997168968
14.55651981220962
0.009276294069374826
-0.06017469469225539
-0.0002397110882366019
0.0511381117172322
0.4448641004142053
0.06649739732722881
-0.5500655163608715
0.03870401862264168
1.425203111270974
0.1576788666351186
-1.014041687732282
-0.5688402901167049
0.007573993993309716
0.4167325191508113
-0.1246017066396422
0.0529636349067678
0.2118314103016046
-0.1401933385444469
-0.07482634974551609
-0.1367304362664136
0.015730387924724
0.1958263980932231
-0.2209343487087125
0.02217182656718655
-0.004243735210293817
0.2030062573736549
0.1667215082326748
-0.03647520236558402
-0.1302463058521268
0.02546121516548456
0.05076469508077608
-0.07622591023491332
9.751976221148055
-14.20960302853203
4.457626807415285
-0.06202882786738615
0.08241785114790326
0.182828201225802
0.2126574202835881
-0.138804846558499
-0.001829499528060257
-0.07202307417084666
-0.1072092067509926
-0.3091219388574177
0.8367928030301927
-0.4204616574077033
-0.1559431647283429
-0.3583244567995285
0.1676674177792555
0.3466002037864953
0.2062106858101201
-0.3913575481023207
-0.3676796107448817
0.5528264730466222
13.57160063729078
-26.1636226526139
-14.54005564773153
0.908159037364318
0.4246597838220994
1.762414803137381
-3.095233624299692
26.96485504773014
-23.85761813665336
6.824766377458088
-9.932003288583756
-13.19799128905718
-16.12371184491758
10.16060877824667
19.16109435562072
0.1421819821015847
-0.03445873319858713
-0.1077232488849334
-0.03447650487461304
0.01400030835180878
-0.1277708803861966
0.1482470769372518
-1.288979780217852
-4.7910957922179
-1.010084333461755
7.090159905910591
0.4058374053660224
0.08837288662715552
-0.5753614530602243
0.08115116107053906
-0.0466827853308542
0.1470401295614553
-0.0216423979566357
-0.07871494625897915
0.04838535669734384
-0.01827276688874155
-0.07908309909927294
-0.03131204892839207
0.06934950393267666
0.104385056593565
-0.1424225115694391
-0.05300715202139378
0.1114079255077876
-0.05840077347709113
-0.04216900314081156
0.0433247640121335
-0.1344843877296543
-0.05530383540180779
0.1990722791651633
-0.009284056010228001
-0.05542232447185429
-0.03407081743487383
0.08949314192217643
-0.4513665108335345
-0.02822916906473162
0.4048159373404804
0.07477974258017595
0.199211474578478
0.1802812104834852
-0.3259099994669573
-0.1424608516346214
0.09357384691650811
0.07071618081657033
-0.02182917608020457
-26.39663954548662
25.40185358444754
-3.711991735021178
4.706777695939826
-0.4954961148171479
0.113990303249291
0.3325107682078735
0.04899504339675042
-0.4539677992599608
0.1751493757590779
0.5941215172366749
-0.3153030937148898
-0.1661830263354359
-0.01638977220126824
0.1074231364147326
0.0751496621343197
-0.06678173971976081
0.2800283045220431
-0.2465618277800528
0.03331526299744285
0.06962140500065704
-0.221690230671038
0.05608017941872519
0.09598864626885238
11.39521587616358
3.076095255841408
-1.174777734772444
-13.29653339727099
0.1287931929799244
0.03858973126016828
-0.1009635877838927
-0.06641933643867759
-0.08370584219559843
0.2248532153516624
-0.04624815654170018
-0.09489921659607617
0.2082285039881018
-0.1733116869839914
-0.243940319064444
-0.04817418225387332
0.04378669566761879
-0.0455823744346593
0.0499698610223456
-0.06622523935001039
0.4345040674779189
-0.3159799682569959
-0.05229885985923141
-0.03936796829886298
-0.2568370141248742
0.1972823310959408
0.0989226513463126
0.1675746265780217
0.01298587867668764
-2.382329639962697
2.201769134781883
0.1100206686859184
-0.04562525282108337
0.09008862905581873
-0.1544840449077362
-1.38064422294465
2.062923467803261
-0.2231292305131822
-0.4591500143387894
-26.58414369118991
1.455801643870564
26.78987669715937
-1.66153464989462
0.07231052656917553
-0.3201617894887018
0.3370102738912653
-0.08915901093440667
0.1169965564005704
0.02685432026963562
0.07917668690235569
-0.2230275635536266
-0.0854197576171072
-0.01700065933391186
0.0822377690493109
0.02018264791197129
-0.5264761125022976
-0.6059468916597957
0.5887182860421015
0.5437047181273644
0.0569885234237129
-0.2599533144686041
0.20507725397167
-0.00211246289586225
-0.1810354833913378
0.04246213733605618
0.2172034216368498
-0.0786300755665696
0.02943742409106491
-0.1134904092352606
-0.0159886429632138
0.100041628112943
-0.3745763552374924
0.3544590078328587
-0.6617916031512374
0.6819089505917622
0.2543300106165114
-0.002675302420210154
-0.6535621381457911
0.4019074300267252
-0.06882210913094991
0.1463530540323657
-0.04961617758494739
-0.02791476730458085
0.1420517174291834
0.2738472021365767
0.01437188846559107
-0.4302708080170242
39.26945856503857
-25.20367086436915
-18.14165204546679
4.07586434477055
0.3526612747371557
0.1023430709486795
-0.1661245565492091
-0.2888797891135364
0.01401925967951688
0.02348680322412362
0.2093202551301373
-0.2468263180105273
-0.6547868562285547
0.1268460916628373
-0.09671645800035569
0.6246572225918102
0.09189026068719996
0.03898587677476369
0.05248893578809019
-0.1833650732357144
-0.05357165272571363
-0.04195163447926067
0.01696663534626308
0.07855665186741101
0.04724422498571857
-0.4099340755631658
1.716943189056113
-0.84818802523897
1.27739089996577
-2.146146063717087
15.52252567865654
-10.95459183940294
-0.02896823928334021
-0.1078578031934183
0.1391694826377027
-0.0023434401428632
0.0009452868645242532
-0.133084753511521
0.02212798910944896
0.1100114775475236
-0.1468537726212323
0.1364870038771795
0.04874533464329057
-0.0383785658821283
-0.2760883834747752
0.1212885544850135
0.3391245944935877
-0.1843247654812334
-0.09023894896473213
0.03894072559723444
0.02049791996401877
0.03080030341618365
0.08897762402633955
0.02830495396174798
0.0001547842920155216
-0.1174373622579207
-0.07328102225892219
0.05649016959748492
0.09828230235240944
-0.08149144967619742
0.5264500767477893
0.716783703277492
-15.23567938058393
13.99244560039603
0.1632198581016289
-0.1711915102423857
0.00919255506381011
-0.001220902909024533
-0.1755073872821167
0.05820942523707985
0.03196247452059736
0.08533548754957662
-0.1907553565502983
0.3415197406782571
0.1327685200512253
-0.2835329041463425
-0.04546875473587785
0.04956963451776843
-0.004100879772595411
27.70090218568195
-28.50804259227
-8.460241808645439
9.267382215279561
21.44439714312994
-2.718767055530164
-21.84396909942737
3.118339011834798
1.95076030422002
-2.18401301508347
0.303419227352691
-0.07016651642991344
1.80292916157998
13.05520919064984
-8.353031263233895
-6.505107088981237
0.1673670004821482
-0.04024547242861626
-0.1271215280340778
-0.0005265404530906521
0.00759423857593708
0.08745688487957233
-0.09452458299805618
0.2781636617636619
-0.1165618317219737
0.4371291171256451
-0.5987309471447465
1.82631157062568
-0.14480971545996
0.2900087006745743
1.203823626361711
-0.4626134708396629
-2.030447639946575
1.289237484444427
-7.317527873177872
-0.2574878518658983
-2.456684172323207
10.03169989722225
7.655445639636191
0.8954795126429619
-8.225119644411944
-0.3258055078129893
-0.3321085614401963
0.1272309438270545
0.1349984425339301
-28.75733406752144
22.24840475921179
4.508404929560681
-0.110379789252296
-0.1581961435897989
0.2356092101341531
-0.005956336087969374
-0.02415282480059211
0.03010916089371398
0.09677824309055288
-0.04998929645905646
-0.1482795009637306
0.101490554343395
2.701684021184956
-1.808859316272192
-20.13222986674031
19.23940516172161
0.6158655961689784
0.08576000745266982
-0.8208223507819374
0.1191967471924045
0.0607649210166771
-0.049719660306718
0.1557666145014708
0.3518891538750757
-0.04144859641833316
-0.5031468670272801
0.1927063095786515
0.1481911055150535
0.03616309086302941
-0.0708630473827942
-0.1134911489862163
-0.09139787577182829
-0.4154615241131252
0.2005436155431816
0.3063157843542764
0.2714756792786598
0.02065005117827704
-0.2631232154250513
-0.029002515009389
0.03650287054875243
-0.1972499389871946
0.02918221251605556
0.1315648559538364
-0.0365400716006043
0.4688263275755463
0.2619205549928444
-0.6942068109409973
0.2000121942972802
-0.253491070294505
-0.2720956333712438
0.3255745094006059
-0.06270438369153687
-0.2890570801740905
0.3043763750444313
0.04738508886482688
-0.03408725852397997
-0.145624242678265
0.179711501217689
-16.88029675180856
15.5841770433318
-2.628445492919332
3.924565201544902
0.08322637156344741
-0.1173136300820839
0.115759071375783
0.08659518738856721
-0.07436009434637134
-0.12799416440846
-6.852625011296628
19.99698465824607
8.289173683254752
0.7144367056518296
0.02251592360541089
-0.4587889674854841
-0.7983782912658769
-0.3178629745199034
0.6563358258782674
0.4599054399565365
-0.0331768700034045
0.1195508235019098
-0.08088873987413163
-0.005485213606386896
-1.05879740467382
-0.404446500958085
1.353899886276856
0.1093440194444554
0.0005224244111021309
-0.008567277540026706
0.04577222844131959
0.1313457928713582
0.05147180712102656
-0.213979339822288
0.03116173984162272
0.06779535284953597
0.1467768115900484
39.20894042003511
12.10104019413381
-37.20704486076104
-14.10293575349939
0.04442173938197036
-0.0861577020427266
-0.002252000775551377
0.2837470035107062
-0.4846896238165395
-0.3511645765236535
0.05557425975908257
0.3534573026973941
-0.05786698590605135
-0.2706002947633312
-0.2694202343838962
-0.1734671101544852
0.7134876393456984
-0.134017337048305
0.1812162181671931
-0.08863922070374215
0.0414403395978514
-0.6311933952375497
0.5047872972013413
-0.004129468481573519
0.1305355665336184
0.08228917678438712
0.005827427371293055
-0.02024744379355026
-0.06786916034147172
-0.6516724070252854
-0.09959851400603453
-0.1587468499157532
0.9100177709355201
0.1254320779143984
-0.007077479976117219
-0.03061078636157588
-0.08774381156106471
-0.3665237356977208
-0.1137909965493162
-0.03993327131363137
0.2614130073312751
-0.1719695810046063
-0.08944342631275065
-0.04969146082419588
0.03566193217223439
-0.125903775066209
0.1399333037354517
0.03297365212382482
-0.1149672451873277
0.103693133214383
-0.02169954013412492
0.5350360921099614
-0.7376603757290686
-0.1200379726939117
0.322662256344184
-0.09271497046505382
0.1083706864901483
-0.07029140150357593
0.054635685506103
0.1384575923265303
0.07073797806203949
-0.001097082638311266
-0.2080984877329223
0.5856327952618871
-0.3670713372406822
0.03380680928426173
-0.1593333079572909
0.1085818645337107
0.01694463415985311
0.0428254902971737
-0.001180685640101153
0.3381821370455345
-0.3798269416721051
-0.1053802241194812
0.01287998713008846
0.007080479378629841
-13.71783833474285
-2.198783103726986
-3.46322949869019
19.37985093713255
0.4642080517376935
0.07814781931289734
0.0002379984373804882
-0.5425938694839728
-0.04035838521678551
-0.1949028559211313
0.175626282173194
0.05963495899041381
-13.28588389222705
5.31178871971332
12.9374742038424
3.354205971183708
-29.57756406726229
-0.1320443841284755
-0.03658778754544169
0.02261457689026155
-0.04985138355442995
-0.09449378282231011
0.1858217983110579
-0.04147663191579898
-0.3449942038240449
2.249546962266864
-4.346083478763945
2.441530720283154
-5.641238744905094
15.82927969589013
-8.385111789421677
6.829452624327264
-9.063847236377807
14.93526545453108
-12.70087084250667
3.234866986152108
0.045214558784694
-0.676456279447765
0.769128955901652
-0.1378872352112811
0.1085716313095986
11.02605116823139
-4.665772677136673
-6.468850122417694
-0.1094909467139498
0.004951544728332946
-0.08472991929209507
0.1892693213088557
-0.6277249100795419
4.046509028686324
-5.149210704924744
-7.718111655215412
3.316207889343242
-1.176727172130109
5.578630938009603
-6.653258622721594
3.912898313412247
-6.833333163344809
9.573693472735078
0.004130928218450722
-0.1666996037220961
0.03299889718041871
0.1295697783357456
-0.03175476833143358
-0.3443509370642379
0.3655012781500058
0.01060442726380011
16.81567774332897
16.38566609856273
-12.47040075138775
-20.73094309055251
6.508619753044699
10.30705799024981
25.85397814128499
-6.631519099104096
-2.836792943658593
-0.04738511245802034
0.1770917382138231
-0.06028385624266962
-0.06942276949515644
0.146197097373189
-0.09507733799728148
-0.09850487181801799
29.80213212163408
-40.4663785126594
2.958987413247345
7.705258977748073
-0.06166363931455322
0.05755915326174316
0.007244729692273564
-0.003140243613890369
-0.03294394480060043
0.08842523289891689
-0.05548128808629487
0.1384725028468985
-0.1647361084867431
0.3294314005954424
-0.3031677949250605
25.79750964060519
25.92892216092301
-0.1065048095903615
-0.01017091700976276
0.1331026217045397
-0.01642689508900961
-14.38312189327186
14.40723743474311
0.1260314597514457
0.02090238359141708
0.02936192214378374
-0.1762957654681022
-0.03448702432638188
0.01295074265445398
0.02153628168318045
0.1679227307540065
-0.02035736681411687
-0.1768834351433968
0.02931807121278397
-4.681987071853906
4.715039375413732
4.815483696836245
-4.848536000425473
-0.02141451388485591
-0.06207845177584188
0.02371717342599579
0.05977579224836607
-0.06622088638565177
-0.03560331169357163
-0.04609760094681014
0.02468308706605531
0.03761614543644069
0.06848735689776321
-0.006956575705372114
-0.09914692661791512
0.07370614682916603
0.1106798113384668
-0.01738051096687973
-0.02871708997476789
0.06978532090856096
-0.115491389646638
-0.09895122923588026
0.1446572979860244
0.05656341118999295
-0.02486276364160445
-0.03170064754011259
0.02515169267758961
-0.09344645616826289
-0.1056306652335676
0.1739254287442837
-0.3049120343274613
0.1259215519050622
0.3197299323098378
-0.14073944983219
-0.7462391800097021
0.08260935284604028
0.4961353414537147
0.1674944857247385
-0.1057690721717238
-0.2005288742250626
0.4236727892613882
-0.1173748428270618
0.3008212489253249
-0.02979193786698221
-0.5040522501277545
0.2330229390716237
0.08617563881254155
0.01923147863193461
-0.01976612591655566
-0.1395232288589042
0.3267588533795192
0.09728907851502659
-0.2845247030042312
0.07808816530750211
0.05412014090946717
-0.1322083062096537
0.1047250505529636
-0.1158582544651009
0.06677550719982858
-0.05564230327622275
0.7891373822694292
0.0142166282271086
-0.4631774524547532
-1.266663614813597
-1.293884698817339
0.9316439162926834
1.628904397348292
-0.1108853690540208
0.03643694300210715
0.1082552353454024
0.07013381838476719
-0.03364382678576807
-0.1393920423141423
0.1016370311100349
-0.0164898171743512
0.05424482840331964
-1.169046798842558
0.7439769083649013
0.1921172860727635
0.232952604450171
-0.3475688275797104