/*--------------------------------*- C++ -*----------------------------------*\
| =========                 |                                                 |
| \\      /  F ield         | OpenFOAM: The Open Source CFD Toolbox           |
|  \\    /   O peration     | Version:  v1906                                 |
|   \\  /    A nd           | Web:      www.OpenFOAM.com                      |
|    \\/     M anipulation  |                                                 |
\*---------------------------------------------------------------------------*/
FoamFile
{
    version     2.0;
    format      ascii;
    class       volVectorField;
    location    "2";
    object      U;
}
// * * * * * * * * * * * * * * * * * * * * * * * * * * * * * * * * * * * * * //

dimensions      [0 1 -1 0 0 0 0];


internalField   nonuniform List<vector> 
19632
(
(5.006439059124429 0.04114925905328087 0.01070617585029449)
(4.998317037370605 0.002102283841989092 -0.003868564591261696)
(5.000891235527326 -0.0001302989868019298 -0.0006329158755838241)
(5.000454697399504 0.005875186312895497 -0.004008852138402157)
(4.998898804311416 0.003251105199279216 -0.0005583561986812891)
(4.993849770883879 -0.005774368912500726 0.009989649844875544)
(4.993539793009743 0.02360468589720409 -0.006111811595254221)
(4.999370506425833 0.003869710492351603 -0.006986628730391654)
(5.000449048671013 0.01259109921326816 0.009400778949272231)
(5.003763257268661 0.02957362878546025 0.001979236791482375)
(4.998353813926753 0.06372753458047742 0.002941068088392413)
(4.993281378141588 0.001970081294038272 0.005861566441794952)
(5.001942367691581 0.01359871778981607 0.007301958141947649)
(4.996884098421913 -0.001247849556904568 -0.0006149194569016501)
(4.998652095806312 0.002926056542961166 0.0004266443964534228)
(4.99863126933217 0.002840523038826271 0.00101312194746116)
(4.99960003881245 0.003942887472526384 -0.0007449906480880575)
(4.998702255421497 0.002323753980425882 -0.0004232428753626523)
(4.999419169783441 -0.002008924448140939 0.000443090038319301)
(4.996154087240433 0.004514687445317465 -0.001005876761167674)
(4.999265763654148 0.007297557799380384 0.005832259603218679)
(4.995109636217323 0.007974154178918251 0.01130145125000406)
(5.017157977087636 -0.02676715002234607 0.01053348569441998)
(4.999010636176045 0.001871557322086206 -0.001497241311069291)
(4.998924544895853 0.002844150789038152 0.0007818511887354198)
(5.004557265260527 0.005075650613337486 0.00803471290923961)
(5.00050653282941 0.01359008067812848 0.001187247903032205)
(4.999067171004604 0.001816838674423132 0.0008639572502652827)
(5.000497055835148 0.001432547560785653 0.01200886840614302)
(5.000206352064609 0.001485543251281789 -0.0003752669142468188)
(4.998326655710525 0.001445613623323627 0.0006440821384045038)
(4.998549442015078 0.004460314545342899 -0.004163376310533689)
(4.997927480595281 0.002425822224723508 -0.003175180327453857)
(4.995951771759194 0.002476492893545693 -0.00134267671884369)
(4.999398289940867 0.001497392209845358 6.661120539561315e-06)
(5.00025943658432 0.001658549041698223 0.00540875292939476)
(4.997110879338867 0.003432475473690652 0.003249857225029984)
(4.996084034541994 0.02468302415171572 0.001996987118600165)
(4.999204004525001 0.01024023135988019 0.00723695642475541)
(4.997550332564373 0.006519012705499507 0.0007578129372838564)
(4.999449412024785 0.001526539581549702 -0.001700546583505524)
(4.998288318285438 0.0132919928331116 0.02062062412523428)
(4.98824176825205 0.0100565220203463 0.01003247127050925)
(5.000270976045131 0.003550527174129881 0.001623945475566754)
(4.999110719117792 0.001469552984686559 -0.002051646906964277)
(4.994721460644632 0.0095511188219109 -0.002698522724487842)
(5.001213035443627 0.003726080561933779 0.009604078549422201)
(4.9912943308623 -0.001787214096065678 0.01219958018867931)
(5.008005213785335 0.004298105175320543 -0.00886328894293298)
(5.000319836328536 -0.0002723617047207676 -0.005412857997481531)
(4.974890863134283 -0.005877399426823415 -0.01000436706022854)
(4.985424177714773 0.01869111033049077 0.0690394241530911)
(4.996581091801874 0.0151905829858982 0.0106948596452142)
(4.995351065397942 0.01269628503782616 -0.001096701548756755)
(4.990411579877151 0.005175003858498818 -0.005932493296754376)
(5.00590274676894 0.006641937786186335 0.005191426221508704)
(5.001790518424746 0.01344802645664984 0.0073437444436247)
(5.001708175583493 -0.01441107981016839 0.005039203638147001)
(4.992646714483534 -0.02065468286188557 -0.02371961631133592)
(4.999436253093894 0.00573413446556403 -6.624323222677155e-05)
(5.001279588958207 0.001712897142947738 -0.001470031854497274)
(5.004940089116033 0.01022689818175793 -0.003111385473670452)
(4.999075511872947 0.001787730462006766 -0.0005274211446516356)
(4.99643406768995 0.001801071381597092 0.01155993488992015)
(4.997389730637904 -0.00805641976562978 0.008077760386678475)
(5.000221501632613 6.189882467348262e-05 0.0007153441754092276)
(5.002936824845109 -0.0005991632473737411 -0.000133139585124846)
(4.99802018986284 -0.002430070576724945 0.006912954496594093)
(4.999651522154285 0.01361507212198194 0.01385572218420504)
(4.996801719954614 -0.009032155673568616 0.02326677807218364)
(4.998909164303225 0.001160706237135633 8.517646898320402e-05)
(4.975849252585113 0.008563791151340743 0.001546718968568176)
(4.955799432024524 -0.001124922392044685 0.003954260275432555)
(5.001532632486169 0.01225585569104568 0.01308270107144444)
(4.998238643889676 0.001646129553130425 -0.004913816663653012)
(4.998875791878443 -0.004302508793483003 -0.01885171441965601)
(4.997428149596059 0.003532397130503735 -0.03309113107681511)
(4.997832773234899 -0.004615786896092581 -0.1030091454628934)
(4.999467209267421 0.0005406458896029191 0.0009080901393763592)
(4.997395536958669 0.005271257252083971 0.01130977261410029)
(4.987789342997654 0.007155011004065568 -0.007747394254511974)
(5.012364540434232 -0.003186630106084724 -0.009772007395018113)
(4.997535859620634 0.005254655071437409 0.004965916924466322)
(4.997923171291353 -0.005321134907513208 -0.003978168354159359)
(4.992659308484969 0.006745213486924076 0.006044352957111185)
(4.988414907113055 0.00564383553536551 0.004511416827917294)
(4.997503063389585 -0.004085851676147014 0.004853719405399783)
(4.99824133500231 -0.01285645474832894 -0.126593583066301)
(4.989283315455575 0.006879271319399611 -0.0110912612289201)
(4.998516414748213 0.003343261880343315 -0.002533879721124153)
(5.007284031322538 0.006602372659779579 0.003622720597888819)
(5.00297136330507 0.01586820814083752 0.01193296425161799)
(5.004239588341449 0.0001899946603672482 0.0124962149179547)
(4.99897101996099 0.004323286658641926 -0.002338143970386595)
(5.00177831541654 0.01025414803983245 0.02690034001659098)
(5.002365648084698 0.01214873984047036 0.01142134806786988)
(4.990979349795161 -0.002053241358366154 -0.001129949430210654)
(5.000231096631886 0.02463472478246278 -0.001491597255533899)
(4.997203037638515 0.01012541451875418 -0.01310286874128078)
(4.997799760088721 0.005227992421094069 0.03593631396631175)
(5.001133536787091 0.002076075821684337 -0.001876602306693445)
(5.006264734105094 0.006837023531362021 0.006736471911834684)
(5.002103784163452 0.0007007053830303338 -0.003411397087577432)
(5.001294385597727 0.0003772282635827955 -0.002296283130822481)
(4.976166817409065 -0.008310356203215023 0.02404119766427112)
(5.001238897952432 0.01549218101401873 0.01288878697402666)
(4.999292772914166 0.001470226433020703 0.0004170578423504565)
(5.001737881775852 0.005003270874767395 0.006380520103138858)
(5.003993350276152 0.005764697237731254 0.005434723773834924)
(4.998978777683651 0.04037955757989342 0.001626033781229178)
(4.979143607519529 0.005726031640208323 0.001541411742469889)
(5.002893062856033 0.01008863207500001 -0.003046216462747695)
(4.999895288761995 0.005794059492735356 -0.0009341652193927191)
(5.00390895956241 0.003808017548891706 0.0003076686154464258)
(5.006522837043036 0.00206914448017739 -7.629006106020654e-05)
(5.000086114471281 -0.008999602379918236 0.01573212241965259)
(5.002955957364455 -0.0003097977575040833 0.003036483103017973)
(5.002562895159511 0.007966028747217028 0.0005960018716650409)
(4.992714109976905 0.01111098893873898 0.01278380151124314)
(4.999768796196909 0.02290354195700386 0.01202167844441441)
(4.968852946500744 -0.002915637472890799 0.001328570647850566)
(5.001609098611548 0.01711414365988836 0.01474456152052628)
(4.999220086077128 0.001367697885351163 -0.000458409710804504)
(5.00381372786899 -0.00148903010780744 0.002690530357671982)
(5.004568471009633 -9.06070731753306e-05 0.004299203639179286)
(4.997452250310841 0.004663553618650107 -0.001577785639882028)
(5.000822949639143 0.01002001357608491 0.01289898539336731)
(4.999484540798798 0.002534848182679884 0.0003929574801068596)
(4.999817253446167 -0.005758737726213679 -0.01067210133190395)
(4.991305841233983 0.002116863445836635 -0.009229125132315745)
(4.992015512977006 0.01091437482351488 -0.008471283434964488)
(5.001842564180503 -0.001842103604797048 -0.009781661030025288)
(4.998867715821479 0.003754711712086107 -4.248742047410981e-05)
(4.992753084240487 0.03826116967797145 -0.004305478475329173)
(4.995922312892137 0.003555605175361532 -0.002452962654479958)
(5.004878912681224 0.0006313174972546478 -0.000284972142893899)
(5.005324776372192 0.02945773357979632 0.001819625843211255)
(4.997209323835537 0.002822738498962333 -0.004106873535718202)
(4.999276472455942 0.001498175760142816 0.0003956702088595129)
(4.998130225983147 0.002785672451280585 -0.002879307641419552)
(5.003494686349029 -0.001412315146605492 -0.003245956617962625)
(4.991891610960826 0.02694341436869695 -0.008976809791209132)
(4.997344804774731 0.0009225652199874957 0.0007809868298549427)
(5.021028946623256 -0.0147703366672669 0.02228515390663906)
(5.002898633878394 0.0100426252610148 0.004856333022848285)
(4.997769960526252 0.006800551823525562 0.004863332383435212)
(4.999179715395369 0.001097446985259849 -0.006083471391394617)
(4.99544588972987 0.001736078635250424 0.004080417732870269)
(4.99820814963297 -9.557942677901539e-06 -0.001942546021817303)
(4.998112477768445 0.003426491113989602 -0.002402319373935523)
(4.998694812325886 0.02495124796178266 -0.0007507913620347097)
(4.997197620472633 0.01024178421833049 -0.009156830242202567)
(4.996668950456383 0.001304779067143632 0.0003996018557741475)
(4.999588437074047 0.001454793144166213 -0.0007406931879649898)
(5.013188250400244 0.02922173055133724 0.01000317761001863)
(5.001742004898128 0.01418758287770189 0.004904080397103649)
(4.955957681028733 0.05373199275143822 -0.003176489278379644)
(4.996963579396155 0.001610284448566561 0.001167925272871369)
(4.988867114563336 0.004323597277964398 0.005035102784623739)
(4.998610240637018 0.027896547189031 -0.005126004200102686)
(5.003776002455158 0.004972039454204024 0.008177137313474525)
(4.984318567631581 0.0002169669169245216 0.003395591405655473)
(4.992290220589626 0.007487405910589578 0.01359552075629548)
(4.982528702502073 -0.002047183722887335 0.002080929853652606)
(4.996206972626767 -0.02367066801203153 0.0003862329798194021)
(4.994395557985695 0.03639064746440361 -0.01673480293872257)
(5.001657495725793 0.01289583541398801 -0.0008005624975085369)
(4.982966001263895 0.00537778075219543 0.003543143237728752)
(5.001312992693861 0.0006935014506398993 0.0006221141262708973)
(4.969493052266833 -0.0008480652206651934 0.0002212256928431158)
(5.003431054204052 0.0175436949487922 -0.1201037094869394)
(4.980049737754988 0.001527749285014804 -0.002804928837633773)
(4.998053019901519 0.001697975626637605 -0.006101176648333849)
(4.996238741958119 0.0158746735901741 -0.0002393670892326053)
(5.00018658158278 0.002342925048623553 -0.006364062586719036)
(4.996837973899888 0.01545885682835484 -0.008023770802393472)
(4.995156074058525 0.009571072269094837 -0.008094916519867433)
(5.000284766898869 0.001651840974549602 0.004264285595713126)
(4.946013635247346 0.003030567345063428 -0.05464263345060567)
(4.997414109416375 0.003351915218230141 -0.00398451491040669)
(4.999253941686145 0.01409033606691734 0.001262650616859636)
(5.000249825369864 0.001129568902580749 0.001027202875980516)
(4.998297660127519 0.001966657149507884 0.001882205795066095)
(4.994461466543453 0.01219845239150066 -0.003696610828348118)
(4.997900028586075 0.003730709230392858 0.0003133212165037327)
(4.999649306124227 0.002101695748821378 -0.0009011289151956997)
(4.999183839036911 0.001214788091684864 -0.0004638287892940932)
(5.003911540044329 0.001791816753159632 0.003679541865114132)
(4.990421789513574 0.009968503858317521 -0.007327711783977639)
(5.000033625970667 -0.004380068647276408 0.002889914667019132)
(4.972833991285077 -0.01582364560215153 0.003313860143169103)
(4.987919382257898 0.003682473299470848 0.0003947063725157702)
(4.999057845246469 0.002550461036759641 0.0009480806238309815)
(4.999413116931802 0.001934136028690004 0.0003836351905580493)
(4.999785595368707 0.0006881785586039417 -0.009411120305912119)
(4.996835018070871 0.002544238767920174 -0.005690830987476377)
(5.00046244262436 0.008909642903383256 -0.001643188603125091)
(4.999518172770914 0.001812259856841352 0.0005140704349815189)
(5.000455055737925 0.00961947259000045 -0.00423032662152659)
(4.999495835177271 0.002457693326688141 -0.001486140319471065)
(4.998419925195608 -0.0040270776061445 0.004364247053365804)
(4.99887144856716 0.002338489886662168 -0.002228124659189037)
(4.998301791845935 0.006413303654356064 -0.0004160293898090045)
(4.981001331957916 0.001974199548946281 -0.006650825715792932)
(4.998579590790874 0.03645378543862052 0.0005415034192608265)
(4.998566365622061 0.002153957870919687 0.001024149043163218)
(4.91437669490341 0.570602982255529 0.3899987081027658)
(4.985052369704567 -0.001390513106016433 -0.001250387498587248)
(5.002551907198298 -0.002256422901039246 -0.01325032141568949)
(4.995772852019971 0.07930538281787482 -0.007721351180768441)
(4.997352828781487 0.002552591047318084 0.002304832247286817)
(5.022486658437472 -0.005231612280214683 0.03651025503706692)
(4.998670833075643 0.006851175725432425 -0.001606599184869125)
(4.986002641344897 0.0003850669899170777 -0.0005862135830524684)
(4.99852168387247 0.02242815319480504 -0.005671467428055557)
(4.998600500736932 0.01111572215598597 -0.0007990727440832515)
(4.996052260882798 0.0005009245118139519 -0.004020115596152393)
(4.998232622264732 0.001441049656731296 -0.001256510878982225)
(4.966698298772826 0.03900650431726652 -0.0007594011889657255)
(4.988969121018465 0.01932479431854369 -0.06715063625448757)
(4.996750324463727 0.00147156121557542 -0.001886142134580296)
(5.003314757080652 -0.004176276493305315 -0.0004668029488366954)
(4.99783646097755 0.001932908373177906 -0.002769764845214458)
(5.003173859051005 -0.001318555240110693 0.0005937025248730165)
(4.997448022963362 0.001954152955847517 -0.01144980622900727)
(4.999567041004589 0.001234156133023413 -0.001115174488932077)
(4.999234553574767 0.009242594519491769 -0.0001336968150822949)
(4.999342357467176 0.004603144299462694 -0.00333700426760726)
(5.004697071152415 -0.0337771477320129 0.006829481884759302)
(4.999856229310064 0.003602774192177636 -0.006562904680248765)
(4.998093885916247 0.002898589580226923 0.0013396349017564)
(4.995794638727929 0.002776291915394356 -0.00267127721559477)
(4.999748989754291 0.002255206113434577 -0.0006285450712845384)
(4.998379503545432 0.002069472422967607 0.0006852074814936842)
(4.997657834212827 0.004681063941861294 0.002191497978552446)
(5.00357147771929 -0.003273734239525628 0.0006234300328629536)
(5.002683043580877 0.01779450334224717 0.09220048938602363)
(4.992789129900703 0.01825879934751075 0.0087637138492599)
(4.999374543247937 0.001681201365933054 0.0006845456247265816)
(4.999709242564465 -0.01225133571653734 -0.01045859348188147)
(4.996302949003212 0.003144369999932335 -0.001910647124598419)
(4.997528950200477 0.002723566537127343 -0.002143302280912341)
(4.693172007875214 0.02196838886816937 0.2883726003755727)
(4.999077258624872 0.002930047090779505 -0.00170717391191938)
(5.003454717355924 0.00575382903166817 -0.0003170122952900226)
(5.001237783835015 0.00392906982087537 0.00149537949125885)
(4.998457417493668 0.003007527670324302 -0.001415943241775674)
(4.998502994966715 0.002283753540714524 -0.001897805561671353)
(4.994690968912659 0.007296805741801707 0.04815327944450114)
(4.994925792207376 0.001872958732284677 0.002384393739048368)
(5.000514159565677 -0.009628504066068943 0.007251270463903382)
(4.986533892542283 -0.01875727070919978 0.109696441623373)
(4.998971699738498 0.002153890938324779 -0.002214127408997965)
(4.999603736371105 0.00230827842217865 -0.002034877171962915)
(4.998044007083427 0.07951305746292223 0.06971576723184324)
(4.998840223968193 0.002230527882248067 -0.001038588419312334)
(4.998034168042613 0.002310256980430159 -0.001914632382825573)
(4.98924929012732 -0.002669209946255084 0.0008056013221408878)
(4.998863401450153 0.009021267461440052 0.03228547469302755)
(4.998181421224291 0.002950310466199529 -0.002067553550276093)
(4.999002096467468 0.00247952434094036 -0.001256572711704435)
(4.996393700036183 0.01411250285842377 -0.002121505012761452)
(4.99906780039654 0.003437190169433627 0.001290329329809219)
(4.992768422210395 -0.005874195482189077 -0.002934906469506052)
(4.998189227677566 0.000446007396559036 0.001204091035336321)
(5.011360609269676 0.0008977604047920948 0.01242435135567036)
(5.003159510459667 0.01621774250315816 -0.01709447808254199)
(5.009749794788856 0.01202728830296719 0.004685704221605584)
(4.999420433793211 0.00213011032597251 -0.006001943464222502)
(5.005936624564107 0.003773065765336947 0.007992909476582884)
(4.999266062717745 0.002946699152220284 0.0006254635343772801)
(4.990955848387334 -0.0302580120704119 0.005656976298249974)
(5.000752294505356 0.008449656179255957 0.0001318128815085597)
(5.007505291331555 0.01509056130167672 0.007827876276787545)
(4.989285853169804 0.009488286005665892 0.00395861279276865)
(5.00048908949158 0.0123419964776466 0.007168356812761183)
(4.998987934830891 0.002059116708251764 -0.002056911545770538)
(4.998372034637952 0.00228597459769795 -0.002084463753209235)
(4.999995621389576 0.009177024773933725 0.007338626179174708)
(4.998704994296286 0.01321626550754612 0.0060779259493641)
(5.000961445196142 0.01257710125671592 0.01005335153683909)
(4.982054205956839 0.001882027411556692 0.002300191900813253)
(4.998863421560009 0.001802815678624746 0.0009247061437633254)
(4.999359072700466 0.001913399844986252 0.0003675228844123373)
(4.999277223669523 0.001474304438450622 -0.0006738185879817922)
(4.993570779577274 -0.03402574334979425 -0.005087865285541876)
(4.99689850196535 0.00482242564994849 -0.003028041461693411)
(4.998450961451368 0.001399101390075849 -0.001354882130348391)
(5.002476389825032 0.0473826055874465 0.04480218369389757)
(5.000249964774685 0.003112811347063974 0.002910213432788395)
(5.002831103967021 -0.01780780547405012 0.000275173185345446)
(4.998980448910983 -0.007550265323156345 0.001289029192865617)
(4.996267564468608 0.005063221375122951 0.01136909780410994)
(4.99978001147517 0.001486866403841482 0.0002695685904795715)
(4.997537106726488 0.008134636055485884 -0.0003178775242556781)
(4.99428839896783 -0.002777149840387859 0.005509084506812439)
(5.00041326816488 -0.0002980851640131561 0.001863805247029964)
(4.950167888712233 -0.01733134499287071 -0.00179455497372763)
(4.998147465888373 0.000532176007245978 -0.001019221837846379)
(5.000856553953155 0.003053618918263977 -0.001622569162296498)
(4.997395216198858 0.007199367482011073 0.06846445300133659)
(4.981895465501345 -0.01923111973694242 0.02988632796362237)
(5.000041456136366 0.002403470165041918 -0.001240842947740661)
(4.999838852524326 0.001598450726911468 -0.0004086611397654785)
(4.998053291462892 0.003318613227247733 -0.001818123024934356)
(4.997452942106806 0.003474022877302952 0.002494027684099737)
(4.998649404098904 -0.0008797146579856501 -0.001041261157251842)
(5.000614725547876 0.004241395996747203 0.0009268319761875692)
(4.997871876075789 -0.01120967498855967 0.02217140743658271)
(4.996815698462937 0.0003450828039489977 0.005686625238958744)
(4.999757814959335 0.001549891696548295 0.001280332332336552)
(4.993830870894842 0.02395826143709083 0.01575978897973354)
(4.998664005069718 0.00299363920831716 -0.00239352115211286)
(5.001120592363209 8.446288127379503e-05 0.005572157911376976)
(5.000746781793343 0.02597724704027337 -0.008441332453467914)
(4.99893891301232 0.001878709634989056 -0.001629360559421703)
(4.986162893420954 0.03904926284164102 -0.0571087918954051)
(5.003804327859576 0.004446651994230812 0.00743094939835727)
(4.981799026302241 0.003004662906086592 0.0001403900952364634)
(5.003127084513868 0.008849729595458256 0.0100203869498193)
(5.015566260677063 0.05542001866116688 0.009877263731098039)
(5.000778734337282 0.005021782170692249 0.006160851237363651)
(5.003556862111819 0.00732928331032878 0.00240931716643185)
(5.004603129678125 0.0008293930701288059 0.001613151034980051)
(4.999634432553276 0.00461313462350627 -0.005399519161819724)
(4.99697065295975 0.003429433822885115 -0.003618226527580305)
(4.997444416037157 -0.002210589071134529 -0.00928248904190046)
(5.002662459913137 0.01170961677834012 0.001209351734388723)
(5.001084332675481 -0.001834666496778562 -0.02334376596712685)
(4.998318904340073 0.001982945091520767 0.001377734224101)
(4.999975134505139 0.00873664741193474 0.0001386204939742926)
(4.999363685831296 0.002194814841203164 0.0006149294771153467)
(4.997641282607426 0.004258867646291689 0.00184044555469832)
(4.996560556033957 0.004722772854111336 -0.002790602017404465)
(5.001567441805729 0.00660950005019541 -0.001543424515141785)
(4.997470402940714 0.005351702578665859 0.001408503030066226)
(4.999524824965204 0.001263723413660798 -0.0009821489507487273)
(4.980150760036494 0.01539245315464723 0.02431594401762231)
(4.999163839647484 0.000979153204102213 -0.0001625381605991181)
(4.994519288357727 -0.001928830069362615 0.001564475161717466)
(4.996565007521808 0.004831115904039906 0.002903826158957507)
(4.999732140761294 0.00641616955152499 -0.002293336389553843)
(5.003515499455659 0.0101037115128393 -0.005895957819538797)
(4.986034695568362 -0.003945669297872421 -0.002157945720504046)
(4.997363327877626 0.007278488585932093 0.00401996070522579)
(4.975770439890049 0.004170878430166905 0.004858221814930935)
(4.999439235000745 0.00366116812572947 -0.001348894282795262)
(4.994504282227192 0.01005294502861141 0.03165446120676466)
(4.996136068839629 0.03090144511553151 0.01517332102441753)
(5.002326454449812 0.01342226485151394 -0.001975358326456791)
(4.998612621554285 0.0025513088011035 -0.001903282951583214)
(5.005014785115067 -0.004458834927278997 0.0188286987378736)
(5.000339028173945 0.0009979906431606116 -0.0007605209521058219)
(4.999831477996992 0.001730845312326232 -0.001476936189696926)
(4.998453417133405 0.004112793000130785 -0.003414360481018033)
(4.993580516538582 0.0009796926878650851 0.0004012707055870174)
(4.999344797904131 0.001107478434634879 -0.0004329756376668058)
(4.997388837158553 -0.009933931532234817 0.0006492971704330759)
(4.999067881282 0.00599093542129029 0.0004931604602433105)
(5.004087861121082 0.00508722880570866 0.004304313911531511)
(4.999013317714597 0.002023698202788248 -0.001245926169318007)
(4.999105576277847 0.001786837205764151 0.0006289247148991529)
(4.99796434951106 0.007739741088410986 0.003642129413849556)
(4.996500893891602 0.001276051516308149 -0.0002974885999355413)
(5.005397489875948 0.001712704948819317 0.00273055454887294)
(4.992755387573728 0.0363786880035738 -0.005383929542056111)
(4.998720369793993 0.03806567200758547 -0.00206860282899944)
(4.999022660410088 0.001411875466516147 0.0004683970547665187)
(4.993788487910478 -0.001295347529260452 0.03476628703766929)
(4.998158181746277 0.002131479815357222 -0.001987903717939948)
(4.999037981857237 0.002453419995924903 -0.002041656858664163)
(4.999763612435957 0.001513043230693229 -0.0001606878028428271)
(4.998823331026183 0.003419096105975334 -0.003410796793473937)
(5.000958578389462 0.0001794207320433225 -0.001208002174486719)
(4.994163717441163 -0.0129257631514757 -0.004311613926847132)
(4.998323774424375 0.002588558581568367 -0.002262001150305595)
(4.998683614545063 0.0007293221867887543 0.001330410497108177)
(4.998210290314623 0.002193391528422903 -0.002078166877692517)
(5.000642507694611 0.00174103860655767 -0.002395469277025765)
(4.999893765757137 0.001846743227983843 -0.0007562094743067732)
(4.97590547502457 0.0001528890268464856 0.0003054903765950693)
(4.998965299669106 0.001523483337429159 0.0001944541971007153)
(5.005070689458503 0.007456286931832793 -0.02390689854762245)
(4.998345263762176 0.002808705487642471 -0.001673913833017507)
(4.999770609570986 0.004802820648736056 -0.01158829858845918)
(4.999617040929293 0.005396790680795517 -0.002245341651868308)
(4.999041680826302 0.004037053516048061 -0.001179297893578424)
(5.006533550432979 0.02208481791237488 0.01303772491885704)
(4.938341362442056 0.004027281844161882 0.0007288457741710289)
(4.996615096310112 0.002371534502708092 0.002482761291193681)
(4.997631917694677 0.002121631244617982 0.0008712928916570633)
(5.000755430423687 -0.003080542367540469 -0.000407773754752361)
(4.998599506041113 0.004362665058191185 0.0004161038575424282)
(4.999287370368575 0.01019772947770096 -0.009198270496195579)
(5.000943004631894 0.002391175994365052 0.004272639251712662)
(4.998858322556514 0.004343959877300588 -0.007622182211701026)
(4.999863749930935 0.002059523194591799 -0.01825180794173037)
(4.962165558646113 0.002707465981831103 0.001465343455210839)
(5.000677537906639 0.003313162188562765 -0.004142927016221368)
(4.995689348623519 0.00485635791520817 -0.00297755669699945)
(4.999977921358032 0.008050178357440764 -0.007976593057953462)
(4.998259535879992 0.001923406524573901 0.001436150040013592)
(4.99891900266958 0.001372056887569417 -0.0005561979096261732)
(4.996303559840515 -0.0006130256901339424 0.003959527106109572)
(5.004917923236849 0.006851993047221941 -0.002414656535134849)
(4.999911451568161 0.0009392728048693899 -0.001662088734735819)
(4.999794223909413 -0.01826026628701327 0.01338553523427964)
(4.998956302288311 0.001077974892846527 -0.0001834814918263717)
(4.997908875402146 0.004340918055241757 -0.00062931137194729)
(4.998542680533641 0.002728151055910306 0.0020760519854708)
(4.977154422245677 0.001124116536926916 -0.003786123909319626)
(5.002158717791488 0.001503702146809656 0.002981633472298798)
(4.999344891421408 -0.0002973448399344363 0.0006502723780812267)
(4.999094759866519 0.002696265857671703 0.0004653507586963881)
(5.002579873984788 -0.0004510376658246253 0.000365087760650299)
(4.998590779005248 0.00268103713381521 0.000778689830451892)
(4.998493287545871 0.003429908858992486 0.001335584509803211)
(4.999286610775107 0.001187525481265261 -0.0006291900102693577)
(4.99899455805616 0.02744611044240815 0.05143084388151697)
(5.006754082988276 0.004578960872256985 -0.02106070372332595)
(5.003763656544936 0.002531836003184709 0.0002385628147057206)
(4.99940784083997 0.003369083795450465 0.0004362715084145187)
(4.9989994477431 0.03066332686140817 0.005339542076243942)
(4.997843033599517 0.002358614538669494 0.001093322193346213)
(4.997805370584888 0.002931567945896092 -0.001941663088335818)
(5.004389377189715 -0.006025872570629357 0.0009999914925110094)
(5.001114625899423 0.01276055469372874 -0.1368229353622875)
(4.998734332471005 0.002909627806334708 0.0004383937546955854)
(4.999206100434791 0.002327993281102009 -0.0002634400831882026)
(4.998671643197162 0.001041937433753419 -0.002525206356229189)
(4.995417114475977 0.002592964903329545 0.01463666508029917)
(4.998636576050264 0.002234049933460564 0.0006904583595834828)
(5.002393831779437 0.0001828602604185628 0.001383212167212726)
(4.996824293938202 0.006112283406407664 0.00414169376330947)
(5.007473651875258 0.02493093765122634 0.002725930919721107)
(4.970273820016305 0.000202836852824018 0.003268166156087847)
(5.01348748074187 0.004547179056235138 0.005776449336473334)
(4.999805314387488 -0.0003241729847734662 0.002886738024018218)
(4.99902753519818 0.006653271758166722 -0.002580051271028534)
(4.99849053102355 0.003085179286459553 0.0003303785361361056)
(4.99895937768068 0.002314005134196125 0.0003046149763705687)
(4.994673890927151 0.0010594799706463 0.003333615152417907)
(4.999319966380528 0.001540865490552713 -0.001251148272630533)
(4.998820329599636 0.002280915945459315 -0.0001637665557151449)
(4.99883195501232 0.002209371108161635 -7.875215159300815e-06)
(5.000313759046428 -0.0001442546149540545 -4.136911030751951e-06)
(4.999059570799685 0.002430776835386592 0.0006491514916809768)
(5.001788997780594 0.001843436897421082 0.005833090096021894)
(4.999086923504638 0.0007647838306016121 3.625981329257174e-05)
(4.998735960970314 0.02988159569383244 0.001062959797789717)
(4.9994613973499 0.001409305579979174 -0.0008222334450828133)
(4.998919800193228 0.002334307307278453 0.000195948086989574)
(4.998192556820735 0.00201904924049296 0.002372710206664955)
(5.015411110059099 0.006094960282952493 5.858875871404926e-05)
(4.998240231435263 0.003702266863252921 0.0002492677675525532)
(4.999373600783787 0.03130996651175508 0.002998454865240279)
(4.982538543283761 0.001553517204194672 -0.0003442201700172211)
(4.999151181743345 0.002691895481395921 -0.001428764359766133)
(5.001013821475231 -2.074277248504524e-05 -0.0007857530893678283)
(4.992181383949652 0.002033374835108734 0.001809854577743921)
(4.988006239037737 0.02755785071987947 -0.02070325906028212)
(4.999499628924729 0.003721261042021242 -0.001167114163745524)
(4.998357713489388 0.002674637996804594 7.23210791927577e-05)
(4.997234545053623 0.002305396896871037 0.00207720456409229)
(4.998760033671212 0.003502182258655515 0.000547125164374236)
(5.001356476792458 6.147254280498437e-05 -0.001902940721660477)
(4.999428031245913 0.001666165903228918 -0.0009661127307559999)
(4.997362003230298 0.002520940649089073 -0.0005986035250995892)