/*--------------------------------*- C++ -*----------------------------------*\
| =========                 |                                                 |
| \\      /  F ield         | OpenFOAM: The Open Source CFD Toolbox           |
|  \\    /   O peration     | Version:  v1906                                 |
|   \\  /    A nd           | Web:      www.OpenFOAM.com                      |
|    \\/     M anipulation  |                                                 |
\*---------------------------------------------------------------------------*/
FoamFile
{
    version     2.0;
    format      ascii;
    class       volScalarField;
    location    "0.8";
    object      p;
}
// * * * * * * * * * * * * * * * * * * * * * * * * * * * * * * * * * * * * * //

dimensions      [0 2 -2 0 0 0 0];


internalField   nonuniform List<scalar> 
19631
(
-0.04226932387405113
0.3174012963945034
0.1652316770901183
0.3080466480158113
0.0427033634028758
-0.2793672409475754
0.2094607954853211
-0.7761997395834836
-0.6323995077512191
0.02170815343443968
0.3382188085734247
-0.1765656162634082
0.4240307318514211
-0.0955612511888957
0.0414192132827688
0.3668683160307026
-0.1270824564551154
-1.115857134759895
-1.319493692703586
-0.4831330269285491
-0.04014372997400857
-0.2401544540403898
2.3540793854733
0.1210484356538316
-0.2264346887130456
-0.03255967207094837
-0.2746891022747877
-0.7521794964082262
-0.1419512050594319
-0.02114035369081538
-0.2146728363530471
-0.2190520451678023
-0.1914499336358639
0.08752023279101596
1.654595186821486
3.264455784634348
0.05423772677422711
0.7331345532814861
-0.3020604591667846
0.04596848825924239
-1.234213568758892
0.006476317769449218
0.02226606378799201
0.1245411868151297
-0.03878904969430781
0.6681245649588997
0.07725422969253645
0.08145347955748967
-0.06654960690848646
-0.2292545521877359
-0.02043233049869305
-0.1192780919938903
-0.2120036069167538
-0.1954091945795136
0.2371456389284978
-0.3150259464189342
-0.2297762544210721
-0.1118009029471342
-1.574994252492997
0.05631727940771895
0.01154485282268571
-0.2990811222254041
-0.5401353590454062
0.01575988657129928
-0.1331961830844128
-0.5132319924124127
-0.1789047547000503
-0.2348251682556775
0.4215396015013966
0.02175097403541809
0.03106599642981851
1.14637062887996
0.1317482317573333
-0.08901355867702612
-0.2279554271265227
0.1917529505549167
0.3259294486851194
0.2722672424919165
0.3572269127194567
-1.691886743275136
0.1429936458775199
0.1009283959843634
0.4215272017753279
-0.5470122098435242
-0.7437439893056019
-0.5261230287883829
-0.2199059368318144
0.06812310832825219
0.3016236196947549
0.03645654274259754
-0.4458617878443529
-0.1931388783608393
-0.1894797670765779
-0.1774420715678712
-0.4107666941251385
-2.035923963819555
-0.04317643854465793
-1.403455321931629
-0.1564939168718328
-0.1808750624901914
-0.1804053648120655
0.05708376378124342
-0.7137916564418777
-0.02827754706819624
-0.6680037673816731
-0.3922470867552436
-1.069998701755512
-0.169648063699211
-0.2141825707064873
-2.480506802569214
0.1457895315319166
-0.2639978302822899
-0.2105046035443696
0.9489372664570295
-0.1094717978101819
-0.4972891844712631
0.5196288437991327
-0.1651851504867289
-0.1536883802886593
-0.1465941772910457
-0.1358171412527743
-0.1714999354506573
-0.1818214496261667
-0.7294896314031428
-0.2765550970024203
-0.02640136995798649
0.01375704344542414
-0.09317858798861804
0.01382298070161214
0.2075254026607417
-0.08961277060482598
0.03500231515261282
-0.4092688281140965
0.9350405014696884
-0.009975247411571049
-0.04322509514894748
-0.3218405402081024
-0.09357003468250497
-0.3692800631978119
-0.02271354295638632
-1.87790013188104
-0.7385319789973723
0.2738676325009591
0.02492567729639597
-0.2113212904146113
-1.114003164438056
-0.05549724724623655
0.02443028904527426
0.1268858748601859
0.08602263563863247
-0.2301422761549162
-0.1350869089033584
-0.1298841896171146
-0.13316795025679
-0.1438329619212586
-0.06607316822830643
0.154102722218221
-0.01830712241431722
-0.3288900516770831
0.2090367418228053
-0.1235263556562357
0.06898686710698199
-0.1352642991773907
-0.1452818474849809
0.05415213280851072
-0.04867358855198232
-0.1952059927842563
-0.1128561711075068
-0.5806912832075894
-0.03181269394634729
-0.1455531075738751
-0.1325118915791793
-0.2631792535743702
-0.07470275184908567
-0.1240632377488108
-0.1741115779551552
0.04315258530040722
-0.1888641720848876
-0.1136045340993045
-0.6640620817132973
-0.1313901467065328
0.08321605326866008
0.0901849906435703
0.3907898688997649
0.01858672422226722
0.06328339620205886
0.01118066304993468
-0.1691978518147274
-0.1407742761409873
-0.1306882135837198
-0.1489271121686625
0.1169939811736091
0.6881894011273705
0.08386477904843728
-0.2540090729854025
1.058100204163848
-0.2633334107400805
0.0605993542607805
0.3003611472292259
0.2399916798531554
-0.18242655936382
-0.161283048350837
0.08771262868142705
-0.2045356514837783
0.03221241643011228
-0.2139017922266426
-0.09547042790515481
-0.04540346939049295
0.06832740564610955
-0.2720150802292538
0.1254031765799904
-0.2707202003429712
-0.06795248211818215
0.01728707128444725
-0.2042804831091355
0.1458016774005454
0.02482052086347673
0.03855047296095719
0.0452269579728176
-0.05585013484020073
-0.0006182900947082452
0.2573480894576441
0.2512123006840051
0.029704775118179
-0.02999205746948748
0.2212577654393562
0.05460462161779647
-0.06032400537964058
-0.9854778784850163
-0.1594145469321316
0.1269082064681488
-1.660413941840929
-1.887359797345047
0.135451713253305
-0.5919302674389063
0.2584652986422695
0.1463906740223855
-0.5319270589092786
0.1559667481601628
-0.4875361153670625
0.2493470395192081
-0.1560297553159211
0.01466084008574798
-0.0580414488547755
0.1619608818306542
0.5420684623644568
0.114999690104463
0.0842464615940092
-0.4043900527731017
-0.02544536796561701
-0.2591450261857458
-0.385937497172226
0.1755931966959155
-0.2188810592625878
0.05756159098930131
1.103671898451641
-0.2812769223326532
-0.05565557359517103
-0.4741036590157295
-0.006453258724668347
0.1428360295917483
-0.1766463735206228
-0.1948617083826125
0.5705285787851549
0.003182845303994869
0.04221722609735468
0.09446566296951314
-0.09911000078732972
-0.3061806613382143
0.440697707638002
-0.4303127722871744
0.1380954663981873
0.590990609860039
0.04143946904720577
-0.3875274203558959
-0.1582282134904677
0.1011017238301889
0.1572414469562182
-0.3313991164959853
0.03892272535349107
-0.5209884049394418
0.05175869124963375
-0.05565145606600797
0.5752671342986763
-0.6617096983118942
-1.610549418736309
-1.722328084814196
0.0255474214335826
-0.1739384960464444
-0.571695283499326
-0.2420507433895377
0.2496980361456997
-0.09271786933516825
2.312444783874277
-0.3067259029249647
0.05658449410529822
-0.1226293010771207
0.3396302343157866
0.1846695229879815
0.2242367412188104
-0.1521739120291011
0.08014531372922556
-0.5629209098787744
0.70481011260658
0.6949121488244675
-0.04922581523908211
-0.02544300417514087
-0.1516310140868277
-0.04455009168528652
1.065183318887103
-0.2001176167999821
0.05114320878703427
0.05654637118887384
0.1914604197765954
-0.265992197279006
-0.9496234229649424
-0.4869030414307769
-0.3842421693908682
-0.366962755195612
0.05129619735129591
-0.228800257905082
-0.2622142324995244
-0.1220682057152034
-0.29481954367353
0.1669866177399943
0.01513495739231631
0.2042037599288845
0.1810462942129121
-0.003634257481847673
0.02824255114186211
-0.03536711385866745
-0.9905319384531045
-0.5427593439883245
-0.1656790265661009
0.4396164131856162
-1.207766225309674
-0.03459936888884847
-0.1342322490912104
0.08088638965132608
0.07274192560400743
1.227521358367226
-0.2281341342458506
0.1031932514778406
-0.6262302218148567
-2.509564443614459
-0.01363712637650573
-0.4638631163638635
-0.1511395933029481
0.04534090469320202
0.04002219909023853
-0.1715818242156732
0.0739818443531392
-0.6919425824735222
-0.1743811241907807
-0.0671635054356907
-0.04221826554005455
-0.02772603984273843
-0.1707851270699885
-0.3180813532762346
-0.6089104227387477
-0.4589718637485665
-0.9291987371582061
-0.8647511158520084
-0.255657281651573
-0.2137907212768088
-0.5269356029283921
0.0491776549860134
-0.2209392978519436
-0.3000417930761315
0.451580454904938
-0.1091370934509106
-0.06411868384866604
0.1287603427128875
0.05346391222514491
-1.039595035381294
-0.06281556353146489
-0.09138347936603836
-0.06875687995133278
-0.1792679357150325
0.4809191208205491
-0.6739537890141895
-0.155480005411621
-0.6016126554003787
-0.1640880336362412
0.1008848690649261
-0.2243573279947038
-0.7329209645151841
0.1433577058992722
-0.08968862127012983
0.08799737385708757
0.2017756640973783
0.05178557794516358
0.02128659226288039
0.1259770571541315
0.1845295863662202
0.0269370289124615
-0.002975752216216909
-0.4654973646118401
0.1127908748300136
-0.2470472444269445
0.2870758270424624
0.03002728696476976
0.8794230065263522
-0.09764968031715658
-0.3249431769786429
-0.04129667993160972
-0.1117732806313135
-0.02803850132856283
0.1522927727101946
-0.003136899181529344
0.08285569869185018
0.8031733996813808
0.08749252564322342
0.4004653946727387
-0.02199374854372916
-0.0122237760251451
-0.7774012500466095
-0.3208141221124818
0.01264200753312207
-0.1672377291863366
8.299367968459926
0.00944670890785213
0.05154690329309781
-0.5753610099562855
0.03385301695722188
-0.1401176731936892
-3.396689729614864
-0.1245817722494606
-1.258432040895778
-0.006246390041636642
0.004849880015678295
-0.1844823361419194
-0.2739515073335132
0.09252665388554371
-0.5865219864749469
0.08186001108852693
-0.3310471941402979
0.04368786023923835
0.0303751100015026
1.159769597200405
-0.01404330419964195
-2.272320100854345
-0.1922086563119109
-0.4416546302597396
0.09329654870251082
0.4432504533492737
-0.8569573869191427
-0.4734387093055474
-0.3942761240541376
-0.5831489313075511
0.08857788607644859
-0.02462069712159001
0.08116081378630752
-0.2216164641525668
-0.04332800054058823
0.1039134051706839
0.2024576646022087
0.1999878565474942
1.749633145328806
-0.007736241017367868
-0.1320808079963701
-0.6201721225103844
-0.1941991962681236
-0.03698286494003763
-0.2026262201752907
-0.3778475753387483
-0.1767959438868797
-0.5719192172234929
2.303432596974184
-0.06797267298159539
0.01143473357466259
-0.4592291047242079
0.0842986572970475
-1.607707291957379
0.09306606929734922
-0.1691357698393293
0.06576698813100766
-0.5167689084765347
0.0873642032050031
-1.138647901383937
0.3324042376155986
0.4631498755996535
-0.01686773424878465
-0.4379680046834517
0.3952874758114006
0.7262270713563809
0.1077338769735633
-0.2662397127131521
-0.06922096543241701
1.389879645008554
-0.1057805499240177
-0.0777501329720197
-0.1710000390339605
-0.4187196756405974
-1.125809532033095
-0.5563066967711239
0.03738955002823298
-0.1998696049487525
-0.4355560149786932
1.489842755037806
-0.08666416470156037
-0.1520949977092336
0.02917466129141459
0.1276996541248901
0.6725517562222462
-0.1265322374471876
0.09144597176715645
-3.28875180118897
-0.08790997377878701
-0.5218175438502344
-0.1722393352434212
0.04590152445641869
-0.02237033469042149
-0.06333124758093667
-0.0817832365250401
-0.2023452557486856
-0.2875064065706852
-0.521902152872607
-0.2554816939434688
-0.7860285635507106
-0.2489705341868745
0.01690097874455368
-1.224980140701577
0.02455424209802699
-1.037044248062674
-0.6664962567567984
-0.1583512819585692
-1.056266731233116
0.091041221825684
-1.042897892342624
0.1063021202031255
2.022496591720554
2.304568582230368
-0.217837374656908
-1.184662716070743
-0.2714842187708084
-0.5745950961799092
0.1588037531337809
0.1216235872665937
-0.6123822335960748
0.005842012698914329
0.2112835000152152
-0.653430882193367
-0.04357030891783914
0.1456303463411129
-1.059360163221183
-0.1149222539600161
-0.1556704325913553
-0.6679197861521124
0.1281781239109784
-2.208554704811224
-0.08194788447049925
-0.05057246971758238
-0.09823844812686505
0.002223491850787183
-0.4610617698429972
-0.4466598260788808
-6.386597387512876
-0.01801101737658413
-1.234319052994328
0.2982202821046712
-0.2509720523085204
-1.251737921984998
-0.1843628565757897
0.1101781793537078
-0.5187818321993666
-0.477091427556851
0.1344245031824452
-0.9858621786745123
-0.1359516435534295
0.1404342999942628
-0.2129628388617888
0.02924560035522761
-0.4729279263786285
-0.9778028545441918
-0.0568498250106384
-0.1160507235413927
-0.5190416596765487
0.122975878312818
1.714366104812046
0.4219486848831054
-0.2816010670340103
-0.2165004902946726
1.277234237257018
-0.382770349306718
-0.3766400944778527
1.533750279493624
-0.546409135998475
0.1669236912904762
-0.4962772145557595
-0.5061578804010209
-0.834082273941286
-0.8309495023869632
-0.2576864387576355
-0.2713872441245886
-0.09985445989200538
-1.509442316545549
0.07733620350656346
-0.07857267778605903
-0.0725882039755595
-0.1477371736831244
-0.1823516373365663
-0.0749657058216311
-0.01158548093389875
0.3079778560820823
-0.2503963723727329
-0.3875032477043505
-0.2849984687961027
-0.7692772630431072
-0.1719850214515945
-0.2139022402182937
0.4070418679474854
1.394595499919433
-0.2683694591699646
-0.01280874106865692
-0.6036159251246704
-1.093643221067603
-0.08052237349125392
-0.3347343335414087
0.4731688343847277
-0.04574341105899017
0.001675572558925471
-0.03722591932687003
1.808697786655029
0.07142993898576741
0.1194914560479094
0.1255570608026137
-0.2152339084904965
0.8237340516727244
0.07413331965666033
0.06251834259911428
0.1273971004344963
-0.4820278879813141
2.211886900533824
-0.1391513030808772
0.3468761847238473
0.4824093099066392
0.2879128849192546
0.04539558539405664
1.153776018021447
0.0159947918209524
0.1313962889351324
0.02298143609775804
-0.2571975777545006
-1.224388252709073
-0.582351444477032
0.2647906604686716
0.5051889584413377
-0.1905628916079583
0.37985961546272
-1.360910446277794
-0.1483096401185873
-0.09607351615687139
0.7028894761007437
-1.184624123540489
0.02628719242349133
-0.1913351966337805
-0.5432298705116185
-2.533654728818568
-0.2686619340991284
-0.2934014978230114
-0.3150770005353158
0.4515735755166477
-0.6283093946268173
-0.5243699912510197
-0.09674117333673692
-0.2934801936178666
0.1468769542684468
-0.08540084893339467
-1.331296145844241
-0.2221496042227951
-0.1358614789233372
-0.6755276608582163
-0.05510352717994154
0.9887377741225849
-0.2173217715478133
-0.3886235040994647
-0.1956861071349355
-0.08824328136694751
-0.4154093566455894
-0.01328726173230002
-0.2647556121634267
-0.125798062656384
1.627533025717651
-0.3201400507138529
-0.5299442610222995
0.07675213440118682
0.1164345162186677
0.05603510511050257
0.08729927837527171
0.07684980681635781
-0.4602305650117042
-0.5654405404796984
-0.3141519082563109
0.3867030071923188
-0.07567479651152888
0.1434943542351687
-0.01006158422514905
-0.2495255674628149
-0.1713114047409304
-0.1197445497791068
-0.576287833496442
0.2201786605838479
0.07008439169578339
0.4522215058081168
-0.08038425229253011
0.001125846803361912
-0.2146414313907068
-0.001458854985408369
-0.07578117273605214
-0.2057433889428014
-0.6421351423898867
0.04773433795911949
-0.08803760375269222
-0.4697863229255875
-0.334121188321264
-0.133441796236917
-0.4152510686875706
0.2936932481248576
-0.02799466440916653
-0.2571527588393251
-0.005983696863223296
-0.230131040580109
0.005651484931723804
-0.1043249856534608
-0.1200911970744589
-0.5736185738847753
-1.604637229204281
-0.3963924678686325
-0.5121662795137379
-1.419719300307719
-0.6104334231618438
-0.4311735868594474
1.428346257131831
-0.1076530067244267
-0.2124591528493088
0.8335108546455335
-0.1082202865028133
-0.09120137120344472
-0.03902331942808239
-1.252690309972529
-0.08936285624643431
-0.03542751147504352
0.01083040709461232
-0.04359643043677174
0.007265836815558912
-0.1941434885299531
-0.2133996331423158
-0.4199241118563896
-0.7168391694615001
0.2379155889996765
-0.342391897770756
-0.7593376829484219
-0.2182995103187342
-0.7627697157118832
-1.056172956410399
-0.4597650436140989
-0.3590254829582871
-0.01557750385506631
-0.6275510543561046
-0.6528541303051129
-0.06878676698457993
-0.3032522162164455
0.08005795544120643
-0.2630726007724448
-0.2888817019146754
0.06900046928130783
-0.1475877929256514
-0.5912910838543137
-1.050077412126082
1.019317130117311
-0.03592906667076203
0.05018877279653943
-0.2808954616214506
-0.2473914474007385
-0.386677320455379
-0.366181286640462
0.07737197003066323
-0.2667055258286323
0.3101122351627833
-0.2169946393533721
-0.5545335609168748
-1.640074212592252
-0.0740099902009371
-1.830964171255382
0.05666201251789034
-0.8935354234671911
0.02379355305672139
-0.5677763776133857
-0.02671984565770087
-0.7826229621182438
-0.1860847427455854
-0.4760383639913105
-0.4079279462577202
0.1627503180732404
-0.6746861587398947
-0.361471374027228
-0.3030671294535363
-0.4291583097062496
-0.6605142429761903
0.06828941488558689
-0.2490062200422299
-0.04965850918191208
-0.5547445347320381
0.2638064133728404
0.6248599860340804
-0.1669884671168753
-0.04470461612902905
-0.09436081404205604
-0.002239498818751084
-0.1012601483754781
-0.04277359645875706
-0.3572567359324751
0.3633031201689495
-0.09744803123448048
-0.0924164667057855
0.3494164385124476
0.04923725292526491
-0.1680513276960673
-1.739392379278071
0.0721117087172166
0.4101530838825426
0.4958995528798202
-0.5363899327594385
-0.3822964022894286
-0.2226173429298079
-0.2147191794032144
0.2322897861291115
-0.2152340610033611
-0.06410096807341488
0.06369379494623006
0.1527106669443619
-0.01643413860299103
0.08659128098822444
0.4002578317347996
0.0420660832824559
-0.1626710386587661
0.3493133251204835
-0.1751211971695225
0.003847522270239052
1.404072863001539
-0.3029710455715908
-0.1837201914787822
-0.4824700472518676
-0.07776679049218475
0.3367728901962579
-0.2972555144851464
-0.3129330614840884
-0.2200305199393597
-0.177095706492795
-0.3262644478765707
-0.198716351547013
-0.0392250899744323
-2.1101228235415
0.1070015795650268
0.02390803222372932
-0.4679583542636918
0.6397618302641248
-0.3155825691153473
-0.2312489437512987
-0.08474488696649819
-0.05550348805458882
-0.1484323497045276
-0.02699226348061874
-0.1191269825578572
-0.1044370198113435
-0.1009163704254035
-0.3917262092822691
0.1905114870668405
-0.03067057351858076
-0.247626229532406
-0.1280918618794461
0.05140470758799972
-0.9399954449576609
-0.5583233824854836
-0.08337876612774878
-0.4181457003657379
0.1300674243762131
-0.2863298851030267
0.9563958056667172
-0.04285973941216965
0.006554204045240145
0.5149642757997122
-0.6301792207340366
-0.0267368149780881
0.3408571512700794
-0.03782540957953937
-0.4309108235901406
-0.6130528702870204
0.641504583982997
-1.013778006391062
-0.03294238737677293
-0.16245346605977
-0.2963660188092253
-0.6081750598088443
-0.1167449427231186
-0.08644235207774174
-0.2960370846030203
-0.928383149119548
0.5059183562365017
-0.2324204009789197
-0.3270330409745723
0.008304228524777413
-0.2864483591928884
-0.05268842132207144
-0.3015064173845418
-0.09790281295910176
-0.9686291328907907
0.6235331785412105
-0.1906348524532316
-0.02688678450794797
-0.1769462211978214
-0.6495449989036359
0.223774742270158
-1.567554305925068
-0.4832806870936733
0.2803836380380075
-0.3294269715022348
-1.269993250142892
0.2417371044420126
-0.6397527677914544
-0.2693777128656163
-0.7970412863671548
-0.02489983977219152
1.430730929467192
0.3698708090622409
-0.1830444062684659
0.07287780598663138
-0.0444794518396813
0.1694250260315417
0.07621053012468142
0.2499610337065633
0.0740736918521543
0.7212597935288234
0.3879932407488209
-0.1673782183704864
-0.8696033990944083
0.08314196181493126
-0.07580576680500598
-0.2499780523908224
-0.562158451933116
0.07156028285440223
0.06260745123777675
-0.3002462288181296
-0.08666686622007176
-0.1509432644308449
0.7493583883960718
-0.3987929822741285
0.1052262891335104
-0.2376987485101288
1.686764786040289
-0.2085332058054559
-0.164502934612536
0.4150125429423093
-0.5891214141259045
0.4373801869117407
0.2536882952926005
0.5851922840066189
-0.1462794191736805
-0.2793697655932117
-0.1616690185631803
-0.3888617125126504
-0.1665438629122249
0.114781492156442
0.8147479170578695
-0.2837883856757796
-0.7064598687980457
0.5498393612939627
-0.1478882429532155
0.2448838014632276
0.3476955428121849
0.1683493416889695
0.05507374219035462
-0.249276876024931
-0.2456980433777165
-0.4418220509748668
0.3279227116382254
-0.5071896353948487
0.5705101154164384
-0.2201225421641199
-1.857412375827914
0.5346569608668689
-0.3451413494652805
-0.4831444710425778
-2.16830609229819
-2.355688643941889
-1.243040279296156
-0.2342251093755575
-0.1413395776510482
0.2896450264613246
-0.6001921948949049
-0.7526885565463364
-0.1902852731325715
-1.640883809217254
-0.21981668955503
-0.4192533263200008
-0.1289137583786952
0.1644553160320475
1.456653478479884
-0.1151654060980538
-0.01391807588684201
-0.03787987188732653
0.4583646932006059
-0.06246806002819818
-0.3193689203574266
-0.2562085895872612
0.06512087282569883
0.2087598822697225
0.1392230925071903
0.05741458584366207
-0.4955398075338832
0.02911101699126262
-0.6407380039371907
0.04517952417379771
0.06584963347653394
-1.174118955007736
-1.218346554576772
0.1219415423463474
-0.9268464944689767
-1.594785877235313
0.06898116020777365
-0.1232346028275978
-0.05061837113574894
0.1275584523671956
-1.004768894655275
-0.04763808693966015
-0.2212939770523513
-0.1797198597411355
-0.3798220241192723
1.285417980125311
-0.2128103927233246
-0.2832989097638495
1.377890337295693
-0.3537222013985151
0.07615634148585465
-0.6536210493036499
-0.3665389598480451
-0.0126591085310807
0.2048062217823335
1.273627398167416
0.06014714330604717
-1.322411474481673
0.2234027771362649
-1.061639016293307
-0.776047949364303
-0.276265235156252
-0.03642623178690974
-0.4565700109871587
-0.3648892657537245
-0.285225851661877
-0.1779058346924189
-0.06291950209170123
0.002023436899245588
0.2767092658649527
0.044706312353805
-0.1070842946328399
-0.4663128927258273
0.2721858690144724
-0.2723049080942815
-0.2759721893421083
0.6214775073084601
-0.3633729087029982
0.5034934127669074
-0.8389932642400586
1.624053337176461
1.045051685900263
0.3161294560719776
1.488446502659515
0.02041344006594609
-0.02107774784591295
0.2536732695653479
3.934464166788913
1.8849742094118
-0.6573773910455099
3.396140795663526
2.979790890767903
2.651151893138242
0.5383995904422286
-0.400445413585486
-0.5429813492416689
-0.6875879747369226
2.320674345917826
-0.04703408690312134
2.642390703333988
-0.248974438610832
0.0478703874181929
0.05375313615066754
0.05883436440342274
0.07383178391135191
0.07107617774142325
0.04296847462795651
0.08097081613582455
0.07719931792364741
0.1028470165610004
0.2325886809036176
0.04056463689975932
3.450571301924951
-0.5816296530583784
3.257483536316494
-0.001183172084790118
2.879149627362471
0.2545284618072999
-0.3296143476656062
-0.0720854288495805
-0.2479640192429451
-0.04243748427422626
-1.807726875100125
0.03479592124141764
0.2361248350813781
0.07077214444617552
0.1551940608045578
-0.1842787692141367
-0.06427843716012148
0.1200423842052841
0.04396748185022376
-7.335541843377397
-0.01652276421399428
-0.0693083502787077
0.1834012066411112
-0.08970806550106969
-0.9146874234167685
-0.0005685375706414125
-1.161654790211973
-0.2349758132867978
-0.2834761023364305
-0.3767340363977353
-0.2483137422006882
-0.18812927396864
0.2009848466026792
0.1919014094105337
-0.04801238124230313
-0.3385896062631401
0.1761827723677946
-0.08821424847742287
0.09868265840004432
0.1220974996654287
-3.503890066786465
-0.09316205167596071
0.8727316223161184
0.01596133941528602
0.05887166641260862
0.6475817291602165
1.026964340766541
0.08844767896897217
-2.378958266403195
-0.2735740044379882
-0.01527487431132281
0.8935415837507551
-1.084406647084772
0.01304125801153327
0.9898061476397613
0.03808751576512002
0.9256668317927343
0.008123425511767705
0.03089421543066989
0.3771029072330545
-0.08966987607587885
0.04523413746449652
-0.1236452822226881
0.4885065203061554
0.341337027892098
-0.4450648236498196
0.5621320917643333
0.09618724465157291
-0.03832909592937603
-0.06699246758325782
-0.1975839661365165
-0.02504249333153155
0.02081012203485648
0.1123660168898267
0.05737342023646878
-0.2296907858567176
-0.05526390701705471
0.05460812516946911
0.04089851929306877
0.178895434813118
0.06619302346419828
0.2821397658850632
-0.7064039289532991
-0.9357337399715145
-0.1120928359232049
-0.4121325003029065
-0.8028704014025504
-0.6526583682399516
-0.4718136599441896
-0.3888664414003896
0.03329776166779153
-0.3913175684325115
1.148180820984646
-1.085285209738868
-1.376326292346358
-1.209505784470256
-0.8170540620419531
0.02156310100460365
1.96236427912369
-0.3871411494946093
-0.2129895993043984
-0.4106622778749071
-0.08954671903894082
0.0451716499794671
0.3748359826650262
-0.2234537942814903
-0.2439540101795314
-0.4361119335643591
0.2727405635074405
0.09523431289764188
0.08272108536572534
-0.05788891973034616
-0.05076079951004858
-0.1158966759500722
-0.07638313098560581
0.00488689890620026
0.02894079235507453
0.0007188410092466788
0.02620715394016671
0.4202908237724424
0.2685959956620351
-0.2158644244554281
-0.06934651377774517
-0.04446831539485731
-0.2338462487807452
0.1506142604632741
0.2122854686894498
1.542520695487041
-0.05660157533816887
-0.09626832794220896
-0.1554397588283163
4.630239558667614
-0.2274439975822806
0.02451294869559359
0.149777294306626
-0.1009557095275634
-0.006280345381740353
-0.101955922081092
-0.5623068750879112
-0.2875400235356553
-0.3831212983420837
0.09015463867728643
4.575782401328501
0.8563938294372636
0.3335601824801734
1.413167474049512
2.458073665347611
0.1087904938195767
-0.0361803449641317
0.5604714895974874
-0.06118635871213417
0.1251958142595541
-0.04667681956479443
-0.09052348108906885
-0.09768461385317732
0.1367821442422613
-1.069343962923311
-0.04812556953539973
4.970295515552198
-0.0006681438810032947
0.1130667142026852
-0.323007883551412
-0.4506845923417215
0.2995878353114499
-0.06711348348060778
-0.1385151900902699
6.801371857347553
1.061092286665683
0.1612773564501765
0.02486993347259957
-0.2708397916797202
-0.387045968683705
0.1835813704311337
-0.02569059208113639
0.1424447095321194
-0.1250902664913916
-0.2453670182984474
-0.08112685613965488
3.36021341008119
0.7852087526760688
-0.1837354448994343
0.08790137173653126
0.01542189915276213
-0.596779390161925
-0.1146046848291228
-0.124106256925248
0.4003932033012193
-0.1888466074894864
0.2588438666544894
0.1391006659522549
-0.04287663698360225
0.1407852523679516
-0.3505735247158148
-0.173054926961974
-0.09497652091989753
-0.008179466777095414
-0.6255897010980406
0.07387351210670269
0.05494802975820878
0.1342362076269812
-0.8333206573993402
0.7965394040959846
0.05692756326787959
0.4175196901343556
0.6075061205753427
0.2101736738922028
0.1301993962391454
-0.07991044750555679
0.3492063226924617
0.4899176564767136
-0.1500731937524563
0.1991071852044331
2.235123548330017
-0.1660031649018436
-0.2274734975221258
-0.1653577883099718
-0.2927909546655807
-0.02463326430570082
-1.14877939850896
2.271383465410641
-0.7711043193904126
-0.02978215535175584
-0.02549864120846668
-0.1931181002051294
-0.1187852866222867
0.009518771341362373
-0.2076788002496554
0.9043589793970079
-0.189742340527291
-0.1049370118010468
-0.1578243491795189
0.6427825399567283
0.1079254005362268
-0.01230922876053787
-0.1273070298801422
-0.03512443654361335
0.1246449791199404
-0.004960616195752059
-0.05704774660916035
-0.02609788655927038
0.04496565921065769
0.3404869119829001
0.05423850732628625
0.01030253808428777
0.2870017594622273
-0.4565630814208123
0.1118344464245136
-0.5632684797720204
-0.6230425123953456
-0.1030921749674504
-0.1451440801597377
-0.1912744979498051
-0.031660004089258
-0.1807714753409828
-0.429439091640247
-0.1095329135949337
0.05618523056287485
-0.1676172492598003
-0.08575878847030388
-0.2078809506213805
0.08034442562703416
0.3871224210712465
0.05596482914812507
-4.245140478143737
-0.01051518607737688
-0.6016364284203766
0.07668717540468352
-0.03561575352554468
-0.09159819526282982
0.2160369112196325
0.06397623105076043
-0.09067198205592311
-0.3920920604370192
-0.04856364382928761
-0.06320810719076551
-0.1042668939493366
0.1464978212170822
0.1207784944894741
-0.6717488961634513
-0.9807367261269807
-0.295882116569721
0.1707555651625287
0.05686093996085466
-0.01651161563270542
0.4257390718403649
-0.1552692148734768
0.01963699169110952
-0.2541054660772533
-0.1171557682156701
-0.1049950579203824
0.06183108002218555
0.002309462071977098
-0.2836642990203213
-0.03931902016985303
-0.1748387146870155
-0.2107717438692571
0.3240242991323599
0.6135604822511194
-0.5710522327495507
0.1075571298292841
-0.03006970114057728
0.0003297887811105646
-0.09136385210273044
-0.3229626854270298
-0.3626434590869087
-0.027854634205251
0.01447360790476793
0.1013223091220746
-0.2583211436207951
0.1071497974669048
-0.1460058138560541
-0.06188855306069942
0.09607098505235921
-0.0211504673945984
-0.5643056645044287
-0.01560620367836851
-0.4695954795075774
0.2022327731439983
0.01290685102130968
-0.1774769967837123
-0.04610690853876388
0.0413858985331686
0.04423825337720722
0.01187314716862406
0.03935948848405783
-0.06411325085693415
0.2118452597955315
-1.59032901085722
-0.01573924435266596
0.4727481067454594
0.02712147080543876
-1.655026715993052
0.824595751842075
-0.2045335988584321
-0.4140748119895014
0.1084449788384455
0.008423139612466542
-0.3830311753830646
-0.2688396647510118
-0.5630665090701985
-0.05192507710875514
0.9205301807122279
-0.1189587817910557
-0.06081197034958193
-0.3178993611779341
-0.05759143618737778
-0.778392808198996
-0.2587153865822897
-0.04397956637863838
0.02837325422145559
0.05261416403804884
-0.0001705578970768009
-0.08555285527565634
-1.018435379486985
-0.09730476826088007
-0.2378524123836793
0.07006516466910051
-0.1012649620516622
-0.2024572696978447
0.05409978017671842
-0.3233960326523018
0.001779702308078409
0.5923894883387537
-0.2836046684891768
-0.001881386970983209
-0.01533728319744289
-0.1965591887984277
0.2151762068319298
1.387176338970998
0.01740643465739971
0.05833885661576216
-0.3167531620749252
-0.05764969047594854
0.02820714924695269
-0.05844944162275906
-0.04414985988829304
-0.02678111205116545
-0.05803507969429313