/*--------------------------------*- C++ -*----------------------------------*\
| =========                 |                                                 |
| \\      /  F ield         | OpenFOAM: The Open Source CFD Toolbox           |
|  \\    /   O peration     | Version:  v1906                                 |
|   \\  /    A nd           | Web:      www.OpenFOAM.com                      |
|    \\/     M anipulation  |                                                 |
\*---------------------------------------------------------------------------*/
FoamFile
{
    version     2.0;
    format      ascii;
    class       surfaceScalarField;
    location    "0.8";
    object      phi;
}
// * * * * * * * * * * * * * * * * * * * * * * * * * * * * * * * * * * * * * //

dimensions      [0 3 -1 0 0 0 0];
oriented        oriented;


internalField   nonuniform List<scalar> 
37423
(
-0.1091195434025689
0.4247273178666681
-0.4557313621370027
0.140123587670109
11.04248826411103
4.819237615017545
-15.86172587916719
1.58284289360773
2.851388291360753
-1.484025178357119
-2.950206006596733
0.5596022848171894
-0.9842373428399589
0.4246350580646972
0.1175035369930676
-0.1662988414348735
0.02843789053235036
0.02035741391780378
0.05168404535336228
0.1433249409517298
0.2999540024178364
-0.4949629886968623
9.151010988570736
-4.650492837235912
-10.83990767867901
6.339389527346056
-0.05873515963539892
0.06622713392020671
-0.007078386966057445
-0.0004135873055074496
-0.184019012012159
-0.02810127207262708
0.4302334820612942
-0.2181131979649237
8.637263000939502
0.6773763443079627
-0.4706685853421208
-1.408458550966512
0.4360132270598407
1.443113909259568
0.3019055023801819
-0.5523238603386513
0.7689651180248128
-0.5185467600203
-1.065445543795914
1.291248038638297
-0.2258024948261506
-0.4574144655632564
0.4926154266780411
0.6145462718471595
-0.6497472329228351
-16.28867123228265
8.940435285642536
-0.06211350190054724
0.003727355509959326
-0.1176327586005266
0.1760189050012156
-0.4685972531454642
0.8176774319232387
-0.04717467637684346
0.1832682261314009
0.06220219238903629
-0.1865402529754655
-0.05893016552814627
0.1009146210507456
0.02405415472068561
-0.00169407478609486
-0.123274700973161
-0.02159242805246874
0.06199810974755455
0.03374126444237973
-0.07414694612592519
-0.2170502025506248
0.3797324347561005
-0.4251790444318833
0.2624968122354319
0.4079169543997648
0.6845101669930422
-0.2699322561946521
-0.8224948651617564
-0.1171403996478433
0.1266164408233235
-0.109837103280742
0.1003610621175283
14.77451930716177
-17.68501867303337
-6.352046281525898
9.262545647302085
0.5944701824765986
-0.07321824923496574
0.09343230002246596
-0.6146842332594473
-20.42930847690961
9.349287158293219
11.08002131861089
-0.1839480310830828
0.1383724852413607
-0.4230217072836313
0.09410564137942924
-0.09265509806363358
-0.1876304874622975
0.1861799441559319
0.165862298845853
0.01260711984532626
-0.1802854839896993
0.001816065318168785
-4.259239979087522
-22.44859724299185
2.757310782597931
23.95052643934241
0.2151394926991078
0.4001468073770292
-0.1549721588210689
-0.4603141412376803
-0.08298987135648535
0.7060463184634882
-0.01583751831723428
0.1104860283897148
-0.1057432015441847
0.01109469148326826
0.05872980076314792
-0.6367490624629644
0.3323772639746874
0.2456419977542449
-0.01863561192485209
0.06272858888779489
0.09002323144665406
-0.1341162083901809
-0.03044648819247008
0.009612247929200877
0.1158119584485361
-0.09497771817672553
0.2546470889747273
21.53517914251036
-19.41852571674885
-2.371300514742864
1.098772917876881
-10.22830356165338
9.351372497687867
-0.2218418539862833
-0.0234522114511897
-0.04423317426167526
-0.103846936803101
0.171532322527264
1.653855756688688
-5.685123229096119
2.43144630098204
1.5998211714882
-0.1477266430380627
0.02344372223637142
0.1462094028522627
-0.02192648204343089
0.5549062494984431
-0.7031652212952817
0.1938377123039043
-0.04557874049692517
-21.00771503846253
3.668904639634307
7.175203172453474
10.16360722632755
-0.2191868908173917
-0.9268574103593898
0.9972474419206349
0.1487968593088627
0.350932053987026
0.0005535413407648301
-0.495096785084424
0.1436111897555573
0.02894653700400736
0.6428557892244819
-0.1196713104457975
-0.5521310157511774
-3.588592426655684
-21.74171515690525
22.61089559681706
2.719411986733972
-0.9531398364625068
-0.6699761491809049
0.1774922833269379
1.445623702318533
0.5166238937825823
0.2506791035093227
-0.5230175447474227
-0.2442854525328588
0.4226643286138547
-0.1808228584513022
0.3731496851824057
-0.6149911553289727
-1.063897151149712
-9.817593703835259
10.88149085489755
-0.6881866477117375
-2.770967697351875
1.142172316941102
2.316982028303435
-0.2530605083575198
0.5927349656194318
0.0324249258701701
0.1919460183935204
0.04119578107454157
-0.2655667253187634
-0.1307214534562663
0.04182635388732662
0.1078324094344881
-0.01893730985564361
-0.5176742811651284
-0.09130575542346378
0.09959531251714002
0.5093847241190288
-0.09343970263356959
0.5942826214203167
-0.8714934264796341
0.3706505077124361
0.2668232637315686
-0.07364644414621772
-0.02632800209000667
0.02103425360948049
0.07894019263292509
-3.226377984317209
-0.5614175351813913
-3.06330800801656
7.251297289154551
0.04351962459647547
0.03992531267167435
-0.03064844695762742
-0.0527964903029261
-0.0008821368551651704
-0.0893449183237498
0.001825323289861404
0.08840173189447294
0.3924161213646871
-0.3784293458862567
-0.134613091193844
0.1206263157378168
-0.3219377375459461
-0.1495121026128108
1.155960007186145
0.0205551096374492
-0.09226934813067114
0.01300011316502578
0.05871412534188435
0.1156969855806538
-0.2996464285740953
-0.1584494367120791
0.3423988797172812
0.3392141695377398
-0.7899692841621299
0.2195246489489865
0.3573705737232341
-1.148118685229844
0.571223462580854
-8.5454869985538
3.963733840918607
-4.78206783838993
0.07703393390927731
-0.04575320050578198
0.02708762486813984
-0.05836835825685759
-2.391120633420649
1.026085859463095
1.109877272210096
0.2551575017769704
-0.533484429536439
0.5346454365463269
0.09413940170316193
-0.09530040868467161
0.01305641548798987
-0.2775372690735484
-0.3684919527558052
0.6329728063458415
0.1152678749963493
0.08010041224194148
-0.152492542732765
-0.04287574449102392
1.664838523931829
2.977209225891658
-0.9823810523007717
-3.659666697421764
0.004685126598493625
-0.3760827270713362
0.7130976492945401
-0.3417000487660068
0.634239452178036
-2.014150219351194
0.4194943702266167
0.9604163969836081
-0.02282161431855957
0.01163068873184941
0.01119092559372578
13.82880904378635
-1.143903125323414
4.759410552982377
-17.44431647149894
0.7364469111242873
0.07221998715106273
-0.02064426178651308
-0.7880226364739782
-0.1788896028154827
-0.5304401593998607
0.0332810783984122
0.6760486838324657
0.3157189930096206
-0.1445423223673349
0.09885203993024629
-0.2700287105511355
0.006202677527348719
0.08847659907722348
-0.08229526663265241
-0.01238400995987621
0.04006364839975621
0.03066817817057975
-0.07073182656361943
-0.0808381430643068
-0.5332661812456881
0.3610438159533873
0.07087167959685581
-0.04668110053034161
-0.1080329093694451
0.08384233031347424
-0.07630808654034922
0.07870721016465326
-0.002399123615843548
0.06276273849307071
0.4308465166408562
-0.062811357453442
-0.4307978976635615
0.05674464810168334
-0.03111090103129616
0.1196941098399306
-0.1453278569011559
-0.1169115646689557
-0.2308834244128978
0.46349197466945
0.2969738308230752
-0.01373858810243482
-0.03359138450050268
-0.4592473652031464
0.5379982222955898
-0.04515947257377861
0.1636879657690446
-0.02171588533367378
-0.1719181670634876
0.02994608664711979
0.004666441331300182
0.05875067378084124
-0.01796727768249911
-0.04544983741911975
-0.1121211571543285
0.5185621312650395
-2.068812526977961
1.662371552908667
-0.7377830575308089
0.7770730339231071
-0.1369166055382422
-0.1475410016760884
0.2044154830361905
0.4284460859446
-1.185952643455567
0.5530910744992797
0.4695357197545579
0.02470048796624784
0.05998242255039893
-0.05535739488856873
-0.02932551561834609
0.0485022983135653
0.06279936898092484
-0.2139482960351251
0.1026466287525887
-0.6213403794055131
0.5889570265776632
0.2329260444512338
-0.200542691610465
0.08685238331747179
-0.03674465498795049
-0.1097719377362348
0.05966420941762657
0.1064298488276573
-0.1064554966638342
0.498464031513853
-0.4984383836701117
0.0538376396894825
-0.07219074883069393
0.115566187447168
-0.09721307829380885
-0.1016045081720138
-0.1493546503790912
0.3808310919048736
-0.1298719333556966
-0.3253191368380428
0.4752618870676396
-0.2515472584052153
-0.08176541187375376
0.06042361124738064
0.162179880374245
-0.1408380797376073
0.1207590881573065
-0.04532401815938105
0.0850927312716895
-0.1605278012559996
0.09286688040003067
-0.0001807522794534393
0.007366671368473866
-0.1000527994812046
-0.07185765598979196
0.03298932926691635
0.1356206210201002
-0.0967522942770304
0.4239660328996593
-0.5431156147644464
0.09491116692463938
0.02423841494563003
-0.4310970703001901
0.6573704148584579
-0.2263236605168495
5.031597593155064e-05
0.06641153080774165
-0.2339267015700282
-0.1963684393798245
0.3638836101549159
0.03595311561412046
-0.02294924372553342
0.08641584780070882
-0.09941971967978513
0.6173581407236337
-0.3576458517231005
0.2882951736389687
-0.5480074626071052
0.09485571792240287
-0.08240514202248082
-0.02479335913326759
0.0123427832432107
0.1140506312968635
0.3199156981154253
0.03556939036189107
0.4571580374066553
0.1915380304478563
0.7000719614028114
-0.1163052051575582
0.2173082321115253
0.7861780862102083
-0.3034143569001654
-0.2326868839532414
0.1645055917599479
0.1812245296697989
-0.1130432374646063
-0.5350474283351494
1.306992346576564
-0.5587053393400879
-0.8977991098301814
-0.03302904160286899
0.08973887013764423
-0.02258768704012668
-0.03412214148552262
-0.1430428396496747
-0.521936340668136
0.3666568101984611
0.2983223701758249
-3.184358729632953
-2.982913311048997
3.799734032031258
2.367538008595533
0.3417862370284307
-0.3136682724889719
-0.5929426323775948
0.5648246678711334
1.825034096489608
-0.4002428254362713
0.4698407962880737
-1.89463206734056
0.3486712387860638
-0.5293323884043422
0.2393909504016175
-0.05936056902393852
0.3382498882448334
-0.5379326921177175
0.2590433729074287
0.1619776908918932
-0.176503146050524
0.05351868502680338
-0.03899322985164656
-0.1291794277233258
0.03907488855739819
0.3195252638565357
-0.2294207246745553
-0.07096230047156324
0.02583823109549806
0.05780356753013404
-0.01267949814334154
-0.2149013047750691
0.01860735150655731
-0.01747592630600013
0.2137698795885684
-0.078159356703452
-0.5049273839626741
-0.009709721493670756
0.5927964621811653
-0.1652645115736384
0.1058707021657921
0.05939380941329536
0.2241470339991289
0.02594236097557111
-0.1679863023563185
-0.08210309259877793
-0.04008476794347485
-0.1123062031065477
0.1614675116069424
-0.009076540546341882
0.2034151461231
0.07302540377714201
-0.1032876350259257
-0.1731529148614808
0.3131309264858678
0.2291135942690431
-0.7268322094723542
0.1845876887392916
13.67385099290902
-9.146451458512651
-22.52077314045389
17.99337360600955
-0.5822327254504632
0.02436909251618756
0.6176739711144453
-0.05981033815677974
0.1147515966684137
0.02828405780631345
0.01667773696301101
-0.1597133914198953
-0.07171164962712699
-0.5286806050219961
0.6098487280536408
-0.009456473395557597
-6.745593430765504
-5.426795870658885
-17.43862591092161
29.6110152122225
-7.65037828848773
10.95397715947839
4.212305153313544
-7.515904024261405
0.09133805805486861
-0.08522403452795363
0.04929303547111365
-0.05540705898728759
-0.4697296479094604
0.2339193460228403
0.07895833987188541
0.5388656282480777
-0.09941471852456049
-0.5184092495771923
0.2344376119213247
-0.1210638145464104
-0.2627284477482423
-0.2911913104790567
0.5064079891247858
0.424292337253561
-0.6395090158679454
0.0137495232206451
-0.1474732271467472
-0.44856001145031
0.7549816053932989
-0.1589483667736122
-13.6246703771661
6.131545088890049
1.075132839304948
6.417992448916722
0.0857472079035565
-0.004228106331099983
0.164041747490297
-0.2455608490496374
0.07793562905961604
-0.06861726355625686
-0.009318365495564609
-0.009423398318436357
-7.429652457851039
7.439075856091349
0.3918843207069271
-0.3666776034335638
0.4788617001427899
-0.5040684174023699
-11.16218413467994
10.5590413608844
10.69959070587951
-0.04065859525204367
0.5266823176645818
-0.08826083256446134
0.086171504773446
18.01634186523616
-17.9376309590056
-0.07871090625985132
11.87637968255751
-22.99755812378535
11.12117844122682
0.8923101824995378
-0.1370037280853781
-1.545086813083182
-0.08313160910042862
0.1345399698218904
0.006677462163493355
-0.05808582287637144
-0.1142290676582357
0.1798691879851933
0.2288385445123438
-0.294478664837341
0.4681570412863252
-0.4367591240559812
-0.1993861457353275
0.1679882285160153
-0.1291159265621733
0.5485431087806147
0.4340463229785527
0.0988498260566639
0.06138647239777629
0.4933860376974911
-0.605676271678955
0.01698982531658627
-0.3093497759914389
0.104874657344112
0.0834113041044397
-0.5455184176718219
0.9092252746487109
20.82549335986245
4.740380876354511
-26.47509951083688
-0.579100952470409
-0.2159478322742402
0.4968321966447376
-0.4069264712701188
-0.1410657344402523
0.05116000907847373
-0.04995689223773816
0.2029057480619665
0.02965823915577624
-0.1826070949729423
0.3423875056477017
-2.650186502331696
-9.529199013799099
8.953007531745467
-10.45394937455
6.241349956008143
1.562412916161294
19.56064086190673
-9.316935434207686
-10.24370542770808
1.105631541752429
12.40543010011343
-12.83368529760165
-13.67121758636465
5.833594982000894
21.14241613603877
-13.30479353167012
12.55292878327104
-11.61429087760379
8.536096582805101
-9.474734488454473
1.156520979485611
-0.6134740510110549
-0.2547517547956565
-0.4860913912991386
0.5807978451875122
-0.135365049133859
-27.30753972156394
10.04725017672991
17.257157515539
-0.02232337329167465
-0.1263279537989091
0.1838051577786371
-0.03515383067133421
15.92563660716986
6.73571469075045
-38.28310471957817
15.62175342167154
-0.06246124145205427
-0.6061053167089919
0.05357540283699985
0.03687993676082862
-0.1460099950033738
0.04673326633247787
0.06239679192414807
-0.001257240221578501
-1.659212620206078
-1.97407998566864
3.93886051529173
-0.3055679093601781
1.850341461132396
-1.184226229664936
-0.119883849642792
-0.5462313817957453
1.382454996933739
0.1028475480575379
0.4838106353611403
-1.969113180312074
-1.140991787383046
0.1328843653533179
0.179246015525844
0.8288614065653775
-0.1007760130446235
-4.698817526700314
-5.23669981368229
7.397047589411271
2.538469751002962
0.7347056121363938
0.1843568394432932
19.38822192166781
-20.82362684554714
-12.23581266244585
-0.1707915877427695
0.4572969090540976
-0.5155719194881396
-0.2876559637818615
0.2812915426354262
-0.3963540343786239
-10.16230364755536
21.47977048973293
-11.31746684220585
0.7704933373660282
-0.5962495964134276
-0.7092911692559507
3.896113199624182
-0.02093689531174194
-8.573993830991034
0.06799854626933889
-0.02761737521003137
0.04209036792677561
-0.04723996710132423
0.0327669743891837
-13.81196002824356
14.89594285370534
-0.1962616675948543
-0.01179873621018477
-0.03764121472414839
0.2457016185507103
-0.2320806613427677
0.02505270175307157
0.296708646476904
-0.08968068687505051
-2.764838459951548
3.544213571215803
7.199709371088499
-8.787091087121977
-3.194686122380436
3.928721525108106
-10.11523846946542
3.421678484360015
-0.04152314308630342
0.02935667588804624
-0.08691447748356855
-25.24751182983537
-0.02070924098691106
0.04929657676931777
25.21892449399622
1.842580004301862
-8.016315204028315
1.976808269092668
4.196926930778299
1.894534140828988
-0.4047426561554357
-2.938890894561771
1.449099409934522
-8.731517365956504
3.890926726224438
36.3118253515365
-2.956211913847656
-8.469722611466601
8.155966639181965
-0.7783760068500923
0.04703764334870529
-0.05429908643323694
0.7856374499506303
-0.05890983507559246
-0.2742822025847957
-0.1392882261291075
0.4724802638188695
-0.3566882169614162
0.1708679120410354
0.04288571373280239
0.1429345912117578
0.03062720016253384
-0.02442452262719787
0.04530108844317227
-0.03745683869596683
0.1824984001971839
-0.1903426499300921
-6.553452230566505
6.575029563430046
-2.942022717701896
2.920445384904698
0.0004343436263359088
-0.0002117045382676858
-0.0002226390868301894
0.0004343436269380723
0.01075903863842975
-0.01703895618349557
-0.1376292027460116
0.07861765284917466
-0.008167332946863568
0.07750495396746926
-0.1479552738572023
-0.1635571664533856
-0.3099385596242759
0.4639929447019133
0.009502781391250568
0.3689993184900295
-0.4829861308943129
0.06831710969399528
0.04566970271627321
0.1801938404588105
-0.2658396702610948
-0.09629171480319407
0.1819375446185965
-19.5081063775163
-7.804714469144401
-0.05448436370273768
0.1449295558699412
0.00867607243035814
-0.09912126458374027
13.00480460273458
3.755178603534688
3.335460821017579
0.01734875295087084
-0.3555573268093434
0.04450593030728622
0.2937026435694608
15.37094396868808
-13.97669778538992
-9.707744108311124
8.313497925010441
37.71715376854985
-19.59490054744036
8.143930401159546
-26.26618362227586
5.257685323910681
14.77576220162905
-1.463345482800779
-18.57010204275587
19.52139784938763
2.932317007331642
10.9533149520172
-22.80553284709015
11.85221789508985
35.21772371412261
4.981621952249218
0.560898375153609
-40.76024404163068
-0.07549233980182082
0.1343825257940988
-0.2501999799292778
0.191309793956229
0.1911374717593002
-0.1441971439741173
-0.6181376264022757
0.5711972986153693
-0.141149566285283
0.2939580079490757
0.07410383660424316
-0.2269122782491853
-0.06340428334521279
-0.006063177037462283
0.08730860538194224
-0.01784114499510806
-0.1288280124722386
2.0074418140943
-0.3935021897516291
-1.48511161184322
0.2843177558075558
-0.531224957599417
0.2075609392781022
0.03934626251882161
12.24655640760094
-5.704414626898195
-6.542141780730392
-0.2392757030266584
0.1283516924252587
-0.04303932051393199
0.1539633311267194
-0.3572021052165783
0.4971464961736178
-0.206022168350779
0.06607777741055339
0.1471875556444664
-0.101886467196345
-0.07088573783487977
0.0175529589446024
0.05333277889543397
0.6661626852000131
0.5004892390274538
-0.5133970708133416
-0.6532548533512397
1.933534010633764
0.3808137257414003
-1.075017627168558
-1.23933010915189
-0.1392045969862307
0.1013415352961038
-0.09859959572442406
0.1364626574276608
-0.05637800095119998
-0.1376350658919152
0.09083096263638632
0.1031821042191034
-0.869848860330054
-0.6862050516240635
1.775117411435858
-0.2190634994564151
0.3597760667296451
-3.87291028742866
3.343233985900658
0.1699002348759325
-0.8546882882022866
3.416956693650395
-2.602109531358742
0.03984112594629166
-0.4749430204669124
0.2401016497695353
0.3018587527529366
-0.06701738203760262
0.1765921728862257
-0.3168225673166625
0.5210003114716205
-0.380769917024547
-0.07112958962385123
0.0783799984984999
-0.007250408865706803
0.08587446918276007
0.1731195997817912
-0.2589940689618571
-0.06828034463994474
-0.001226354203168815
0.07541994113278652
-0.005913242280447469
-0.05682270976529657
-0.09428203147263264
-0.1091738085769523
0.260278549837601
-0.08542327962943212
0.09351827448558338
0.1805627839423657
-0.1886577787843944
21.18001701183451
-13.59463768579703
-13.98277700792696
6.397397681844793
-0.01451038367816124
-0.05847909548006814
0.001215416404644631
0.07177406276313797
-0.03401717316553426
0.04512906760704041
-0.0111118944378828
1.978050762057813
-2.581432438284807
14.33304697910826
-6.900412670490642
-7.432634308650289
0.04113992550595859
-0.1100365733263694
0.008644337093990252
0.06025231073644446
-0.05193410403286068
-30.34998218828592
-0.02432251747115242
30.42623880975336
0.1251019334319002
-0.07405992005946677
0.2092192505625291
-0.2602612639222622
-0.0492757637565125
-0.02652057907344566
0.06773993175395328
0.008056411085099991
0.06297561720261763
0.6153111521969484
-0.2599920813957122
-0.4182946879685908
-0.07025026115617589
0.003981511741680503
0.06626874942368899
0.02281588843310513
-0.01723061814798969
0.06649318139182298
-0.07207845166851966
-0.007162920277907681
0.03659780722735693
-0.02022959584703759
-0.009205291093025739
0.05054805864985618
-0.02957664447458552
-0.02097141416787771
-0.002526050219404797
0.07171416830426143
-0.06918811807722862
-0.1383179455853987
0.5710110743179582
-0.4087460626888466
-0.02394706602454571
-0.01196740255598563
0.09010426647344601
-0.09158990428105322
0.01345304037563928
0.08690062942930225
-0.433069656118946
0.4174589293832599
-0.07128990266365562
1.293656588615932
0.4875849377719336
4.21209873258317
-5.993340258935496
-0.2851379582724826
0.13701491909181
0.04834045604847818
0.09978258314589324
0.09249088418451129
0.03246709933903175
-0.124957983511667
-0.02040460109348724
0.1380631840948769
-0.6186844192813513
0.5010258363022991
16.47344446302966
-21.11527043915091
-0.07443988288634333
0.1467247198373992
-0.0004556127065929023
-0.07182922423606633
-0.5062356774819988
-0.01622201949272047
0.5224576970192483
1.568660239838925
0.6225386024660218
-2.271060750505268
0.07986190819312385
0.7992672001261495
-0.03706199707469233
-0.7323973439382977
-0.02980785909846318
-0.2455896234659173
0.3104451599951202
0.08176065804192055
-0.1466161945545748
-0.02596107228909416
0.3624101675685127
-0.3963742494851912
0.05992515422851818
0.1451367411285765
-0.2980028105234681
0.1642131748409182
-0.01134710543636665
9.879475549250168
9.915791069837752
0.0426678377662242
-0.4370693263492731
0.04791568242086768
0.3464858061761857
-0.2237153198796436
-0.4392364125677832
0.5908055391504138
0.07214619330019777
0.01173923644033688
-0.1647392934090767
-0.01967890251662079
0.1726789594979225
-0.2785970690987705
0.006434652163205738
-0.006999184616206475
0.2791616015666513
1.435521889198873
-0.5672279101016351
-1.677766289722856
0.8094723106654995
-0.02635159537855099
0.1256529447019754
-0.108266349793064
0.008965000486806624
-0.01308981593622198
0.02557785568503947
-0.1048989736780969
0.09241093393651784
16.13623405823405
-23.67183456632796
-3.149476279512812
6.271296213174447
23.06149997901288
-1.378413647141177
-0.1843490348629186
2.177724144990429
-0.6149614629653235
0.1653592728930539
-0.2642699061999042
-0.2445231301334446
0.3434337634509356
-0.09622268698512332
0.01578277440986657
0.03307709443320256
0.04736281815276269
-0.104247138455981
0.001298262881191848
0.09147528603742967
0.01147358954378434
-0.1400007606996542
0.1809798991638735
-0.06443134990312382
0.4830705155906277
-0.1901820241785362
-0.3970083864162696
0.1041198950216061
3.259798036535509
24.68760512789004
0.08858508040809997
-0.04804760400264065
-0.2412689803295653
0.20073150393848
0.009053188533621581
0.3828672172310299
0.08240748756378041
-0.4743278933094499
-0.5039138566317463
0.07594538350460919
0.06386461893097345
0.3641038542152151
-0.5178260264567637
0.05283290949922913
0.2536746804170441
-0.6128779415386936
-0.04815330603193158
0.7039354190266867
-0.04290417139584946
-0.01672783897265234
-0.249562385675761
0.7403867557255732
-0.4740965310442163
-1.700338754092511
0.1026441903072844
1.597694563787039
18.62458954676875
-7.362502975718992
1.74271803169278
0.1578952890613968
-0.2709066417030845
0.04430048324120049
0.06871086942212208
9.017083183016796
-32.50420125728282
32.21629502382892
0.04842487572338498
0.08207864721360583
-0.08200122461567774
-0.04608264402529926
0.1501568375026714
0.004939726270073448
-0.1090139197361975
0.06565647274801442
0.03325270485039163
0.04378514148355397
-0.1426943190736648
0.04031911400945687
0.2621344862809548
-0.08276646816902715
-0.2196871321096225
0.4325059440127616
-0.3045018272360767
-0.5093340467093385
0.3813299299519965
0.08291090549086452
-0.05826995161117975
-0.1072747478496623
0.08263379397593446
0.4814028777581604
-1.105821341130841
0.248969018582951
0.3754494448343197
-0.1017167773346772
0.05993360561261317
-0.03265671115863125
-0.07028124747442518
0.05952061132408563
-0.1147942541564377
0.125554890313187
24.13189348094539
-12.88987569977082
-20.77295639794201
9.530938616756332
0.209394296172838
-0.1745589298258787
-0.03483536633819852
-0.3199715799411265
-0.03734870837102363
0.4573613923136577
-0.1000411039905614
-11.60790378935219
14.86307408927765
-2.132839282726047
-1.122331017140251
-0.01821936066644245
0.115775459418108
0.01298276010799471
-0.1105388588522968
0.006243654475634016
-0.2168101968702345
0.1369712967167769
0.07359524568938754
-1.288414642682862
0.9625202010711145
0.4469425882647824
-0.1210481466372785
-0.02266132544963251
-0.1950144363149098
0.1962049791434372
0.02147078263205636
-0.8464841033272545
-0.6268991965111704
0.8599092488452248
-0.9826210479984996
0.2112773353029175
2.55196864862698
-1.780624935939681
6.975651062522028
-17.39934571274891
12.39980301893129
-1.976108368843325
-0.1103479842838454
-0.5307511357500686
0.7472446556169872
-0.106145535584383
1.575104661928961
18.29606117048208
-23.45975825904666
-0.04670238661677915
0.09573900050993502
-0.03604616030965262
-0.01299045357560255
-0.5095368082964199
0.3123519028817258
0.2270109179497488
-0.02982601251937305
0.4947652739463818
-2.149581255109745
0.687515127053959
0.1931335809037501
0.06197552997602323
-0.1709396050431711
-0.08416950582220267
0.4942435627694642
-0.04297933063564346
-0.4853857275945982
0.03412149545807866
-0.1017440157708286
-0.4139006368966777
0.333875550457628
0.181769102226502
-1.848943370119921
1.811368335330877
0.03757503480058103
0.1201125813894225
-0.1267809219101542
0.01936429456937066
-0.01269595403431405
0.01620409255132148
0.1027551803763624
-0.1002662861880784
-0.01869298673061122
0.0155964762997786
0.01759940323838971
0.1163686471993682
-0.1495645267280336
-0.007814572212884967
-0.08074371042905755
-0.05417837920327814
-0.002141888054459803
-0.2925409113823257
0.06496061364185127
0.2297221858042805
-0.1462405143331756
0.07798034328980949
0.1128055968310398
-0.04454542577877992
-0.1803770889834427
0.09853961386173218
0.1955226032302124
-0.1136851280830866
-0.5989662091395412
0.7190726056325714
-0.04799624895433901
-0.07211014747219957
-0.008867597832423732
-0.5167462841293784
0.1048958964595571
0.4207179855071303
0.006688832038570925
0.006046862697443112
0.1533981342060949
-0.1661338289365353
-0.3276307713769924
-0.1980374090717716
0.4295534022894685
0.09611477818360216
0.001387659399680546
0.1788137449765376
-0.1605120953231094
-0.01968930903771765
0.009536620879395252
-0.1432718858810243
-0.0251923891271396
0.1589276541385427
0.8043087361603027
3.870289953047565
-3.894000742504053
-0.7805979465323243
-3.954364464797255
-40.81153218484388
36.5472593791652
8.218637270469312
0.05201152522728399
-0.1587767214774417
0.0928787406394805
0.01388645562067409
22.92098391879625
0.2933890033963204
-23.17812298116966
-0.03624994104086771
0.1487394415302112
-0.2025323803585428
0.0456663480535521
0.008126590793563628
8.162587655027416
-9.813104231153499
1.916490502646789
-2.701334864526433
0.9625878336355123
1.73874703090473
-0.09398323320953442
-0.07113775784341322
0.0798301598558262
0.08529083121012075
-0.05774911780858957
0.05238075109303701
0.005368366724161703
0.1242967862143135
-0.06218055334452351
-0.2415572520870604
0.1794410192315372
-0.005906778441092762
0.002151043232767396
-0.06298429312268321
0.06674002833670864
-0.01642208173759046
0.09443085322498446
0.008702924782790111
-0.08671169625806975
-0.06983960097071566
0.003997818436842668
0.1686180179100276
-0.1027762353639408
0.02630374912975785
-0.07349749835350182
0.03673815329982114
0.01045559593509401
-0.08190454120778724
-0.002127519055763204
0.002717073138499257
0.08131498713409091
-0.6066727222580781
0.133870354391453
0.4728023678760857
0.1228931085259192
0.08895462123316841
-0.1793347847235911
-0.03251294502577832
12.51610933499687
0.6984890820685457
-12.7242171356849
-0.4903812814297161
0.1910791060403873
-0.1336848636294174
-2.237879152709099
2.180484910331293
0.3223633702638
-0.3635735965800544
0.5163523354263304
-0.4751421090903991
0.6489654920497173
-0.4447044912727493
0.05949342279864969
-0.2637544235572735
0.2482158496572918
2.216846429947364
-3.710001983005716
1.244939703463922
13.31369455428169
-13.38539442065606
0.07169986636332175
-13.68101170181711
-10.38944535316973
10.25849702667998
-0.2302440693300583
-0.2045438538941141
0.380643175294989
0.05414474795265985
0.4013810354257006
0.214850187847401
-0.6162312232332482
13.5959878258683
-19.30472637520091
-0.1798644158080403
-0.03383013466445749
-0.1908444994571253
0.4045390499467922
3.289435777418102
-1.055564480437495
1.702927922770363
-3.936799219821706
0.3981142713672987
-0.9974098104928899
0.4849408902811848
0.1143546488749354
0.01958918070492747
-0.0222087192777354
-0.06742549931879445
0.07004503790357768
0.3738568323940553
-0.4978012625890239
-0.06753889311892937
0.1914833233227737
-0.2643912142304047
-0.08582631783903408
0.2505030509412431
0.09971448114484137
1.307645869234102
-0.528208375043588
0.6560843950368225
0.1368974067760809
0.07719610961634206
-0.1129060702875903
-0.1011874460928391
0.2275946683639726
0.3197945227289379
0.0161140837217041
-0.5635032748051958
-0.2442866113827666
0.2201951587077654
-0.005078835294953859
0.0291702879956084
-9.562535586563708
-0.5984533077597712
-2.686695047591948
12.84768394192977
28.07274179379329
-0.7326809601610421
-3.687360728167031
-23.65270010545501
-0.001744900071642278
0.1407427774242778
-0.06055754785580131
-0.07844032947835823
8.310773812695599
-2.36442933334447
-1.351140266459281
0.7000086061047377
-0.4118748350090552
0.2521716036074206
-0.5403053746674221
-1.21506583041741
-0.225051612019924
0.08604826879422757
-0.3511723319785881
0.4901756752280086
-0.09960956111489407
0.03233796517699488
0.06727159594008141
0.3548834621088308
0.08659741968662216
-0.4436227698394816
-31.82349826254716
7.020005173063391
-3.637602428170791
28.44109551764452
4.323692994234134
-0.6951600457931567
-1.787612675020696
-1.840920273429518
0.01747985186293379
0.01096595034490198
-0.02844580220099815
-0.1889453491479807
-0.004477662904750326
0.6131803033447563
23.64991439825157
-0.03509586162625952
-0.07102230062783044
-23.54379623607108
0.1988862802841459