/*--------------------------------*- C++ -*----------------------------------*\
| =========                 |                                                 |
| \\      /  F ield         | OpenFOAM: The Open Source CFD Toolbox           |
|  \\    /   O peration     | Version:  v1906                                 |
|   \\  /    A nd           | Web:      www.OpenFOAM.com                      |
|    \\/     M anipulation  |                                                 |
\*---------------------------------------------------------------------------*/
FoamFile
{
    version     2.0;
    format      ascii;
    class       volVectorField;
    location    "0.8";
    object      vorticity;
}
// * * * * * * * * * * * * * * * * * * * * * * * * * * * * * * * * * * * * * //

dimensions      [0 0 -1 0 0 0 0];


internalField   nonuniform List<vector> 
19631
(
(-0.04136727814661896 -0.02019922096961282 -0.0210925857691382)
(-0.3102854638831261 -0.01305585077423774 -7.484521588210177)
(-0.02077189113836829 0.02669227779563757 -0.03606384340331369)
(9.137698983179641 -1.480961979713618 -25.40231372139927)
(0.1697026832226348 0.2347992504630698 -0.267500037008318)
(0.03996622260425817 0.008012687747791028 -0.03322955278621002)
(-0.01097261355947772 0.005322284418437016 -7.511821254800209e-05)
(-0.1435202493039287 10.3874478820804 -7.589867633117616)
(1.641784606687207 -3.703418762215244 -0.5047393815761922)
(-0.00587119958960718 2.671200907085022e-05 -9.305579033700925e-05)
(-0.1016728039214126 -0.02586384289676709 -0.06457053762360818)
(-0.08973673569766026 0.05547974474926984 -0.1013743527908945)
(-0.07780752004817978 -0.02836217666591689 -18.38058773749718)
(-0.06811295326622829 -0.2655962684861654 -0.1070453621279953)
(-0.00193747538328512 0.0007016479392296984 -0.002483943163399473)
(0.8663591579985577 2.4200256479074 -0.7198340067088664)
(-0.07680551797364345 0.07608550951793774 -0.04330202154441068)
(-3.624207108622459 8.491123878316895 6.838539544006907)
(0.310065842644434 7.301783033094235 4.988820521692332)
(-3.522281159206321 2.687348019581372 -1.269199616466539)
(-0.0708275147099931 0.0372202280275279 0.04084018489796327)
(-0.2112164860265123 -0.04074149891160014 0.003448700537566941)
(0.3212709451763086 -1.043496874494491 -1.101510527917189)
(0.01545545814427028 0.004273399669093609 0.02778768414535331)
(0.1040313118886833 -0.4671893461098378 0.05108939251447141)
(-0.007818352720120663 -0.002648812128165129 -5.479953817350291)
(-0.04859120148646293 -0.01132545582814873 0.06991336956963431)
(4.581269933922304 4.971029599085012 -3.739610801048531)
(-0.3551534735817775 -0.3522598696408483 -0.06874757529874287)
(0.001794851268635379 0.0001033365809553341 -0.004479920240381916)
(0.06903610590956522 -0.001475473158421351 0.0157124799335771)
(0.06322719523693862 -0.1196195528635269 -0.04256507455031075)
(0.1259935384983779 -6.511372753142656 1.177599458703053)
(0.08216996396993226 0.01272851982989775 -0.001905172350557706)
(-1.058439329083753 -0.9009403597273367 -1.267069319621767)
(4.944874332126995 4.225999817594472 2.43199659008329)
(-0.004577395593000536 0.0001755489373683347 -0.004668212704124746)
(0.108557174956972 -0.1810554649659258 -0.6654641542173056)
(-0.1289128781654645 -0.1785361308337319 0.09238432967942128)
(-0.04241917459787007 -0.2118192999625517 -0.5418109736224177)
(-0.3675596223244972 -3.938758562592209 -6.424643938675429)
(-0.1356433711493803 0.02326295390646161 0.05143173080550297)
(0.004150880658990785 -0.0004569267757366226 -0.001284151879450179)
(-0.03815742574846373 0.003759720799259136 0.05904824168933961)
(-0.1457490794666521 -2.063767736877542 -1.539314134944085)
(2.656632277472395 -0.495674381147329 -2.039703943390843)
(-0.001106113953957305 -0.007292725292493536 -0.008744711783178746)
(-0.03160387121657683 0.02644351479965585 0.01701562020615682)
(-0.02691750295359492 -0.02297244357930324 -0.0412117535942351)
(0.0003283054695590246 0.04663662217846373 -0.004460079780878356)
(0.00749103714439768 0.1662868976799995 -7.212749917772785)
(-0.2028906286776563 0.7425666474482687 -1.050691720412155)
(0.02164078249164028 0.06224419255048218 -0.04962587557406073)
(-0.5087201294335796 3.882926432273314 -3.924244427781296)
(0.9820354845026281 0.9443055763660915 -0.1810811308423778)
(-1.153301185044409 -0.584593866091296 -1.353821410883223)
(0.04341850683386123 0.006278229432725921 -0.05701821463522316)
(0.3047131872569941 0.006247349395249915 -0.02774002253664528)
(5.810371529588113 -10.04676837447911 1.483039556825035)
(0.001494345837634892 0.001078623083598128 -0.004224869371668282)
(-0.0001348159389634306 0.0007452593828169395 -1.803050948937781e-05)
(0.7963623726095649 -8.257032230928246 -1.674430596235194)
(7.178510960967927 -2.654267032315515 3.575501696936827)
(-0.08925818451204 0.03735959583014918 -0.04174658706708882)
(0.1674316840947794 0.0009333160596070589 -0.06227015668271146)
(-5.787669490606576 -14.38527706005797 2.509664350778178)
(0.02861080818788424 0.005976007430806147 -0.04325532233891922)
(0.05067177025199876 0.0558999096643933 0.02247601364127375)
(0.06137297984641837 0.01850466450274245 0.09858586702801075)
(-0.0003043014278264872 -0.000295238997333147 -0.002601581426732849)
(0.001310037679162026 -0.001982380728677951 0.002536290399507054)
(-4.086511528558502 -7.329590683750394 1.320678543638598)
(-0.005153213667995871 0.006856072188612186 -0.06020727771676318)
(0.1360612101951462 0.1356077648154406 0.1245448986403742)
(-0.05348840543785255 -0.1878418449106962 0.2467218143085242)
(-1.029869278317167 -0.7387588528625244 -0.9249241390875316)
(-0.06080593162813729 -0.06307508651528375 -0.01134522751796942)
(-0.4693575415137035 -0.7559080781398375 -0.7441433686199062)
(-0.8888666835441306 -0.0799994534332072 0.05973829744231655)
(-1.887780962984051 -12.27620974854165 -68.69826708029923)
(-0.02063113976512639 0.005625359099029407 0.008527819619334173)
(-0.08054702390159779 0.01686561194420013 -0.06022703169257577)
(-0.1004207481755839 0.09039844804970597 -0.07300522424591646)
(-0.4921126857389381 0.04438375279446387 -1.385679539527226)
(1.489722634008798 13.32328531342874 2.231766602762528)
(1.919615442637572 -46.52612977912252 3.434990664618501)
(-0.1738019924523024 0.05324602477154979 0.01437663858014238)
(-0.2695494560184865 -1.508804814305833 0.6788489477415337)
(1.121371454969569 12.24827669190489 30.66737117786997)
(-0.2022067327225713 -0.01917762944463815 -0.04852798547547615)
(-1.140010496080907 -5.711739344466068 -0.1506386274492628)
(-0.0491794319634305 -0.1117983216022856 0.04302574358133279)
(-0.1488027321442191 -0.07803795451140191 -0.08923388489958037)
(0.06786373836535546 0.01690188523959573 -0.02874970960918367)
(-1.873135826896796 2.244330147936901 -0.6918901641929485)
(-1.969524984917497 21.05370907775823 -1.924990119926913)
(-0.03051272120207033 0.01230047526549157 -0.005974840101886426)
(0.9940022693993231 -1.355260152104595 -27.48558976070432)
(0.01543929655634518 0.004023543917062514 0.026483264487578)
(-0.02570924209949338 0.08145460992005348 0.0294977468539584)
(0.00948975439953856 -0.002091744685172287 0.01017238276813782)
(-1.473441564286928 8.784861268931662 0.7634625084501919)
(4.029241096774804 5.739357422142298 -1.550257705395377)
(-0.02907205641895387 0.009731771237955952 -0.02472186313360183)
(-0.9411787203330467 -9.842424326515317 0.02887620755456299)
(1.042777271117156 2.331575239846466 -3.054648337361906)
(-5.438121047127276 10.88907822482133 -0.07665921655870123)
(0.028239944284704 0.04100793156850004 -0.009245865377825034)
(0.04542527117144175 -0.04756549205442821 -0.0143536425127632)
(8.783267016289734 5.63762515124245 -13.34208686883973)
(-0.02574998340937742 0.2515899329451365 -0.4433230706805613)
(1.329558859761305 -6.763050373436431 0.4300082550298059)
(-0.01408721635768322 0.2472077154550723 -0.06560995525616314)
(1.34521048100029 -1.673370702490387 0.8197983367930936)
(-0.01006613223255602 0.01218847229658093 -0.008770640729021046)
(-0.7241418182862533 1.023302160967716 -1.199571409531768)
(3.853387777917535 6.592353671665569 -0.916853196908697)
(0.03561214073564598 -0.01205059873707977 0.05090399375926642)
(-0.02119909475473747 -1.479649106367228 -0.01700292813695004)
(0.06428894484955232 0.137941280250881 0.1629248393866421)
(0.000562354660948651 0.07241004059626427 0.02111475670168466)
(-0.02700913783587462 0.007343546639540562 0.03345031432498712)
(-0.01559660514800638 -0.03624999236028864 -0.01690072502569085)
(0.794421358109337 -3.802261853012138 -5.475650680522559)
(0.2993558064070249 -0.05324938992253195 0.04550490709172898)
(0.09895883761120031 -0.02248157382701178 -0.01294321321435346)
(4.451991490013216 -2.496401033622097 -2.301666339122841)
(-0.1367056648547854 -0.007283808355822919 -0.0163865038082409)
(0.001369060351049481 -0.001078275028444104 0.005206946842124869)
(1.100674658100891 -1.82300324176454 -1.642666576847832)
(-0.02842264868086548 0.002142234690194648 0.006568306253919081)
(0.04542037026988877 0.03863292687845244 0.007907934571749086)
(0.1274232266035838 -0.1920993127683238 -0.01764594708047949)
(3.514836399617281 17.35051471006772 -2.029834548164017)
(-0.07641562646488442 -0.05704219813510439 0.006580363990404195)
(-1.322244162022227 2.013324971802826 -6.343506929869546)
(1.005623864884112 2.388169514844485 1.342047425757863)
(-0.2892914763709939 -0.1744038047809708 0.131763616750086)
(0.2772224900672629 9.637417913837904 -45.22096952306082)
(0.02028669113486625 0.1754435658103686 -0.1177904634650008)
(16.60227449099543 5.560787072454426 6.838074734183128)
(0.6792333881425291 2.561470643520142 -4.52536612087551)
(-0.3084762470670628 -0.507092304259749 -1.734417160492326)
(-0.0003992150711642235 -0.007080204988057863 0.00815768637945774)
(0.07806919599362783 -0.04031822791996781 0.0846719292300252)
(4.687459199080947 -0.2325833827685341 -3.679946271318431)
(0.03033807681185949 -0.006455898695305886 0.01628497292125092)
(-0.004587053595769277 0.001928172119556913 -0.004822306733655703)
(0.01301157520501432 0.0004849311236154296 0.005438852848212163)
(-0.0154352230956285 11.36516221828355 -3.404078968583933)
(-0.1660265231101019 -0.07914553238966734 -0.007546460835372318)
(0.05064541782644529 0.01692993838267499 -0.007861450009748701)
(-0.06783406412901251 -0.06428817653768766 -0.02601555842742555)
(-0.1034978567218193 -0.02489329419973364 0.005721067291252472)
(0.06454824786585532 0.06845897530570753 0.0079832429730822)
(0.03587599904714618 -0.04454090155966615 -0.02753709695770147)
(-0.003174067938752067 -0.001673967706746771 0.003193877136350876)
(-0.3266862323614864 -0.1289167357986413 -0.8733132666202654)
(-0.5223968649264531 35.91330610800337 6.270722937849404)
(0.05136084590657367 0.2735644047563714 -8.861660310119401)
(-0.06231138113756889 0.01463440710757873 0.06308441798148681)
(-0.001464198603539794 -0.001795744117900709 0.000208023386151317)
(0.01901398391679247 -0.007465583826202859 -3.373767402957591e-05)
(-0.03550330377597877 -0.01498389364292939 -0.04113904136528578)
(-0.006565272702062433 0.0008592095421563022 -5.54458813505929)
(0.00120779444893723 -0.003043291847292364 -4.917374597727969)
(-0.00725493614445611 0.008748858959528861 -0.009429220429013358)
(-0.109536491220064 0.0001237370219020432 -0.01387718162518191)
(-3.237734269164755 -6.09891688705325 4.90612844159519)
(-0.02983206020907306 -0.02053952170629389 -0.002204126616685578)
(-0.05887511118126616 0.0676763906748479 0.1198018963844)
(-0.04100553500545408 0.1495749656858543 0.09737673525595261)
(0.01052565617984164 0.05921938111252655 -0.03353424857365677)
(0.0805573347728063 -0.06934296269793547 0.06319282112214694)
(-0.08126005183073394 -0.0292373258548202 0.07611635890648438)
(-0.005148366022397849 0.004739765138544703 0.1583449093840929)
(0.003996035487585439 -0.006420913491543508 -0.008217496804370198)
(0.01553793426983856 -0.1008579258273156 -0.02122883916982598)
(0.08192849472376788 0.01187801717830687 -0.06633544101592281)
(0.01822317778822169 -0.4815588147384322 -2.419985698968325)
(-0.05041734726382174 0.01923135328538044 -0.06291725249183623)
(-0.001073367789634636 0.0008034944906811241 0.001957686484348062)
(-0.004619458592220418 0.004439611818029938 0.005674327087799999)
(0.008628618840441367 0.03403479586771309 -5.608862669787077)
(0.0012406346168911 0.0007552309236395489 -0.00123762373470919)
(-0.006095160130345566 0.009398239549712044 -0.03362704965163516)
(0.01824118180210538 -0.05823944312909934 -0.07376838080859126)
(-0.09564711236373949 0.0173494235650226 0.05344645029899196)
(0.0126979622929943 0.005774122887059941 0.015942022149713)
(0.07506573966249969 0.006839199945019806 0.06079765622289213)
(-0.03948630248856276 -0.007488625492421058 0.004735240649016351)
(0.04222475355634607 -0.03979734612706001 0.05607907582874776)
(2.118254604565604 5.124330599669025 -0.952342039588381)
(-0.01158466431557464 -0.00517412669873457 -0.00202569694271688)
(0.1410889226432072 0.003047389685656487 -0.007668694908232701)
(2.009329796412562 0.9106557818785156 -0.6385619676430137)
(0.05364403122639176 -0.06035293485460033 -0.00547701426816441)
(0.0001569447905990957 -0.01736191441701011 0.003742481880198088)
(0.008306589286103911 -0.009346591711999926 -0.000555974567930103)
(-0.0006181904573238327 -0.02956191523920847 -0.014379748093473)
(-0.005059784615668062 -0.03667330113844076 -0.05622463201465443)
(-0.01009125278808644 0.01885099996407022 0.02851221814925051)
(0.0159685471603077 -0.003142278034234294 0.02524161871311123)
(-0.04647867286923221 -0.04533590012671807 -0.04969569569203372)
(0.003408210593960343 -0.00531941198193267 -0.01898979807587997)
(0.2013277183902707 -0.02693229260533698 0.009819428670128692)
(-0.0929826213241271 -0.1019334208593689 -0.03870644240992942)
(-0.08598470204358608 -0.1918668470104508 -0.002018421733074083)
(-0.01113812619560109 0.01426713058624159 -4.85678858613346)
(0.06886917050292521 -0.08826245649181703 0.07610442123036916)
(-0.004996357643204274 -0.002289793439071629 0.02602030621054031)
(-0.3267117067491809 -0.1234307388673946 -0.1132247377043633)
(-3.369149376662269 -8.731082208007624 -17.65274723896773)
(0.001240788557720059 -0.001347529077858856 -0.0007926806508259578)
(-0.7452944154635098 -0.2724489669687436 0.1943820410293363)
(0.9279126598188929 -1.118680770394138 -1.746749418784476)
(0.006108776638699878 0.003359008192526112 0.00179534381330875)
(0.008024638301051832 -0.001972035412185843 0.002702769301280712)
(0.00579692338132754 -2.772032555626094e-05 0.0009202124171563391)
(4.22057369881896 2.636805585424752 -1.705644070481983)
(0.03195686856646326 0.00713042523986442 -0.04636415406974253)
(0.001635682367198542 -0.09056792330388072 -0.1370262467414907)
(0.000709888332022836 -0.01293344151834025 -0.002530171541124882)
(-0.001493886454807201 -0.0004347578667567924 0.0009357152778361611)
(-0.001182706892552429 -0.0005415906949802225 0.001371758950090359)
(-0.1935869298558206 -0.01583382586912321 -0.03691414900595998)
(-0.0284764090869726 0.1088076902480442 0.03306992495201645)
(0.1099451549188343 -0.04138933226837957 -0.001107789705377324)
(4.114485174133033 9.000834104566644 12.76792406441624)
(0.08712650071804159 -4.907932310058374 6.066188917351279)
(-0.01906630064391344 0.006110588138886241 0.01170172201599465)
(-0.9218743899757269 -0.98089222587389 5.054957346309922)
(-0.7650618272647555 0.7233267845380512 1.530789803933906)
(0.5264653090876279 11.47888190202068 -2.387112514764531)
(2.864419704891213 -2.903549826175946 -8.357803216045587)
(2.900264825469838 0.0505222977980061 -1.996903317598575)
(0.4677553211747467 0.8802409501072167 -4.367888847019385)
(1.540028519130167 -0.2523820191526246 -3.686831316846715)
(-0.1374274373919226 0.01841656178310536 -0.08670407003146854)
(0.5409350582798371 -5.514084828377321 1.63738880761988)
(0.01320404820471209 0.006113430455708909 0.01139571590281454)
(-0.08177714315085143 -0.02373359713817175 0.1471158657077106)
(0.004201127825969812 -0.006241911692164348 -0.0348911607527617)
(0.0151889561339852 -0.008744567898456051 -0.004752655525349217)
(0.005768269717067372 0.003555605170608748 0.008466300579733852)
(-0.09600356825530751 -0.1347933406269386 -5.01953793620104)
(0.0007500590112499415 -0.02159989690562989 -4.860771145693299)
(0.0005688915953671026 -0.001707618298532519 -0.00860576624697719)
(-0.1851734146259326 0.3682787973171216 -0.6751227634946753)
(0.01213420460025953 0.01383181846454404 -0.004910279238321364)
(-0.2734607575778381 -2.770855616943239 0.2669426542034158)
(1.019906671732689 6.816605657200674 -0.8696776071872202)
(0.02090183852665864 -0.06051111810292175 -0.1766609889945562)
(-0.3144529305193624 -0.2613272215805832 0.3071167928552673)
(0.00974977968027246 -0.01200580860327865 -7.924850822763396)
(-0.5147639500567573 0.6037477003963649 0.02525682880682062)
(0.4820392030287953 -0.9677080840445957 -0.06878843697187348)
(-1.146830472276587 -40.33209526627181 -0.8470300789426178)
(0.1441527546711199 -38.11236306370115 -3.095816668811108)
(2.302959292373655 0.07559471550453632 0.3750430565019962)
(-0.004117214796721988 -0.01068717794355378 -0.04245018023815927)
(0.4496883045297797 -0.1254137084086915 -0.07092976048043856)
(0.168832000781055 0.1537316389990374 -0.7534484542751327)
(-0.43660265490075 -0.09469890744885102 0.1893701300920862)
(0.02071434968643122 -0.002797030000584864 0.02685037451307216)
(0.06660926695028527 -0.02453192763568095 -0.02815264984539483)
(0.04346021291795246 0.05693044120876729 0.04213787726024289)
(0.02553192340284269 0.1321463283313498 0.09908100588438981)
(-0.5935685314851047 -28.18142142853659 4.365211916355482)
(-0.2880681327301895 0.6211223188905748 -34.62212791233592)
(0.9187008283353308 -5.76264119130749 -5.07955595774374)
(0.3961489810574679 0.3351088703438492 0.04705548440882076)
(-2.155966257122978 -1.316531973838862 -2.627491852617265)
(0.0005502798341542993 -0.001288476842363432 -0.0003690630222559917)
(-0.9102505859230178 7.412968443117128 -1.292229001780985)
(-4.067014899202605 -47.5746760944899 0.2840591495554593)
(-0.008671136251810483 -0.00475795417009486 -0.001482995654460086)
(0.02589216305923683 0.05151919623227731 -7.558339810208143)
(0.3024760728610449 7.998219915293635 1.406661394928409)
(-0.005560547820377995 0.004626657422995496 -0.004357746803481907)
(0.6947206490522324 -1.974829963878682 0.7561328088711241)
(-0.1525871981707703 0.003934109985701241 -0.05720701110779527)
(-0.3115066237824222 0.5018463694865841 -0.08615008792522583)
(2.70345876916924 2.329074568138174 -44.66518053804365)
(-1.087415598353537 -5.075727343023734 0.2727475593301516)
(-4.477113272541545 -17.94065932983822 -1.989005727865929)
(-3.056936804863087 -11.29776573281424 -45.04245211720787)
(5.955903722860734 44.81125427061308 -3.725484111460151)
(0.2093516097769111 -0.1495250101279711 -0.08099638395586931)
(0.6924714754204967 7.039181919982461 -1.255649049994658)
(0.2103227069567397 -0.03161833282077124 0.02396101567541025)
(-0.08018693703319929 0.04732632796170599 0.09673216112842117)
(0.1257785712487485 -0.1579735774323472 0.02592483326992614)
(7.46456653130473 -10.50685838465991 -52.97822342527964)
(-0.0925814305164859 -0.06191020640268501 -0.02134581361209494)
(0.0001386712750845054 0.0005863949222126933 3.829042915965835e-05)
(-0.8913775946173166 0.3968866421614575 -0.1387849968191789)
(-1.248750284078869 -0.2153419535920354 -29.82869024183418)
(0.06287987099522097 -0.03859615898113226 0.01158033382109295)
(0.5832582307114467 -0.2298312193754246 -1.0154697821779)
(0.07778012393959677 0.9029948852303017 -0.7980836073684212)
(0.8366325110208436 -3.639194397690702 -2.825503076304724)
(-0.05953449403957202 -0.500759353557275 -0.244744968788482)
(-0.002128239307782233 -0.07069717979076925 -5.609587770419753)
(-0.9665463674786091 3.813319502266327 -2.019623531853866)
(-0.002327537849727467 0.01065674449943287 0.03230268948496662)
(0.5998088313330767 -3.273862222110247 -0.175631902227077)
(-0.5348630334275909 -1.132393435995326 0.345781208496439)
(-0.04352476808375429 -0.06549995002146367 -0.04997343399470813)
(-5.594238597869549 -1.234133687132011 2.337904290599192)
(0.3329333384476694 -0.5560869004271258 0.4935267002710926)
(-0.001044616140292728 0.0003817186915023038 -0.002183386658373773)
(0.005831483749947774 -0.0007586799054706678 -0.004654152420353387)
(0.03352505850965661 -0.0006907674444788861 0.02169909241732378)
(0.2526607687128136 -0.2227260557017849 -0.4152237098390702)
(0.3455306655387758 -7.415624538239499 -5.360104984715864)
(0.9166756272370855 -11.52788211669317 -2.552113623113198)
(-0.6473092079298224 0.6138447371299135 0.1865541338075323)
(-0.3370561363644556 -0.1581194391851623 -0.0005721098577092798)
(-0.01421337149374147 -0.003249657795848201 -0.000821460784281055)
(-0.2176440585443462 -0.06564344137716441 0.08937174615743904)
(-0.001249211861008386 0.7548171106927716 0.09822001669042985)
(0.06128827909609498 -0.9612624134122321 0.05582764450779792)
(-0.04117325564128298 0.02448038630392234 -0.03326806244163946)
(0.1498323871906651 0.05798039071007632 -0.03471756694560978)
(0.02204621506782697 0.03405760363895535 -0.0001240899741730243)
(-0.1913603730447827 -1.264265022632688 -19.09477429801455)
(-0.01347533108627507 0.002878673733480159 0.01030210677447206)
(-0.2141403861500728 0.2171913987099627 0.1913980304771262)
(-0.004991206178721335 -0.0008028376672989499 -0.0005104889014131034)
(5.217358288096196 -0.9788374925330254 -3.35663806116262)
(1.772417597608801 -8.071273539832886 1.113425614274486)
(0.6060273065464967 -0.336544695097746 -0.1120474429922295)
(-0.1589857303824721 0.008575103210811093 -0.2230395553362261)
(-0.1058904483029162 -0.0238241436859774 0.04791555235205692)
(-1.693750038217034 6.406182762632642 -9.02398154586014)
(-0.06749758719028037 -0.002185215849472953 8.810735772515205e-05)
(-0.3952950061771053 0.9815270046387388 0.6326400583378043)
(-1.612160902084151 0.1122123637076943 -6.466546503385104)
(-0.003296570862891213 -0.01252134968502546 -0.04732034256476669)
(2.635117768150569 -1.20050285300094 -46.56696842422743)
(-0.007167229502701685 -0.06000845692561106 -0.02924013620215741)
(0.005193692198073083 -0.001166930775187465 -0.00167975697051527)
(0.217238215878338 -4.474592493039799 -0.2015085121071273)
(-1.285695172185996 -0.6540944041842456 -18.0346213497568)
(0.003717885530568787 0.02249921719657859 -0.02362824411214904)
(0.04339368302171703 4.187158890820054 3.160376335743835)
(-0.03575414797466841 0.02177435624433277 -0.04339379775737622)
(0.004428899487538619 -0.009958138696876388 -0.00379640454308086)
(-0.01495031883216534 -0.01690647808827106 -0.007543311562193018)
(-0.008871293684642673 -0.004453275282352901 0.006406743073712091)
(-0.001619666622869132 -0.0002645475001897378 0.0005724961548027515)
(-3.50858126323613 -4.381734262275129 -13.39378868241093)
(-0.4875799719899561 0.3254228304251133 0.1424297782046163)
(0.04933978225813503 -0.03318447186595604 0.01687037905248352)
(-0.9633713204703503 2.747713341232023 3.717533007973979)
(0.08311434688933823 0.02575917414301202 -0.0009299162019745372)
(-0.0399256637618271 -0.1124161960458118 -0.4240306446995021)
(0.7052337273777449 -0.3730358370926821 -19.46639817369745)
(-0.2141733039835483 3.389917331447987 -0.3940307358842779)
(-0.9028184531141911 2.098112550251999 -0.5512574416371763)
(-3.786671963222608 -4.049328248795754 1.440981575076981)
(-3.68691426235856 8.580044071714257 0.8701197762140115)
(2.230712560723915 0.6877040813775911 -1.2683759730152)
(-0.002473558513840887 -0.3454010122700473 -0.1253772247457876)
(2.580099738427008 -11.33180845664569 -8.077284614070473)
(0.02274143007705063 -0.02468506013768506 0.03524081239537831)
(-0.1669813280232113 -0.05888947872457284 0.01375554641152379)
(4.657942325216752 -7.776741712299578 1.017838804927113)
(0.162695261786556 -0.1686385991999544 0.02879436762968927)
(-0.02576524489397262 -0.1280161343755518 0.1258188659632403)
(0.4349554913854291 0.2663769079133125 -0.2615959810923205)
(0.2548498362942114 0.8808473234893271 -0.45220037736355)
(0.002649444332839691 0.002626525051913502 -0.0008187280104756543)
(2.260876921405283 -5.320512593008573 -3.955881335241365)
(-0.003112958992701203 0.01609772094039456 0.004076518033444652)
(0.1516561390196035 0.1263353181071257 -0.08030893315423551)
(0.001810653576584537 0.00194145288811846 -0.002413080296297063)
(0.8425105908884662 -0.2822699624225891 -17.46941795650481)
(-0.2678424495233711 -7.04013607510842 3.579709225964082)
(-0.1531702736430138 37.44063993566349 7.794418857881009)
(-0.08104767681423347 -0.004239000355814572 -0.03147246384539064)
(1.689877857589219 -7.793689610270073 -3.929262006626236)
(0.2848923810560965 -0.1038957574444534 0.01406719686355304)
(0.204702607947137 -0.009179410631322604 -0.05584953370609716)
(-2.627072385757767 2.965327990032439 -0.9967317590171884)
(-1.759444705816945 3.483881481366585 6.903967690375332)
(-0.6594108636637375 2.787325620224915 -26.76427748251347)
(-0.6424756994081877 -3.701617812075948 0.09471520308687326)
(-0.01035575587408641 0.02302395245596168 -0.01174366966102591)
(-0.07153351356662209 0.04092763650027985 0.03556493998023295)
(-0.01098437188354981 -0.1449986933699992 0.109862262343243)
(0.0298022915656268 0.01703324089849428 0.04807091072314623)
(0.02886475123281231 -0.02745965334536761 -0.06663377568866849)
(0.005425108679479912 -0.06172824628313828 -5.498521789036552)
(0.005212352426985942 -0.0008649771054610785 -0.01470208173319448)
(0.0819158201034229 0.0104257284436623 -0.02793169101414527)
(0.9587665357026033 -0.1041762092253789 -27.18750966959535)
(-0.004216470078423524 -0.007700917367504153 0.01103604613643283)
(0.1089853144365905 0.6439524838485196 -0.3250486660862564)
(0.9464367101600102 0.1476107523878792 0.6766025641813612)
(-0.1488847212727404 -0.08754648805323462 0.04565560835961802)
(4.820070994544924 -8.794589306110703 -0.6341280365008242)
(-0.4664225278857416 0.1531930725241314 0.03891801139199492)
(-0.5833572715975497 0.08744885304470217 -1.015515766833536)
(-0.1039766085076259 -0.05391767753121625 -0.007736425462279286)
(0.08225075868943853 -0.2451592369972695 -0.1616055887872652)
(-0.04499320054030484 0.02101886657884613 0.0313468675174156)
(-0.2138890839816068 -0.1895682873286149 -0.1154588719225597)
(-0.01111659932034761 -0.002888775255189044 0.006367133297696422)
(4.124554455250246e-05 0.007955443860879012 -0.008100326017103266)
(1.541631436379315 0.9077721369108426 -0.2328619531500524)
(0.003344432436187063 -0.002667805364155883 0.001423789098883376)
(-0.1168555482404851 0.09117699543628152 0.01493425467806926)
(-0.0006447061393562999 0.0006449612791195001 -0.0001817698712027908)
(-0.04328395046236406 0.01162177826098756 -0.01928875240583713)
(-5.91680342184745 60.16137176156387 -6.93602646317718)
(0.330913605092824 -0.3379743310088881 -0.8619255180373228)
(0.004283810533358742 0.0006165092996408498 -0.0005392522246930691)
(-0.02967157875292954 0.03291234682053319 -0.01084518172731206)
(7.895220917719935 61.62202682094524 22.38747081984289)
(0.05086974678082025 -0.1218098060548553 0.02126145898647921)
(-0.007170462731682141 0.04308186093103414 -0.01556894629295218)
(0.06512134020279571 0.08277831771308172 -0.007798332460948739)
(-0.002642868346218851 -0.009514141132464248 -4.994980706416731)
(0.1346245914608214 -0.2682406815126747 -0.3805390722560681)
(9.175708952544122 18.35674920698693 -54.70871600636694)
(-0.3783741803982679 -1.228418850027044 -0.8361950815525954)
(7.25396578170592 -2.857090696898808 -2.538091774164856)
(-0.001468909868380055 -0.009313868712796616 -4.798688858437552)
(0.004139860017662785 -0.01904082043745001 -0.02021684952554864)
(0.5742091216723608 56.58119308395828 7.484788271427446)
(3.004344142861556 47.77809317925104 -3.050491446849434)
(-0.005497183088096075 -0.01382589854092309 -5.005690860585965)
(2.04898134955147 8.421158263977855 6.148210024322768)
(-0.01828688689098017 -0.006201517037204997 0.01619414418123924)
(-0.6900974241960519 0.2438130517593678 0.104787028402652)
(-0.1904474230434223 -0.07785404995628931 -0.06991385237216721)
(-0.0002250313375600103 -0.0001497476847262679 0.0004037847418785773)
(-6.617151054447614 -31.83593042806598 0.03910619486909606)
(0.4035441098951794 -0.1713967656300233 -0.09508097397982683)
(12.23032208211925 -54.26170557225542 -10.5013043133455)
(0.04135445268450874 -0.03403415074900139 0.02082216372646894)
(-0.03924801405766015 -1.181672990006402 0.4828346290410858)
(0.6356736746546541 0.8832148187711409 0.5298803071200812)
(-0.4083172809495809 -0.1520457912360661 -0.05887875132485775)
(4.503841085076179 34.99018452674088 1.491966735658997)
(-0.4833343595628822 -1.221617859231453 0.5720446418799849)
(-0.9965967078280766 1.325040819334687 0.394457297919856)
(1.211342780692971 0.9935024725586583 -1.468326427990699)
(-0.3022115673601566 0.226794641714282 -0.2841530054226339)
(-0.03284236534528146 -0.2438447182179748 -0.452268332966599)
(-0.00328424349738008 0.008861290380467002 -0.002790656641223365)
(-0.3843740064057948 -0.1771593880439371 -25.40669016822907)
(-0.5509456464010846 -0.09794516012233132 -0.08312409651211042)
(0.01331740121563631 0.002557882103009662 -0.004714042222293546)
(0.05618660736826208 2.052642151369796e-05 -0.02101363525718335)
(-0.008764741278416213 0.1235223593661001 0.04219623736555869)
(-2.033232123023131 -3.66851088569819 -0.8555635811636537)
(0.002069275734266844 0.001734776393422443 0.000677896082523141)
(0.08887473174585953 -0.1988302652886127 -0.1977529584402551)
(1.962140243932554 16.66602962513003 -7.310234172639035)
(-0.125449165125216 5.147382982750717 -0.8105284836891414)
(0.001986686393990862 -0.001383908573443372 0.001581158396594149)
(-0.4188982623644177 0.3361438714073816 -0.1866835820325722)
(-0.2943641764702939 -0.7941881879144594 -1.778151516586142)
(0.7216804695037343 -2.667700271586144 0.3172549794153551)
(-1.817527690495556 0.1116947887583588 -1.890795325923164)
(-1.684623720910292 -4.465258688425645 -2.59082435456193)
(0.609775898216587 0.789217801264107 -0.5282711697315899)
(0.03256382298055752 0.019077212562418 0.002160402851857264)