/*--------------------------------*- C++ -*----------------------------------*\
| =========                 |                                                 |
| \\      /  F ield         | OpenFOAM: The Open Source CFD Toolbox           |
|  \\    /   O peration     | Version:  v1906                                 |
|   \\  /    A nd           | Web:      www.OpenFOAM.com                      |
|    \\/     M anipulation  |                                                 |
\*---------------------------------------------------------------------------*/
FoamFile
{
    version     2.0;
    format      ascii;
    class       volScalarField;
    location    "1";
    object      p;
}
// * * * * * * * * * * * * * * * * * * * * * * * * * * * * * * * * * * * * * //

dimensions      [0 2 -2 0 0 0 0];


internalField   nonuniform List<scalar> 
19631
(
-0.03180189363789301
0.2777791400402762
0.1164524116605594
1.814566193096274
0.1587849398044523
-0.464788527983949
0.1883688728214366
-0.5600248969999286
-0.5019609459121955
0.05875028257796103
0.4243888466595204
-0.2727418959564112
0.4470960607089882
-0.2117687303640175
0.02271054262210141
-0.8690025026999113
-0.3104219080942599
-1.159482027312688
-1.117242626377751
-0.3071810737999882
0.04747736115393245
-0.1649698190443838
2.206453341697094
0.1010905271553099
-0.161954332518266
-0.1190009285287374
-0.3683696909637418
-0.4938311485364618
-0.3727559512273823
0.0001802183364600397
-0.209756316814021
-0.2187463475510563
-0.1747963062796126
-0.05416550540474303
1.478148823955134
3.001816520004981
0.05334616082998203
0.6099110358324225
-0.3964119850912137
0.1270110971325355
-1.101055144338874
0.05722020520404668
0.00266970581788656
0.3951885792394957
-1.0421380577695
0.260147535018943
0.05192563899753762
0.09359842148340652
-0.06532467844792929
-0.2573753923278496
-0.1285377154563417
0.02048492731084468
-0.2400496821455835
-0.7213298733949725
-0.2805042125662277
-0.04443135024800714
-0.3345665347127859
-0.3139461228490686
-1.347339162713639
0.08042144927730284
0.06966454078497243
-0.350073992393972
-0.667239570921313
0.05838833869334841
-0.1727812182068279
-1.268357979109213
-0.228594336410521
-0.2029189409128492
0.5068688409904168
0.05715734940890395
0.06632372824188079
2.121788402674021
0.1017448457909473
-0.139026075810014
-0.1569368651044672
0.205043558920534
-0.2375306016963573
0.1704358814562376
0.2250345153373259
-1.235690989363158
-0.04094683303031534
0.0681256463938498
0.3204649119566006
-0.1115649235870341
-0.5576038146686931
-0.424971906910414
-0.2208606440188279
0.2904312748610215
0.7320675762666082
0.006408981099395378
-0.03759579075455304
-0.2254926869242543
-0.2031074566102687
-0.2388813721353689
-0.3695346818629209
-1.701708696627243
0.03942916759935058
-0.5744583491325748
-0.2175428508644252
-0.247632839025161
-0.1280617290372297
-0.4677088312074309
-0.3493348290683487
0.01548109897685806
-0.5434534139195198
-0.6440218703382867
-1.005207665183523
-0.2025185450052853
-0.1612630165770371
0.2763589606460588
0.4356592586756531
-0.392872509278251
-0.3260515323774837
1.192352860073034
-0.1081379433279625
-0.4997580535673602
-0.4262387982122862
-0.2246551429941442
-0.6484358330101596
-0.1646868222128749
-0.1952796442347162
-0.2232425856463831
-0.2506284749374218
-0.4907078862888576
-0.2189864804087003
-0.1426891383200882
0.6555662726338833
-0.2092025289224733
0.04214619955281432
0.1230718300573582
-0.03485825347043062
0.02489695176688566
-0.4808058102756271
-0.8981529708418418
0.1428572288793755
-0.7599701678830881
-0.1497791627415611
-0.163216013434355
-1.790557538250207
-0.350473915443018
-1.589894367638936
0.1301241995700973
-0.2227997347075703
0.03480510931134978
-0.21286458744276
-0.7365571120882711
-0.05272741427622176
-1.189666028194605e-05
0.1390868986239026
-0.4114389677044863
-0.2226468344870876
-0.1865095876251689
-0.1900993812015264
-0.1615534854262336
-0.1903902407372108
0.02227204538539345
0.1668919625708999
0.1602037203020941
-0.1614360391669865
0.2266376640007057
-0.1644138298585891
0.1752947544659162
-0.1518422638355585
-0.2022706270351392
0.03789873378661161
-0.1488944813145901
-0.2502865895262495
-0.02814276140001057
-1.136388563467449
-0.04501171370318105
-0.2852829596697753
-0.247552809704987
-0.3195335948449907
-0.1708169075560384
-0.1892937534738048
-0.3029552468287696
0.03220556440493678
-0.1811548089779451
-0.1299037482271886
-0.6142758720835383
-0.2854980063093583
0.101625325115958
0.09043163705002302
0.4294813823376987
0.09092381294818698
0.04055343184811143
-0.06384218992838711
-0.1816890875034735
-0.2227644037205366
-0.1451116684018161
-0.1908398705085173
0.09446062677133264
0.1592210921394785
0.08067095193283481
-0.2684610149682116
1.330717630888851
-0.2608404338915365
0.1167119145026106
0.2940658170083429
0.3065381909317699
-0.1625147646637387
-0.1840229913409743
0.1435393386503263
-0.187826024189076
0.01523851964154005
-0.2472778650354538
-0.1407574119480539
-0.2232540754505032
0.1041992960867025
-0.2484561487381744
0.1225813574192569
-0.2275403567253609
-3.736766908143458
0.005462955880674634
-0.04983140954655602
0.269745637421116
0.05797293157886175
0.07443295546463302
0.05441067945593119
0.3392093668970038
-0.003578928891803624
0.9417951415472767
0.2856185439402028
0.02784813619134546
0.003907883629519973
0.06629257541322409
0.1316085686453534
0.005929704375628549
-0.7738801843464075
-0.309174906031306
0.1574910566440438
-1.388266838267017
-1.602960947364701
-0.03021780005508157
-0.3333627039741184
-0.3372187960578463
-1.158963722460631
-0.3632886172839226
0.171903502617661
-0.2105873814472988
0.2450832354754973
-0.3346221283620225
0.004217887630672473
-0.2228178381068743
0.144829608383345
0.4059146007332463
0.1117386605661767
0.0437143139621659
-0.4508441927322157
-0.004491148526445296
-0.1730916869641107
-1.380197968909183
0.2209880766883123
0.1229969370328852
0.03587940121029733
1.402385850071543
-0.0716823081306405
-0.2623468311506442
-0.6995278777356534
0.5373093726199827
0.1783639929903106
-0.3838750874479857
-0.2606332819159315
0.7354989532364568
0.1273454079710269
0.03260389798035142
0.2601574388486064
-0.1430269309649424
-0.1779071197323518
-0.131072258327777
-0.4271563286329724
0.1817746637236097
-0.1381120475242953
0.05456210909065398
-1.024242993521222
-0.2550980559745173
0.1517856641605236
0.1839617469547256
-0.8768655062642139
0.05529827014750503
-0.3124667868537046
0.1234055696454944
-0.05791602687408721
0.4340223739865569
-0.9844885227241053
-1.096799587846119
-1.458639158627155
-0.3577930042470501
-0.07050618780851903
-0.3508260307602231
-0.3853177554480145
0.2673156097859936
0.1060972118938033
3.526839882008767
-0.4763992317380337
0.04524721370921035
-0.675841799714477
1.024838661312575
0.2314118391082414
0.3369565180912589
-0.1432784118742262
0.02538304728500075
0.001050922593896528
0.8186984187695521
19.0108502997132
-0.03912878883803583
-0.3124094220297223
0.03935130605105429
0.01486070968535742
0.4383006074040324
-2.680994435339657
0.04619119630549052
0.01715543219769469
0.1972486102460313
-0.1867896924811606
-0.925536198743549
-0.7234208531877927
-0.5856741984981508
-0.4861468532843913
0.1069328731084448
-0.320391705763523
-0.3799078159575252
0.003195611137271486
-0.2618220992599639
0.1977912124495938
0.1154946168674586
0.3865815097670119
0.1622587706750376
0.1230847557558247
0.03730168721951062
-0.4491056650666877
-1.028128285484788
-0.1060716338455785
-0.1930173255243999
0.4525105767847145
0.3811867057147266
0.04885211295658067
-0.6888087861724687
-0.1324237571110933
0.05516512405232247
1.157647367305757
-0.130262990579542
0.1140517144693974
-1.554031396786306
-0.4306601511807099
0.06584864018694465
-0.3605157954677058
-0.1434467483651419
0.0819399215134354
-0.01183958273082498
-0.1431393926959655
0.06043263767068146
0.06471475324829154
-0.1241850584658856
-0.06654020065838663
0.2226515115752423
-0.04164086532156528
-0.2395365431220729
0.8946801968639424
-0.5797465669580046
-0.3428485162782268
-0.9396502728374145
-1.01773504795112
-0.06184082225486136
0.08871170967448373
-0.6444682155209412
0.1145273209381849
-0.2070872713926712
-0.674498105891572
0.03010480184916281
-0.1415979529149083
-0.08819980582283887
0.3185941772360384
0.05099674669117388
-0.7229472013006408
-0.2047221175088703
-0.05818364843101464
-0.04477688520519219
0.7281507871333907
0.3697572406142027
-1.404764607048214
-0.02903527517792252
-0.3929940458375885
-0.1925814152184806
-0.02139382229956664
0.157979227786068
-0.7725349544412879
-0.05782572158916047
-0.3421019090680915
0.1170912157581499
0.129227183650178
0.1978614759149427
0.005098585231649183
0.2949094258992993
0.2780980255529655
-0.01559796227654009
0.009554344703115373
-0.4782807977630478
0.08003869128814817
-0.2639560619907019
0.6219031674443837
-0.04974739930226637
1.47008357473916
1.557188045759822
-0.4997081861225893
-0.02180933267492273
0.1398397965930412
-0.002743383962546965
0.2483372281486746
-0.05682312302889673
0.07074860201760313
0.7801431368747587
0.1359981773123125
0.3697247137856635
-0.006156031507297053
-0.009507025179506764
-0.7760446632806096
0.3718734868537326
0.001356527759534017
-0.239807062069425
8.503731265622632
0.01791022189317685
0.06400668967206473
-0.3354222054374364
0.0189919038458639
-0.06704109272673012
-1.211198753947953
0.2134062147049816
-0.4422558298439119
0.002651067127982131
0.03827259445451471
0.1605543114542068
-0.239509219935172
0.1225131223931596
-0.4550899308532877
0.1627637088924897
-0.1755567321281015
0.01557929603170789
0.01223416379865334
-0.3724020368370218
-0.2577867871373143
-0.6112854595263567
-0.09144331450980868
-0.2440478055759524
-0.4809154560175639
0.7330311143528925
-1.023771954546
-0.1543665993677168
-0.3736139171620294
-0.7863862458197188
0.3495615713437702
-0.1232684297078012
0.05196949019610776
-0.06098623379799583
-0.7272885863142451
0.06533890703538217
0.1922346111221436
0.5113527547616924
1.900505091804512
-0.05025376515114544
-0.2295917389659553
-0.7838480335962056
-0.09013004497683161
0.01927795404251118
-0.204967447513697
-0.4912997439522249
-0.4393016264762849
-0.1840986619769492
1.190719759761027
-0.2587919782547369
0.0649175267113926
-0.2951522371763091
0.1823882662865802
-0.7241536577743275
-0.07264985666861044
-0.1244266908273942
0.1973510652920785
0.1934106289881737
0.05522349680385644
-0.9017005574213555
0.7315478905190228
0.6977388227598306
-0.004601822775049461
-0.2035641230695659
1.088216910149134
-0.02698065452931733
0.2435378231470207
-0.2302869476630975
-0.04929897115581632
0.05828529394285537
0.261243906223312
-0.003995573508214283
0.1951428213546502
-0.4500504212996697
-1.011875448586779
-0.6082173833966216
0.08472341392349601
-0.3660115287099031
0.5401774558012893
0.8076372218393402
0.006228038054770242
-0.06184330745843764
0.3299737912067449
0.2911119678506758
0.6154691467480622
0.1437459332646299
0.07744266692116421
-2.328905408738599
-0.1132063156557229
0.1185896217506518
-0.1741281011572977
0.09099930608473351
0.01534370744775713
-0.06118433741160085
-0.2139116463967713
-0.4126186711662003
-0.4767870455883004
-0.4167995667343604
-0.3865250603880874
0.3043095623532731
-0.372029091841434
0.0518335081795929
-1.650106787241217
0.05087597487101408
-1.143403057949614
-1.325196901421233
-0.2446494474799014
-1.025359404823574
-0.02180800208802329
-0.202931573873352
-8.057661479399584
1.163780230268314
2.32036898527137
-0.1782733742092411
-0.8241111705055228
-0.3943543369398509
-0.5978757904985287
0.2542664803127717
-0.5029911434353846
-1.395348845944193
0.0283857319500775
0.08681758195580327
-0.4339570153681889
-0.162013468498842
0.1433187745100282
-0.8798442648749824
-0.1903141541882641
-0.2134675759823461
-0.9197043841440943
0.3259411113592237
-1.013095587167204
-0.05115577796784521
-0.03979511996121263
-0.05849791274699539
-0.005264314326362091
-0.4349695342026401
-0.3693276680013335
-5.467316068448596
0.03349133646777985
0.02033555016078237
-1.119309189701197
-0.2236912472703372
-0.7170577225210299
-0.204438540225843
-0.2855845680329403
-0.9904038023911966
-0.3143861195124588
0.1749577737534451
-1.358600959910375
0.8990761155067579
0.09278331272743291
-0.2082528900322398
0.06169364892377007
-0.5371100215766887
-0.8369619405421461
0.008100359019705834
-0.06270549346310517
-0.5296157897351731
0.2059790899834949
1.245398152529885
0.3695029094745055
0.6603718488441056
-0.6522206285253896
0.7195953388698755
-0.5872880005183083
-0.5519854269443807
1.932129336891096
-0.8439614811147008
0.1467764149273703
-0.4481830744645529
-0.7660586707281563
-1.135484507808193
0.1002011014200012
-0.2043836953223266
-0.2202867771200075
-0.1317997702657834
-1.275249092298754
-0.4326991251151185
0.08489934050689253
-0.06860872216484128
0.3560208138867872
0.1943616270821508
0.02965606818590499
-0.006321517745375948
0.7722145458937094
-0.09945796336262469
-0.404591280423148
-0.2152387255689576
-1.050678829830521
-0.132789489754391
-0.9820739583358858
-0.1943277617615778
-0.05570450231704085
-5.213507235546663
-0.05187585638633081
-0.3935132899145698
-0.168079186256661
-0.06213308277590789
-0.6593308485697197
0.6973566318255427
-0.04195109497178116
-0.03126313210880613
-0.4087999884607756
1.415554518835456
0.05664502517158085
0.04280826667633975
0.3336615192213754
-0.5115078606325152
0.367705414733785
0.05651636287586059
0.171013836549445
0.2071357282219281
0.2816030509180386
2.01133424413241
-0.06165097555050558
-0.5167828091707449
0.2134228392684293
2.610560004904052
0.1263373505134432
0.3891883452377375
0.04175971743257299
0.1860721557650722
0.01364807450519319
-0.2297064827198103
-0.5123922151790152
0.1206349510292871
0.3433114742538994
0.2753888141582265
0.4012647107864128
0.3661273207046977
-0.1078222267362684
-0.1088261006529627
-0.3528643191790096
0.6627708677447354
-0.8570119418197084
0.003123543107571564
-0.1884685912973684
-0.2533813177403818
-1.624422114789723
-0.1061575834404596
-0.868653913210291
-0.1685729081971101
-0.1721761806779462
-0.3223687145489231
-0.5120791386423904
-0.0545071418124381
-0.1106300172370429
0.1353081306725478
-0.09241062941572463
-1.370462325706721
-0.1981290821016288
-0.08483834120039262
-0.8731065156068093
-0.09254854433777826
0.6479185642075322
-0.2627383633202922
-0.4207014126219323
-0.3574241235171645
-0.855245013101218
-0.347472378605043
-0.01996601604583509
-0.3629269209330195
-0.4761111813712989
-0.1947828254609213
0.244621821741675
-0.9324037194820863
-0.01637828351861567
0.1108019133434892
0.04775158216638812
0.07276673852772869
0.07568473446522422
-0.7559721858268503
-0.957052750569556
-0.1459340722936485
0.2102274837319615
-0.03212338545872074
-0.3407988576563383
-0.4342079195785917
-0.2696597964934962
-0.4022599394310462
-0.115888192344722
-0.5211363841014697
0.1657400747633
-0.2056564121372143
-1.146141479439866
-0.04363211128443709
0.03788221781999248
-0.1800408120134493
0.2357375553588191
-0.06132468101139902
-0.4528626677011862
-0.7181456358418715
0.05748680430354193
0.1161847835729925
-0.9776196893950737
-0.5870918507786244
0.2650978302866993
-0.8047405590009445
0.1813733204552477
-0.1505405648188499
0.06313623914477846
-0.01929318602953551
-0.4407653591069574
0.09421218942567339
-0.07712520366932507
-0.3310708416102214
0.216483859165116
-1.475231152974315
-0.5375320450032409
-0.5781538040475453
-4.152496535792963
-0.9147576633317132
0.1657725322455898
0.2582191038673956
-0.1328975713035175
-0.1532515850720573
-0.2504123488766833
-0.4075304455123921
-0.3525492868897541
0.001130058208827529
-0.731116586260231
-0.2075515720901431
-0.01901226776706063
0.195972960168247
-0.8114833360343773
0.1730499761267269
-0.7177729491304311
-0.3578419705799883
-0.6399674449155077
-0.2733899632060437
0.1183876336493185
-0.3491889271442651
-0.4733796335033451
-0.306876823547792
-0.2930920938232193
-0.5436408501618406
-0.6171323254728998
-0.2312707083118946
-0.05985443422453639
-1.47989481749106
-0.1855338985383786
0.1046835180514782
-0.2844128256209887
-0.6076729764337507
-0.5482009230707232
-0.4115527400774115
0.08468819302349093
-0.08758628383853657
-0.2367258144717479
-1.220429867449226
2.131669473175485
-0.01663350339846591
0.09820168732983638
-1.139676328449108
0.01761634846760812
-0.1123640001839662
-0.2906102284130694
-0.2371234543065009
-0.2415499406531242
-2.623259728474704
-0.2552340387834519
-1.00366772602619
-0.9499119983007153
0.04624552194423642
-0.8893460692867604
-0.3043204439355226
-0.2434624286556376
0.3628805725207604
-0.4578237172006914
-0.01564889715169447
-0.9334409195606479
-0.3488841999013711
-0.2659838356416933
-0.1730870161995388
0.29052374826841
-0.2905031983772098
-0.4482032969984361
-0.5018763961359948
-0.4430125381272276
-0.7598810671102655
-0.3303331985931524
-0.3433538970006215
0.04749170307701801
-0.4604532627555123
-0.6495626053286551
0.7268915653495081
0.03205549778679489
-0.03402802044594086
-0.1190113795650366
-0.02168215156204643
-0.07798243074393452
0.2427949133354422
-0.3201711642226547
0.4220453320702056
-0.1100199674466379
-0.04262981693627772
0.556226898348769
-0.8085591027081578
-0.04310440051182666
-1.480609752813422
0.04106123707002954
-0.2701513321010373
0.4678966536105214
-0.5079519784296612
-0.5892703424673831
-0.1768948154093838
-0.1744207131139496
0.1426602245340282
-0.4061199434595002
-0.1568229901472237
0.08144963005805794
-0.01538386489542953
-0.0162928559455678
0.07061501848874674
0.07195776553218697
0.1635758248269725
-0.4464679083943295
0.1068373392592528
0.06399387072573642
-0.02517731343558541
1.203455001117479
-0.2939349397539593
-0.3587417537830435
-0.4372901483572538
-0.2584908739482457
-0.4087872959296256
-0.3074892511453727
-0.07875731410236569
-0.6780718799744408
-0.2446417928824109
-0.2260683283840272
-0.1262614424321536
-0.005140349717027069
-0.5116183653050895
-0.5715241674074132
-0.1076506998298466
0.06082239386828051
0.397553492238617
-0.2755271336055464
-0.2828282226166167
-0.1090453740266661
-0.1063755681597305
-0.1226580859566921
-0.8020767512748336
0.07831975173898645
0.4767768318802635
-0.3305207137566878
-0.1043281175410087
0.2532637603606986
0.05597400501307034
0.1182242630300539
-0.2782188899667654
0.1029963485050272
-0.1908827290203483
-0.3332496791522983
-0.1947919711331149
0.3475623023502931
0.2391403443024454
-0.2593112571500749
0.9475752753041001
-0.01678554542771602
0.3618162096766716
-0.499948909874452
-0.7329777978780253
-1.015576088661086
0.4644890405433544
-0.02739264646907672
-0.4366929039255021
-0.2978243034372149
0.780996989487968
-0.0817262070898927
-0.01626286557031087
-0.1639140539514633
3.814547591185865
-1.053550452035926
-0.3650509412379925
-0.05793855797372975
-0.4139886380084913
-0.8563295313263224
0.6449511714353681
-0.2384533821578731
-0.026684975784358
-0.0006961547592850913
-0.270710558451504
0.05826049501535846
-0.249926717543092
-0.03455468196406872
0.05823598972325128
-0.5591452548315026
-0.1495425164268172
0.05378592252769104
1.484085855033741
-0.4734043791594231
0.1488654311672803
-0.57340504328208
-0.6945895248194464
0.3755134315065222
-19.88979369897981
-0.9516882001504516
0.947951891256807
-0.7076600151647499
0.1677037398177
-0.5376423274287407
-0.009449320780410258
1.557708095179594
-0.3843907043440352
0.2773761191893709
0.0392157567386386
0.09422329917521792
-0.2354299353256998
0.08140814760380768
-0.2986320186131602
0.07838203721168527
1.302432379030889
0.5564038439748366
-0.4782376684503862
-0.3142256028272511
0.08205175964972364
0.00362011269947158
-0.1456062030882063
-0.4610037534906795
0.05995856986909423
0.04688209976249079
-0.4083533854453898
0.07265627202596869
-0.04149828037495421
0.6377988041557963
-0.4798385640057695
0.1621173826506447
-0.2139432204046699
5.204616758343824
-0.08444411302839826
-0.01207962109484029
0.431135194150693
-0.3816343071777381
0.4862157300897877
0.4736602025628849
0.7367086796335658
-0.3011423739695446
-0.191801622419514
-0.08905384977871451
-0.6628244347375631
-0.1109877893797998
0.09509119009811565
0.5206954869145368
-0.2192412285606973
-1.171997286127482
0.5367480670018194
-0.3607744182579808
0.3314218557235482
0.3074002610146515
0.1306178859166799
-0.8215269438136393
-0.3351447111394965
-0.1844759183122456
-0.2311424875868523
0.4159731568390064
-1.256740824066507
-1.356480240668264
-0.4469570440769097
-2.812482155930372
-0.04794016193329833
-0.408610137900379
-0.5493388402766235
-1.634818987209087
-1.521341663555795
-1.338696337587108
-0.1878094927937002
-0.1215449501416756
0.3668789528020592
-0.3826486545268754
-0.7231375854374137
-0.202001380675524
-1.450674571859643
0.3797605696094539
-0.6853316048455121
0.3491522917992875
0.1663756603778848
-1.250863434719487
1.902520319225614
0.1133567376801346
0.2889794210352105
-1.527156090604353
-1.733308015553517
-0.7145247078855228
-0.8315746066461809
0.06208344093761092
-0.03654511193409286
-0.2608521630091649
0.08739811349179769
0.03632930171247661
0.05403241083785978
-0.3501174048428203
-0.08814377109390817
-0.007912985641477141
-0.3313482239947289
-0.822987503805177
0.4411494049972315
-0.8835157778064804
-1.230961111927231
0.7366153644349618
-0.1487652920068522
0.2945700722077688
0.1572889627207982
-0.5868353964684092
-0.2379524053226927
0.1521598015545802
-0.3398779167084444
-0.1216838196501395
1.564205541539893
-0.006215319986926877
-0.3492650399928139
1.74162759872369
-0.2103307224576545
0.04749891026407322
0.3607002054345377
-1.604902176589643
0.0170545876492612
-0.1106899932414717
1.140272009352334
0.4107564267971914
-0.583667619471949
0.1839816494758573
-0.2818063494572741
-0.6526305552691158
-0.5735428989992714
-0.2164201647576581
-0.3188737547574319
-0.2272518527712246
-0.4168765243862168
0.1393872037402119
-0.03970583459216694
0.03189995835544796
0.1741569910016357
0.3991023363333204
0.008958183667370145
-0.3646234622569523
-0.1677924790977414
-0.56620612013199
-0.2640912841410248
0.008202644463104983
-0.3227017049215246
0.3999801080939401
-0.4059172309928644
1.436960927812304
0.400000984788187
0.5168181141855842
1.192194878857093
0.02665355554403886
0.0009080418094034932
0.8355533106639734
3.511885096827154
1.902337037970956
-1.036187283050723
3.465851239790633
3.332688151874633
3.350165379032699
0.4383292866638862
0.2591681903871629
-0.2201873191030501
-0.7601492256805029
2.589731132012068
0.01838263859843066
2.607888219770814
-0.1525178897867581
0.03305305416796304
0.04222007564986061
0.04854141032590314
0.07029829500346729
0.04141815695034559
0.01050549315094603
0.05429783613355358
0.05492458168862147
0.08370077786644026
0.3034040206245144
0.001027972932343491
2.332822637089871
-2.61562594233394
3.199526670377792
0.02019967765222093
2.276331061316918
0.2985095350507425
-0.5514796625762941
-0.2799182368790155
-0.8399245702836764
0.3063645019392938
-0.9864847105263963
1.396752585629524
-0.08895374771801515
-0.02188173471617987
0.2660182498391563
0.8298492478748059
0.4862509869755651
0.1220840049331637
-0.009861620565863764
-6.200914938977238
0.3954931830598759
0.640224659294538
0.2495467517700212
0.2022657688143416
-0.5140605395722098
0.02935450729788127
-1.394159889859204
0.2223621530222346
-0.399982174155867
-0.8959523988929837
-0.6435425809332012
-0.0823480417685928
0.2625080098668776
0.4272360813541567
-0.02957948958192102
-0.7101344426846472
0.3833428674616158
-1.239675898831327
0.278101514574535
0.257178487202825
-0.6693389189674371
-0.07670723479926195
0.8448139866429579
0.0003308146137169141
0.03245113967272027
0.767771673900664
1.226158275671548
0.488426540292611
-0.6589923187004055
-0.3207022043194782
0.0104446058865523
1.999393098147666
-0.7856224038846431
0.02297664335082456
0.9803116453695665
0.04309850632461102
1.054221237150651
0.01604972716742298
0.03017521566147878
0.08607987008542393
-0.09271124520040237
0.1062897876372676
-0.03358238862105725
0.02122949472604242
-0.6144919372193601
-0.8684880171786763
0.2493632593724588
0.1246756973766657
-0.06720370041679798
-0.03171559369776627
-0.8159789131290548
0.02425925286434935
0.0410893067901926
0.2907495175554474
0.2413251771391635
-0.3297810223976559
0.1082275803849335
0.1655610641806596
0.119786693529186
0.3996879050712318
0.1249347044890277
0.3366158999596701
-0.3880770646641569
-0.9519453380276839
-0.1461559334646358
-0.1814038975868527
-0.8896138642577628
-1.115731941374361
-0.6697518823379728
-0.6306402301009396
0.03411632679182904
-0.7803423195067498
0.2053582446450132
-0.7427835642669697
-1.170540143010615
-1.1893779626754
-0.7273241682985665
0.03440245357339795
1.888530168095634
-0.3747105963165836
-0.1635312048913384
-0.4785592655553657
-0.04889987238667094
0.1316817014178595
-0.06423083802424157
-0.3020907575254183
-0.1763768966874552
-0.546558425278316
0.1781632495682374
1.117250865080701
0.06507281206707483
-0.02048871763687497
-0.06974997119744884
-0.3436187377130253
0.007551463633516627
0.0001468802311040909
0.04668877035878965
-1.057827664616415
0.16784229863662
0.1587881783804845
0.5561096517502732
-0.1595312937759222
0.006570514420518075
-0.8138705532334491
-0.09007236068891147
-0.2331922571746135
0.4043271786344
1.764746934749506
-0.06008529034300752
-0.05242292814855344
-0.1836543348310149
2.70654738213381
-0.6605893837921647
-0.1643592274663864
0.121316403355654
-0.8538262522485872
0.252990702481697
0.02560224677117876
-0.1726141711180324
-0.4000069283416151
0.1681777872795465
0.2595250136142613
5.542259174685763
0.2102677726079807
0.1416508506695986
1.818615218028153
2.823980279160247
0.104536091675706
0.3002770619424862
0.8007934025557418
0.01643699322516474
0.1532600186106988
-0.008260142348159166
-0.04803831844205119
-0.1261654839446404
-0.4665581275425618
-1.824960802520156
-0.0461658793978181
5.763420718389292
0.04252867546354538
0.2259165676195774
-0.3387412091263852
-0.4139570714808513
0.2875529895931734
0.1057596715166409
0.1902763617187833
7.897861020170337
1.1414923285321
0.200594841094549
-0.271270582359451
-0.2861015737672306
0.3346891855080195
0.2507496559918052
0.001649098093786381
1.040838368758882
-0.1524161207178563
-0.16277164586302
-1.011574972979618
3.401659676112867
0.7363156059802326
1.256221440208568
-0.1427579934077137
0.05539872677427836
-1.13076597036292
-0.1121308988304455
-0.1554142439869691
0.7344117615540391
-0.1938475254260257
0.2276009495610454
0.1060103327706699
0.02244773417359203
0.2903803919248316
-1.392638922203282
-0.1407595432124723
-0.105222635678931
-0.03088751593347668
-0.9639601885748501
0.1174891111472797
0.03358304889543234
-2.109839151431905
-0.4785700650820747
0.3744086357960122
0.1562785827198346
0.354084292496585
-0.3891443700514912
0.2407139698898364
0.1966424531773437
-0.1627000428671371
0.2490048204224136
0.6379646557287753
-0.6748600595405809
0.3398925836682156
2.227097071934464
-0.08727760511441834
-0.347816936202157
0.1656352544273219
-0.1157467850780174
0.2640037905146783
-0.3106152778054985
3.37278147210709
-0.6683731633449865
0.0004318532557883292
-0.04014790033275099
-0.09090694577837818
-0.04682270961277975
-0.0241822294156216
0.01814801527625835
0.8257057895781248
-0.4442218912853745
-0.02316962881739236
-0.1192888947643582
0.873205750196599
-0.1866747044237523
-0.01195935407475208
-0.1564917028471733
-0.1430094297484811
0.1804792737478493
0.09106699303194324
-0.09039186323725601
-0.02364614677993878
0.02939132948517776
0.2422559605798012
0.01551840253465676
0.1187202908369333
0.2422767768189025
1.314474901616617
0.1383417171511198
-0.5855656839406312
2.194864796266965
0.253376781060442
-0.5319874328404414
-0.1836598377364527
-0.2222965940625878
-0.166910887401847
-0.3336294217785375
-0.08140671684065291
0.1417920877526508
0.04901850649316546
-0.1511457823210633
-1.947947681138978
-0.01372607100770399
0.3306581291835374
0.01954896319869936
-3.10154579022018
-0.1405718699563823
-1.064057844369522
0.04254011908716366
-0.01431480277215327
-0.2505024072002079
-0.5785729464103503
0.1903868077582704
-0.1258241122816865
-0.3152469374192245
-0.1098325934974189
-0.04959235954759191
-0.1791990280603532
0.2270158938832592
0.1767924015326711
-0.5831851248990801
-0.3631516290717252
-0.3742106710039365
0.1111603036932169
0.1472265645336042
0.01884512131224471
-0.6732022398960099
-0.2149616504998303
0.7999360373365425
-0.757633121233577
-0.02292117475358438
-0.6321883473061973
0.1502210788547811
-0.5024368210949706
-0.2630750173342821
0.03672945950534262
-0.1362244464298184
-0.1762327847511068
0.1103380824142858
0.5451098574780072
-0.3505627290788018
0.2079025317535654
-0.06016323376702917
0.02080290762622779
-0.06122703172570566
-0.4432032621023889
-0.2730724902342294
0.001493361204065524
0.185761072136533
0.3373273899966968
0.06025691560014518
-0.099875099582991
-0.04993033061624631
0.1122979083247807
0.2331796420462667
0.02546313436361343
-0.3478188267018436
0.05813073825077875
-0.4353406541508443
0.3443444766159313
0.03022692094997728
-0.0502576162168616
-0.03485477445118309
-0.4346635817817844
-0.1085883577569601
-0.09123929787241598
0.1230158848862107
-0.02610510684779459
0.1158846429225461
-1.923291461442572
0.03017380636339659
0.3521328980068125
-0.150088082099445
-2.064541758118433
-0.6980107673146666
-0.01707017399071801
-0.5169591960444118
0.02377323298793287
0.03555810424588263
-0.3424292939763832
-0.07743294508852822
-0.1644208954209755
-0.02548025063194101
0.2436122690218402
0.4085967687745835
-0.1780002586638772
-0.2534298802466665
-0.2604935157033866
-1.108893839082329
-0.7693194731288246
-0.04668077367651542
0.1802189180648454
0.1382952664416802
0.04312877235510488
-0.425324818211545
-0.5009585438622485
0.1332377871459583
-0.4448248657930193
0.751843583396357
-0.07249515389093947
-0.2892125546757821
0.02617906242188744
-0.2480303590810481
-0.1475677876909706
0.7312552533202411
-0.3602343753695163
0.2253901402234289
0.003346329590723583
-0.1327508322764665
0.2057616862165034
1.738821077219293
0.0573807722381156
0.03963789274005722
-0.4843174606020464
-0.05558386810910496
0.02775111220575808
0.1602020576283497
0.2187815527330201
-0.100689744052912
-0.003938642047878726
1.397728263021982
1.079087487909154
-0.2372887588039687
-0.101349138064668
0.1180908859296108
-0.6481328357639989
-0.1875661164843308
-0.08324796566362272
-0.0513670754468637