/*--------------------------------*- C++ -*----------------------------------*\
| =========                 |                                                 |
| \\      /  F ield         | OpenFOAM: The Open Source CFD Toolbox           |
|  \\    /   O peration     | Version:  v1906                                 |
|   \\  /    A nd           | Web:      www.OpenFOAM.com                      |
|    \\/     M anipulation  |                                                 |
\*---------------------------------------------------------------------------*/
FoamFile
{
    version     2.0;
    format      ascii;
    class       volVectorField;
    location    "1";
    object      vorticity;
}
// * * * * * * * * * * * * * * * * * * * * * * * * * * * * * * * * * * * * * //

dimensions      [0 0 -1 0 0 0 0];


internalField   nonuniform List<vector> 
19631
(
(-0.06095196900273778 -0.001794194690604586 -0.0154840085451549)
(-0.05982549093025594 -0.04357572544085753 -7.78075952085101)
(-0.06237775491238744 0.01075810220492751 -0.01361783967478931)
(-1.502951579175137 -0.2100820241243581 -16.7960304912684)
(0.4072007040514904 -0.09602952064934793 0.03147808408562301)
(-0.0764283174403424 -0.4512835871949346 0.0951057803443698)
(-0.004277265128769538 -0.003054732065894992 -0.005259114657278084)
(3.319879357037361 9.331509709645823 -10.13402509568471)
(0.9959673404640779 0.934875831589397 -8.91694696382285)
(-0.002344829418171013 3.739722086948697e-05 -0.002430489990890293)
(-0.482647331242704 -0.02620092316917958 -0.03899326293037218)
(-0.05762997347676525 0.09274450316474678 -0.04203849026937697)
(-1.0610494179516 0.07190877447830235 -19.28559155001062)
(-0.03643198122996342 -0.000174919193658943 -0.04712611074400738)
(-0.002036142186153895 0.001256617307362061 -0.005345005875743885)
(-0.07694785023231943 2.195939518397922 0.2236890575764387)
(-0.03673138370652949 0.03811446298010416 0.1179429896325332)
(-1.275872122959962 6.554847258352029 3.815576279604553)
(0.1029213253388087 5.426154689752666 2.316074768706261)
(-0.0402426916240376 0.8575618116111505 0.5737443858839307)
(-0.1355963815122739 -0.02910538112989007 0.1078647674119292)
(-0.08596265773889801 0.0879778833661234 -0.08753191937289256)
(-0.6241527307322858 -0.1647926853556458 0.180689205723473)
(0.01341189330374487 0.006098999162206794 0.01015212123233817)
(0.1101839369509626 -0.02195635344478822 -0.08649189130713239)
(-0.01692902739359304 -0.003356818984846812 -5.486480944497627)
(0.08364340269316069 0.05123286031121384 0.05730990243301638)
(-4.417230669147566 3.372909784733365 -9.314063993910562)
(0.437336571420146 1.49857618802929 0.2295219691287683)
(0.002574052311813068 -4.564562567415189e-05 -0.006889286572108754)
(0.03521773045909939 -0.002036977589090883 -0.1136621111085135)
(0.1373827226925155 0.0963600968025851 0.07366682097707068)
(-0.7220672821293701 -4.998455233839673 0.2494381162132361)
(0.01467303107558689 0.02560663454059368 -0.01662831715612986)
(-0.5250106749804584 -6.371357774698756 -1.712209772965844)
(0.09769612190878857 -1.542606392220365 2.832129026201397)
(-0.007089586559810445 0.0004065357625895629 -0.01772336351560196)
(0.06013780283121854 -0.1007185672145658 -0.3540180239686345)
(0.4689742840283254 0.5154850639480402 0.5693223125728004)
(-0.3819647738727373 -0.3624027586106879 -0.4041526313765534)
(-5.179047546915342 0.2769499703476362 -6.845020610703552)
(-0.1718143089285946 0.02911856182662554 0.03730970395374644)
(0.005931758846385989 -0.0002180265956732953 -0.002482329892763004)
(0.2450378580279451 -0.00029233431712955 0.04516185844587191)
(-1.469465313731688 -2.397325763411655 -2.842075032893306)
(1.368467780684911 0.2303120750592926 0.005169515294501492)
(0.009459050355526346 -0.008125993893644216 -0.009238857815116191)
(0.03706213255607587 0.03424243334102658 -0.06834736730245605)
(-0.05744271044078724 0.02022216237489618 0.004856315974610996)
(-0.08723135708246299 0.06753511912277135 0.08580931351065094)
(-0.002358610858219781 0.2133943922336418 -7.193869122052527)
(0.2964498795430502 0.7886546846476541 -1.117674498555195)
(0.05156588264531003 -0.05789750253271354 0.03867494173153607)
(-1.942262882498138 6.840071179549395 -2.89055187163954)
(0.04717887996745104 0.5230805683836612 -1.026863668036866)
(0.991038751230559 0.1879586762011756 -2.428138231450562)
(-0.04184153089023966 0.0504315477755968 -0.01332784410589563)
(0.09789988021738247 0.02986949458791007 0.01699004470864507)
(5.688981968994792 -8.387209513485796 -4.487329390164965)
(0.004797997549415472 0.004466393139979324 0.001459478795478638)
(-0.00230003019730392 -0.0007075559290640381 0.0002216191034871539)
(1.372145172381305 -9.193061749145764 -2.174739809583355)
(1.757814136925403 -8.012742890145406 4.797288171765824)
(0.00186620242911887 0.06838541224448777 -0.02856770158269581)
(-0.07093938444996867 -0.05281451653458061 0.1471126508311739)
(8.512820912456601 -13.78784554268201 7.210219814947667)
(-0.02448078764915516 0.02914435401503166 -0.05404435456970368)
(0.02948670102061797 0.04088629543435606 -0.09216407561136347)
(-0.07568038219884018 -0.03999833804698064 -0.03492445457599778)
(-0.002215406024949788 -0.004000301721355486 -0.001732200069598466)
(0.001452931930802169 -0.002455531563446228 -0.001208925375578011)
(0.9017759256044261 -10.74235732219892 -16.67940223999298)
(-0.0009358842906649848 -0.02116861086541503 0.07402274316892481)
(0.06379148399415822 -0.05232379080322673 0.03743458166108533)
(-0.06187800145479955 -0.06893650816488803 0.1898489402688689)
(-0.6208067366314254 0.2357071409447616 -0.1872106117196894)
(-0.08892073620041448 -0.00722026502540353 0.1395062135850417)
(0.2149183369996178 0.3794484941433574 -0.649813453697306)
(-2.047087756579022 -0.7747991729001885 -0.1234363646111368)
(2.601629875907782 -11.33811999874722 -64.3104989753006)
(0.04260795466367341 -0.0005374002071208864 0.02183858976570068)
(-0.08902318572794746 -0.04707333055423184 -0.01089282635518395)
(0.6662971646913327 -0.0082171148991496 -0.01687854855743069)
(0.9681918068944393 -0.600982886520357 0.2253494026805716)
(0.6458142388825112 12.95213751127139 3.055403614899002)
(-1.856323242614106 -46.67445669110931 2.904219477081985)
(-0.08489089316668361 0.03045845302702329 -0.02615531198577838)
(1.376593692161338 -1.442956421151106 -1.219253548846244)
(-10.00827037198634 -1.556794193907596 35.26536024892873)
(-0.1119687556187435 -0.004432263533818911 -0.05805133138056369)
(0.3820166030445606 -4.05630407101703 -2.832648887587244)
(0.05164341942075789 -0.1059737010363366 0.02565497424767645)
(-0.09546091785708791 0.06373820123768952 -0.06561803864257904)
(0.1193692284435065 -0.01302290598975882 -0.03770574241541334)
(-1.060899527191434 1.395676344715356 -0.1134782955756709)
(-6.376515873258947 24.13254459493711 -2.372425510818591)
(0.02762563566519712 -0.03512013385935566 -0.01822041402707941)
(1.3870436400029 -1.329011827444351 -25.30482202989919)
(-0.06758059857013043 -0.006267267777845423 0.1635532294742949)
(-0.1365721908823989 -0.1118697950286007 -0.0140879403309925)
(-0.1337763162387739 0.02956258410597049 0.3147695882021673)
(2.451956453020677 10.7109330486265 0.2099044020120122)
(-1.429235540875804 7.905441379325628 -2.855764168406294)
(0.0130696394240356 -0.03912979361376542 -0.03340694392640355)
(0.5013217718106742 -9.942090074838831 -1.078639141931312)
(1.803250376843339 -0.486645210048035 -2.413029591198406)
(-0.9746125663426963 8.901360557978396 -1.271131880315613)
(0.1730168344451815 0.05461870268229523 0.07327057350465777)
(0.05732530642280881 0.04724134237859707 0.03070338427461714)
(0.2699891520086553 -4.841352682271068 -0.5455794142694763)
(0.9857134273104413 0.5410342546885591 2.390857984946788)
(4.496495469094757 -5.868967262669528 -0.596704850158666)
(0.00325022323584595 0.09206515653337036 -0.288681101940363)
(-0.5095929257609884 0.5061989718056131 -1.265597381117932)
(0.02547676391282253 0.01365077987499857 -0.005900291037306933)
(-0.04370952081170998 2.32771952455255 -0.7708235274379449)
(1.737380429836861 7.020458393582251 2.250672860578825)
(0.02715831401535602 -0.01812709859077356 -0.0003358311438187121)
(-0.2497270766819051 2.160544772824535 -2.176914399305918)
(-0.1523337033856182 -0.03258593355451085 -0.009753517863444919)
(0.157170693686134 -0.032548377072888 -0.1070762407759788)
(-0.01221112942824573 -0.02172270394465982 -0.101438137827432)
(0.02171098806957415 -0.02097593813065457 0.02934941854506045)
(3.094356338272887 0.5644794666660551 -6.270457412273913)
(0.037294652189297 0.06630267117198083 -0.1520062327515346)
(0.03299475242677127 -0.01852899240585325 -0.0193618673884244)
(-1.033349202185215 0.251139141425463 0.4252513655491505)
(-0.01766968894646962 -0.007237106647417835 0.0009106422014492563)
(0.006448537153041005 -0.001766728222709815 0.004948919543231494)
(-1.737860947502221 -0.1284503152928927 -0.9481570112587537)
(-0.0521242856479321 -0.01564353522805696 -0.0261646652918366)
(-0.07675619466946684 0.1463603229634136 -0.02498673714809346)
(0.1378525212598127 -0.04293956450854711 -0.02079180245457901)
(0.1676011033155206 4.11880388717194 -9.564863307572189)
(-0.02174028315902633 -0.07339892293310822 0.05896319495022075)
(-1.694317371638923 18.23254697272192 -3.392492035167313)
(0.4566042782250945 4.187795434982104 1.780824934365598)
(-0.09387365459361945 0.01519424774797611 -0.1884939050822257)
(-0.7804602350475144 6.358772340246134 -34.54690511082028)
(0.8697393704784743 0.1236342081248941 -0.01675857613864852)
(7.677658205044199 -1.259428900086085 5.770976366687552)
(-3.824941590847774 1.287807554449375 -3.915815280544437)
(0.7227622376608991 -0.1181184058944719 -2.273846696152538)
(-0.002841677082860088 -0.004646336542140269 0.0115574268250697)
(0.07102798144194822 -0.02268637022427629 -0.1215848432094734)
(-0.487567349697554 0.2085385843782865 -6.060559235740486)
(-0.004107829542436402 0.006732391395747493 -0.0006198152445231805)
(0.002930462086576865 0.004147366873523789 -0.00561429859303881)
(0.01659525163214944 -0.001092835028167133 0.006598921624886659)
(0.5014870308012114 7.087773346860408 -4.006270553288816)
(-0.1256608912409425 -0.03752880874392792 -0.03984783880160134)
(-0.08911917212737228 -0.05964363299973194 -0.09157033217691311)
(0.02426685420364867 0.01127468318459956 -0.05601346835903669)
(-0.03427226527542332 -0.01460174853376194 -0.00182657952081026)
(0.06992793566263823 0.01939594621634437 -0.01130181165579217)
(0.08017458305309252 0.0178417512755132 -0.06006640594945594)
(0.00252512144146291 -0.00569620247794635 0.006673312107966697)
(0.2171896898868414 -0.02901303277796238 -0.09470551665594006)
(-2.461448726688828 34.12901703807652 5.287141676586575)
(0.06879004150483614 0.2909713301160292 -8.795243578103987)
(-0.03193930881740724 -0.01771317786144491 -0.03000384172270949)
(0.001287196571681778 -0.001499152890901002 -0.004218039084229029)
(-0.07883757651069209 -0.09127334694437973 0.01536762922965353)
(-0.01958658352510685 -0.06029739578175886 -0.1046093033147078)
(-0.01330379813545337 0.0003412095070002828 -5.526632164808585)
(0.00292457720241036 -0.007223382106132292 -4.923889079318185)
(0.1739849806656395 0.08539187067122321 0.02103969026505617)
(-0.02127969381010576 -0.0001579900433237458 0.001692747461042921)
(-0.08310754173239471 -11.25974507642096 4.926804490965992)
(-0.1062179000871946 -0.08325813614100872 -0.05601129405070905)
(-0.268492138158178 0.1239308118097045 0.06252026634967803)
(-0.05837779547963876 -0.005578020078039949 -0.0499589368454034)
(0.1627429749309486 -0.03407360164391426 0.08442312836600852)
(-0.02506141751922312 0.05966670186212417 -0.09088261445753899)
(0.03621658912595822 -0.008758815508269624 0.02352552152007109)
(0.1228327076984885 0.01837364101868074 -0.009054405192659452)
(0.003736423281307703 -0.01163580871651958 -0.007685636483611436)
(-0.2004149835132635 -0.07018123670156218 -0.02105816855997985)
(0.1168636643380187 -0.007052995745894006 -0.05335850142994576)
(0.2094517818679293 -0.7893701228064541 -2.329326163440495)
(0.06824989265876008 -0.07659355186334972 0.01177083748137854)
(0.0008471390195773911 0.001827014029075858 0.006020668354884224)
(-0.002924128462281737 0.003750095181743536 0.01532880035511812)
(0.01087003213779779 0.0302668615165611 -5.544284247306217)
(0.01240477210891997 -0.00525962173412617 0.02238757502688524)
(-0.007598116936832242 0.0118834697275872 -0.04135415817358538)
(0.02594727843764078 -0.09234173219336578 -0.09880956462106673)
(0.06258686268312627 0.02523958467241448 -0.05419130288664828)
(0.1813604406538339 0.01547148529142163 -0.01750877308191084)
(-0.001493367573195688 0.001267259251276073 -0.006192905535029936)
(-0.006714183256210475 0.03360049016248715 -0.04129889988924597)
(0.1313645429812317 -0.1873583305597843 0.1695181126323148)
(0.3086224915644161 0.1777000234638895 0.1152551231858168)
(-0.01520446773611604 -0.002751611856349864 -0.007193472103148362)
(0.04505138789688726 -0.004793603679870036 -0.02357922192099356)
(-0.7896776164593402 -0.8045281685044862 -0.4750403391162131)
(0.001296008767703818 0.2284386434381875 -0.06851939031894014)
(-0.01307804970646307 0.004186883497136925 0.003956078782186596)
(0.02733231433058093 0.04369927601671224 0.0703693876877122)
(-0.1160631313529137 -0.03619599109814119 -0.0009579370270951723)
(-0.04157180489400682 -0.03417866560892605 -0.02905512007665937)
(0.07274632061064268 0.006723626514839244 0.005742746063589885)
(0.008624422367476767 0.009731831510352822 0.03877662388036916)
(-0.00462109988133802 -0.02814164193909606 0.06574595490719204)
(-0.003261710679134836 -0.007102137924204751 -0.02125484798786277)
(0.09593939929385645 -0.02099368891365693 0.0189626314074983)
(-0.245322048553802 -0.07627524348866387 -0.1066797137592685)
(-0.03149097484547148 -0.1361720742227557 -0.04565120285408096)
(-0.01831810238680339 0.02829234568669329 -4.838742226907997)
(-0.09505107447558649 -0.008921971703484504 -0.1947889484589348)
(-0.0333773144879195 -0.009502679984114935 0.03232735705266584)
(-0.2320613705886841 -0.02148206668235823 -0.1956013164027221)
(-36.06702439959871 -69.88545630111166 -27.97546357323292)
(-0.0004841703044149662 0.001013208965970359 -0.002783015231911011)
(-0.09325969834450193 -0.08691906955322359 0.1549512274392022)
(3.108465131976143 -2.838238498389734 -2.99314218151435)
(0.009045396997425122 0.005801948203323006 -0.001257326545643048)
(0.005345915568424116 0.001983464770556441 0.001624941525791269)
(0.013711635443298 0.005213433903734045 -0.005141272181463551)
(-2.12455611546241 5.084197836324705 -5.344834855221963)
(0.04832724104162747 -0.004198545966693413 -0.04509340192515213)
(-0.3808019949194402 -0.03377007334556974 0.1418639661422627)
(-0.05848311137378451 -0.001852641271605524 0.006228828209599408)
(-0.001843354837577592 0.0005932443041289712 0.000656801168884176)
(-0.005041224221323711 -0.002641561342961082 -8.06979198252674e-05)
(-0.05628925050908393 -0.02089429031871779 0.1475983327628599)
(0.05678625991503738 -0.05037776079600693 -0.05431751810687573)
(-0.09808661895604022 -0.0474498254705472 0.01616009342204163)
(4.543652111679915 9.244925586317139 11.52867197720221)
(-0.6555216184134994 -4.87844695227996 4.864794678650632)
(-0.0334311815519053 0.01570158052136944 0.01650609984772042)
(-1.711407459522227 -0.5500096710484361 4.512057364928054)
(-0.423233465393004 0.6146414361805986 1.019280561071935)
(-5.603559494785494 11.57502095031312 -2.299420745566296)
(3.041275095561607 -1.085915987109093 -8.235154677574187)
(-1.745576370382047 0.0245425537730522 -2.807834342394096)
(3.878035628016225 3.998330638063886 -14.65488189135863)
(-1.165109054107882 -0.4689617716629136 -4.66141274853492)
(-0.3515944649281271 0.02770196835215832 -0.1511525990668084)
(0.06013700551647156 -5.317058448942399 -0.03655164442469666)
(0.02274361355518455 0.006833131162870883 0.01686635733346631)
(0.02714909986999845 -0.09699750352263094 0.0101145120228306)
(-0.002971629986011022 -0.01563577996526505 -0.04265837331066134)
(0.02055353234601108 -0.01368630673413743 0.005567178424607223)
(0.01088603665655642 0.004059546182805228 0.01448592095773387)
(-0.2079541127448368 -0.2541962222314147 -4.963035885576069)
(0.0008128205837935627 -0.02784970147836046 -4.85239519907385)
(0.007911064690330013 -0.0004345162723234195 -0.007721874466459891)
(-0.5032753684897699 0.7416085381826828 -0.2393421067865097)
(-0.02920533695838875 0.001483004688773026 -0.01077490861895041)
(-0.5012818116284288 -2.975721749062973 0.3677599383950183)
(2.161016859949548 2.169520128755306 -2.565186416674462)
(-0.01498170526519714 0.02272463679217026 0.04156436691407677)
(0.05424770833619981 -0.2276049199055228 0.3613117516570226)
(0.006177500529428561 -0.01689716963040932 -7.914591519128169)
(0.2284285974582193 -0.3783221001260052 0.01135454724867896)
(0.6214826709844979 -0.708685293330794 -0.8507931230134397)
(-2.108099931999893 -37.63009981316762 -0.7890170725529426)
(0.2864293499157115 -34.43216151954588 -1.217751877707439)
(0.5875076688360962 -1.694330431111001 -1.021347189389845)
(0.03806357784189431 0.01207089828897009 0.02270883192054082)
(0.4451079265506983 -0.3953572929467927 -0.2007260034299044)
(0.3185778301270978 0.2683329294177805 -0.645670457938757)
(-0.5285331053915171 0.05747225941314812 0.5058362899949521)
(0.01265749406465416 0.01141704398972778 0.04638068248646911)
(0.04813198541747398 0.05403872132844556 -0.2507425639364772)
(0.04474528816515377 -0.009633829350230338 0.03181729222913798)
(0.001572191264986714 0.1977053141734945 0.2254709034362607)
(-1.047594543505785 -26.18251121256361 2.043241848484721)
(-4.111969223642634 0.6870031770889775 -34.53657086104694)
(4.070949931726003 -8.44858143937283 -2.400411301890286)
(0.183486567549223 -0.06288661661637814 -0.09866562464855951)
(0.486742675478296 -4.724183965071938 -3.341386349937048)
(0.0007000115609346273 -0.006712618204462891 0.002797858566572645)
(5.182963866185906 6.895260778248362 2.604272690956044)
(-5.574618493625557 -41.9250437430402 0.8020662401963614)
(-0.05061011976824574 -0.01425764565271664 -0.01616331866740391)
(0.03637513950885289 0.05945500161577215 -7.47845579973957)
(-3.52484527067088 2.06084475601519 2.887847783367491)
(-0.007018546645843168 0.005561002027376919 -0.004026773001970573)
(0.6476496278803391 -3.153299709790604 0.6168761336453328)
(-0.7048917853319401 -0.175382960867923 -0.1346084383814977)
(-0.3766123394930343 -0.08328560345492952 -0.2691611225898952)
(1.31987308663992 0.4780336195503407 -43.26687246196599)
(-0.1458924206225635 -10.30669199565948 -4.666771956599923)
(-3.931983373995615 -17.53859137252763 -1.785417144660851)
(-0.7698436329637282 -11.87321941910827 -44.09550897913297)
(5.650151165808007 39.56371388868341 -2.15587017202004)
(0.1242345847459406 0.04522596508207891 0.08702623318680211)
(0.8557598635965362 7.295958161804935 -0.121944044249539)
(-0.1058750256045551 -0.1768139292320924 -0.2341295393287293)
(-0.02676206156317251 -0.02368945472038927 -0.02530528310023223)
(0.07512741401696735 -0.1538156780854648 -0.024923607406815)
(1.817535019935437 1.701718667766716 -42.4796104904436)
(-0.1563901769738817 -0.6645663531956159 0.1793546992228919)
(0.0006502940559547532 0.001255121717566113 -0.000184991585228407)
(0.2992511069496617 0.5689269040098222 -0.1976595085040067)
(-0.9261793445541308 -0.2223836089578833 -29.14192589117403)
(0.03690280509270112 0.0006728668067417648 0.0193719867406598)
(0.3913072717928994 0.7469728668927913 -0.6340581079018375)
(1.054449304972245 1.209564578792296 -1.358509424552468)
(-1.316521774100182 -2.069208375649743 -4.80612384547072)
(0.5546271914462646 -0.09157533595928456 1.027383651031468)
(-0.0008585462035905099 -0.09916655565841138 -5.586779352155333)
(-24.31273361924812 -22.39305618321438 -3.030996890549404)
(0.03309262322522932 0.00853042636625375 0.01508551235740798)
(0.4433527145816952 -2.935307716994363 -1.002331881712977)
(1.263160236746331 -2.851759134022931 0.1603019355540478)
(-0.04221789804606582 0.09345596233381331 0.09467621446445021)
(-1.002335878854705 0.9028841273691437 0.1657972883782766)
(-7.456283818510046 -1.361468811775496 0.4734408603785101)
(-0.0008175374150617805 -0.0001827678865433003 -0.002049436443745475)
(0.01508558668680191 0.002787687013826463 -0.008114649916270389)
(0.09311940203628669 -0.02347798037180066 0.01220369609465096)
(0.06512718179443265 0.4681366460561491 0.376215608900509)
(-0.5381133979718935 -6.944954378018981 -3.927246360621574)
(-2.457123574851567 -14.89363147583815 -1.207258167147024)
(-0.5828737151027903 0.865810537285608 -0.138344117887872)
(-1.161666161938357 -0.06717143145604845 -1.321066976256255)
(0.008823420847566991 -0.006607378523598953 0.009638399349984384)
(0.04136601916135606 0.02138725353840306 -0.004247086389261127)
(-0.4903929677167717 1.212291690359167 0.1571520852504996)
(-0.4428527059646463 -0.5153046502005399 1.0946875481877)
(-0.091060790702277 0.004863644809063624 0.02956795232292873)
(-0.001918390462438344 -0.01936017674307258 0.03046499208304531)
(0.04494383445020321 -0.08855260936457768 -0.03252902820160318)
(-0.6936800483576824 -1.197969399338536 -18.94881859937141)
(-0.02037798721347069 0.003437749247467557 0.01547340030738766)
(-0.2883899995988416 0.1136021322494303 0.09635126442657077)
(-0.008620907306018392 -0.00307170362929461 -0.002152931344416679)
(2.720238723562892 3.029671878647497 -5.989901203958066)
(1.834210939763731 -7.628581848984278 -1.529458434490332)
(-4.679882263290068 -0.7494874830948828 -2.445980120693853)
(-0.143447940694561 0.2088217058829269 -0.3292464546722995)
(0.1892451305652615 -0.00535307326581547 0.07803312578529448)
(-0.6678129542726211 -4.265890262272007 -8.588876523942076)
(0.03564875527480459 -0.01136626105015282 0.07490383908641086)
(1.061967433729886 0.4484318021036525 0.2278798307382912)
(-3.446531593767328 -3.214982706867522 0.373137987872469)
(-0.009609001587598986 -0.01679077915015696 -0.05858594645659381)
(0.2009449184343266 0.3567304029523662 -47.92687433975617)
(-0.05043696939524409 0.2464663300190486 0.003888072059055878)
(0.006824944776867408 -0.001851920423801334 -0.002625766479322013)
(1.832256543193297 -4.642998019292992 -0.6764828372312915)
(-4.10179955624845 -6.0618799782148 -1.265651605576888)
(-0.02842028238275095 -0.01960170364431658 0.01441805493372829)
(0.6676782898518888 4.17153697463595 2.798191597685117)
(-0.000238764543989009 -0.06794357258543059 -0.08482634959798357)
(-0.04103002365753227 -0.005051401190735504 -0.04032876724832667)
(-0.01098700910520513 -0.008718626226326402 0.0008071648622228755)
(-0.01039453885614373 -0.01140891116671273 0.0534219724428269)
(-0.0008245448309607625 0.0003261758665307068 0.001186456229286552)
(2.854632527101708 1.785416886548486 -5.10088482308746)
(0.1095207533725538 -0.1491091035085046 -0.0051631797602254)
(0.01428024082063877 0.0004234139047942301 0.006153384183882342)
(-0.2111942253094784 5.468756173592187 7.373439478429854)
(0.1053018895176575 -0.08495334981753375 0.09196463064020935)
(-1.093779053353177 -0.2119891231357558 0.7090291809656193)
(-0.2220513229321461 -1.124445856725724 -20.08549127346589)
(0.9902400677998811 2.37906981950313 -1.448823773460184)
(-5.208093377535913 4.847592094416051 -0.9849978018490475)
(13.94770414128481 1.446980677615652 -0.2495724682993252)
(1.149382238714034 12.20199619069914 2.045473379717151)
(-0.07425643864257025 -0.3363101822767808 -4.768003698150219)
(0.06554262241174122 0.03797086326407154 -0.5357869849286327)
(9.317918518237818 -7.232577145628174 -4.958535254065433)
(0.02899469259765033 -0.01168850751658148 -0.0353926931750668)
(-0.1107967378947666 -0.1166311816767523 0.03308564512963168)
(-2.935552674125017 -6.310204340636407 1.271648138608518)
(0.2111558579137718 -0.1141814107559526 0.5311109406197412)
(0.2360979845550454 -0.181602484385578 -0.05252351881599656)
(1.03921517413058 0.1455739025405263 -0.5885145909537306)
(0.114720951952279 1.058647879097234 -0.5799149350185536)
(-0.003440135318392264 -0.001854575958359473 -0.01040177967754734)
(1.654675441906996 -4.388637605697542 -0.1636631073466729)
(-0.03863694179666327 0.01762937683327694 -0.005594442072147807)
(0.08214635595174616 0.0601520588549308 0.03187587307320593)
(0.006242231993438552 0.004192637170531344 -0.003015620399204208)
(2.930896925012063 -0.8417531831468652 -17.98191064269679)
(0.3257624620252639 0.8903540599670168 -1.008673457901876)
(-4.263684838369413 32.80065678744077 5.559981802454796)
(-0.1760089418317776 -0.06280934888755868 0.1297879537180126)
(1.583907995472078 -9.890634658536246 -11.1591451723575)
(0.5720834346591784 -0.1227569553916299 0.3722031095265355)
(0.7718789464892315 -0.9032295591371042 -0.5229988840304172)
(-2.416226592122407 4.718896109760108 -11.34752502203392)
(0.817120939550704 5.348340441342647 6.929391346674213)
(-0.4526174635142524 3.085248363537731 -26.66671872275295)
(1.117002595002763 -4.341421898549155 1.322436437270296)
(-0.02364180922533644 0.03270387032314787 -0.01538903184197598)
(0.04489984110651551 0.0150849053462991 0.02448265774850929)
(-0.1227816423280768 -0.09462547297870333 0.0224245365118075)
(-0.04751045193488643 0.007943348665176844 0.01737778822064983)
(-0.002527732598650058 -0.04667218111151272 -0.02276930706897716)
(-0.002191663932433318 -0.05890114659571694 -5.478748320734104)
(0.00977168608534491 -0.006924841964099814 -0.02351577015982597)
(0.02154033986793135 0.01188091084541993 -0.01431520816586684)
(-0.2351686013528554 -0.135826258761676 -26.39501929453099)
(-0.005787086778494431 -0.01020464272437339 0.0146332971951764)
(-0.02488365644551065 0.5332105067987071 -0.7325298792903882)
(0.5618211029134554 0.5280016560113863 0.02079439029295677)
(0.009102514814891063 -0.01245255289137516 -0.0674677719440632)
(5.185728810528702 8.321607213950678 -3.315925563159307)
(1.831641097840754 -0.9137543042696805 0.4547897023614903)
(-0.7210887394461158 0.1139209880837815 -1.340985133820978)
(-0.0254012529399108 0.01802299801446762 0.04622712433815686)
(0.1350433368933738 0.3115144588237994 0.3963347314721498)
(-0.06437968088799485 -0.04445985466786095 0.08527009065738005)
(-0.01825815824045424 -0.03900625372338987 0.04821246364369146)
(-0.05890363312136356 -0.01287254797165026 0.02025219311605184)
(-0.0006027900231690314 0.01338078985599647 -0.01269375623307499)
(0.6999538931157561 0.1962749428485318 0.05309881156102794)
(0.00153576567713741 -0.001570796332350635 -0.004736351820984852)
(-0.03901526082435911 0.04163608123561595 -0.003718558911301214)
(-0.0005145638510425155 0.00100218178645265 -0.000398182262198442)
(-0.04480525171101634 0.02368758672810057 -0.01539439782212007)
(-5.609179717234942 58.67875930138779 -8.64759506841054)
(0.0186025997341171 0.2844605309763953 0.1249996875311817)
(0.01844824775511859 -0.008417261549474527 -0.006204449540738535)
(-0.05314384287165742 0.02182269705515182 -0.03021815178287202)
(0.6285382658343464 49.43688619442997 8.371238220368701)
(0.09235334223874905 -0.0002713196895396414 0.007971847528375688)
(-0.005845842948492034 0.05766368338217402 -0.01389789089909793)
(0.8301240951450175 0.4879920487971056 0.06716124224553521)
(-0.0001786036944054267 -0.01069346126962462 -4.993507203656567)
(0.302620510474782 0.4584953889243265 -0.3413085250902419)
(-0.7689706967194048 -0.3982094339351555 14.89096939145562)
(0.3128830441901165 0.07638642139635171 0.3293514467053948)
(3.510478733410597 -5.378597631560385 -0.2624514852273165)
(-0.002794697680903798 -0.01263577306405092 -4.792108849459067)
(0.01292396344647593 -0.02433989963615811 -0.02561235534124462)
(4.572832250405367 55.93744574869994 4.453346876984734)
(1.569012432763497 44.90295472757825 -3.098099193716078)
(-0.01478196519760713 -0.01382896889882666 -4.991910678091976)
(1.62641955962856 8.599797051229061 4.251446468690861)
(-0.02231548878624161 -0.02802986529948522 0.02105022424988082)
(0.4714615286452098 0.5680653990358049 0.3879187378201664)
(-0.3607061074657523 -0.4200333577904972 -0.07030083789464235)
(-0.0009859128864756713 -0.0005590049624446783 0.0001697304103178084)
(1.320466024951345 -28.87620334304008 -1.670856686041907)
(-0.6425544719473834 -1.206453795151045 0.1317188685617367)
(-2.90325135480322 -55.18444371715475 -7.021434548826742)
(0.02242182904155363 0.1440692985868116 0.08553191736092661)
(0.9680561870512072 -0.5802633548308065 0.8130784512004621)
(-1.539178167446503 -0.3897417863138963 1.962022708563723)
(0.7203624152156292 0.2072281818234621 -0.06963310281943283)
(9.179295967172219 34.21968283433943 0.1902039505141433)
(0.4565309221050111 -1.241113243297378 -0.2022800122383948)
(-1.723048552834916 1.911490244034195 0.3457535991211186)
(-0.4479857750921126 0.3547770672832129 -0.3277176318937821)
(-1.351608163435256 -0.319245428030175 0.3602374816391267)
(-0.03280238220552111 -0.1981693436608821 -0.5309848176898031)
(-0.06429370311948557 0.06413019973216516 -0.01410883954842808)
(0.4767758871334754 -1.303752536057093 -24.29883837484723)
(1.597527047406863 -8.785973862844671 -5.410930821165447)
(-0.0008558473474511493 0.01984256347516775 -0.00638084283035154)
(0.06054819228737456 0.01074225430906625 -0.02151495584142915)
(0.6170973643840501 -0.05074634831352345 -0.1099882202639325)
(-4.69851094572713 -1.688578366487531 -0.4427627964440535)
(-0.02134472347464733 0.006012395211631239 -0.01183260297998634)
(-0.0278783678845648 0.5437697358506467 0.131008795061832)
(2.235925990161576 15.92978337996629 -7.273876154559393)
(-0.3391829170156808 7.310922096898857 1.186928369244914)
(0.001113213948074298 -0.0007203840092894396 0.001954834619288403)
(-0.1302562393873658 0.6903167592830146 0.311964946915709)
(0.8673215779081924 -0.3511648735901158 -1.382683340461151)
(1.644965934362567 0.8437394901442156 -0.8131549950106949)
(3.124799035515401 3.412434793907035 0.4321094335852396)
(-4.550313504644147 -2.098486779640151 -0.5514989736261511)
(2.092158729902247 -0.3516652416962771 -1.457454570253395)
(-0.07446524428211812 -0.01877422384378485 0.0815244583356835)
(-2.816208889071222 0.1844899967648121 2.605944361599188)
(0.02070725377177564 -2.230390157167625e-05 0.01420084947825556)