/*--------------------------------*- C++ -*----------------------------------*\
| =========                 |                                                 |
| \\      /  F ield         | OpenFOAM: The Open Source CFD Toolbox           |
|  \\    /   O peration     | Version:  v1906                                 |
|   \\  /    A nd           | Web:      www.OpenFOAM.com                      |
|    \\/     M anipulation  |                                                 |
\*---------------------------------------------------------------------------*/
FoamFile
{
    version     2.0;
    format      ascii;
    class       volScalarField;
    location    "2";
    object      p;
}
// * * * * * * * * * * * * * * * * * * * * * * * * * * * * * * * * * * * * * //

dimensions      [0 2 -2 0 0 0 0];


internalField   nonuniform List<scalar> 
19632
(
0.8001647173131963
0.07774607057432735
0.1130204289348783
0.0598375745212741
0.06087593793185592
0.1201205048501387
0.1076554690716675
0.696402297211077
0.7273692954535339
0.7445324634246069
0.1456495261991675
0.1334757925186723
0.7429628206288582
0.06805378598348366
0.1084545272233461
0.1859384518398348
0.09977566991618844
0.1263531017532293
0.06181359176453412
0.1806717965313963
0.7097557223136752
0.6115686925892566
0.7580031559779953
0.1322484109426897
0.3093843746984759
0.7166743925218185
0.6576777189071792
0.08160415592477506
0.05504193379734858
0.02664106195755891
0.08090552008029696
0.07999379343421598
0.1183086009274347
0.1231404332802131
0.1084381503812932
0.07868060916842365
0.3582012457147689
0.09801293705358556
0.6995094275753398
0.08232726745915865
0.1252518530102253
0.7413936792283242
0.1196880748660432
0.1065690452737614
0.06135010427904855
0.4794780256823612
0.1759185486241747
0.02006594970427808
0.05554536280176606
0.113490245914196
0.2208541251697951
0.2640863805222235
0.03348465717926839
0.608177578966983
0.06889048543533882
-0.2204364365943088
0.7163287036199103
0.3635294992726584
0.1165487520475264
0.07537492082801077
0.05400366546811105
0.05265587808581814
0.1522969794315024
0.07612789057466458
0.08734715496827211
0.04033730190230594
0.1143470540373859
0.05113440689708446
0.1746027200613355
0.08930490956064933
0.07094098627166144
0.205666019004695
0.2931680697253274
0.7135141196807897
0.3434637344184643
0.4121719415238229
0.170174841260229
-0.3878994096175991
0.1448482515666436
0.119505541315062
0.6293763633449562
0.03280835597989161
0.5134543720182499
0.1110197349152309
0.2221860234672369
0.2204686507794337
0.08544382140672224
0.4792692912242316
0.5080586243408299
0.1592959194243728
0.7057547004016848
0.7004571832743152
0.7410448679057372
0.0809798986079075
0.6784000749368659
0.6797394759882217
0.1131672770252068
0.1068044453507535
0.7116515332685375
0.1333975548591773
0.0272912482877311
0.05287554153587333
0.06092385701052339
0.06958643475864523
0.04798223932793607
0.05261988044770403
0.08347919783733188
0.7201173635769911
0.1986932935270432
0.109367922470531
0.1923190259421098
0.7808474035370362
0.09651447662593908
0.7346079210993541
0.8469267807744948
0.7055282146079329
0.7173392995732361
0.7499307480318373
0.1163909114817153
0.6844826435694689
0.2349797467671118
0.7014219264650362
0.09384546117805051
0.8111941252922439
0.8152950293034473
0.1333463853461739
0.7332558987168756
0.2529193031423866
0.007781561181559374
0.5901709925731666
0.5798043098787791
0.03904290719116363
0.1539299366381598
0.1314848906511021
0.6655888086992439
0.04651184211913509
0.8525000681072966
0.5248997915449063
0.1617401652966062
0.386255909319249
0.05633200288344622
0.7254418130189954
0.1253088657718792
0.9810915791111854
0.03061002478230555
0.7158645152654778
0.1104319658707394
0.3431666618034831
0.09540186273055046
0.3196508091984754
0.104434728042785
-0.1454920673551158
0.0888187259609296
0.1004212652334477
0.8855885676232037
0.7354861702156383
0.3296626440747251
0.6482804836738293
0.7316450204723239
0.1297325461957886
0.7900381868589199
0.1511387093891031
0.1366029776392985
0.1923877854720338
0.1112041157757688
0.7356673950233308
0.08373167844806688
0.179120869972361
0.1273516332664331
0.2333442979692474
0.1027152859003359
0.1865328602157608
0.3223447907788277
0.06505045066122597
0.3225163473417773
0.7159850168817741
0.6453864134364672
0.04795322372398515
0.4084105673485673
0.4067047617474973
0.1228439470664662
0.1377990128748508
0.1045326775387036
0.5420810999110034
0.3598195471512802
0.09914200775243812
0.1303083992673073
0.08230047878733059
0.6150276127247756
0.03801027720961595
0.09677858490497125
0.09580502404366179
0.139114663726385
0.1427489035337412
0.1489922878651136
0.1970562445337864
0.1093365470655954
0.07293330065941733
0.09515145642366193
0.2396097546649746
0.05515878200759314
0.192341155059645
0.2169048970590866
0.1412592348275912
0.1336241352452654
0.03944929066041341
1.603172244890064
0.1127220293039146
0.163312797892554
0.1476681979444582
0.1894923767387573
0.02455739800869147
0.09651750594736325
0.09076245582866259
0.08347450547105652
0.03436381038183125
0.1125034993258912
0.2782043779348841
0.2484004937553193
0.2287452430278603
0.04823306775419909
0.1216080518332565
0.3293609556100027
0.02118414136659565
0.04698269386597682
0.103040509019284
0.816663238697481
0.09332550122868691
0.8209567245032516
0.1899223319669771
0.1270860145067491
0.588349582487515
0.183765377696454
0.149287863410889
0.06042805755808116
0.07813171731647504
0.2588392364123462
0.1103014436735405
0.05766399069113406
0.07618261882321539
0.7206437901643222
0.4113739445398145
2.38605308505939
0.2225654698929916
0.08212556310846526
0.07630334050184942
0.2407866228429855
0.2076577444918682
0.170804550197331
0.3989947883893419
0.08609908763645285
0.5055418952843338
0.2036631747440249
0.1966594305555671
0.1732756487979125
0.1990872870913194
0.1928754811056479
0.08651773558266516
0.1363014815377446
0.2735466765534363
0.3085487039937071
0.7347027621248116
0.2787821227109493
0.7986054956626435
0.08621194131256697
0.02841943972456029
0.0654415961701291
0.6951535121693586
0.4451509047370474
0.7604205827690635
0.2345516191687166
0.5489194927238225
0.1495566515402941
0.7494584691175182
0.4873853053606435
0.7242948700609829
0.2826651524435216
0.3181778329345053
0.6906757575922178
0.6692840994975567
0.6835103439266389
0.105658033991012
0.1071995093059614
0.1617050266690969
0.09506314592382188
0.05761844154450876
0.3515807748972239
0.288755696374897
0.249673759200984
0.07098774221776082
0.08812778432952122
0.05337102230928079
0.6049085433721402
0.05704103793899659
0.06861021074698923
0.07139759670632857
0.04205782638557148
0.3404600884189672
0.3033630002915958
0.1007307666572874
0.1488756824789196
0.5205601346880979
0.03506921671037201
0.1401823005512382
0.3508123904845705
0.2873984059453835
0.1008600061241463
0.7347488293655733
-0.009528268030680038
0.1526659047484583
0.7048732611516618
0.6805771913415454
0.3059128930025432
0.6982527860591518
0.09817673308039858
0.2073061875123931
0.223887603749947
0.7635007922521755
0.0220594338790244
0.7321220829358764
0.8635338892168061
0.7206618323341758
0.7298326019828467
0.7347942495945765
0.2758269940154817
0.2797033185448454
0.3197767414769212
0.1204121847944293
0.1662036017916421
0.1828918507237297
0.09215863484958974
0.1995221791177305
0.2419862848811702
0.3856385201901084
0.03065831053569435
0.2673242418718463
0.08451520536915433
0.748682859121284
0.08725165140863653
0.1253890719454667
0.2753336500226929
0.06985157596297734
0.04100668950013387
0.1331410983767669
0.2454943461712419
0.1814861481820637
0.123945087019791
0.09306372714355626
0.1544927158092683
0.0956637328357772
0.3790241851037061
0.03216480726952867
0.04991819238962287
0.05367907144880835
0.2839108991714858
0.05423127097737023
0.09152190998355766
0.09150047119419413
0.2113303536709804
0.04521648225891205
0.3454291439819486
0.04664907116669034
0.09873021491570129
0.1536892130589997
0.05691408285831541
0.1886321085044793
0.1059935929996563
0.1070218471172272
0.1147587170094538
0.1545924778400531
0.2057054076480029
0.07234959273478449
0.1970621641383028
0.1553937053005758
0.08126270774182341
0.2063085016849311
0.04210977866460742
0.1444794270660902
0.1404075779346499
0.08369963018224209
0.1487400866503662
0.06484968291052128
0.1625613088650032
0.2709326591681506
0.06808699787230614
0.5350748325521503
0.5309046632366307
0.08629487690967318
0.3696734640707116
0.3776459524101236
0.076087924048901
0.2020652163189152
0.3170844474457241
0.09039588312941796
0.1581993786770613
0.7831354196812154
0.07358939975321328
0.23496844764737
0.17020764361805
0.2602940579676403
0.1635508803553502
0.03259057517076482
0.08583233676188302
0.06523530683506869
0.0462607737376317
0.1197872719401247
0.06027703435510764
0.05659254569456976
0.197599304293673
0.2115821755298704
0.1556609549545958
0.06333028127615845
0.06892916277617292
0.1839682824404013
0.0332744756957333
0.203616391712909
0.2413364215901067
0.1050735680332743
-0.04359651165084869
0.06291293522940519
0.04901198316996726
0.2181017764260105
0.08343642044250231
0.2580920915853288
0.8191170668336173
0.03970411928940499
0.2609044431014223
0.1931220789284179
0.2101834017099313
0.09991645363901085
-0.05865305621549324
0.2180006172078555
0.07804913986058164
0.1776251821841568
0.7958330448256072
0.1815817021065583
-0.01589033226864581
0.104821798878632
0.8335735432626709
0.2435556000232257
0.1747012795431881
0.1354741845321557
0.1508697527293771
0.1944293684821965
0.1924285189977706
0.8444591357969236
0.2518095524036563
0.1382802736710339
0.04150853864008013
0.124932017195556
0.06068208475760239
0.1595409409783334
0.153935485223538
-0.008031893460767971
0.2674092801642447
0.1075664122082923
0.141121262553717
0.05168678289901228
0.06830954766423732
0.05234573177158865
0.809047188819484
0.2186083264104212
0.1470929354345161
0.1481200968372398
0.1956292603135042
0.006275257775908634
0.1329262265193351
0.1336759688221572
0.09816369532037945
0.2184259705473204
0.2199099172471481
0.1876200866992989
0.2404780585088818
0.3605462320361518
0.159989390927169
0.2040805669457776
0.1675642318399488
0.278137041077703
0.03856611009587503
0.08368749371815147
0.181133674055388
0.3005908036158339
0.0916039309990514
0.07918501260973307
0.1269654831190672
0.02132462967659182
0.1266071584097941
0.1871093715275343
0.1315727271440596
0.4627974917088713
0.06867332434604362
0.1942513867300825
0.474211143279813
0.4168785817475863
0.133588715501593
0.4507715963612789
0.1557479874882352
0.3488682788920796
0.386926031350986
0.4469905915818123
0.8194845229234418
0.05040164617083688
0.1997017370453978
0.1785658817949703
0.6073560068442964
0.7239715642513773
0.1123589345558929
0.2019220934866
0.3895437667136983
0.1892248588796918
0.1724348442582038
0.1395721152185798
0.2956503435097957
0.09474390184934209
0.1125881038730008
0.1339397595714129
0.3655624517713285
0.1495984752160867
0.1986304347656008
0.4028446689813323
0.5610620476734904
0.3817433199171727
0.1179313611146385
0.1470252730650509
0.1331889687113637
0.2666783848815571
0.441951111798534
0.9435065274368672
0.08815583975878594
0.06522980401619956
0.4554484780311989
0.2573176872629402
0.2386299321783172
0.2566530798165879
0.8254061261300193
0.8771557042565096
0.1057702576257983
0.1239018658365717
0.4422964733913574
0.1096921074850918
0.2879034407452462
-0.006256731262263388
-0.01205113226510506
0.4785814172230094
0.2560179092814687
0.2471471284968291
0.2704731074211013
0.1522697213905946
0.1332295281890636
0.2547423943753804
0.2534365033353992
0.05432241039906352
0.07141778375074526
0.1033860808874929
0.09513311020121563
0.2659697201934332
0.14994337801987
0.1134465609051852
0.1581687242354574
0.08636113692564951
0.1352148246643944
0.8410659844592987
0.1686173946776831
0.3100636773565497
0.07063687368912683
0.02748576590074093
0.1054365666959145
0.2051258492923218
0.1894327216825072
0.2116088417448349
0.2142952412545678
0.1244386187539618
0.2435435284666837
0.1383370366127392
0.383872868089129
0.05187223756076255
0.3073817651016164
0.2948036030610848
0.3098846733953051
0.3836330915160983
0.4507365528419995
0.9703777825202514
0.08259295814382177
0.2889153516160843
0.2530097887570463
0.2053061736099902
0.7786388852112852
0.2377385062653231
0.2647502699820773
0.308354184988184
0.2359103938527312
0.3004691784495232
0.2339425800457191
0.2626090262145686
0.1947024562914879
0.9297029747230744
0.2990461100849678
0.1713745699884895
0.1884815186207704
0.199983497343714
0.1790340328119093
0.1934582471208873
0.188344804699835
0.1872977017952425
0.1825385490515854
0.08832743510128825
0.09425996090882179
0.1931855942947638
-0.001226891238322402
0.6757423615109975
0.1291780424590352
0.448157032995645
0.4943997903805362
0.1336398106056466
0.1343523098648745
-0.09570190353613396
0.3110848082371157
0.7821579510600916
0.1591258683233064
0.7004007985157699
0.2549395057568701
0.2871422904900965
0.2920753807956024
0.3112957478640357
0.3055742147760372
0.4290121223463694
0.145930308422704
1.015869897871495
0.2710917612167008
0.149203161125759
0.1317947181646246
0.1162225257235601
0.1311566832808706
0.3912420155430135
0.2799313662936603
0.08682441546807933
0.9011503912441218
1.00874387766693
-0.1113100580333032
0.8098374347961765
0.08985067449272804
0.2299135367669787
0.8221470621033957
0.2422104196902519
0.095087143644129
0.2425662005228257
0.2138894883150628
0.2170377277762549
0.2580428612709973
0.2544175271488028
0.2737098027623032
0.1525074658938285
0.1508751861938528
0.7710785117282707
0.8842426285833658
0.1652532889236135
0.1629544642103853
0.07465763252493707
0.1042278712645808
0.1077549333005726
0.1058260583682103
0.1019485750879234
0.1113926313981568
0.1457184621753362
0.04608962576030927
0.355975575060551
0.1219965562205888
0.2325120806154795
0.2284109833786157
0.3079801578446214
0.229848951069869
0.2290947671136229
0.3073018456061114
0.1058588710778647
0.3197607389566977
0.1407258437976416
0.1242974985795749
0.1285726244320394
0.0586416137977793
0.09537873554307773
0.06097364139438823
0.1368158817178977
0.233884335361739
0.8523790914254585
0.09468457494070322
0.1409421271279397
0.0682098226107961
0.08817134248627469
0.4335470060531581
0.07704556270522635
0.08614304438733938
0.7359403920776525
0.07891388576716254
0.1701993229501006
0.06953610716579132
0.125218770585431
0.1563862130287667
0.4133208979873259
0.1323559207898183
0.1457623324954173
0.2138575210363857
0.3464821127639191
0.2669261332199019
0.1092510309981777
0.1522051928506765
0.1419101312325925
0.1280264470939942
0.7681761591783833
0.7808388869001439
0.6980395240371925
0.2178702277648736
0.1014493169413562
0.172871788652014
0.1250566108451663
0.166343003432903
-0.0450791958757232
0.3428927723574144
0.09478000749594311
0.3087997111096031
0.0497404669631409
0.3538956360531755
0.2636423474571451
0.02793827511907796
0.816892171548438
0.2795571012987751
0.1909592911812331
0.08009975307779835
0.4339498552712279
0.2452835134155782
0.3896408078605831
-0.02562819065082709
0.225051146884896
0.161969216687609
0.6229190278669502
0.1588253613768609
0.03939911266642173
0.173242394660692
0.2245062015677351
0.2315590945738187
0.08982802125795976
0.3314885614458138
0.747902286749646
0.09649293348601197
0.1602625787120899
0.1629591370726122
0.2766890963477091
0.2283646910571177
0.2083230136119896
0.6627207663392662
0.1190682355028416
0.1249759391082449
0.125025305767148
0.09809084585422839
0.7175252452918505
0.4745027860263801
0.06617449424768188
0.1302047545014963
0.3389218343796131
0.06856180503054686
0.8294751201427829
0.1168164022587951
0.1237208702529897
0.01954301625674428
0.2399505168644993
0.1345462359380486
0.125916459811665
0.190947816848465
0.09280374390149566
0.2958334267408599
0.3915644758617043
0.2670841190382979
0.1963001471917687
0.1775734297632368
0.1675804044351062
0.1667990370639633
0.1714936030097685
0.09761476704454759
0.07629124495095958
0.09834110268874534
0.09920238242258592
0.2133089230454563
0.0757463502030369
0.09408314476077979
0.7950311634898084
0.7888416105877057
0.04712092593785507
0.131406797627286
0.1817018626044351
0.1164626925688541
0.08047887419815297
0.539936010133267
0.6762291136595009
0.3527745103426765
0.09003501283699114
0.3156827070822324
0.06838584546368215
0.05330441135955945
0.0788583956134416
0.1657846361973824
0.3453573152482768
0.3580923415921227
0.3590190443622139
0.2911239181704078
0.1196044970689632
0.1008659434593696
0.1117815437942284
0.0783436364849107
0.2051568691162862
0.1497114706348466
0.1079284140644475
0.2520766173217703
0.112595700766288
0.892806674836476
0.05543429557944926
0.9812615670197162
0.08521700802446855
0.8777760647725203
0.1393050867559645
0.1587637326693116
0.4465402172004177
0.36922661840463
0.09728229344138672
0.03063303639923522
0.0888414999958641
0.09196669519763181
0.87908676894175
0.9476267647562558
0.06263330386282069
0.8453578228104474
0.5330706939591964
0.5264177067570502
0.1238555603100326
0.5233582630226413
0.5198492472332682
0.2150907384243862
0.06602929517160371
0.834411371984167
0.418648927185491
0.1127721431461694
0.2698631471235952
0.2048316203114207
0.7645090918195262
0.8078350760606524
0.7900782291155775
0.1346335179645153
0.1006207062655686
0.3137628295156182
0.1182212694487611
0.1166710309408688
0.7575245188132224
0.09977173189321342
0.05160988871043454
0.06496122908643469
0.07783319348683779
0.06237400155389358
0.3128897905644635
0.2467060548432566
0.08273315836075386
0.08522576861252933
0.1361945138625457
0.3195825997888798
0.7428618663683249
0.1485097040042718
0.8986574135703513
0.2038457128671533
-0.1073532844011834
0.8131295314556105
0.6012554500306119
0.8126946042608871
0.02464913374035611
0.8264664215041053
0.0585639695281548
-0.002222160958958791
-0.07928069689430807
-0.06697146081281143
-0.1093424108444845
0.2001307436684041
0.7668982888902818
0.1323529056940582
0.1780465531531449
0.1511123325599271
0.08475186431733336
0.3860402148328139
0.1803365357291434
0.2100601522838983
0.8713759681759419
0.1630765826000624
0.3608378867489615
0.03133919347102192
0.2477209227801585
0.8935810406967215
0.0605973504590397
0.8156428400845835
0.2492898385456272
0.1079110944742373
0.0549143742277975
0.08372756130768527
0.0400437997043901
0.04287728737324983
0.1107159268230571
0.1089731103433824
0.1148596813227998
0.1086061787934454
0.8970430260850035
0.7321897644314649
0.7926959702663596
0.3429850287562466
0.6349061160393609
0.7940774505812679
0.7949860218930324
0.3179710611643372
0.2781051070386326
0.7805399563917919
0.1665534347593072
0.0784383737002744
0.6183685161910514
0.09297189383332073
0.1042093398998959
0.5850825565007359
0.1188402023404199
0.1141923855032945
0.1114694657957771
0.6118942139078525
0.1050396545959632
0.8003927049142529
0.05891509116536806
0.7690972422382263
0.7620715222244117
0.0202968037012222
0.8668944059760622
0.3937720266420388
0.04426481659502397
0.008085934804873553
0.08613620561375612
0.0865931181754081
0.07242027269733015
0.07889315640043897
0.1062852500921007
0.08324921643753429
0.07475304686042918
0.0412434620665415
0.03037197966100003
0.1046382153338627
0.04417811248496352
0.5069137086633729
0.6890644610703183
0.04565739576357864
0.7025227992345325
0.7502857567642852
0.0393920503071804
0.8410576938339545
0.7373953020703893
0.2177430007091694
0.03459175236477947
0.02854232020872563
0.03466119890936923
0.06008854229316141
0.8407035055966114
0.06541202621776379
0.05602941771576946
0.07995130052977874
0.04912747201480974
0.07285410492137397
0.1395495056479635
0.06381709206813693
0.8727783105144653
0.9700678395689452
0.1441873975954116
0.1698281399067558
0.1517504973298998
0.8963259454268954
0.04802543520771031
0.1516750324952273
0.1416839979198502
0.3729259603290552
0.3228635099095747
0.9910706388634574
0.3666699021686119
0.08960757299796827
0.4091436164873393
0.09233696041296108
0.4263247280475135
1.077757698106183
0.4437619525979915
0.4460758386699657
0.4020675991173154
0.8296482242054349
0.4432678001072967
0.4152554648832219
0.7616420564108695
0.3018082091316269
0.08055662919266861
0.03271048108682002
0.0878523488146204
0.03916014299318135
0.09082587972359024
0.8872955205278084
0.09537763476141199
0.1362003380710652
0.4313885076490978
0.4185798098778679
0.1076557454182221
0.4437926603467621
0.4941045499077264
0.4710491474228474
0.07759553335668049
0.4525788261584701
0.1197810075159734
0.4180289011371398
0.08742849720156649
0.4653253145406605
0.6184742490174542
0.3028183317040018
0.03584495568389828
0.2915736319974185
0.8712392950112293
0.8075099662048577
0.3587102678081697
0.5723905465558573
0.9409317065207993
0.5164933267034801
0.8200491746894806
0.2348584307565957
0.09136168685633776
0.9562455666971759
0.3589209434805103
0.2025836992072821
0.8773247041885738
0.812177021204327
0.8354207889266947
0.4051910342999014
0.1264901073114849
0.1048848289161394
0.07474910145854743
0.4563844736522189
0.4536557663730033
0.3797359968392136
0.6635297448988892
0.5077544809001459
0.7367762371251191
0.7320912978004425
0.839905838131617
0.6103764774909636
0.137254684420449
0.08953191915561665
0.1184668256962595
0.08982699718925988
0.7511486772132095
0.07069528753563745
0.131363738023257
0.4540341157279587
0.4504257405028018
0.4341404997700109
0.4154194206944389
0.485518263353352
0.4338677292400206
0.479500325621778
0.8348997934444456
0.5546260303119112
0.441143388759506
0.4375209756780005
0.5855192184978204
0.3981846578846389
0.3817427362139434
0.4947972093944576
0.4090042023308332
0.5245884343095418
0.08955723308085503
0.8348552940731289
0.6502585441103993
0.06530041199722772
0.05972029802443078
0.06149042683217171
0.5275735031831948
0.6270412543585892
0.06579685309797074
0.7171692026730456
0.6526806485157332
0.594074720024706
0.0643235890700246
0.03095585614255629
0.1261963571055798
0.1220285696311821
0.07042626151490518
0.0655312231155802
0.4742802618366124
0.1062129235720064
0.4397275254152077
0.4970477550553322
0.5189701090527885
0.1135895099745385
0.5805522848818615
0.606777451722043
0.6250668641670026
0.6405996170632072
0.114909553756974
0.1085090837108153
0.6025542445506575
0.7765013505120623
0.1105845628013455
0.8433837303540407
0.3482227193864756
0.4232285503155446
0.08627339490303365
0.4053089543354847
0.3807935831655842
0.2220855534865274
0.2287654711804424
0.2275832638775565
0.2894933253721288
0.3023260564501694
0.2388289155464024
0.7548940563698825
0.2202187781188338
0.3168559226521694
0.307521235775044
0.267164280110853
0.1818613167229911
0.2229387434426557
0.2088630259186253
0.1512784009005896
0.1702113711509168
0.1384069953849591
0.1685699500396886
0.1690626694276122
0.1569430911401392
0.4429205157271024
0.4964618273345052
0.4518369099746256
0.447588315521647
0.4672883697528717
0.4550581695058322
0.4219455214378135
0.4252331823698176
0.3500379043293192
0.3916266528343699
0.3764318971873367
0.2398924983146339
0.08524823692738293
0.218711776216103
0.5650329438631816
0.2300856751899672
0.2642706985870351
0.311854096361504
0.3037030372879025
0.4711626345782771
0.265517486540633
0.1419154807515424
0.6308235801775038
0.1314757102567077
0.5287400512886913
-0.0004040912707980466
0.3776780743346483
0.1474193975854916
0.2815137899057636
0.3509033932628108
0.242092548648166
0.2367768613386464
0.2582927262131804
0.2273049467566397
0.2246231138805483
0.2703451076768593
0.3642215073657408
0.2773365627873726
0.2182991347865502
0.2967540699579978
0.2021831313090788
0.1996597522329638
0.2330290202321551
0.2440504185529563
0.3026198858626791
0.3189023126875715
0.4076036252107344
0.338248825098836
0.7350229556158562
0.3013676508755279
0.0895736713620202
0.3119563181826775
0.3064756259466566
0.320624202992949
0.06105428038822
0.1216398745257819
0.09730587684406185
0.3046953698728689
0.3210009905705923
0.2875128287357567
0.2940550208508398
0.287011698173526
0.3022691271252044
0.8630877976252535
0.2549200692665601
0.3123172806059486
0.08680281993729902
0.3716301516162932
0.5769519988356706
0.3222108940488037
0.4183335492412135
0.2975939987065265
0.3922804967297308
0.3294566706409301
0.4112272637611665
0.4644871135872904
0.2653618665311424
0.268262666026442
0.2777398739311266
0.2552401931413556
0.2682216236855609
0.4298158603605992
0.2731379255736401
0.2343858731050249
0.3290423733626003
0.3351910452211663
0.3008970956349185
0.2763604935125554
0.2743209776075126
0.2481079718325463
0.2838180694388043
0.3060768095401927
0.3461280581625009
0.3344872588130052
0.3328803302567623
0.4238550986708073
0.3738080380870683
0.3309027279328668
0.7082970203818783
0.3377351805457887
0.3622200825033268
0.3389942007342824
0.4214320324775184
0.4099689873337432
0.2241428749901902
0.2484807376171218
0.2859442105172114
0.8074384335747337
0.7921993707190202
0.8931128883522039
0.5668567552185216
0.905372374299828
0.4266822548247399
0.6157389854293488
0.6444467615706926
0.5715498580967737
0.5066814169135228
0.5249265121288516
0.5074741359089632
0.411559236771893
0.8180978339727624
0.1747839236259091
0.1539139064675482
0.1449466304356477
0.1721147116553066
0.1604432132472246
0.6764065728337872
0.7410354121218349
0.09817364355169639
0.4522668510903439
0.09439239114762173
0.7761835876521707
0.3697472765006213
1.271317865087142
0.7130259384404771
0.3919604255612844
0.3586687049293784
0.0401358562196908
0.2136396260693282
0.2523856769694859
0.3646748369862486
0.5797180149715636
0.02450018591390476
0.196123220663138
0.2376616413104505
0.04700988186257707
0.14981317022249
0.2169953176081295
0.2146474292290283
0.2075706597032394
0.3042595058492322
0.3078422345216718
0.2856983128701802
0.1420164472288163
0.1430733533222832
0.1308508796552421
0.148840965475428
0.153317661917129
0.1762850520221102
0.1467652659467681
0.1672797426370014
0.1713101991881415
0.1886659940817197
0.1744167583264071
0.1811624917552248
0.1636512790185983
0.1620426180066456
0.124326429864633
0.1344201105825639
0.09741521308701755
0.09240990595140786
0.8396690611029753
0.1281047911372901
0.1283127291580407
0.1416779264794588
0.1650187724006676
0.1867627243981395
0.1789453458909545
0.2182303164966184
0.2081875088398593
0.22246779306286
0.2601501735253936
0.3182166693676803
0.2714541768001937
0.2652086010514262
0.2252869640513132
0.2049117675918895
0.1760240267213357
0.2165278615051517
0.2223031913896737
0.1953802785115301
0.2321894344677699
0.1435094934580907
0.3286570857154857
0.3304563866960493
0.298999075227259
0.3238466335101702
0.3078872565670531
0.3209920510049007
0.3153093225618571
0.3492549515572192
0.8541157513955636
0.2298285768709512
0.24417751735821
0.2417461771855812
0.2411486286033122
0.2487225474140939
0.2468319310577553
0.2435473222807664
0.9922569464608318
0.1646086454547368
0.1830334907093917
0.1705686971123701
0.2665288129476142
0.2636718930704163
0.7992565635056587
0.1508335232764664
0.2702038048656958
0.8946449141309942
0.2800534020941288
0.2730834695282076
0.2951927461234926
0.3038684017729297
0.2254328433630082
0.2432101183879198
0.2293935120308607
0.3233377338275438
0.2843169152489076
0.3109827680475195
0.3091547545266866
0.3198884840284048
0.3460164851117613
0.3465904217474795
0.3057814857393965
0.2791356477627751
0.3261069927004586
0.2787812693788072
0.3998035659542531
0.4043525490820586
0.2901772350712811
0.7929665370581269
0.2569896471734581
0.2728867289857287
0.3776006607119288
0.812694307915693
0.3929588850690789
0.4308334221730179
0.3919141496455238
0.4374709274038919
0.4682356177475403
0.3457101977985138
0.3949838052791421
0.3248142988228025
0.4995906223639666
0.479748144466275
0.5170689772714738
0.5431897225757965
0.6780303986330302
0.6725255490942224
0.3077659975419934
0.2762096698869213
0.2961988775480845
0.251596652777429
0.3010895975030766
0.315649145745753
0.5653973923196902
0.7050918684709994
0.5124035002259448
0.1901658987126522
0.2351202252876696
0.2126612532579079
0.2695325211368757
0.3174856521016103
0.1907899497536281
0.3398033639382769
0.2632238282635866
0.3294038542301904
0.3088147013681404
0.7225364451873713
0.1403237092462382
0.1406172214561996
0.1441691566044483
0.3942764419127403
0.2373907114878921
0.2017922948765931
0.3681250645192702
0.4398253004300724
0.525171245169614
0.5992220281169425
0.5453861915217268
0.5447819722723993
0.03241213326757535
0.8288093214724458
0.5976643601115411
0.4035416521797442
0.3100735779862112
0.3168653213682804
0.3552239762534489
0.3036920405150377
0.2782914728668665
0.5554294551986357
0.2481947412410483
0.4546495241056955
0.2836189426909155
0.6883160071421763
0.7478360409796787
0.3163394054814521
0.3350007109135443
0.03555273383144342
0.3352593803388521
0.21600280137578
0.4481882009069995
0.2837573883956162
0.3117768733886346
0.2606815183279331
0.6234047798763418
0.2351791242274689
0.3186380965308805
0.2887115365666602
0.8223523870904991
0.268989692074165
0.8881332548646966
0.2876569946554892
0.4148916306823268
0.229196332026128
0.1995875710286331
0.2087408894304383
0.2004867014342165
0.2099472314358068
0.1818616879804311
0.4055803402552858
0.1591962835658487
0.1934963042302697
0.075867513397503
0.1035397423183454
1.124699758741295
0.09053549499773959
0.5973134511266472
0.7919259040350511
0.7216057100937022
1.093977931248365
0.9909283159580728
0.9579922851295732
0.3492975483646302
0.3455536395760221
0.2903024116826271
0.3677103843630608
0.1111812172001163
0.8989564002042962
0.5625285516699277
0.896705347390402
0.1036991939229219
0.06152813035726213
0.623309805058577
0.05797914620956485
0.6771683140300399
0.09069691434705912
0.1319407027627571
0.1435578697062636
0.1151127489572144
0.05708540942494406
0.1248177151433809
0.1089028757078746
0.1161462439042324
0.1140239448298733
0.2081553432110513
0.1512886784165197
0.1573044111180296
0.9328319690055269
0.9084873071579913
0.5377332459716602
0.5532902271040209
0.219466557402022
0.2345365850533267
0.2586336466843858
0.123185056003445
0.113101128778526
0.2348171139944236
0.126264815802998
0.14898027955353
0.1506723334789575
0.1701395173051675
0.6498157724154171
0.4642490635941663
0.5253548873294495
0.8305673890823572
0.815379319580507
0.8305784355024255
0.105286217964164
0.3137632466939644
0.6954832051911869
0.9230360917217032
0.7849544345018463
0.7720770655456345
0.8160338996902283
0.6765962998712665
0.01506552918841091
0.1561744982085775
0.1636495969770476