/*--------------------------------*- C++ -*----------------------------------*\
| =========                 |                                                 |
| \\      /  F ield         | OpenFOAM: The Open Source CFD Toolbox           |
|  \\    /   O peration     | Version:  v1906                                 |
|   \\  /    A nd           | Web:      www.OpenFOAM.com                      |
|    \\/     M anipulation  |                                                 |
\*---------------------------------------------------------------------------*/
FoamFile
{
    version     2.0;
    format      ascii;
    class       surfaceScalarField;
    location    "2";
    object      phi;
}
// * * * * * * * * * * * * * * * * * * * * * * * * * * * * * * * * * * * * * //

dimensions      [0 3 -1 0 0 0 0];
oriented        oriented;


internalField   nonuniform List<scalar> 
37380
(
-0.374088931420387
0.9943771090576734
-2.774564057026996
2.15427587891353
-5.260810456851071
0.8374154465338884
52.38695038004619
-47.96355536975339
-18.28551547052095
21.91866133662674
-22.79813295887551
19.16498709291698
16.81053395855086
18.25141835319064
-18.54466735683782
-16.51728495489969
-5.079109495249567
16.72487603425358
2.811823078406082
-14.45758961738877
9.367503045828368
28.05183242495387
-20.92813924554737
-16.49119622516708
-10.22540376375331
-24.83157954972273
44.42448635932606
6.964610918464802
-2.988462021984329
7.613002677433273
-11.5891515743925
9.639403095357157
0.4350525849533666
-7.419283991292159
-2.655171689236473
-8.937616338534392
7.614091292821854
-3.176200866042433
4.499725911054636
-7.524143977058765
-7.274505368581321
14.79241897082279
44.37241106638844
-10.69950285489778
-22.30962571750981
-11.36328249395293
0.8655145861408398
4.829433078645061
6.953102609796825
-24.11448811454188
12.33195242610781
-14.93690129762409
23.73651593403228
-3.409489779850936
-5.390124856632616
-1.494413834216034
-0.9528465122033912
20.43926523459761
-17.99200488775808
4.408465216416105
-0.005252255829020457
-19.34011425822166
21.12499141807523
13.41198214380936
-10.8004576278506
-14.15171022321313
-9.914498028843278
-1.600378045669746
25.66658629780248
-17.92560395178921
2.276575989656376
0.3350656311086345
15.31396233059763
-0.08678153109226958
13.58520463864585
-6.533812189509242
7.28065759660779
2.74232247300964
2.540383347622267
-12.56336341875252
13.58873099024541
-1.558697442590227
8.265211670472183
16.64830341918031
-3.7885236714977
-8.333250517530898
15.12356618240282
11.1094862135849
-17.89980187914582
-6.211449718573611
-2.203382424820961
8.849884727940236
-9.699788145744566
5.607210600533779
-6.411522607302203
10.50410015151579
-3.218652122737367
-15.90083858389996
0.7816220334891312
18.33786867304094
-5.087180051642782
-16.71932109643047
6.409599929995061
15.39690121810957
13.99520308690402
19.53087591262851
-0.9102450128107737
-32.61583398672932
-10.14465269420389
7.741268423968781
3.927031328237205
-1.523647057977954
20.79912662328978
0.3891388897197224
-24.40691763576267
-17.59091939893541
-25.33470220370642
19.07682809044517
23.84879351245417
-14.33504815497765
15.42567756509703
19.70849721320208
8.559832483592478
-8.751153863411943
12.97326458404717
-12.78194320418135
-8.034913880985295
10.58199183064165
-12.92425131561059
10.37717336599941
-23.739931552322
7.435356145935577
-9.027665259776546
25.33224066671991
9.286063084651602
8.762370488547763
-18.05177185126729
4.57076127061922
2.624147562738937
-10.18337085568643
9.071999725981202
-7.311388862451503
7.525452221131175
-27.41100639844019
1.956197559676931
24.23240144554835
1.222407393026726
1.472547616954147
1.295796923882863
16.37552440404427
-12.7870821182943
-3.133019308740083
-0.4554229769902093
9.136879404343153
-23.37565185595752
14.84802845679495
-0.6092560052226184
9.226805109993684
-11.83975747907032
28.12685261706838
-25.5139002479483
19.2772509118337
-8.659624227020599
-8.225504148925344
-2.392122536120212
18.90567808455349
-18.9855497669628
-0.8713214882274402
0.9511931708403278
4.829270683397576
6.95565891062651
8.376180030533959
9.400047622947115
-16.66889016937814
-1.038866594208296
8.307709140737561
-1.884473678769724
29.90242046472103
-2.933373307469604
-25.08457347839491
-15.5642719759257
-9.509957729487299
10.20972973228779
14.86449997317778
-0.1707171854112837
-12.21788012626508
12.38022663216779
27.85288608203741
3.212882826119376
-10.73847532254729
-20.3272935856003
12.30977741494238
-6.315001107137694
-4.645088255380554
-1.349688052710807
37.04839955354937
-25.51400993061445
-34.52045954710956
22.98606992439169
0.1741461152247046
-28.62301499370587
-1.050190424770777
29.49905930340427
-16.09986189671499
13.53391842229135
6.817092991602172
-4.251149517848031
13.96560265245414
0.3329044103823108
-17.24044084217772
2.941933779651409
-22.17565540789344
15.41598645778846
9.949777671616351
-3.19010872140444
22.84447145476391
-22.06978339690109
-15.38374161951723
14.60905356168631
0.398558771209493
6.645690746007884
-23.84113442747084
16.79688491029744
6.175369513099156
-8.330474733577544
-16.83155325585556
18.9866584763662
-22.63479616935253
2.174540029745828
20.07059843001338
0.3896577094691558
-6.741130259404288
-11.47968521764568
25.63966341119848
-7.418847934128911
-29.03542749006999
-16.95344910458322
16.98972787861955
28.99914871611526
-21.78067348128323
7.07500971471524
0.5990414796462886
14.10662228694783
13.8858082292061
-21.00055454635874
-20.29626008156026
-11.07528058336046
16.29745195035731
-9.220355347720149
3.998183980735074
13.52251450778289
-18.64891518881121
14.97922159696313
-9.852820915809595
-21.82610695053968
30.71555686877201
-24.87834358368983
15.98889366563016
23.17760538538328
7.004370386948159
-27.69471893673779
-2.487256835603056
-16.79423661181541
-3.740548746397528
12.18541446960415
8.349370888655745
-1.320042401491659
5.195673587089123
6.180110075886474
-7.820798524105244
-0.1314004830374506
13.08191672783786
-27.25831961322745
14.30780336865944
7.04729846735608
-16.31791024630573
18.75123982414775
-17.14286780676641
26.86058314329064
-9.722065963160446
-11.22319696038711
-10.41221804953783
21.64646630500603
24.58902799044013
-10.47137525704122
-0.2318445042856369
13.5087859044643
11.33556537495659
2.673515713350836
-27.51786699271532
-20.89970203905037
8.132163566025746
6.560016314889733
6.207522158548251
4.440027243183744
4.828680999316861
14.40101182783492
-23.6697200704058
-7.853195555466352
-12.41632186932402
2.371711894071678
17.89780553098636
10.45192038401703
0.7758156773088061
-15.83160902840028
4.603872966962211
-33.10077167334768
-1.692796835112155
8.32050657349801
26.47306193419228
-24.34197154272501
3.858148730095943
-12.61694886088183
-16.21746917537396
-1.05644046077963
30.45662923029087
-13.18271959411197
-15.44440128362236
15.9238047242366
-0.4995931548845135
-4.171609216071137
-12.62134858545806
18.42732509326333
15.51109247499172
-3.147557401091522
-1.41270492323416
-10.95083015088236
-6.596599917835951
5.865765109487144
-0.9519252643170613
-4.923417616602449
-0.7212570371177679
5.878253777120875
-0.2045699156343019
-14.5590451916695
15.03554336984027
-12.69435002679378
12.21785184865531
-0.82699639860295
-7.659862820767416
6.244972347028773
-11.0401087756515
-19.33976939959167
-3.470130394756271
6.592430618979746
-14.25987432898329
-0.3027146026154952
-3.370077854337889
7.927364171963859
13.09839906173499
-17.6556853800364
-0.4428552743238745
18.52465411566082
-18.08487953452154
19.00089887381382
13.24037653431727
-21.82836844427225
-10.41290696381217
-38.03794653747823
0.068979566364791
20.90412614361275
17.064840827542
4.411875285568766
-30.7041345323568
-1.88384152843916
28.17610077528373
29.21645753927319
-25.16867525666343
0.3640930029903819
-0.1969978682488387
-14.2544314681203
-10.76347095532226
25.21490029221598
-13.35128244338236
-2.62599661042421
18.27910014645371
-2.301821092638164
-26.78661103586038
23.43176703853936
-30.6546058733192
34.00944987076375
11.8520787780627
-5.758750233587064
21.19095597095623
-18.54301226358384
-7.668861075942478
-7.467214824188323
15.13164598720046
11.27301849580235
-13.52256622747618
13.92440941771306
-11.67486168598022
-20.17270735005969
11.56141800244134
5.873529877899341
2.737759468850042
-4.962044888430149
20.55164676676308
3.257437565713814
-18.84703944417434
-16.99971946567076
12.52728923774031
-5.139948062507006
9.612378289309937
-9.903934630137758
0.7745355525733558
-3.094824676636306
1.0370694719366
1.001506011943755
-7.251029854580396
5.212454370680963
2.454074764389402
-5.919875808174138
-13.21890667487231
-17.66371670982179
29.30818211330512
-10.17868995379589
-1.465775449580176
7.052223320549431
1.208250163011953
-7.22340401185819
-19.50161451067374
-12.20289633272464
16.88013264778965
14.82437819568578
-1.720500467918795
8.162877755033938
17.76708939436785
-37.30953237459737
11.37956522520669
4.972470749651182
-3.314987377948453
-9.15992570934189
0.2955628034372144
6.800792986092659
15.06600763250854
-14.12596062276816
-7.740839995964325
1.585334809895433
-7.550049884521941
-15.79664405195341
6.95965522955944
15.45837503081115
-6.621386208369109
23.13331615866518
2.745125497966613
-18.8604922204322
-7.017949436148743
-6.790446811219473
-0.5947019595015383
-13.51455326813562
10.76235021410303
0.7805485066102457
-5.732640669494224
-5.81025805196764
19.01120034911775
-18.40656280533076
23.11350200509737
-23.71813954885448
-6.080167383611964
-12.14787958995032
1.546265090352122
16.6817818833773
-0.2568638485718148
-13.0628803928902
13.31466185340295
17.26136515142446
12.66580910021327
-6.992847344782398
-22.93432690807139
13.12186287341676
-1.804170739915697
21.67686159244453
-32.9945537258896
-14.43038244104554
4.276370537149822
-18.34788160370876
14.09603783288991
-0.02452676758180259
-24.70262259448704
-11.80743774446252
-3.028884966524753
16.65448166484126
-12.8395186209489
-0.7860780778468314
20.66387310937268
-16.42191112045686
8.879900884540294
-9.016259158024344
9.098472047085089
-32.43431297167065
16.83935144722661
10.60115910343144
4.993802421023117
1.737288991747141
-2.557137607632823
0.3423004767332483
0.4775481386420232
17.57153694935074
-10.6312096251341
-24.69446337760299
17.75413605339744
-6.409190299602917
9.617439100160967
-17.66821299415887
19.61070348553286
-11.55992959152489
-8.719716778619562
7.685719871337813
-27.6678680250522
28.70186493190076
-7.716784103008148
23.53492675094823
-2.685057176436312
-13.13308547141673
-9.699120442839934
5.729100872002703
-24.24269228137729
28.21271185175168
17.9414353542427
-9.182564310234708
-21.14204532927045
22.21994841170865
-18.21849460585688
6.230633037666183
-25.70852482561471
26.08303309402538
-6.605141306175857
6.523884997047008
-29.94605024627238
7.870602377817142
15.55156287139542
-0.4521972536175428
-0.3897615996710599
0.9169490657518067
-0.07499021320216787
-12.14769152566451
5.745877842350556
7.938673530924443
7.826109459817028
25.27056877978801
14.21185548389811
-19.61337081851925
-19.86905344551785
-2.082264910863961
1.36593320057328
-8.29992744794276
20.27751174713299
-0.2753445531290604
-20.0056455527247
9.240893406206784
17.98206910989673
-12.96586997677597
-14.17337683481266
9.157177701771442
-16.55796975126215
-2.22725041113231
24.43778815276147
-5.652567990323796
-8.663833249528581
12.23317729430877
-20.12731379600169
-23.46668761040492
30.50488078324692
-2.758956982623662
-4.279236190303161
-2.648843544215194
-5.059963121254247
-1.636252015015583
9.345058680407321
-1.324442204602887
26.74802189211029
-25.42520831118301
-10.65658674034346
-29.74684198338602
16.93674111336087
-10.13182795423945
-4.891613480229136
-6.270610433995341
13.81020779129031
10.35107071555478
-20.77915609878175
10.42513529709585
-8.882310513707187
20.46526789386001
0.6338851383190588
32.48860330749147
-15.55031687010558
-17.57217157579436
-9.762866554047713
19.864493890276
-10.10365883540656
-13.09317801026278
28.18985921930456
-3.610481071531981
-10.07831413662766
11.03995166383889
14.92560787394199
-9.889416381014085
-2.39613356159238
-2.640057931517581
-6.417364608971192
-14.34075058334362
21.6665342793183
-0.9084190869966146
9.381452889261928
9.160994932891448
-5.736327760656501
28.94565199422592
5.989924187269005
-29.19924842161033
-24.5270652445668
0.1314791545036227
24.39297158899934
20.10263316923676
0.7591536668597537
-1.535984240375171
-19.32580259570364
25.51466893580099
-16.99180688221853
7.118943968494339
-15.64180602190889
-4.081893881636152
13.50200423074465
-4.426698449406618
-4.993411900337724
16.70685446919287
5.946796214334688
-10.34766268742497
-12.30598799633501
-4.111902183228271
6.506983070934497
15.12325859770483
-17.51833948539508
12.44395472982977
-10.79941030515387
22.35731765012981
-24.00186207479964
-0.008441199624167338
-0.03545805527185594
15.56134380350554
-15.5174445485636
3.172599556737223
5.91597794227758
1.673772714683282
0.02031087073216203
-20.13706847337767
20.07467746745194
0.0420801352022168
21.66805689300359
12.91078198468477
-22.75398072087925
-11.82485815664503
-8.412325090288537
-7.627853440796603
-2.01582939326768
18.05600792436257
-6.426735911207976
25.16191435775256
-15.68087337259931
-3.054305073795252
-11.32448986735597
30.63284702254099
-11.39252707934043
-7.915830075677483
16.18223205271536
-15.21759196597345
0.7451364226299841
-1.709776509220833
-1.921469322321335
-1.309838552236233
19.41353992736367
15.9228263619704
-22.11440334616604
-13.09256847495098
19.28414545913727
19.12162726994566
7.105596364761435
-23.69496647926687
-2.532257155345624
2.981464274807375
-20.02664843159842
17.04215849555482
14.29935171758224
-16.60508840610902
10.64731456864435
-8.341577879949247
22.35503682054961
-0.6422240051717444
-22.31209863414702
0.5992858187834712
-19.05017516342604
19.93039266900745
-2.801686827785923
1.569900678869146
-17.92161360454898
15.87986591106778
0.4718470145349543
16.71646921390889
9.201535177239849
-8.925537370070384
-13.11325732618859
13.15155807550872
-0.04375738612304924
-18.66082330988439
5.60091378575081
15.03480944552201
-1.974899921375616
18.4072496184152
-8.198483844338925
-10.25918131944129
-9.65931705085041
12.83663370395448
10.36249252443664
-27.59407854432045
-3.264476371332075
2.768441734489424
28.09011318154341
0.04780897908568978
-18.53179860984403
18.4798028562257
14.99723079555416
-26.42982082507866
16.81487458826285
-5.382284558757158
5.634085818355236
-5.460419650869105
-15.11211381547364
14.93844764811244
20.07999436682425
15.09480601433366
-14.89728863400219
5.774976257416088
1.723794363776613
8.698528050980014
-24.83244962248219
35.69305257973839
-2.83412832939173
-8.026474627651819
-14.66229093833249
35.70694419348415
-32.53277481629076
11.48812156115703
1.189193088615059
-21.70141492350157
3.003083596478502
17.50913823843215
-13.56359999957219
-9.100853421204839
30.7810254945145
-8.116572073869737
8.730767226468961
8.048154201277642
9.234512665387966
8.203190650578206
-17.44635332492096
-1.444008657024458
-27.37388304955579
29.42407865224472
-0.606186945642363
21.7792749423304
-0.154641239638425
-21.62664417173422
-20.01262301867577
14.20105880864508
6.496677130021713
-0.6851129206125049
21.05815385959745
-20.35650564398462
-11.677393143434
10.97574492782283
-17.91289576250298
-15.29336153752133
20.11112168021539
13.09513561981629
-13.92536097578689
8.62517811247791
-14.83481402774284
20.1349968910403
9.977496287787114
-21.67011925981719
7.774024108354917
10.3105877141505
-12.23663662281493
-5.847975199655909
2.381725967052002
7.892017644912157
-25.60908019004201
4.931886124070656
1.199548616105892
19.47764544960596
3.833327803829152
-19.30153991534118
-5.642781550998603
21.11099366240688
-12.60298993962901
13.2166309170141
-15.14685533310483
14.53321435571311
12.27075179282252
-12.14096598220303
8.665195047975901
-8.794980858447623
-14.82311039610654
-5.595775082746457
6.243943184580511
14.17494229433835
-11.69634500443268
7.376968161080754
27.45269300205585
-1.657417321037435
-24.77280568788667
2.465324061979169
23.96489894704014
-15.45284130567807
-0.02326374419888655
15.47016049495676
-1.411214341767094
13.41019065623727
-12.00122746485746
-26.43890084000009
22.42134125866083
-1.094750037809931
5.112309619177887
-17.16816197628322
0.5306737367736543
17.41871922746072
-0.7812309878441838
-20.9595362412035
0.0509322302131848
10.77662808783758
29.23561066740222
12.44500022963669
-25.61567730830031
-16.06493358867814
10.22318768269578
8.969663651936232
-15.71596229489101
-18.37346582516438
10.7799773659734
23.30945075407082
13.45164981470292
-15.93627264300542
10.25864693669697
28.07548046481803
-22.28561365184137
-20.23642057839226
14.44655376543294
-17.5925490161266
-10.15174898395453
14.36373390921611
13.38056409055505
9.51264809493145
-22.23391257662494
-2.994697813104402
-10.32238056744205
-6.406761853993255
16.72490716851186
-12.74451278270172
14.95000154120495
15.60121495076561
-17.80670370948369
0.3772863935665329
-0.2188745117206682
18.68425786126226
-18.84266974308423
-18.72896461812912
0.08159018116772343
18.63478955012338
-1.304840092127282
-14.92118750392036
25.73867569107828
18.74058739176303
-7.352023779012884
-12.69340370470958
-14.93818192403814
11.47165968856833
30.27643081466314
-23.00750311118961
-18.34951697610265
-8.578092355099251
12.00642182732897
-8.745738974587557
1.839571622486619
-7.066909656108263
13.9730770082167
-21.38903898561784
10.7910513512813
10.59435111441775
18.54352671865055
-5.839150282590472
8.051244968051025
-20.75562140416055
7.530713007507289
34.52909138713252
-3.046783403100922
-39.01302099206614
-0.9987979734680252
-3.417189988849063
16.89635071911655
0.8389922811829416
-14.31815301150782
6.122951265524852
-2.437395953611814
15.88670800018397
-19.57226331227778
-15.73149548451783
31.87964840313352
-2.143615439046292
-14.00453747956105
0.652977850348654
-0.8313243147275586
31.20249236550413
-31.02414590079412
9.621556118241173
-0.5499407965221961
11.36569084882066
1.720899266627169
1.739581019212211
-14.82617113463662
-3.962410587709687
3.273874418947523
6.566789945203419
-15.61099220309278
18.67995031502351
-1.348160268528879
-1.720797843071269
-20.66460225040296
22.47827110401197
-5.727092144457845
18.53122833493531
-19.53631468988654
6.732178499492
-1.454723192517722
7.113868722276602
0.5988978675227159
31.21463653845988
-3.241637887657893
-28.57189651792428
-12.29724186195402
1.015064922604557
13.61367700876735
-1.105778079331668
15.22720422789752
-27.73510315701533
-25.1760285904655
10.79973436285955
1.956925850616368
12.41936837738233
-6.879265913480142
-0.2867758514853146
-8.68834484131909
-9.741549817175462
3.858524289678047
19.81967440635088
-4.279977911307268
-29.52902152629627
-10.96082849702371
10.84581980023908
-0.2325994900439498
-17.17225438858072
38.86808737583134
-21.4632334971274
-33.2638149582987
17.80678658857662
-1.970357284066257
17.42738565376587
-0.06729906905919103
-20.27794627754911
0.1129557495103826
20.2322895971176
12.85894681513418
-34.86854471907585
12.74685657086784
9.262741333054661
-17.62281779979607
6.060466218316111
-15.34040898896586
15.32486977219994
11.46628957791343
21.96517174977738
-25.96235316345152
-7.469108164166562
0.1222013055584723
-22.66166410124459
-0.08040577447460719
22.61986857022453
-9.750224245200581
25.25482214517773
-26.13905457285937
10.63445667289905
2.860729798619221
-15.36778666883246
4.685781396825195
7.821275473182815
1.487718367806387
31.15332320162402
-21.17475199147215
11.98774240108127
-11.28532465091923
-6.568853061783626
5.866435311647568
-5.673496084003564
-4.080086459872944
24.55521907463639
-14.80163653077046
-35.53316347971873
5.72683710018635
2.518895695585014
27.28743068398616
9.360482020185781
19.35714825674559
-9.313946508903424
21.96817325153603
17.98380440533179
-25.66923662006008
-14.28274103701622
15.16663013820025
-15.49421761483964
-5.24662056640424
5.574208043048529
-11.45178874237594
21.36987732963379
-9.921300502298237
28.05765657185594
-23.00589657240564
-21.65465628113633
16.60289628254726
4.906739708896199
-18.98856752484706
12.44514651167988
1.636681304287651
-1.031234093121677
24.00204546188035
4.129450757299473
-27.10026212604889
2.142103645976206
39.69765270872573
-14.94694062968742
-26.89281572589452
-0.281895297296907
3.027758702054375
29.05473919570502
-31.8006026001046
6.603159009503389
2.74503287125396
-14.70166862199563
5.35347674124974
-4.885622843590332
15.24065600965702
-2.180747331688042
-8.174285834105923
-15.99813585918245
-9.694210430606699
3.438452853831986
22.25389343591762
4.727089763726916
-19.70541327570586
-5.449402758630361
20.42772627058637
6.917835577703861
14.10158368420868
1.069442996239258
5.352414600673794
-8.504122507970125
8.676117520438911
10.87461695270787
-0.6821491585503752
-18.86858531456384
-0.5374692220862839
5.447216075338429
-6.630247321325284
10.51936364486855
2.929627619035664
24.47771336426512
-16.040418320666
-12.49167876225299
4.054383718603376
0.6720580304752399
-0.7165734896173113
-23.47742182737278
23.52193728670171
-2.671950572609773
11.12082389761342
-13.11925960294958
4.670386277033913
-10.22246751009213
34.52472691561459
-2.634202512407835
3.981679910210006
7.665828951878049
0.07745753105593302
-0.08358719079691315
0.5807290737596024
-0.574599414657284
11.64700874045051
3.65605729354754
2.851003384011876
11.18833268660609
-0.1586278532910581
-1.417326544333256
19.38857961187425
4.881481216204655
0.2798685371275202
-24.54992936630404
2.83381711483412
-7.434092854965719
33.13780136676852
-28.5375256275293
-4.953393914071812
-17.14957766041152
1.072079892489794
2.721658952345688
13.35583881566543
17.03019790896679
-0.8831258953162927
-16.1519945964396
3.544354433366086
-17.67874288589701
20.8956505547474
-6.761262102006401
-14.87912058039679
17.22246872642728
16.54687940041248
-18.89022754632516
-41.73116080145037
-10.34704324474408
24.45201117134924
27.62619287491621
16.48869414432147
4.601486243948472
-20.72444934986528
-0.3657310379008987
-37.26679932519894
27.86941136761405
9.638262981108898
-0.240875025288023
20.16315429509814
-4.183670642200342
-25.05415058143238
9.074666928568966
16.99483678946806
18.86751546400417
-19.37365810817782
-12.05329185149476
4.931884920033137
-11.36826584821174
18.48967277970543
4.285756836653893
-3.642524964477846
-1.738304924304182
1.095073051175109
-34.26121856497227
37.48523002321923
1.37757885583108
-4.60159031410476
28.95983955738884
-21.61011949366232
17.29060556032319
-24.64032562398561
-15.22827586896992
7.566606509950847
24.65650614888244
9.946841211095233
-16.27775998129499
13.53302805227336
-7.202109282049452
3.422099290340061
-27.07232055155178
16.80001101806853
6.850210242998898
4.777898462781669
-3.705959986674638
-14.0339275451693
12.96198906898887
-12.24648798409737
1.619698359127199
18.92618900539588
-2.650455651371099
-24.0671847745232
7.791451420484012
-6.943536990169281
-20.23305808535225
0.09173227981922653
27.08486279573239
7.382154184712542
20.65662005931169
-9.112585238518296
-14.32005208671288
1.930372398277858
12.38292252685159
17.59810976119206
-18.5172739188755
7.407511897096853
-6.488347739343194
-24.01384825128084
15.73443272534493
13.29897210224849
-5.019556576427069
-3.6698764565807
3.063766848567458
-19.24457933750724
19.85068894561076
0.6867305568639355
-12.15851080766175
6.603664997102796
4.868115253733452
-15.67076791322036
6.516819121824879
10.52642100459077
-1.372472213200021
-14.4634555164505
23.85090563059047
10.00112949739287
-10.08144117454567
28.02591738082435
-9.515791110459825
-8.428685095800082
-5.266215438870049
4.017365672473137
24.45855960320257
-23.20970983667441
-32.0985695703556
8.293052600986412
20.6545175964448
3.150999372920224
-24.34452909107054
0.1600614161898082
-10.17843955275309
34.3629072276407
27.55776145100932
14.93152266259874
-14.45025368137347
-28.03903043211024
-1.572836765970159
-7.669841512569137
21.56082777781764
-12.31814949944147
-9.502305769353386
31.5057609805102
-21.38429861551046
-0.6191565956246625
11.74882848845828
15.50899285141932
0.03895730236075996
-27.2967786420504
1.676525245542578
-23.42848790975567
-1.569660985002328
23.32162364921084
16.14843822425879
-13.27750374261349
-18.77177306558322
-0.4432176848443655
14.21165854183028
-13.77597475873745
-22.13382483542701
10.9848822981995
11.14598830265631
12.11872794143754
-22.61661600241269
-7.73448399878284
18.2323720599374
-16.68949661185333
13.84287731370439
2.843286944400683
-9.065405437456906
12.43016950916438
18.0642984257182
-21.42906249718781
-15.9951925725739
-2.813803802321211
17.49915782281119
0.8094226766804201
11.91625612024341
-24.30561271329922
11.57993391642326
-17.63589369759154
12.73365641943298
-11.09295529427519
-2.988412047730751
1.237210739871717
-18.42519871704524
20.17640002505567
5.800764521032211
11.85459307932329
12.99062169992289
-30.64597930015238
18.74472546814262
-2.14043198604912
-8.168606612876721
-8.435686869429679
7.497167968977427
-2.470377875349965
-21.3879669615071
16.36117686788519
8.915400302975382
-28.66868112843593
10.68787538817284
-4.782885963728442
-13.03811030674484
-2.7321343573683
20.5531306281195
-7.994554557876281
19.09600402186986
1.882316801713633
-12.98376626564882
3.024327606719423
13.84113026476063
2.051522519601843
3.924332136033162
-23.34820255479128
15.16160452277874
4.262265896028444
18.81748937133261
-15.00554971982837
1.501833892079884
-5.313773543622416
-14.45899883988266
1.134777147510638
-2.047904024127211
15.37212571542041
17.38813297196168
5.837005460369369
-19.06724287692998
-4.157895555337632
2.621034604655655
5.123443657538725
14.47292652966271
-22.21740479218068
20.66920596294372
0.1990020067631058
-25.45398714822806
4.585779177087054
29.36640481938084
-18.69391056723996
17.93933879652009
-28.61183304899327
4.624727447932963
11.36846313117517
1.784980196035292
-29.99681463830882
-3.22406160072515
20.4518180391628
12.76905820000966
-4.135408092671861
0.3506731363115173
19.23125641048319
-15.44652145410459
6.922629286788352
9.379382158601612
4.806365339121569
-21.10837678450037
12.15722829228618
-7.07111078000448
-18.07689382184608
12.99077630963405
-18.49779162795896
10.04986032727807
16.12243658051215
-7.674505279801424
-18.57038272859987
19.90126995924804
9.114276754316455
-10.44516398503034
-7.932823815442913
25.52617750213762
-0.4227096267497573
-17.17064406063752
-21.04173949972503
-3.343430431012859
22.77357036008987
1.611599570728126
-2.325708365637133
19.29224342007154
2.829310216254163
-22.36344899863825
-6.849958330881547
3.604327139173819
-26.91005834330144
26.22894550960382
-13.7823426832137
0.9139334285037646
-41.84776515569291
6.883179902122526
-18.67709528222369
34.56372616114469
-22.76981078101169
17.69695742021142
-41.64682697713877
-13.6921731569824
37.64204271396257
26.43635941086297
-3.631479902208398
-22.38985481799985
-0.4150246906090806
4.304117129597403
-1.434767498242733
27.70424452204901
-30.57359415335652
24.22285896203244
-26.39944644354692
-1.141161955183758
3.317749436697425
15.52620391844806
-12.55534049321553
-24.28217332267097
21.31130989817941
-5.593293776259411
-12.91373286372598
14.29257598355771
4.2144506564269
33.36299786365545
-16.98962395017949
-19.74648377424809
3.373109860056794
-11.46237783310025
1.612918004223953
12.46573865217881
-2.616278823536649
8.015280845152732
9.711766931734735
0.07008208741262235
-6.28417586995395
-9.830651728026035
30.86113426668406
-14.74630666867629
9.917887643084814
-20.30703909369489
9.020631325327443
1.368520125269287
-19.45000575339392
25.24526264357203
3.457171413204555
-9.252428303547228
14.28958588709038
20.46267538627368
0.8143668135917368
-35.56662808698705
-27.19089755056776
-8.584804448596886
-11.60606978233577
47.3817717818318
37.74070222321235
-11.29424744898543
2.566162528468081
-29.01261730261912
15.63789375645602
-36.02594719901062
-8.403454823670248
28.79150826630039
21.4389810738124
-12.4424779027037
6.185713910985673
-15.18221708200938
-20.2576823576726
0.08162866759228839
-3.027627115349958
23.20368080551653
-21.26374389155029
0.1005903202898108
7.46248310782226
13.70067046349745
-10.93562926998111
-20.11391941852673
18.80103203843469
12.24851665023652
14.01904555545137
0.2495074777428433
-14.27179437746062
-14.45075408293497
18.77672035334971
33.4147359526806
-18.09239867431582
26.02190680767942
19.38229199475723
-27.31180012731738
18.94019245466611
-0.2240066005290535
0.2847130196904086
-10.61034143061197
-9.6559537417223
2.455546491086614
-23.01398541228855
-6.63245862928328
-21.14911862182954
10.52542708898637
-0.3119377370720265
3.485899309582995
14.95299676222
-17.24970298312692
36.99725475541938
-16.98982402913257
-15.09793240182854
-4.909498323675591
-4.201610624183651
10.88033654960119
-26.79264534385102
14.20774134218715
3.808156381847459
1.714740050147623
-19.73063777404742
1.265582524066468
8.807183211140908
10.58713137940995
-20.65989711525994
2.255536851933587
-3.673748416352448
0.5401968318738312
0.8780147317677534
6.396949293514402
13.00742696651514
-1.27023290757984
8.744192284247328
7.947966354204914
-0.3166342344114279
-3.65581979317558
-6.71390856082128
20.16237472999889
-9.792646376186555
-42.65477735027661
9.510397116234371
15.0519815600147
1.646057767552651
-19.68088291405305
0.9372289377775841
17.09759620906057
-10.82497131650527
20.93871083704467
2.358039485586125
-12.47177900635497
26.9825595022013
11.5255434390941
11.18067567391932
-49.68877861496252
11.33773930336059
5.466395942078598
-15.80898423958423
-0.9951510058894177
-23.53141993309731
-5.922130298129211
1.340076296284308
28.11347393503544
1.203007279955117
0.5925578849956923
-25.32698509796558
-15.30180314805187
-5.577319431438355
-8.030869367454718
15.42320992982226
-15.93591402492376
2.158761863052806
16.25624579380657
2.763812500571882
0.8606477858188076
-19.88070608025248
38.53447573790157
-20.80479520426007
3.578233888953285
-21.30791442257807
20.41528684183725
-27.21086707191752
6.792581708891823
-9.087799918839245
29.67129773434675
-1.466678990922522
-19.11681882456551
-17.34127031965871
-5.42771395870843
14.93772073568572
7.831263542710992
6.83832467472614
-6.684198053218043
-2.567689634252292
18.28414935826794