/*--------------------------------*- C++ -*----------------------------------*\
| =========                 |                                                 |
| \\      /  F ield         | OpenFOAM: The Open Source CFD Toolbox           |
|  \\    /   O peration     | Version:  v1906                                 |
|   \\  /    A nd           | Web:      www.OpenFOAM.com                      |
|    \\/     M anipulation  |                                                 |
\*---------------------------------------------------------------------------*/
FoamFile
{
    version     2.0;
    format      ascii;
    class       volVectorField;
    location    "2";
    object      vorticity;
}
// * * * * * * * * * * * * * * * * * * * * * * * * * * * * * * * * * * * * * //

dimensions      [0 0 -1 0 0 0 0];


internalField   nonuniform List<vector> 
19632
(
(-0.01047824071749753 -0.00429071737319079 0.002896821687317554)
(0.0001800023425752389 -0.002046281918338649 -0.0006865832739969954)
(0.003146505385816629 -0.005415909351135128 0.0011085759227226)
(0.0009261076118434993 -0.003886504710679439 -0.004244063760487391)
(0.005689196954907023 -0.001368007821654496 -0.001254433237907401)
(-0.003620317067484456 0.003528765155614295 -0.005278725108747412)
(0.000657199198429888 0.000500087145227127 0.003414451050010514)
(-0.005545726361271135 -0.00567958470032974 0.0001513132880095538)
(-0.0009544340299995242 0.0009818881937141387 -0.003285465124810952)
(-0.02950569250358795 -0.005429788583653225 -0.01508629624242335)
(0.01307349155866014 0.002764284653299609 0.001100109228694454)
(0.001509521520954227 0.00205449607299494 -0.0004109787631071087)
(-0.006586747168719436 0.003049489265631847 0.01651030783002751)
(-0.003861150649076836 -0.001656805453015971 -0.001107496518472617)
(0.0008052575745790315 -0.0005965103457045709 0.0002579002250818465)
(-0.0006897928989861085 -0.0004400869603924631 -6.096324447335755e-05)
(-0.002492925938435633 -0.001610891288372394 0.001020517109461094)
(0.000806659119455595 0.0006828690643073958 -0.0006335507743101213)
(-1.196640064650477e-05 -0.0005896377645909887 -0.0003164465009164412)
(0.002293061813723017 -0.001074533606872376 0.001345768412275138)
(0.002187348366080915 -0.006556233333298616 0.0006322083456408764)
(0.004838182034989419 0.001105605642912322 0.0004187483978930068)
(-0.002999924541197688 9.874999189770587e-05 -0.02534850066200711)
(-0.0005654395333045103 0.000513305141860153 5.163749820537463e-05)
(-0.0002197775050301093 0.0002623560170356837 -4.585099823199929e-06)
(0.003612892917832425 -0.005755844271754863 -0.007418811435879949)
(-0.005469751486567244 0.002731007566036146 0.0001280135504192646)
(-0.003017327425399148 0.0010447631131352 0.002900776502139439)
(-0.008423183820630236 0.006384366313031094 0.0009272684308059734)
(-0.0007691083246513712 -0.0006282415004289667 0.0008396275715893243)
(-0.003876440328471561 -0.002378501191215132 0.0004531739326364447)
(-0.003607449475283359 -0.002760341653751149 -0.000654754988912135)
(0.001866776447896051 -0.001809807428978176 0.000369434385037667)
(-0.002426095387986595 -0.00335326130908532 0.0001586726523534575)
(5.963799395490371e-05 0.0001575437098008652 0.000177703038369584)
(0.02881086707744321 0.004379118393831764 -0.001296605210945189)
(-0.001283028904365742 0.0004654245444715303 0.001286201274391137)
(0.008397805856616434 -0.001071969857095789 0.003697183429749406)
(-0.008297903315354904 -0.001041139356384993 -0.001054407194216661)
(0.002411823961422498 -0.001449422247503223 0.002628343810006843)
(4.842626017529956e-05 -0.00157780724121136 0.001211146032752921)
(6.518667493697703e-05 0.005107421210788407 -0.02046337108572078)
(-0.001820375553364884 0.001859260803837373 -0.00138058246786584)
(0.003019765974551509 -0.0005971897230866317 0.0005143570586102545)
(0.0003597724342390582 -0.0003139010513114706 2.174089592541799e-05)
(-0.000174997016512348 -4.762380811507421e-05 -0.0007670608900971491)
(-0.02619525623322532 0.004620693728643415 -0.009583038848570664)
(0.01888090952137813 0.006795473251377656 -0.006293917268308957)
(0.00725265576250345 -0.007679061143653455 -0.00793319322900448)
(-0.002735342168096531 -0.002479293589999103 -0.0002277616325336378)
(-0.001960271686826449 -0.001387521165583809 0.004311090722374246)
(-0.01859974033297212 -0.02590093435710952 0.01882515391775256)
(0.007219586268831355 0.0004754108360693937 -0.003383183849226208)
(0.002242646893874167 -0.001847032967039889 0.0003415158060778095)
(-0.006799946296579745 -0.005120469908738637 -0.000270904785299236)
(-0.00659797823906811 1.465589253691994e-05 -0.007601353023424358)
(-0.004644432990001163 0.01433901423686722 -0.002964772996474516)
(-0.008587743944553451 0.001680115200316571 0.002320884668262949)
(-0.001171962426648532 -0.005827224438600162 0.007507577426895282)
(0.0003832501579123187 -0.0003272743838197935 -0.002600272601393603)
(0.00109910333847971 -0.0003129288246815589 -0.0001199244294005188)
(-0.002212895458442505 -0.005462663111420425 -0.008340059881981533)
(-0.0002537362988802434 -0.0002563238393639601 -0.0001653960695454187)
(0.001471385461837688 0.0009881954219639404 0.0002266544758738807)
(9.775886179396712e-05 0.001741584905415216 0.004188416418770619)
(0.0004227118872676773 -0.0003076219501151086 0.002166542420753948)
(0.001049625725472203 4.002870691356157e-05 0.001459112404358369)
(0.005973767778762965 0.004110674594031661 0.0004023436203383978)
(0.009279716237343024 -0.003001007018280033 -0.006778729908174456)
(-0.01529057603280007 0.0009537782044864666 0.007390661311360748)
(-0.0006415112845281692 0.000154484908410482 -0.0001341861149064476)
(0.003516585310197452 -0.003190706708905131 0.004350079939949761)
(-0.001910028603150179 0.003697904956052747 -0.001521252904232644)
(0.002258604099665234 0.003722158887841636 -0.008782444625917965)
(-0.0003633133507123145 -0.0001622897663626934 0.0001075268578026335)
(0.0002162070856428482 0.0003081134135557708 0.002315937367884609)
(0.006414392595026602 -0.003815889562934996 0.003302898260796789)
(0.09551027812049516 -0.04233077076200914 -0.003640041159181436)
(0.001458497899832272 -0.0002589844983764974 -0.0007867328435900869)
(0.003208429752932386 0.001784705015391271 0.0001474819122822923)
(0.01062085442332497 -0.004482239185349767 0.01149380199374222)
(-0.003538212677506307 0.002843198020143121 0.002317754035911296)
(0.0003964130070043718 -0.001379594373006839 -0.0004420383764346063)
(-0.001862095319721275 -0.003401997614003435 0.001937402060795079)
(-0.001741429153535833 0.001146420689682646 -0.0006566979113956368)
(0.01055344988187131 0.001423098538702334 0.0005496292565386096)
(0.004166108034262313 0.002698128747118411 0.0003379526648993806)
(-0.0258897236213679 0.005836139339231505 5.820340598838326e-05)
(-0.001788560514056484 -0.002259100295889638 0.003924635075023561)
(0.001877918774806332 0.001102303222818024 -0.0006703297328152524)
(-0.001901445556098467 0.002535342625558138 -0.007497371064320508)
(0.03306552405847842 0.0003897464369732231 -0.003132780049844329)
(-0.009948563695966481 0.0002027049715586876 0.007001548958181124)
(-0.0004546674768168599 -0.00375678103978295 0.004259914448025797)
(-0.0001500847819695429 -0.00685372882677349 0.007797943512024212)
(-0.0007344323386155233 0.001519024548349232 0.0002074780352297646)
(-0.0003770435963385481 -0.001211340950421122 0.003371112739048329)
(-0.008570480694824816 0.001187254302749333 -0.004533123715928105)
(5.432557008910638e-05 0.005600036137144574 0.002564279293657005)
(-0.00818707477642696 0.004886360761576992 0.001180786499231043)
(8.860451242606766e-05 0.0008795358227520484 -0.001730372258518608)
(-0.003320296443252869 0.005089780041422646 -0.002988085722670212)
(0.0007584531603713845 -0.0009893619228273211 -0.0003804311810004843)
(0.001133818610939217 -0.0004291973577153168 0.0002741335467709289)
(-0.002162305253271498 -0.002621625010974322 -0.003073594307287412)
(0.009778969095423749 0.002309968256697196 -0.01281309906874979)
(-0.0001595881369482 -1.504819364472633e-05 -9.9850042267526e-05)
(-0.008011114175611544 -0.0009705611231541115 0.001036826361554509)
(-0.001497742908410452 -0.001363016058634785 -0.0002602415511618493)
(0.003885121551476284 0.002107716035540839 -0.001832685381397073)
(0.002842221775477444 0.001457275101452978 -0.004110687811533641)
(-0.002155687547149445 -0.005551863762297942 -0.006060960973464263)
(-0.02286017595788511 -0.0002049666717006632 -0.0008044043773303333)
(0.001364201521012197 -0.002180968572707412 5.435769160214632e-05)
(-0.01940702798822314 -0.003037540963316025 0.01187216137776962)
(0.01662263597932996 -0.004291189851330234 -0.01452262873082314)
(-0.006439443377898603 0.00545950619531779 -0.006662783050750523)
(0.004268667020991098 0.004355981301326368 -0.005978183131599698)
(-0.007611673577882973 0.002223208795450823 -0.004155582895529614)
(-0.01371466193261971 -0.003772663026278054 0.01749152077946161)
(-0.006687159302815233 0.005750820037303522 0.001971436003840706)
(-0.01835837150090444 -0.003025237613709523 -0.003365785429865876)
(-0.0001064108128467598 0.0001077417438260689 -8.94264501847004e-05)
(-0.02346505817243835 -0.001404895837710227 0.004812339877618385)
(0.003116525199291571 0.0006583620840884597 -0.0006348122456897486)
(0.0006680168721587435 -0.00160180195546167 0.0007054360776012941)
(-0.02733061020976987 -0.004236252880899865 0.0002791120081323539)
(0.0008147973098292518 6.902422076538835e-05 -0.0002714868186158437)
(0.007193423047110407 -0.00101173356710584 -0.003619856730539322)
(-0.01619652902271954 0.003672578368249209 0.008251298102020316)
(-0.0004708276004835874 -0.0008194984792202075 -0.002296999802276153)
(-0.008353075928492947 -0.01334435816936101 -0.004923036152571218)
(-9.378574870488942e-05 -9.220638127376709e-05 -0.0001707211073846523)
(-0.02815993254308057 -2.508272967133394e-05 0.02165937766628279)
(-0.0007629753353959066 -0.001118720863848173 0.0006250413385092703)
(0.001867372526573268 -0.0007349120616430398 -0.003215834210212118)
(-0.01740836757778925 -0.0007086669009720918 -0.01313362987116901)
(-0.0005645719228788783 0.001663060289185116 0.0006839640155757146)
(0.0001975630759025615 8.705630888317852e-05 0.0003004348121463081)
(-0.0004009810612007882 -0.0006113831851718781 -1.063439889160006e-05)
(0.004004285930609883 -0.0002341996648916347 0.002760649787938795)
(0.01503177230200082 -0.002806659509232892 -0.01420898939226391)
(0.001448377476400436 0.002289232280033628 0.002773098438888141)
(-0.04841492841056055 -0.0144737154649987 -0.03214181813476499)
(-0.005805005225172438 0.005982189351723675 -0.001027495516461062)
(0.02690979979031398 -0.001467544605378542 0.008691134485889148)
(0.007445698953160342 -0.01246094880236804 0.0004223132888629617)
(-0.0001093266811619832 0.001262416476231238 -7.027223139158083e-06)
(0.0005475133385235621 0.0007720656133178699 7.772462252154055e-05)
(0.0005786317699109383 -0.0005013259130075027 0.000541428887201065)
(-0.008742087339729948 -0.000622290598142303 -0.001459905661465402)
(0.01312050225361035 0.006597025718137041 0.0119724069241937)
(-0.0006598054402802903 -0.001062450242096202 0.001021909460711604)
(0.0002493772890141722 -0.0002582857635945359 0.0001853562649035727)
(-0.02506626017557242 -0.02660719617792806 0.06814262771889507)
(-0.0003159694332894299 0.0002911075108186201 -0.005939500527824325)
(-0.02395057685441233 0.006710264424768264 -0.001272145377654431)
(-0.0006857276387928095 -0.001018777658525667 -0.0005591907470524906)
(0.01081380060355844 0.008427622246624899 0.01449713640869658)
(-0.004952054039942767 -0.0005849207741895835 0.006257959545177003)
(-0.001254413066749038 -0.003440122624128883 -0.003030720685505354)
(0.004715794350683236 0.0006106336840330006 -0.0007172955463025769)
(0.002368224473301587 0.001713779393863406 -0.001364448589781429)
(-0.008344661032233459 0.0002763189118716095 0.001166032413193872)
(-0.01220479558437127 -0.0001669625950965962 0.002617821287666106)
(0.00505728893274859 0.007820108009163352 -0.00923084970682073)
(0.009043516181743205 -0.0006726968271478749 -0.002341941107845409)
(0.00426448131313239 1.625549048480941e-07 -0.002259347964405271)
(0.003083178759811872 0.001923989543165974 -0.00144937976557905)
(0.003564832552019825 0.000577136739566406 -0.0001028314390945199)
(-0.005087125835452061 -0.002492016938543503 -0.004560911360017598)
(0.01505039835930333 0.0003982535973599404 -0.002319366654357069)
(0.0004191427683975892 -0.001795812448827056 -0.0002047550736855403)
(-0.002798424051751558 -0.0009003003422733466 0.01972390659931431)
(0.003118822221231853 0.001354124947533281 0.0003204445781001577)
(-0.01186555357661814 0.0009290622741067406 -0.004583685758832614)
(-0.003712159241816781 0.002713476543727443 0.00374659024118107)
(0.00359276062608367 0.002614517699003468 0.003178966735359454)
(0.02273290652716991 0.0007892891374458935 0.009117362600100778)
(0.0001148155807933554 -0.0004278924731048648 -0.000154775866760118)
(0.004018607792457048 -2.503064437043328e-05 0.001822708596944102)
(-0.00371405680400578 0.001123892225581036 -0.001909954877082063)
(-0.0005123791987426762 -0.0005889768398721936 -6.392830388724977e-05)
(0.004753782170019696 -0.001254015240082568 0.0005871734606511978)
(0.0001423185214123614 0.0007136969559517178 -0.0008981409299448034)
(-0.0003544447463952333 0.0001495331652188565 -0.000344953669603438)
(0.0003582794231978988 0.0004906508091801594 8.436319837826787e-05)
(0.003168282497327749 0.004486575841596286 -0.008597841697761035)
(0.0007782122917918287 -0.004257495405626321 -0.00101228910725707)
(0.006561827098879081 0.001258737732345692 -0.005181567529194261)
(-0.003045911181508518 0.0004460301579065568 0.006323566790308773)
(0.002218519201911621 -8.328115643253386e-05 -0.001551944082895768)
(-0.0001791011263689816 -0.0001219199079828365 -0.0003431842031494932)
(1.855035379107555e-05 0.0001031395087748416 7.113254655132869e-05)
(0.002433974239275358 -0.002049088430890755 0.000766078264424971)
(-0.000759236207972743 -0.002675292559115638 0.001194958363140514)
(0.004818582540153571 -0.0003688199035404759 -0.003197429138405876)
(-0.0002269457158694588 -0.0001160730153047904 -7.807957330057801e-05)
(-0.01494378022511188 -0.0008384964927693415 0.007339367445165191)
(-0.0008160054158966321 0.0001148632218858305 0.0002250299444121442)
(-0.01046513954013481 -0.002548759745069209 4.226785908732387e-05)
(0.0005647321228804294 3.682675300257211e-05 0.000396175983767584)
(0.004292459424977026 0.001410405533879165 0.002971696318934122)
(-0.004887014231708311 -0.004547658944975745 0.007548194240926302)
(0.02911295335962763 0.001848824463263789 -0.007226093653865388)
(5.876908819047897e-05 -9.049610972529133e-05 -0.0004552912376006397)
(0.0404074510706055 0.0173758039714122 -0.1836908206869566)
(0.0007685827376080617 -0.001546779720344355 0.003838446494538538)
(0.03738243604735126 0.008285611222573373 -0.01343609753885313)
(0.03889984356979602 -0.00192819950449501 -0.00189154771183235)
(1.389513128865745e-05 0.0001484102821370866 0.0002280017306980933)
(-0.00112293616500573 0.04103898804413585 -0.007914448968346947)
(0.002061599009631197 0.002761187844261401 0.01528459417207049)
(-0.001437303041271651 0.0002690686977927592 -0.003277404546167264)
(-0.001164211996147789 0.0002821308181549227 -0.0004407189511207179)
(-0.009033183449977587 0.007783809913148085 0.003288627640490473)
(-0.005503319512868121 -0.004128996411622422 0.002006179983288261)
(0.00135138253377962 0.0009106889934291024 7.249667284270025e-05)
(-0.01927202260482943 0.005442264797746841 -0.001099600754263096)
(0.01788800823930916 0.02261243369630057 0.01235562443139805)
(0.003114861074312926 5.994182332798892e-05 -0.0004507707188464173)
(0.03500057058861691 -0.01721521050343144 -0.002143000238133846)
(0.0005316643118444143 0.0003677884593939925 -0.0008925831572494147)
(-0.01006978585266291 -0.00571520602963435 0.0007946314674137738)
(0.004137498261660648 -0.004103831445929034 0.000308832677413595)
(-0.0001588218525116016 0.0002136134691999321 0.0001006899717591388)
(0.003917415480998465 0.00154749967231282 0.01271384880221163)
(0.009054254832489148 -0.006750845721078849 -0.002526020669236634)
(0.005944755550956776 0.005372081479936252 0.01914473735148341)
(0.00178817316206768 0.0001753785486162593 -0.0001969651244851708)
(-0.0003225004119230114 0.0003007284582199735 -0.0002671984405219696)
(0.0001707813682421776 -0.001877278286264956 0.0020092851457099)
(5.059673955022111e-05 0.0003586096448214677 -5.640961032794927e-05)
(-4.284917002547735e-05 -0.0003103020240615516 0.0003976140695873047)
(-0.006270592138049344 -0.001936835667590216 0.003714248677711437)
(0.01397832947228818 0.002112675431474882 -0.0001599327319135684)
(-0.0361847164021827 0.007482288680220382 -0.002392737910700058)
(-0.01436081470732336 -0.01330379979348034 -0.002372499242415578)
(0.0009247186582364356 6.479265576947538e-05 -0.0001652881121338282)
(-0.03494858584100607 0.002787718339748082 -0.0005760016899516811)
(-0.0007283971068590914 0.0008986484602056093 0.0008107234881456893)
(-0.0001580503553952131 -0.0003748312542673204 -0.0009822726871751748)
(0.1489740515252711 0.01292046806362326 0.01190953683899066)
(-7.705981803478144e-05 9.685502579236833e-05 -6.57259774955545e-05)
(-0.007546028713003096 0.001294838115424062 -0.01566173131904704)
(-0.0001732995063254415 -0.0002905707716264773 0.0004109187211646988)
(0.0009527729330376308 0.0001536687664921764 7.422686630849628e-05)
(-0.0005794397256977328 0.0002592978083169896 0.0001568424069522629)
(0.002484829620900784 -0.0179978132974498 0.004457893308889807)
(0.0004226077024315244 0.001911694946981321 0.0006503272210043685)
(0.01597688381786782 -0.003018480790005602 -0.004650535765373272)
(0.07881991185114541 0.01693642996246094 0.006895552860275017)
(5.969948638081582e-05 -0.0005477481062756815 0.0004507706746803681)
(-0.0002260108253925709 -3.03332963516891e-05 -9.371776616038502e-06)
(0.00261144525064147 -0.01570367936968319 0.002209247769958868)
(-0.0001471849736707903 -6.636905972302195e-05 0.0002820860996871515)
(0.0008061479250497923 0.0002995287303125694 -0.0004276433350113892)
(0.0007358080454428412 0.0001511812073538624 -0.0002101954628532538)
(-0.03006637606048095 -0.002594464999279525 -0.000153854846907176)
(2.827987544823667e-05 -0.000260173055151876 0.0001050975064450302)
(0.000482924523188328 -5.295422833482526e-05 0.0001639203796276554)
(-0.003218627499751313 -0.01366857450033944 0.01141943166770627)
(-0.0005109441199869743 5.515286761269867e-05 8.886788081128888e-06)
(-0.01399027733825712 0.01360957151081166 0.01006091240364794)
(-0.0003834158318874958 -0.0005587396345499368 -2.503848832343571e-05)
(0.01502246911625871 0.02241799090952473 0.0003457508065244658)
(0.003127478184067679 -0.0014654212581333 -0.007594815840111787)
(0.03672997190491475 -0.01771124668218537 0.01086891497871954)
(0.003208510921804718 0.002879834024169444 -0.0003288317185191989)
(0.002319364944651402 -0.005459128235215368 0.003088775958995345)
(0.0004659658857852878 -0.000385773675053637 1.891144117678718e-05)
(0.004878485055519998 0.0005514786320405976 0.000934013603280165)
(-0.003387741369939492 0.003099181857717345 0.001207472507472555)
(-4.98530591138413e-05 -0.009746753151337955 0.00286373960010919)
(0.002828812318889177 0.001005474573989601 0.0007743437345780588)
(0.001790373028598078 -0.004871986145183397 -0.0006217215543465448)
(0.0008988293690132597 -0.0001192316300227592 -0.0003542094455311235)
(0.001464738824372323 -1.856628259234853e-05 0.001067836245543501)
(0.01707002465766896 -0.004152735204108349 0.0009420836567237663)
(0.006446002538992367 3.329777798958731e-05 -0.002674603955071063)
(0.01327868760570693 -0.005404421332468272 0.01622915561489055)
(0.0006293729008153435 -0.000336891295783473 -0.0001442805702876178)
(9.121562321699838e-05 -0.0001698707886512558 -0.0004201747353887048)
(-0.0001159083989782833 -1.093702972830859e-05 0.0003132775841624822)
(-0.001311167475119178 -0.0001881050492214332 0.0009610929170813733)
(0.02327632976487781 -0.003401993055091045 -0.01077244191494966)
(0.0005254393014616456 0.0003393940233918607 -0.0002932233729064244)
(5.882729432782367e-05 -0.0004804168457998513 -0.0001893245116218023)
(-0.009897433891240693 0.02446492586773338 -0.02048565038255154)
(-0.0003612001810526608 -6.173685131911382e-05 -9.319294973711366e-05)
(-0.00795304055749344 -0.0009361978149605319 0.004403805646139627)
(0.006201634379475138 -0.0008451410651819874 0.0002239863929482256)
(-0.00649710212223634 -0.0005589971340539247 -0.0006198017369243958)
(0.00300571638961537 0.002084129583106846 0.0004348270724156031)
(-0.01056382233676761 -0.001014161051479344 -0.002337972050158998)
(0.004238111178320918 0.002608135958277524 0.0002232892903828092)
(0.0001481624422438245 0.001223244182481408 0.0005373866522985288)
(-0.007557486739146912 -0.01096181630707043 0.02878830314197839)
(-0.001068577305835026 -0.0005650105536553156 0.001692450376291514)
(0.003948389615136515 -0.002131872844458971 -0.00328125144995216)
(-0.001451977924851638 0.01355839942627751 -0.001602883467925286)
(-0.002629732268838229 0.005554352279523158 0.03005149216741866)
(-0.005340924273394715 -0.0006414944047268145 -0.001559033523118307)
(7.016443311461774e-05 0.0001351693771265 -2.0610775409363e-05)
(0.0001629440923311061 0.0001261442324586259 -0.0001725424559391502)
(-0.0001888071949321399 -0.0004293310818842864 -0.0002466330515353602)
(0.002755374962556778 0.0001425731035520664 0.002561888488293211)
(0.002528801033708516 -0.0002782214855178539 0.0006588362271828388)
(-0.002539917685153159 0.007913272260899194 0.003618906576622571)
(-0.002009636891464075 -0.002008577717193153 0.0008001565202567538)
(0.002374231175029376 -0.001966848243605119 0.00382116887263934)
(0.009588350615510007 0.004491294660214433 -0.01504865568813001)
(-9.071499547151994e-05 0.0001563476406454702 -0.0002698598974585263)
(-0.01031906159917222 -0.002114998617672934 0.003801488417323146)
(-0.01225527016456973 -0.007211375291360876 0.007534589338370033)
(2.803380549965079e-05 -0.0007879723108977555 0.0001876408899668052)
(-0.002486272022953139 0.008042019561914603 -0.01285456035355542)
(0.001240200608062354 0.002884832443695909 0.001674412801455593)
(-0.004987375203519538 0.004550151368011062 0.001977008647861414)
(-0.002510706023608986 -0.002178417339629574 0.003813673275794557)
(0.03512912327223434 -0.08670070947828183 -0.02798042769829813)
(0.002274230379174666 0.004103074961957772 -0.003067136516587138)
(-0.005371663912454633 -0.001054613963945431 -0.001389563300787641)
(0.002164128998459963 -0.001389761103263804 0.002241272695359173)
(-0.002006619001496077 -0.0005489361499131334 -0.0001586136104209628)
(0.002598697453720666 -0.0007456564978699583 0.001419172632172959)
(-0.007872488914163396 -0.003342922569129824 0.01112120090447832)
(0.009928848254504789 -0.003284735496938247 -0.009540803668645945)
(-0.02343989018734398 -0.003457323090320346 -0.0005675362814704049)
(0.0006246987968188597 0.0002688018236085553 0.0002940103654759446)
(-0.00189208652598324 -0.001405077572310006 0.0007075645526302942)
(-0.0002418618024873217 0.0001684091057753412 -0.0006935767611181942)
(0.0001597036233528695 0.0005492918967188726 0.0006387567145258963)
(3.55197208847799e-05 0.0001934384792318851 -0.001029959320432186)
(0.001518537493614438 -0.0009107080877051583 0.0005014120171766214)
(0.001454189618611025 -0.0001373621860777226 0.0004200803457139835)
(-5.240864233447786e-05 0.0002257881722482909 -0.0001256554537789856)
(-0.00586139958284111 0.02396853674155963 0.00236201674352458)
(0.0001068147559982916 0.0001413261979602678 0.0001175553063602617)
(-0.0004888267271249541 0.004297526256960335 -0.001119408691790675)
(0.0002445628465034218 0.0004713563983200989 -0.001361814920090219)
(-0.01372508886884403 0.0005623812121455353 -0.0005555222994752698)
(0.007189779586629885 0.0007637257268044775 0.002858424938080528)
(-0.003074080168233869 -0.001935396180980155 -0.0003803372194828118)
(-1.759120447056457e-05 -7.753926560680928e-06 -0.0002750339462225984)
(-0.009392683667726498 0.0006409155379660386 -0.001262810265998928)
(0.001684094614692241 -0.0003204302413324037 -0.00152265951156568)
(0.003395847531186017 0.002623868294271099 -0.002820201299173324)
(0.004659923167565791 0.01064988298236456 0.01481889764033918)
(0.0002246345339448262 0.000764118708880115 -0.002158363654275375)
(2.074967039651321e-05 0.0001749772980578192 -0.0002768350526760955)
(0.00147849642137666 0.009285394132767213 0.007555027297992272)
(-0.0007154190458000859 0.000142876964956183 0.0004211608816278218)
(0.000645588342410652 -0.000962438200916504 0.0002778577186787507)
(4.873847816256791e-05 -0.001311146812001259 0.000812903089070882)
(-0.000957787892461203 -0.0002905701569563539 0.001580129662535664)
(0.0001105910325640391 0.0003677405477758253 -0.0005754343648956869)
(0.006218722291437995 0.0005524470306225069 0.006403279399619401)
(-0.0002463121403514301 0.002335738477446192 -0.00101375083842401)
(-0.0003566410916834555 -0.0001639609421633858 -0.001948034806874692)
(0.0004569703735346709 0.0006656523908034359 0.0002730507154926404)
(-0.0001794660017886478 -6.139103006076189e-05 -0.000352057935167041)
(0.001397551752774697 0.003931067604787225 -0.005013271200409123)
(0.0003931637695876426 -0.0006415661443383941 0.00047492326455712)
(-0.001336682155078511 -6.636584135281281e-05 0.002170040856146904)
(-0.008023614480373035 -0.00504898065807903 0.04178268585421471)
(0.004151489790234717 0.0001493706817495932 -0.004844101455833057)
(-0.0003368920739941553 0.0005312715874809297 -0.001170570680230587)
(0.007524549684578277 -0.01461859401849424 -0.002270332205319724)
(-0.0009086909673550346 -0.0007015402485377597 -9.396277167334604e-05)
(-0.0007312533236196693 0.0008042732033566051 8.500157632143558e-05)
(-0.0007325706555012794 -0.0002251289244329815 -0.0002300525879093137)
(0.0008075161362326977 -0.0006890632362414672 -0.0006714851607966714)
(-0.003174573420089707 0.00020391877975036 -0.0003783204126815214)
(-0.01021844759429854 -0.0008476806839095761 0.01446031485952791)
(0.0003076609610026457 -0.0003431536083863308 6.839081592375856e-05)
(0.002469259796410734 0.0004271539859281156 0.0005031778174463145)
(3.211828615140089e-05 -0.001334059292012027 7.349974474640087e-05)
(0.002592106822751126 -0.003577099930738975 0.0005642621129755969)
(8.235958765253282e-05 5.051400676516633e-05 0.000329800815643853)
(-0.0006066826479697843 6.41237945621181e-05 -0.0002387421574542754)
(-1.206437523305352e-05 -3.412788643884984e-05 9.337872809030745e-05)
(0.005449248186015904 -0.01301095118331043 -0.0004248893041509505)
(-0.0003283882930600004 0.0003710833525606599 6.47470133375653e-05)
(0.00186456867968385 -0.008221535802038467 0.002261150439484856)
(-0.0005931068854299112 0.0002717377855544074 0.0007135732108004328)
(-0.0006650747175232449 -0.0003291669251637324 -0.0005713162737787827)
(0.0007858793386909424 0.01129803265914785 0.001985092158455078)
(-0.0003383497610792204 0.001134955116059944 0.000909487872772871)
(9.78083228047576e-05 7.165912287927296e-05 0.0007427755358368032)
(-0.001301336168783239 0.0008788577481235789 0.0001570579501793102)
(0.009321153659894593 -0.0003332128032585504 0.0001126208961687086)
(0.0002668863070482718 -0.0002640761684468607 -4.590305045819025e-05)
(-0.01250075035182766 -0.001670500857731115 -0.008183720051564362)
(-0.006944665929100542 0.002089441995423288 -0.001246726951171733)
(0.0002091713376964935 -0.0003868650371596086 -0.001433234521138165)
(-0.009303268074420506 0.002436938332947014 0.002124901989022548)
(-0.002589556180684937 -0.002051089777134311 0.001118739800983875)
(0.0003879862691174762 -0.0006904861895208876 0.001529105430320672)
(5.409083910253688e-05 -0.0007660149856929593 -0.0009558734210744044)
(-0.0009973185280581032 -0.001834197333104852 0.000189609665109565)
(-0.0005935771556030705 0.0002011264438329404 -0.001042459421460769)
(0.0001796017737237909 -5.171691040625859e-05 8.306700429065058e-05)
(0.004450672751095681 -0.004887225784872579 0.002029617711326346)
(0.002476885168674536 -0.002449812859124114 -0.00291946110051326)
(-0.000409363623607368 -7.144612303310374e-05 0.0001552876113356353)
(-0.01189071785548847 0.009746426383384858 -0.004911908130115855)
(-7.97707004146666e-05 -0.0002708374284745435 -0.0002194075101862825)
(0.00252273961555233 -0.001164853447406488 0.0001164248625315726)
(0.0002548175343744511 -0.0003761742627267618 -0.0001173418126292697)
(0.0006097209326821 -0.002952801673413832 0.00310346183366672)
(0.001155742388744073 -0.0006421845118945737 -0.0008407614112424212)
(-0.0002361183278739331 0.0003651544719357035 0.001326282446730802)
(0.0001442586807117925 3.097117971317761e-06 0.0001504857676834566)
(0.0001563025455275063 -0.002374669482205812 -0.002323497038927225)
(0.0003658887100954811 -0.000343349660490859 -0.0002144586525424253)
(-0.0004390391432043767 -0.0002981837564948179 -0.001124762881103254)
(9.014519118896345e-05 -0.0002781868390864373 2.897257502154995e-06)
(-0.01620849712592966 0.007047491974774859 -0.003714252034299953)
(0.0003502551216430375 -0.03948951633317922 -0.002372272595030593)
(0.002318121220321936 -0.001512516293672708 -0.001012038359236252)
(-0.0006598943984813426 8.865879714814173e-05 -0.0006419128024056991)
(0.02166667576177652 -0.0008854344703635338 -0.002021621991773727)
(0.0006606860381311035 0.0003269480274335817 -0.0006271963869072348)
(0.001402208489936896 -0.001449042088505958 -0.001837293614799236)
(0.007311998548084227 0.002650457817098915 -0.0003866939485590495)
(-0.05856643427699915 0.01556866877708763 -0.006427121109364537)
(-6.159474887973372e-05 -8.878437939606836e-05 0.0003192746093164937)
(-0.0003414147712960265 3.12457344206632e-05 0.0002686804696617562)
(0.005864854908309463 5.600768126791259e-05 -0.0003205878380742038)
(-0.00744628716779516 -0.0004182273246136065 -0.003999434797814262)
(0.0004172004969883765 -0.0002657202407583964 0.0005377909377877319)
(-0.0040100992737305 -0.001068298549212327 0.0009365697711783134)