/*--------------------------------*- C++ -*----------------------------------*\
| =========                 |                                                 |
| \\      /  F ield         | OpenFOAM: The Open Source CFD Toolbox           |
|  \\    /   O peration     | Version:  v1906                                 |
|   \\  /    A nd           | Web:      www.OpenFOAM.com                      |
|    \\/     M anipulation  |                                                 |
\*---------------------------------------------------------------------------*/
FoamFile
{
    version     2.0;
    format      ascii;
    class       volVectorField;
    location    "0.9";
    object      U;
}
// * * * * * * * * * * * * * * * * * * * * * * * * * * * * * * * * * * * * * //

dimensions      [0 1 -1 0 0 0 0];


internalField   nonuniform List<vector> 
19631
(
(5.002243039607354 0.007566376229630372 -0.003167018218872093)
(5.011678503050401 -0.004029450882868782 -0.001082903006188297)
(5.022815582883179 -0.04479234888421436 0.3665619653317275)
(4.117718005216369 -0.02952817361909986 0.3809419092610627)
(5.004571743630105 -0.004479662083477443 0.0002996995643930707)
(5.089596371604914 -0.08029677307432875 -0.01906130502172544)
(5.030934979550234 -0.0161142426542814 -0.01170880600748513)
(4.926879465618111 -0.06841074438418099 -0.04387292463065712)
(5.003679721170701 0.007220949760637607 0.001227827565422971)
(5.018364402904856 -0.0244261171059826 0.02851011144968932)
(4.958729779213475 -0.02030884549748761 -0.02865888989172108)
(5.035279471376661 -0.01197100474149074 0.02534670719560411)
(2.9296208929041 -0.2854136116470314 -0.2487040888048541)
(5.011781146458339 -0.02336143365921241 -0.02297037284436687)
(5.019362960891738 -0.01058977208217978 -0.00553379818738576)
(5.011919603825273 0.01032852157993061 0.001119424208601549)
(5.108552406096225 -0.1728146369762848 -0.1625795166642243)
(5.01746453621089 -0.008715294341302804 -0.006054798058527613)
(5.001384283612118 -0.005837448309697819 0.005265541319468565)
(5.022600483928415 0.05913064880077344 0.05868695523345151)
(5.003025173559807 -0.002298641725889502 0.00313830560105461)
(5.037569269595316 0.004088603245062382 -0.01814745954254498)
(5.000671831842622 -0.01049729535063571 -0.008000565409336392)
(4.965597850464454 -0.1651430746698817 -0.08985542516692882)
(5.017973924720331 -0.01065764307686702 -0.007956169565634901)
(5.022628830759463 -0.01169702535192156 -0.009807134276187089)
(5.04109758254131 -0.05566481744787624 -0.0008566535922123544)
(4.771494368979263 -0.03018872048255981 0.03469734951448171)
(4.14435804078575 0.04148971812818153 0.293755534563022)
(5.03227821475969 -0.0297974923779378 -0.03831447310159071)
(5.001598019896583 -0.001873967087105215 0.002235682748628971)
(5.11525081138537 -0.1283989117436109 0.07402694188208934)
(4.941513359900766 -0.07473510672475533 -0.0609818218326155)
(5.02557239699253 -0.01013531992814617 -0.0147281966202282)
(5.012201003103258 -0.1345163934016266 -0.06545974749854372)
(5.023070091285507 -0.02561041578177771 0.002003828908403323)
(5.05969789984088 -0.02736447521731186 0.00981576055127872)
(5.001966971859479 -0.003667750944485155 0.002985564636048276)
(5.051713504353462 -0.07592685090192826 0.1316002539160529)
(5.030749694098473 -0.05913193768369613 -0.04612950323175296)
(5.078506153822226 -0.1270294504252131 -0.2799758200766181)
(4.689743684086014 -0.1638208334713512 -0.1789783288262048)
(5.062235625411787 -0.05682994708384245 0.01663087302458837)
(4.487769635138406 -0.04462563055070597 -0.09812896270271214)
(4.950261247364227 -0.03183307245571652 0.05560095662319185)
(4.261164517697258 0.2151185779750762 -0.1260950302884415)
(4.88068114836267 -0.1853629124218591 0.1908513753085789)
(5.144732537396314 0.2939998121209289 -0.6431478264430833)
(5.054260741791758 -0.04585004680076157 0.01421857015186104)
(5.023417319589598 0.0113145785289153 0.06659202714042119)
(4.989330660029914 -0.00298490323547617 -0.005541644075297839)
(5.035841291979149 -0.009755790666231548 -0.009232758851053693)
(4.771573904887934 0.1269139563821149 -0.1760363970856818)
(5.045271219237812 -0.05212903055484858 -0.004536670290231082)
(4.964506448448401 -0.0169743870778204 0.0364020108990408)
(5.030898672887094 0.01182585102091276 -0.2187430876759154)
(5.152186583977573 -0.05243151658849159 -0.1065504795309168)
(5.028989898659759 -0.006682325201863744 0.01049298217689782)
(5.041091898798277 -0.03954611278116757 -0.06358044886144661)
(4.334099493927522 0.2060445258039615 0.01520436574198172)
(4.707990856276874 -0.4860509029559374 0.04494619911473824)
(5.123127560737993 -0.1908814541890211 0.197306944393564)
(4.888962042776708 -0.002439108228174845 -0.06169800024369438)
(5.08963875179505 -0.08409903347241235 0.01908201395099449)
(4.435282245358787 -0.9037650363079239 -0.3059085009949278)
(4.994839714147973 0.03177806093402481 -0.4379481432043157)
(5.030773711627384 -0.02238386752706958 -0.02150502366247376)
(4.990280162116485 0.001062180705917116 0.01313466495696315)
(3.973489991949598 0.005028339522707798 -0.148721443738783)
(4.980583408818323 0.0192764716428028 0.02517477377640613)
(4.29494485556742 -0.1818531111968964 0.071575049075618)
(5.086933553532618 -0.06535864845614693 -0.06733444287665821)
(5.068083116292411 -0.05609090917746327 -0.01552347087889281)
(4.975867460169827 -0.08490743183070225 -0.3743372816920287)
(5.032279228174877 -0.05989837835998259 -0.0858768702916194)
(4.432633998762491 -0.1519060333230692 -0.01689064959175214)
(4.995760828517178 -0.0209267802815266 -0.03709279109993499)
(4.850722411143365 -0.1750327049783681 0.3337448705829706)
(2.928555466994728 0.2364277433494259 -0.3761189699830449)
(5.031989075267886 -0.0126617595940454 -0.001469251274758479)
(2.853785230237541 -0.3009505885585061 -0.01052406752427661)
(4.952534151107109 -0.2273912075084873 0.2299847628603142)
(4.365286138217846 0.02922132113520899 -0.1650344359110194)
(3.797550499249077 0.4087975022332215 -0.2401600051946924)
(5.079411124915241 -0.08235966458434035 -0.07243797660198102)
(5.070929614221579 -0.08588698773796276 -0.03654174331723548)
(5.090942323620697 -0.1710663246642929 -0.05431827723495638)
(4.449386715016248 0.196862618225183 0.1541812695292716)
(4.202664679713332 -0.0998055789685334 0.3218654092134599)
(4.79366100752807 -0.1425575382361504 0.1910609716797551)
(5.105238920580705 -0.08074556379492379 -0.1474646731310979)
(4.565299751183368 0.02073360345064565 -0.1333095724644899)
(5.075421792345568 -0.1253458994141446 -0.03874512565245065)
(5.067452592259278 -0.06627801628906714 0.07559073959341892)
(5.079997310019921 0.04026141859624166 -0.06535345683016187)
(5.045412328131991 -0.09214330465902253 -0.03287988756038367)
(3.819912904046351 0.2435687354573262 -0.1587316140301274)
(5.010743159814524 0.02638148131232218 -0.1248720835155976)
(5.125420936326295 -0.08277591038766044 0.1334699603328627)
(5.063306244795741 -0.10193627882888 0.02759852207984987)
(5.012406806026783 -0.02095891648900071 -0.01070194493610003)
(3.118265382101995 -0.1208518096260439 0.2656022479835192)
(5.022933575077792 -0.01351314530434515 -0.005329204068121545)
(2.165886105418273 -0.1482481017483387 0.05244786810219644)
(4.941842645078118 -0.1920355468318803 0.2986911093107419)
(5.060230780854597 -0.100810646597793 -0.004934080452534647)
(5.035867314177999 -0.02425793390913848 5.50476529982936e-05)
(3.985096922198136 -0.06584554120922875 -0.13765358546409)
(5.020811393149974 -0.01811241152868646 0.01655414009676835)
(4.950809304493424 0.02762479168182255 0.004283335398587528)
(5.092512183694292 -0.01462218537789035 0.02193117911670234)
(4.401662197381931 -0.102357594316857 0.1356283519810067)
(5.015903159915617 -0.02507329126101707 0.01418084873614277)
(3.110712043619967 -0.1221685717187152 0.05021489841826542)
(3.772628620032988 0.1860641441311019 -0.05468398094565902)
(5.100634481707497 -0.1695226367118686 -0.203829096810868)
(4.795925544749136 -0.01385791956545089 -0.07374742357073361)
(5.041194106182008 -0.05046020705753108 -0.05396636405062949)
(3.396457054357452 -0.6679218112118789 0.3869991099735413)
(5.002044040536552 -0.003354519747430675 0.00102711851681488)
(5.017891714236032 -0.1087338805764268 0.1126912093280484)
(5.019086943316753 -0.03822765390899423 -0.03343151991954204)
(5.022148414777439 -0.01430706958744501 -0.01310580242718998)
(4.991965104444621 -0.0206974212117767 -0.01356491581745279)
(5.014046895263648 -0.01601979863654751 -0.05113829088024741)
(5.015545171250656 -0.0370032918385111 -0.003662072973815787)
(4.768235508879251 -0.03320908298972 0.04802578521280843)
(5.022567091430709 -0.01423359020587998 -0.009778681126032657)
(5.01914513580234 -0.02682739181195874 -0.007942347130277937)
(5.032734635124439 -0.01193501561522476 -0.00379702372602866)
(5.015574856712367 -0.06877519389173935 0.06088480930977097)
(4.679208239033673 -0.1389222761998777 -0.1698925315902595)
(3.914700368358133 -0.09521171979177798 -0.0341364471392124)
(3.809007933580508 0.1127720432320516 0.3277278358954765)
(5.022874280950969 -0.02828496374704242 -0.02222073274989669)
(5.038123539365401 -0.03093059264824356 -0.00184897212254541)
(5.047942075306333 -0.05701050037495242 0.01207417080556979)
(4.887420285434957 -0.002699083641600988 0.07044880239826834)
(5.03111035054642 -0.04409900848179438 -0.01907665810265438)
(5.044612693893226 -0.01014127234964193 -0.03359788156580831)
(4.95366718060386 -0.03174421938963899 0.03887968593760628)
(4.930618050208285 -0.002826212899317983 -0.06736486377495404)
(5.011470133472159 0.07761800595068373 -0.2649410612413926)
(5.084377246055144 -0.07572737316078711 -0.05670303118589981)
(5.086104060101913 -0.1530876687284743 0.04451919714652397)
(5.060133025016634 -0.01176821978964681 -0.0217744563350322)
(5.043679503978956 -0.01072382471627275 -0.04988630689706014)
(5.011790816289093 -0.01446162434292159 -0.01066297620483463)
(5.170467004655852 -0.190623498017719 -0.1373841333294737)
(4.853270053621226 0.156106246285924 0.1818719698024887)
(5.008805162115033 0.001762501150873742 -0.009919670463131023)
(5.033581377059309 -0.01324540838796429 -0.01306056514122943)
(5.031907469145656 -0.01264364186949769 0.008118241995131767)
(5.03899974231626 -0.06334470208094399 -0.01075473087609537)
(5.01098882032141 0.002973841274201071 -0.005053509121003591)
(5.02162820806825 -0.04357769432543515 -0.01822345957482303)
(3.531890086677707 0.2048140641092493 1.02418394221694)
(5.038518279696113 -0.09249084027627189 -0.05817733145020752)
(5.060477240153938 -0.05055355547134539 -0.04847697632333399)
(5.029832843285182 -0.006570639564363481 -0.0126418374059634)
(5.00783538931895 0.001667624872114628 -0.001735267853802761)
(5.007588916993202 0.03125062156732566 -0.04049365681088164)
(4.587468917319138 0.1632959271359869 -0.1313124267571605)
(5.014419161259743 -0.0008624269822402082 -0.03480568891075348)
(5.02936028386772 -0.01418891876626434 -0.007319300335372584)
(5.024085720523824 -0.00974740096262079 -0.009821289310612477)
(5.019778028912117 -0.01036572927181573 -0.01051949923831381)
(5.018779987300879 -0.002880838329663332 -0.0008641777224603686)
(4.986254595913745 -0.005286546941785448 -0.01964758580614375)
(4.622574293139465 -0.2661568010551911 0.1977673502053958)
(5.087371483275236 -0.01774970310776013 -0.01323462186960624)
(5.025266233934624 -0.02317069889594067 -0.009185673541541109)
(5.075038452255367 -0.02751336973116678 -0.03990507778009747)
(5.136047442405325 -0.02655742056835473 -0.05573815037772305)
(5.035257709745701 -0.08574671642488844 -0.07609360105850577)
(4.817839549952688 0.05937783682664568 -0.2111539410436984)
(5.015654558790469 -0.0179516334943906 0.02851672869031496)
(3.414828192464587 -0.05239430817519292 -0.2318104307139099)
(5.030348279020189 -0.03046981431623799 0.008202168873325531)
(4.898750921456535 0.237493708563755 -0.3144320766163727)
(5.179664971656744 -0.08975636189052066 0.004171709570208846)
(4.992786996215787 -0.008389875645641085 -0.02009824730139968)
(4.964928797823226 -0.01743235490605794 0.02005523744795275)
(5.043624236167778 -0.007026788307038402 0.01463018607723959)
(3.926713190894433 -0.4079874013252734 -0.4629176139911187)
(3.020626739215444 -0.2692054324620423 -0.0409864796859216)
(4.627527106615907 0.1878417850940834 -0.1461390782365119)
(5.000253048358154 0.003365355641673468 0.02107124600992872)
(4.904787536500604 -0.08627818367144709 0.2256854637160455)
(5.024922767407519 -0.02604443488336579 0.01979678197885659)
(3.317461421385123 -0.2373828533699158 -0.1050125178855579)
(5.058359816246454 -0.01873902608134962 -0.07478437238153451)
(5.008031870870383 -0.03351686579021679 -0.05691162673224384)
(5.020072350209558 0.02264717665837584 -0.0350022322570095)
(3.628474585819622 0.02625816694579343 -0.04387174810295757)
(5.09207376155789 -0.1824415934748802 -0.1665655522593289)
(5.008129476153958 -0.01515029816391401 0.02144971517343264)
(5.007042705416489 -0.09746517025300622 0.2325324879733105)
(3.089356401789066 -0.4294133317770437 -0.5566203045928272)
(4.987074659654938 -0.595220261371697 0.552881667307942)
(4.76768691858123 -0.04845450072691334 0.2484870100267535)
(5.107432370197471 0.6331881100462933 0.3707342764196417)
(2.443358406968365 0.00823159881765149 0.02869571280846309)
(4.285151337941393 0.003826066057556363 0.2495437698600296)
(5.009153396428703 -0.02573700942672263 0.01690288811987139)
(5.014162869599535 -0.006653975547619274 -0.01033259145988486)
(4.973277691018287 -0.0137406707414012 -0.004069585726709033)
(3.635654627720275 0.4254871076206026 -0.1707092826475827)
(5.004010636433002 -0.01565086408733659 -0.003662114022894174)
(5.027927027455445 -0.04209776829628898 0.1167607506326814)
(5.056153588417641 -0.05845490206993386 0.03407504696750635)
(5.035403807141112 -0.04823512815568736 -0.08175328844792422)
(4.743184288931604 -0.1301007154044845 0.0897008106806666)
(5.006436289459105 0.001339626819044362 -0.002813386190943962)
(5.049518141196736 -0.09861144120436185 -0.01470214431197013)
(4.152579590364828 0.2142800098144628 -0.1972221844885805)
(4.93144103896981 0.01100183976249215 -0.01506830714228447)
(4.759158335008012 -0.3813717967171459 -0.1806230107584216)
(5.00355080737885 -0.01218222321894893 -0.01013940311295091)
(4.985332410942299 -0.02097645070082605 0.1531495331925957)
(5.002201343850627 -0.001262021471212203 -0.008617040856608301)
(4.967451422785793 -0.1335406371878329 -0.008247578540258564)
(5.060682222080418 -0.08985127033323177 -0.05636922117409612)
(4.949337374939923 0.08097601709271884 0.2097135355497601)
(4.983031955311366 -0.008273201010387653 -0.04585644815611587)
(3.007313382207066 -0.3091341434596673 0.01366098183597819)
(5.063584923110012 -0.06953761039703382 0.01735295537396808)
(5.053871875097032 -0.04309494363663804 -0.02741749682105812)
(4.952609861982785 0.01131713073365553 0.04890565826222187)
(4.924639079869382 -0.08816547221819798 0.1108814900720523)
(4.990979908667408 -0.1881891412836302 0.2373943736204438)
(5.007409056487093 -0.04709938977346077 0.04220785124538243)
(3.650525087167428 0.1329158269499277 -0.5974435055038509)
(2.61387241905451 -0.1778633134398825 -0.08286253023973902)
(4.956558505727281 0.001654325331364324 -0.009822267288354209)
(5.123109961319725 -0.03084903921405762 0.1288999846450783)
(5.043910990283499 -0.04828414616014945 0.187068802145705)
(5.126496002174325 -0.1250731816392747 0.06417144330602607)
(4.671612048171248 -0.1031420298526057 0.4897058028577936)
(5.093192515133421 -0.05389216733544717 0.0416692663169556)
(5.002819803526815 -0.0004306453529316458 -0.002887016329856051)
(5.010278507204578 -0.02039860216791172 0.02849583282507136)
(5.011222124566284 -0.02271245118866304 0.06132769381662736)
(5.006820931348393 -0.003297369868903709 -0.001397972907113085)
(3.400365249643694 0.5716151192234612 0.1003181331838362)
(3.377905545869994 0.0147459506989715 -0.1003011242334783)
(4.984833616437641 -0.01563255511179477 -0.02794196826571525)
(5.113208834605777 -0.1404999369119434 -0.0001952827986540413)
(4.24808423777905 -0.06918104296084969 -0.01059883026215967)
(4.697936920844244 0.7913595654061996 0.9402048380394943)
(3.159071038406713 -0.4023587669044036 0.1353455314434037)
(2.810323804039007 0.06502989858918157 -0.06507321873410525)
(5.167974156448276 -0.11321474341665 0.121329181941486)
(5.013037166032227 -0.2060959110347645 0.03768048044885779)
(2.156723938148072 0.0303382852862337 -0.04031501091169912)
(5.021678324645237 -0.1901540147987029 0.01017706645583656)
(5.060544242196074 -0.08724817016016836 0.07878498657844001)
(4.294394027871586 0.06290213151135156 -0.06046313701877089)
(5.015760637192331 0.007018580799590778 0.001325062432441806)
(4.392386603385492 0.05086153242614773 -0.08014822895198524)
(4.670778371504134 0.2182267952656158 -0.1180353353291668)
(5.090193287209258 -0.1080662589713135 -0.1390358041862634)
(5.109476941799334 -0.09853589171916181 0.09861444197590565)
(5.110844802063338 -0.1032834343544278 -0.08018855763282935)
(5.000125145751857 0.008868701061957276 0.004319028228573023)
(4.812460816978286 -0.8040924405105565 -0.3607017812675545)
(4.540470689746932 -0.08578091198164921 0.2518347749423446)
(3.786746746593293 -1.154724519141162 -0.2789450220761073)
(3.707500056311252 -0.1710948717467937 0.0768094797010192)
(5.106924536426819 -0.1714278432632949 -0.006301655716892421)
(4.225745444982215 1.613574634210488 -0.3480714035238674)
(5.026819551423259 0.02034243635907207 -0.1465273081464756)
(4.472491110118415 -1.523550759528603 0.09357914182328343)
(4.970742869857804 -0.02916743638075434 -0.07120100188020562)
(4.990866199502025 -0.01834101509952592 0.01960291069824327)
(5.102103818068677 -0.07578562958824832 0.01551535798007444)
(4.426927854103869 -0.2837581741405338 -0.09659307923278083)
(4.089871825259232 -0.3303418589833484 0.3905188881254633)
(5.070913106174594 -0.05082275920284043 0.09990734095589728)
(4.983248214397284 0.1164402295912369 -0.07304913607290937)
(4.665508760236842 -0.2021477385040831 -0.4526068827192537)
(3.589367601887854 0.001506654575322687 0.2969542508776555)
(5.061941682810057 -0.1057929144623873 -0.06846148026061288)
(5.072299499194139 -0.01137628883843626 -0.02469302785531283)
(4.72821744567304 -0.222639845922172 -0.09315070151317016)
(5.052548089935218 -0.06346277143042264 -0.06984236024533508)
(5.008853152311009 -0.001823793908230589 -0.01154802965063231)
(5.120809988521072 -0.0780470367632896 0.02794923173941216)
(5.00563639416068 0.3640714335345148 -0.07809339373204817)
(5.038749618376778 -0.03715103624877077 -0.07563474390633809)
(4.965954902856383 0.08499655796959849 -0.1673710405419359)
(4.472045108073046 0.4907338431769092 -0.1796601486520104)
(5.000336496060965 0.1050629219856681 0.07471990802571477)
(5.031602512369311 -0.0130920162350827 0.002622637816483251)
(5.005926023266585 -0.0004792728246111216 -0.004322853768671691)
(4.390399320449849 1.284980458347275 1.147867164938096)
(4.990383603708854 -0.111492579777254 0.1582098247817951)
(4.552741406252098 -0.0759053586705072 0.121800653851484)
(4.806993661788241 -0.2997457736336424 -0.009800694221886027)
(3.618290829302437 -0.400512301441808 -0.1310101017676758)
(4.497171610031194 -0.1163274438779045 -0.315606514396747)
(4.877896939520787 0.4119313515858788 0.1875985561400133)
(4.977592077550243 -0.01945822875077209 0.008273551533270933)
(5.07322537440627 -0.1195383900555364 -0.1131286803825163)
(4.899882667183793 -0.2339011366455859 -0.1005142013931771)
(5.046311312976068 -0.02245096460654385 0.06410482269567032)
(2.771187442941424 -0.04587878187077481 0.202779906578393)
(5.0035557602607 0.005558468081763981 0.007483355194867366)
(4.98218937379884 0.004260482595579325 -0.001517226719411544)
(5.004066807126928 -0.01072570008200301 -0.04936085293650732)
(4.987006214634215 -0.0002137076695214321 -0.01332452742008756)
(3.261391437279639 -0.1328087175731804 0.1004224143211869)
(4.913355854500849 -0.245820288188485 -0.2531759635310241)
(5.064239423522376 -0.05316615551049019 0.00423073022533855)
(5.034545763715622 -0.01294522993511363 0.008710276558378105)
(4.97168826901646 -0.04524591392048641 0.0883373377258652)
(4.988022361369791 -0.006224479968768548 -0.007004537537465511)
(4.989061959848037 -0.004390980153463963 -0.002576142923995319)
(4.381376749656003 -0.3758825012781051 -0.02904897408328803)
(5.001027418193399 -0.00161993348663184 0.005297778066936332)
(5.001024105980138 -0.1075500333578663 -0.01114445664614939)
(1.681175552913168 -0.02194390374503469 0.01600595176258751)
(5.049104207442154 -0.0411500906769687 -0.2068243618007594)
(4.963334373329278 0.03137658816443244 0.00164838989925478)
(4.298551679343436 -0.02943007745209556 -0.1577075216340004)
(4.284872987371691 0.09749911266845461 -0.0611090994132965)
(5.016142098803249 -0.1141149450088538 -0.1007429941519479)
(4.483419329641619 -0.3890793570155625 -1.022098747745727)
(5.090337556340032 -0.07344518090169869 -0.0475775199759778)
(5.024488922911905 -0.05097572541055289 -0.1849386626285646)
(5.018455056607647 0.06157034148208562 0.1481186299674749)
(5.042535755536181 -0.01744677307206912 -0.0509468568432303)
(5.037819846973113 0.02447257416751412 0.1005758767269788)
(5.031099609435964 0.0587154933904062 0.08958124906618317)
(3.961558081803708 0.007870074961962624 -0.2217699566638396)
(5.015722957347828 0.01891378004436595 0.01800721541615181)
(3.467062008946258 0.2025714473903922 -0.3429288019745674)
(4.507463966650215 -0.1146279706140554 -0.2417726730908532)
(5.004588213370127 -0.00491959134359226 0.003910790831827791)
(5.06025865329715 -0.06150469069731834 0.00554363484256694)
(5.032770397119963 -0.01631467418562766 0.0380331596938206)
(4.982296099746426 -0.07085388032070047 -0.03352238095255768)
(5.049006016974239 -0.04016672299997082 -0.009995500688360871)
(3.196131986742244 -0.1589527862380525 -0.1158015393954776)
(4.748356885916379 0.1252538285327017 -0.2545898220798097)
(4.07106814636723 -0.2647781728724254 0.3191221256992353)
(5.002887191666546 0.003240538688801386 -0.005487005901271428)
(4.955606076193314 0.1056872599578332 0.2773532598414609)
(5.060373504363619 -0.06326622898567005 0.01077971296590658)
(5.087580031974604 -0.04738626528109487 -0.0591260088814661)
(5.061993767543433 -0.05067249351178337 -0.04473161427334998)
(5.072715158425133 -0.06134278467784435 0.066448231601505)
(4.003261165020844 0.1574219243231335 0.00501989985342564)
(4.583117882162584 0.3446028918903192 -0.559898311668695)
(5.066476785761205 -0.002398825800953648 0.02189061695242287)
(4.457369245263797 -0.2147629964061571 -0.08303483128058094)
(5.087050816934088 -0.1126523685964111 0.03815440932319258)
(4.291622397106414 -0.1344556369753274 0.1028091214383066)
(5.280260772736915 0.1523568858400281 -0.3531711725676162)
(4.970555466660268 -0.07241019617509512 -0.02588987552187195)
(5.067395579285844 -0.05898815100643282 -0.02889210889288269)
(3.537837730963985 -0.04015829383187116 0.145563458331117)
(5.032797654049942 0.08245265110688582 -0.1841816956203439)
(5.006789773288607 0.03961578144376143 -0.03966525090934513)
(5.06121981496962 -0.2530904487700691 0.004556369648177407)
(5.052312677139587 -0.05504469679288408 0.02536606884690417)
(3.855720604356113 -0.2952991469079254 -0.02658751364448714)
(4.952727373527819 0.009380846374959534 0.00574294680186879)
(5.046368329297777 -0.05432447313846293 0.03580110577619927)
(5.029356366470329 -0.1086930425795737 0.01847314473358668)
(4.999446111820268 -0.005953502945916415 0.002897605690994883)
(5.002964637213353 -0.0007667459967195438 0.00640566043498947)
(5.060753912890433 -0.09588966800513168 -0.07607024703215141)
(5.018250322053043 0.02868610524566116 0.1187324851240413)
(5.114521704096176 0.02438262189739013 -0.001754648993428577)
(5.001526222619244 0.005902448328963818 -0.005394679136233117)
(4.995811081643563 -0.02299757492376299 -0.04045779850844974)
(5.027364381459966 -0.001911455581718894 0.01097855560914243)
(5.069872680335518 -0.03741568197181219 -0.02390176582789626)
(5.01317772094553 -0.002216322077621466 0.01124749438822077)
(3.581185157637937 0.02625660998475125 0.1343490411592865)
(5.022208542416733 -0.007519061559733023 0.001177334215792682)
(4.996769208008494 -0.0007555676337898936 0.01160429829355486)
(5.009623503069655 -0.004864058483753954 0.001962206011370217)
(4.989086107483486 -0.1483782532249558 0.03189878660258993)
(5.140105007879228 -0.1064251530582963 -0.01026085249686412)
(4.996132636697255 0.007255221742471417 -0.00675046740739173)
(4.990148779534631 0.02590253141727458 0.0006226541082059603)
(4.995023055922357 -0.01835810504443373 -0.005213120205699362)
(4.808679132820935 -0.03672592850244857 0.0002276616572308094)
(4.914012125367288 -0.1710494401794736 0.05849390378635072)
(5.003477871453208 0.004424353107068089 -0.00214120557582366)
(2.930962074480512 -0.3578744478408528 -0.1185827800776306)
(3.061890505116905 -0.2915946188084445 -0.2768087810779019)
(5.110969239366618 -0.1004569484818645 -0.0454927552669467)
(5.004167924175913 0.002795364798405691 -0.002529127072314517)
(5.007077223198959 -0.0005705309286091128 -0.003150059656519883)
(4.976655842895563 -0.3355968518535102 -0.1419751760774524)
(5.029673607617601 -0.04314372110964504 -0.1057685303322031)
(5.218434331455571 -0.2363077429378824 -0.02841686016232133)
(2.300476334587236 0.1339306329479172 -0.3052788226638172)
(5.049976493113602 0.08918728262535447 -0.124153298448641)
(5.030738620394496 -0.04098580104387998 0.02739777896349554)
(3.22270778184893 -0.130642335303608 -0.1445614312457465)
(3.689668415372452 0.08532750084629614 -0.4585680382932328)
(2.258336899494664 -0.1835132693446162 -0.2187802898998648)
(4.793495397864829 0.2665025229948942 -0.01177135354890127)
(4.938478799247888 -0.1386425555448537 -0.2052481688624939)
(3.191617423564103 -0.1190633293417882 -0.2036290056667372)
(5.129158995819785 -0.1701076814869648 -0.03070689709107259)
(2.336974981052542 0.0656270615687406 0.07173746703447911)
(4.840656732695747 -0.07858703328857902 0.0002790977548895023)
(5.007491525266563 0.09542894406322086 -0.0102830324966696)
(5.128086793527195 -0.1510717454008913 0.001877866858038603)
(5.075090174772919 -0.05274702531916248 -0.06283883887664651)
(5.087207492113407 -0.1485029744284012 0.06415600607501923)
(4.567404353895341 -0.214209806863345 -0.1297416761210521)
(5.041865256493116 -0.04295414988185612 0.1048755730303712)
(3.45878111540959 0.5069228259868962 0.263855797650273)
(4.563793799389606 -0.2474354882978816 -0.08620411918721588)
(5.009580772575011 0.038801500068806 -0.0469217529943157)
(5.013610583696231 -0.01591705303699049 0.01696361975230992)
(4.904140164286697 0.1268479096904168 0.1204920225473524)
(4.712196598862041 -0.1255345889396524 0.6281573156126614)
(5.029727919519205 0.09783666681306113 0.1144472448285697)
(5.055824799836499 -0.0236832979110308 -0.01471490716160693)
(5.092842626559351 -0.1001464936218502 0.05332796383291458)
(5.011038802713607 -0.04127087955770667 -0.04645719306993298)
(5.030800988838741 -0.004477509275112216 -0.03834474672090699)
(5.03618115394822 -0.04233607640451068 0.003612064337967697)
(4.964674295464239 -0.01486662405587113 0.0703032830003454)
(3.320573449096229 -0.1179684607975987 0.3389678273111972)
(4.478823264930154 -0.1313224194840195 0.1741841325773272)
(5.01049073570284 -0.02035423695383529 -0.02782974006705967)
(5.040811784221787 -0.1836678772893457 -0.2115508927222385)
(2.286967110414905 0.3080689335840257 -0.3863020182372657)
(5.001275949138753 0.0008092154382791103 0.004157012416354013)
(3.423072123733903 0.3891582673205665 0.4447852255649527)
(4.347895341181411 0.06549919963227291 0.2570809018831417)
(3.887848467767566 -0.2122167381435863 0.1145845042463194)
(4.999654465564482 -0.002420925002006147 0.005642713149579355)
(5.028389678665033 -0.2743762739387552 -0.2899843770684732)
(4.691817127792368 0.00850301781442744 -0.2047290935799955)
(4.987898546648942 -0.2007765472279383 0.140344272831512)
(5.001316883428315 -0.001471465473438528 0.001553939578235668)
(3.894871891908005 0.4615077370845561 -0.05227096344398317)
(5.002512577317994 -0.004088995397021711 0.0005769044958807375)
(3.319578064965905 0.03486961510279678 -0.4835836884334244)
(3.014635103132585 0.2736334306303899 0.1373021758944958)
(5.039844538459104 -0.01696873882249892 0.008571798308565189)
(5.233477820014674 -0.1981728007987701 -0.1185040151825629)
(4.977888910222646 -0.2144053356837471 0.1854899744547901)
(2.657095533520168 -0.2091179992974586 0.1930579995772757)
(3.730254521512363 -0.1589204722831324 -0.1043329451759018)
(5.003250856887727 -0.0005592829578329522 0.002353568312443433)
(5.002735554651027 -0.0011820400841788 0.003102686900223978)
(4.99570135705381 -0.01476808007941131 0.03539410623400626)
(5.061255974149846 -0.07375495561696908 -0.01541751650090345)
(5.098833475938175 -0.0630732653168381 0.023525658868816)
(5.002256368665576 -0.006315426756285081 0.02782504128617844)
(4.93845325268812 -0.005177736526483828 0.05950010660708711)
(5.009891442063648 0.01941745300186481 0.02578639866768545)
(4.921461224175228 -0.0690158753048042 -0.2025091400682328)
(4.988208174790021 -0.02070101951365706 -0.03335043525063631)
(4.997722173311682 0.08979243244216703 -0.2483732938653119)
(5.055752084928294 -0.0427173196235584 -0.01916349055855516)
(4.784543361496484 -0.1315935486143238 -0.08752242017596931)
(4.737771846824893 -0.2639320314483963 -0.06176948821761186)
(4.977141535200975 0.01161535632068154 -0.003956133205826103)
(4.360338490011292 0.1717147696010381 0.02654346406367987)
(3.85757129915438 0.01358690191851686 0.1434940836783473)
(5.117485913652903 -0.1490108876233441 -0.1144254962023609)
(4.984665653765168 -0.01542040112677136 0.01515956243769476)
(5.01019063520473 -0.00414052866758977 -0.001169315545271404)
(3.186704525153401 -0.1748084456357457 -0.3036719626375791)
(5.083419531453647 -0.06149445532145521 -0.03742800737674953)
(4.968255677672533 -0.01154991661563308 -0.03561673794894346)
(4.557919244122373 0.0270966640641231 -0.3123847815527482)
(4.114238228382893 0.1606648742499036 -0.3129695192687781)
(4.785227692687353 0.02705872984049891 0.0141614811642291)