/*--------------------------------*- C++ -*----------------------------------*\
| =========                 |                                                 |
| \\      /  F ield         | OpenFOAM: The Open Source CFD Toolbox           |
|  \\    /   O peration     | Version:  v1906                                 |
|   \\  /    A nd           | Web:      www.OpenFOAM.com                      |
|    \\/     M anipulation  |                                                 |
\*---------------------------------------------------------------------------*/
FoamFile
{
    version     2.0;
    format      ascii;
    class       volVectorField;
    location    "0.9";
    object      vorticity;
}
// * * * * * * * * * * * * * * * * * * * * * * * * * * * * * * * * * * * * * //

dimensions      [0 0 -1 0 0 0 0];


internalField   nonuniform List<vector> 
19631
(
(0.003197288700020474 -0.0003871670493270402 -0.001257783405513651)
(-0.06168233415800807 0.03083359924946118 -0.05785837471366403)
(-3.442948591822187 1.07128978641513 -0.7754020275207791)
(-1.868818247184588 -8.173474438520042 2.775115920523261)
(4.092389659588521e-05 0.0008293370870022638 -0.0006263376907193789)
(-0.06258282842007687 -0.01763212378461749 0.002102861695095104)
(0.00052013644733679 0.0001406194760527704 0.007946382486701833)
(-0.1301493109519382 -0.1511194178183788 -5.6346357340235)
(-0.0001941716039407382 -0.002866835963725873 -0.01379368319092578)
(0.009693389986003583 -0.007538202913639306 -0.01136964487002575)
(-0.006897775132774468 0.000823058353737971 -0.005004716328767214)
(-0.01872526102136415 0.03730973265485783 -0.01803646089661726)
(3.427621182731933 16.1351718262309 4.522081746921114)
(-0.01201978191673841 -0.04105904673922887 0.0518149333056669)
(0.01802761597553698 -0.002089069955659159 0.003993220362661136)
(0.03429397181951763 -0.02203090880922988 -0.04789473416663322)
(1.078224776162006 1.184380128189191 0.3045315297327967)
(-0.003609151617178475 0.001526353144896286 -0.004087261116400259)
(0.008685839931956204 -0.001442087177357454 -0.003720213974225442)
(-0.04601751088053769 -0.2824740450034748 -0.156151880893824)
(0.003024637541411395 0.001260646984747189 0.002014119215810452)
(0.02161684561377476 0.1338459608632143 -0.04356959600786493)
(0.01125005130290473 -0.007607527856360966 0.03086774221519212)
(1.71094188820388 -0.2492447394251152 -0.05716123138195778)
(0.03872875808915267 -0.0005211797092637251 -0.04097148293701151)
(-0.01741407404208958 -0.007205929687538019 -0.004833651288848755)
(0.0002913027502154802 0.01459898162867792 0.07347269965191013)
(0.01041131030669527 0.05205486016400172 -5.869758078880835)
(-3.297007627552953 3.611843689692702 -1.848164538035635)
(0.07073674392437354 0.0615303053616464 0.02665287404468249)
(0.0001938484302069355 -6.777184140501684e-05 -0.003015741875210513)
(-0.2947716352790145 0.02564221454133504 -0.4440381361946779)
(0.294142519243645 0.003014019223567185 -0.2825767335604102)
(5.100033110660204e-05 -0.01032238427729777 -0.01163129503836251)
(0.7554167922496344 -1.674736622424776 0.09962943569356179)
(-0.02199532227926264 0.02122280502775879 0.00589464811661804)
(0.03231757727663916 0.02937097768806752 0.02208608662726391)
(0.004565728540795157 -0.0006925898901254599 0.001552510711198621)
(0.2988796281109879 -0.0685088133197987 0.02498301203711494)
(0.4689481499107757 0.01953519370607495 -0.03884769577308993)
(-0.3027445579231566 -0.1930005845451774 -0.03622910137367059)
(0.5313240056123449 4.842851335400425 4.798413555334413)
(0.1387601944390542 0.1428316146035626 -0.07334271567700892)
(0.01200756711979811 1.236423040321986 -4.264696777654904)
(0.2884346009952777 0.03113739344834768 -0.6568511558454543)
(-0.8230970338363868 1.659339514351737 1.994358595200277)
(1.097725709985698 -1.894329875483431 1.123285365716954)
(1.464855259148927 2.019806199447716 2.197135395171792)
(0.04682208826552017 0.007616249675592157 -0.01561393684701881)
(-0.008021285813652655 -0.02724855332514944 -0.01055005480793353)
(-0.007081506829739933 0.002791871488294404 -0.009029117971278727)
(0.001268112544347166 -0.02948131675177558 0.007086935919288465)
(1.103957081479775 1.05882001068063 0.258819940128986)
(-0.02333623612803616 -0.02750750806486694 0.02080774515837441)
(0.008121646274636664 -0.03356332270590485 -0.008302510964284337)
(0.2439744504118834 -0.1472792714592912 -0.1061295752281515)
(-0.2740295522877144 0.7905153323497862 -0.159696131079174)
(-0.001204952410738698 0.009425952514830737 -0.01005739861944818)
(-0.06345819829517318 -0.01546980760117622 0.03298737776525731)
(-1.88408673113249 -3.85873577168669 1.232681887138597)
(-0.7178064654421339 -2.480936611138055 -10.36130533499879)
(0.1724736470000062 0.1447795001433624 0.1199269856625646)
(-0.4211619220788039 -4.063762016174636 -0.4532834897040805)
(-0.1225910182508447 -0.09937350298163487 -0.1022013535434657)
(4.013179300292161 8.438330871694543 -2.889419362590298)
(0.93964295680333 -0.7683639469302488 -0.2104106508456199)
(0.03518439972432304 -0.000751921370806645 0.01088918961909768)
(-0.01208911685045963 0.04731858649475248 -4.747359891477427)
(-3.04056521666023 -4.666741902088775 -1.0161435657527)
(-0.01273183816098711 -0.02830689943762922 -0.1411965761683966)
(-0.7466128025397885 4.118910256264919 -2.932156485984592)
(0.01948660471247655 0.145034515494386 0.01552906490683629)
(-0.02958144006133989 0.03104756362966849 -0.007261366661838648)
(-0.1641455485909604 4.532326687586474 0.8629983758302536)
(0.0002304504591490314 -0.1365584176495722 -0.01209162604432041)
(-0.8134303069733939 -0.2791775993198148 1.082950506133229)
(0.02585422153524615 0.002028376428615976 0.002395982193993478)
(0.1904131930237934 -3.157874203093008 1.84219987089839)
(1.73948013262313 -19.46918670699784 -2.929588469298659)
(-0.04964667624457407 0.002882867628942454 -0.03314497737075497)
(-2.008627021789504 -42.03379490019699 -8.598153625680698)
(-0.3229787215037178 -0.1019163657638101 -0.8848707690671437)
(-0.8656888813478387 9.440286294831672 -2.147279134998728)
(2.455020560895221 -0.02244621091947208 3.97387391796913)
(0.09439579972308872 0.03846795721523476 0.2935373070381186)
(-0.06868212815673624 -0.0534453203280021 0.05676968543999966)
(-0.3430095264807105 -0.02412649165451339 0.1161092724813014)
(-2.456619069364918 -0.9717633767392113 3.402181137104574)
(-1.272097963319644 -6.564891580114966 2.469361439533731)
(-0.9593468366263145 -1.386479416629888 -4.179099308106342)
(0.3629830123004001 -0.1083062240397783 -0.1615220115507862)
(0.4810669623545351 2.302790544909859 0.207418271141055)
(0.05043544638400234 -0.05103800306475774 -0.2020055936563048)
(-0.1148254803070638 -0.1231656719204676 -0.1812888770945312)
(0.04456206456146578 -0.3256209631942542 -0.4499182874151085)
(-0.06591486700747795 0.2004276487830183 -0.008880240501347753)
(-0.374808707052984 0.8135024538792957 -2.961905523000524)
(0.2599993608976019 0.01624573357897952 -0.004111434225431802)
(-0.1652012738067701 -0.08505276397058241 0.01496575735044814)
(-0.1156960794750905 0.03562940076324833 -0.004717225642432904)
(0.003238384656470293 -0.01045792860691616 -0.0001463518975187792)
(2.916772883318108 58.53266970232286 9.218298767022347)
(-0.001212559484893742 0.00845530804160894 0.002814091626134858)
(3.41415293853228 51.38974456565724 -11.4929133275377)
(-0.3978734320108186 -0.6673602298751482 1.994839941367607)
(-0.1767401729645355 -0.2556894459850561 -0.2790156568095727)
(0.05370608009083526 -0.004453424172760416 0.04169758606848767)
(-7.609562121968217 -4.248875174590184 4.81780592134772)
(0.01769317609411279 0.01189501059687571 -0.01196288141848911)
(-0.005354824197176668 -0.01786580468996526 -4.581780540162479)
(0.06390704720024055 0.1076474470431615 -0.1107552958579424)
(2.594032943017213 8.39375377613009 3.649073836049498)
(-0.008643962505448303 0.0003909097633669118 -0.01021842015929243)
(1.432585379004036 36.62223687198677 3.658485626792991)
(0.3611666573707141 2.057823930707289 -1.581064922122636)
(0.1272698395751322 0.7429193041749008 0.7887825274573619)
(-0.2365144337139688 1.243024834743277 -0.7903246297564357)
(0.04438973194680504 0.02522726442175426 -0.01014332613275394)
(5.534307329527103 12.12913157469136 -4.243263667318439)
(-0.000859495251664328 -0.0004617221210300502 -0.000490458019327044)
(0.131388815301623 0.0853518583821111 -0.0406280976253194)
(0.07071641234134685 0.01745179644819568 0.03436828914750246)
(0.01814009229296521 0.01156345085812414 0.005208794146596421)
(-0.05931565134592606 0.1379808926236117 -0.135191262749696)
(-0.007867202741087001 0.008278716464807094 -0.09278878184052079)
(0.008471510954460536 -0.005970576656250177 -0.0002243446942500381)
(0.03952899705487107 -0.002656336424855705 -5.54904743653436)
(0.004450347792328179 -0.001908576719334756 0.01053054510855225)
(0.01752618606047196 -0.003365432860532963 0.01008748863245706)
(-0.02159406821545856 -0.01168725029851187 -0.01130521500741049)
(0.09979864834453279 0.05953158705740233 -0.004230428608401893)
(0.09699964593746135 1.034547595636399 1.157328097023436)
(-0.965385520765881 -41.27373317834399 -0.7052497510798457)
(-4.822323441116204 -4.631896804609141 4.47580204766588)
(0.006636147018829575 0.01741768504345593 -0.01024740718023096)
(0.01734516462101487 -0.00813271691581754 0.04497848512440569)
(-0.01060461172142325 -0.03855777062802856 -0.003899563643075619)
(-0.1424103356100857 -0.1209785942271177 0.07994069105439296)
(-0.02373684577959698 0.02088069737167214 0.07893148079864024)
(0.04478997479214113 -0.005302572663141358 0.03765465664304116)
(0.01850414087541659 -0.01684008466491022 -0.02269179453441968)
(-0.0312511362551344 0.1310965915896078 -6.165879823755206)
(-0.3375811631998178 -0.1877857790190509 0.1314344174329092)
(0.04318918279761372 0.08327800319344325 -0.006076636668849176)
(0.07912608810369368 -0.1002394411519002 0.2468668230363354)
(-0.4015021917449514 0.04126859260752598 -0.008570397096468486)
(-0.05812897016075381 -0.01795527622231671 0.005385917912411451)
(0.00593069445401488 0.02159615950999681 0.008272545940555385)
(-0.4088708810712585 -1.557935738105188 0.526781825674569)
(0.5157934290185462 -3.19772432514182 2.235324886081124)
(0.003919939385749297 -0.000829148131212046 -0.003175725847559168)
(-0.01914008872165861 -0.007910347988274169 0.00408869595761782)
(-0.01600719954019876 0.01684523767688365 0.009353615429842175)
(0.08866807036452599 0.004741921240564051 -0.1003269988027988)
(0.01584322478125927 0.00597256832101805 -0.00472823722595433)
(-0.03753336493090151 0.007274646557943833 0.03367667784902936)
(5.304780593086422 2.243547147648297 -26.74513223709027)
(0.09029576706460793 0.08360757277505294 -0.07183168872694533)
(0.01645935977215674 -0.0713302316848389 0.1486324752294993)
(-0.01628094538568001 0.004688727344305194 -0.008439657203367553)
(0.003482010499447643 -0.02720510533765069 -0.01502953616622444)
(0.01061126430527288 -0.0551972445109655 -0.0565329672631787)
(-1.197492264290706 4.76305392224234 1.516070715999969)
(-0.03753018718159613 -0.04101943616981322 -0.0227847718966598)
(0.01574462567140678 0.00743818691349651 -0.005024548960402097)
(0.003188137053043306 -0.001645322490870202 -0.0009368274908928751)
(-0.002325016742218924 0.0007271898315022538 -0.0008206873868454785)
(0.0149173357869432 -0.002523678804069141 0.008279076864648799)
(-0.006730068938417079 0.01135533681062936 -4.206941653270543)
(0.1679241550665799 -2.741300410859277 3.042772744973182)
(0.03177419780816163 0.04733631669448028 -0.04137490937069944)
(0.4291313152035188 0.46029487680236 -0.702544048219077)
(0.2408424020665668 -0.08449206917665131 -0.3914726893835809)
(-0.08951611710694254 0.2334419337172935 -0.1635258936150602)
(-0.02768524606266967 -0.03638764232585306 0.008351869140512613)
(-0.2755811604027672 -0.01119068180024559 -13.0656112041548)
(-0.02030836305875798 0.01556780721842532 0.02903447696200375)
(1.120760771452844 -2.801197951349356 -4.725007432347565)
(0.02071843431581363 -0.002597333656984833 0.01649803028765041)
(2.911143653905041 3.747401371027217 -1.066573283281646)
(1.142296550742268 1.908475374699359 -0.01184962485242291)
(0.001915375252695176 -0.006797052979551124 0.0007010216690751939)
(0.001280901684697763 -0.01712316923216778 0.0007496188835217927)
(0.02481669606008005 -0.04301490385678523 0.03384474946990836)
(-0.9679027741002018 -40.57635789381438 -2.919959895225567)
(-4.685757784045445 -31.67612926393953 6.243166280379397)
(1.202875755198636 1.551422913008199 -0.0231834890859439)
(0.005365511899883224 0.0006153760680855218 -0.0004155566028655544)
(1.37091326532638 -3.162034124183467 1.671743864553518)
(0.02171171128163255 0.00447258838194067 0.008108846057218276)
(-3.184785657555408 -29.32248736326435 -1.585263135911257)
(-0.5108313198394648 0.2757867187580647 0.04296820306463336)
(-0.05742867333542503 -0.2755813105806447 0.01097432449397964)
(0.0148734509940205 0.06210679691985466 0.01317942846669873)
(-2.041870255539543 -10.51929879362343 -3.834198424939494)
(-0.03402755216758291 -0.1979272732594032 -0.08445010195077364)
(0.01066929803740443 0.003470155904392319 -0.001365404216073669)
(-0.1992754976719803 -1.252715534980183 0.3853382541283454)
(8.675762936649617 37.84518221166118 4.16898352238451)
(1.482505167550786 2.864473901143095 -0.1408738383203223)
(0.02204824598679452 0.0008835456989936818 0.04388433973944642)
(-4.200198008515128 1.170791398088159 -7.096575809865817)
(0.9718428817581123 47.8415055494283 2.182511868223234)
(-6.08542171758024 6.797936667991401 -1.584028642253416)
(-0.004457932898777299 0.006579292259481608 -0.01523290218832846)
(0.0121465073117655 0.001666704274133573 -0.009685899836653742)
(-0.003372586313323904 -0.03292581707905399 -0.005998809458877297)
(-1.430815242676814 8.165680768475379 1.87240447014316)
(0.000649000657538059 0.02913140608298557 0.003859982031196769)
(-0.03498726460770514 -0.02832770360445845 0.005352495822386413)
(0.1673347354502687 0.02527328973851823 -0.02394094624574124)
(-0.07314536872699864 -0.1776652688776055 0.05637107054086567)
(1.036885750804264 0.6056988977319877 -2.948594640444004)
(-0.0004018989769329871 0.02711605366842924 -0.01000643877855877)
(0.02146782662535439 -0.0001119292505247296 0.1693755378430993)
(5.454250187985663 -63.59599652880194 -5.20986630445277)
(-1.293934527199869 0.859590102292684 2.039576048797191)
(-0.9677144470182759 -3.695226931478721 -0.04509865805283275)
(0.02023479660149353 0.006548945233652735 -0.004772213306763005)
(0.1213791421432627 -0.3725117428814015 0.005076732212996579)
(-0.002445989721652971 -0.0007173144190077115 0.001148395367616406)
(-0.08563313751311832 -0.7642798160344931 1.074729349973539)
(0.02341213095442003 -0.02398622097795303 -0.008860564538061416)
(-1.872186873630189 0.1238555093914001 -0.07737680860860813)
(-0.2005987071458755 0.2437619874403923 -5.661865710752694)
(-5.2148024979062 2.378963688832365 -4.816663856363035)
(-0.008566362555931746 0.01989362544262647 0.03417262595424773)
(-0.02678524148108665 -0.01679063248363875 0.005996824553305444)
(0.5652199723066944 5.435543626502158 -1.373875517435837)
(-1.355946265690634 0.3476581712422731 -0.4696632228278086)
(-0.3706246187780266 -2.335796957488872 -0.5367485144440196)
(0.1050455239425937 -0.3158517774234591 0.3178330736161371)
(0.0754320613764991 -37.46277587071988 -0.2695458400366575)
(1.858380214400696 60.46837857025584 0.5029901751408886)
(-0.00548665584104113 0.07784833491895723 -5.942258001473252)
(-1.501013280333363 0.5100003923280295 -0.1828381965253649)
(0.3885032732544723 -0.2372221825130169 0.003904037547952825)
(0.1282967277251162 0.2072869713467213 -0.0759951637061313)
(-4.585504585315608 0.7263387606086071 -5.348564795982787)
(-0.1106467371106642 0.02856008297255294 -0.01306803915835202)
(0.002539560915247689 0.002805713465389373 -0.01134163610361179)
(0.00918333460070966 0.003126780079333307 0.009206956350984334)
(0.1040678818265958 0.02045710521810033 -0.02231661376385709)
(0.002964731785872416 0.001215938661405272 -0.00358662425444567)
(-6.734226498487288 41.15442661779102 -0.8009651461627691)
(-2.893170387642203 6.387725960626163 1.180236619729659)
(-0.02149538783555491 0.001274871005416863 0.003167622804132701)
(-0.03322257574881315 0.162104713668216 -0.1246851601309082)
(-0.2080913513693329 -8.165309663704903 0.6549453661110007)
(-3.040774418255773 11.83501274712643 -8.614577304708831)
(3.71819339817503 14.83534413785046 1.551904406337113)
(1.645714054794452 -36.00848704845125 -2.417206178686068)
(-0.4694568585522518 0.2447829960333335 -0.3795457321543184)
(-0.08937687406393766 -0.6214920853499032 0.5756146993099434)
(-0.0469477015753564 30.2370331354915 3.240447209390106)
(1.092304480567049 2.844823300006471 0.6827303642682179)
(0.0824538386400749 0.02953053050459906 0.01349351553031672)
(-1.079590179590449 -8.311681460787431 -0.1264153259441603)
(-0.009768052668323139 0.0006938602498382561 0.00887512245290328)
(-0.6302235400755777 0.09919013079910924 -1.510250388777829)
(0.1179691288094418 0.4184638070816142 0.1813692651871484)
(0.1408721657713568 0.2156561829259991 -0.1362607456702151)
(0.2365688103385505 -0.1314497033188158 -0.1473187406261888)
(-0.216597894875525 0.3769343857432415 0.002300737515316675)
(0.04199382011329644 0.04110511789457572 -0.005956587740718819)
(2.195783529200301 -0.902646116791384 -7.634111127475836)
(-0.7617332132937025 -3.278876029513736 0.7473956188473262)
(0.4774303768229406 -7.64252647480289 8.963743296525712)
(-0.5053073999861294 14.86357080013336 -6.812285296668795)
(0.04557375388128614 0.3690156002253117 -0.08176132602498663)
(8.925326053530762 -0.5930855268103068 -8.109716332551347)
(-0.08909395387513934 -0.242257611848453 -0.08438123799256142)
(-2.830119236668889 2.110225434165334 1.350914546005405)
(0.02024896904065313 -0.03050642989433568 0.002411746296787299)
(-0.009159288878218187 -0.0105865786882785 -0.01148828669404137)
(0.01919832022339271 -0.1050749881523453 -0.07513450551028997)
(-0.4856067592194034 -4.378339669884445 2.003472739341909)
(1.601780638254023 -15.66341950586415 0.1305820359771197)
(0.05402393708344481 -0.1871309516337783 -0.03009478343188068)
(0.04248042641485404 -0.07425240079157362 -0.5496289906718138)
(2.881744580531456 -8.027166394521375 1.888678721272451)
(-6.136337656258075 -12.5436964521094 9.274536767431124)
(0.6643736199132586 -0.1479737449094442 -0.2181985150119258)
(-0.07811845785154151 0.05265435489328658 -0.005568531936640218)
(3.277829307761345 -2.109413941613813 -2.259530164336332)
(0.4137736313762013 0.06706084218309907 0.2237813515224569)
(0.0005339356145485547 0.007013720777392643 -0.00748235850092996)
(-0.2871674608892252 -0.2658417364668301 -0.3215142335434867)
(-1.482455166383249 -0.9138205776147725 -1.222126222059978)
(9.399717721022757e-05 0.005024976954937374 -0.004709195623891802)
(0.1629293740644802 -2.280167480863117 -0.4901671047094083)
(0.6473638861679865 3.174448226403909 -1.382102095547901)
(-0.1906434999288506 -0.06790496249210899 -0.1609781861525122)
(-0.003358487030311461 0.00228506132522713 0.002371478442708868)
(-1.610223009147435e-05 -0.002482808379776327 0.00179947024015465)
(2.793153813459699 3.5154653759218 -14.26771029752065)
(0.4962355013033804 0.08098702950088948 0.08025732660400231)
(-2.427447340573319 0.4327513850998969 -1.833751594852104)
(0.6580596368394379 -1.553354686623121 1.053767739320146)
(2.275998714827432 5.100034715617594 7.726080887966587)
(3.945063887097666 6.113489334881042 1.02157924157373)
(-2.532024217073048 0.07473278027996499 -0.1064235367139268)
(0.007437084979904485 0.05274858846838739 -0.05401958785023208)
(0.9625321040211927 0.6294774027079474 -0.07915457218241545)
(-0.2219843551429759 3.454940681261375 -1.3846636049841)
(-0.02187068399972807 -0.02528163633557057 0.02196372849164673)
(3.272543952788097 53.13928993528717 1.758299594254722)
(0.01828253251385448 -0.02709006866960587 -0.0373926959408826)
(0.00148717841361771 -0.00295000205908534 -0.03324864964597771)
(-0.01977935593814011 0.04013508434776539 0.054959073119966)
(0.01128429593158586 -0.0410581024587398 0.002088964958343997)
(0.8956489698673431 38.54153827984521 1.818232900173978)
(1.70644622364662 -1.837449438677847 1.015581292542072)
(0.002798971782803208 0.01973545796691278 0.0235347744396255)
(-0.03380083575673969 -0.01589898314338041 0.0002749973079066532)
(-0.05098061004592784 -0.0004454474476746698 -0.02309502538894207)
(-0.0001292929945830427 -0.00131730264454421 -0.003403553623352428)
(-0.001792867450937554 -0.0005027425698838962 0.002460824484712289)
(-0.9630887305656433 -2.769187291198973 1.196227690221566)
(-0.001550719464322503 -0.0001728592404054287 -0.0008080353388809023)
(0.2452661215828215 0.452471551857109 0.3969098871701696)
(2.284090234908661 45.57207848621612 0.9973642999372357)
(0.6466942790078186 0.07067865765349959 0.2776462147331424)
(-0.007615275023045449 0.03076374357527641 0.1176599363550607)
(1.239846398147514 0.2232523851073658 -6.556454112483961)
(0.7572154841451679 -8.252521167262028 -5.636030653736793)
(0.06626581425116673 0.1838919577954334 -0.04146299359097404)
(0.368024293959179 -8.100708589722426 2.097064724279012)
(-0.02022352844796012 -0.02357377757408369 0.07959930305245477)
(0.234299924285578 -0.2598810319572739 0.0444650172954051)
(0.09022040207900352 0.5598712250109596 0.1765902648505005)
(-0.03478024383421265 -0.0303692501515791 -0.005801605793809743)
(-0.1633404349375083 0.06843329821442629 -0.04120041042039786)
(0.1470966948963075 0.01925988248285438 0.1155164517466079)
(-2.316866417986778 -47.31103754525622 0.9972540162446637)
(-0.03387743004921115 0.0004638466565901741 0.01212028345746329)
(3.086116716501724 -45.29930057770174 -2.192252695412664)
(-0.02432707533398518 3.946560210133421 2.030239363598067)
(0.003432773213320622 0.002921395531211491 -0.001178165261864942)
(-0.02246347262630867 0.02866281807171866 -0.05273537271878698)
(0.04817249732720222 0.01852631548956769 -0.02960162733405591)
(0.1089967460036165 3.188718658912538 0.5752696711677264)
(0.02193804673263415 -0.01055744190444028 0.01805784820560986)
(5.603628016136601 17.00159961407193 4.795365173513043)
(-2.514517015937758 -6.157659471666173 -3.357812954983774)
(2.195398827041358 -4.78154623620642 -7.346012055596307)
(-0.00105671063649428 0.02571452962957968 -0.03309087338907888)
(-0.3677398258117023 0.2740205466373353 0.05952012367520822)
(-0.1138980234875106 -0.03522779436869197 -0.03165656667766858)
(-0.5192816959247493 -0.0747657230677256 -0.1448509959942199)
(0.09985886248548698 0.04335727241038768 0.06430538506882169)
(-0.1976576440868908 0.1456838741433224 -0.1465778631205955)
(0.1841417371823268 -0.9139267754651947 -5.017993831227298)
(3.725749010978373 4.844559153107808 -0.9385160013946833)
(-0.02200769265927424 -0.06846138730266835 -0.03496537861325758)
(0.473690260225291 6.543561252128917 -0.5707996742734489)
(0.2144544133364649 -0.141633171835892 -0.08718689189334269)
(0.8457270383777844 33.67672804678002 1.588754705362122)
(2.753201141775301 4.36334760873105 5.555790866635586)
(0.2583101224976143 0.4071494418412044 -0.2551117164106447)
(0.009605666909728264 -0.006003169180096204 -0.0008909119717129717)
(-0.05431273735598974 8.567690823755818 2.759669969073416)
(0.01438636776495117 -0.485212980517824 -0.3232885544583537)
(0.06298966754998714 0.01982450582261289 0.01798389277619539)
(-0.3917424430055723 0.1317684157280554 -0.5138738342708212)
(-0.004914059880463381 0.02294356648797057 -0.002389994586172037)
(1.315653427769478 -10.15290807839911 -5.229443635384585)
(-0.02704154689232746 0.008982187390357343 0.05350429517337257)
(-0.03068665703100527 -0.0282976201355269 0.04192802565064816)
(0.6511018755722053 -1.120388650435121 -0.9863147977961331)
(-0.004252953146328894 -0.0007692872801237446 -0.0003965986706568439)
(0.003590086004053569 -0.004816773961467753 -0.003362232371599876)
(-0.4094309229623631 0.1302337502523652 -0.09562632827615455)
(-0.2477665808325621 -0.0301444064429214 0.115405004191632)
(0.1751977261805956 -0.02154763216735674 -0.03786671726884067)
(9.07959601498475e-05 0.001741086504622229 -0.007684065449505132)
(-0.03284370593881904 0.2175727560695569 -0.2082132144363499)
(0.002574390877968233 -0.003026363594228581 0.004599761550677821)
(0.04691386558243735 -0.0113184669855993 0.0007420873840623485)
(0.003249325864355213 0.009079568779730877 0.003109736285060719)
(0.5257811395546838 10.80182512629176 0.5798743486965868)
(-0.0223657490995408 0.0009272614060293408 0.005406308255858535)
(-0.00373901223477303 -0.005556181724811456 -0.0007291710737210172)
(-0.003422012812320161 0.003256787414093298 -0.00286528433675961)
(0.906037876130882 -1.190775869902948 0.3190164139803785)
(-0.5575807752486176 0.5361466835969053 -0.1270877975626951)
(0.008491268859184116 -0.01715754790169678 -0.009876566242798875)
(-0.01527726442912659 0.09486013305032114 -6.608948482705813)
(0.02229172993348728 0.02011815748667509 -0.001058389110405345)
(-1.903172332747068 -7.916028838419302 0.07921013758791307)
(-3.560327073423476 -0.3639619329640877 -0.7458358631938737)
(0.00356836967881602 0.001471758668809895 0.002639258528486651)
(1.98404192067406 -5.015170812525533 -7.198919410845329)
(-4.186345755846705 -41.58144733926629 -3.204366199889444)
(-0.1014448422340044 -0.2362309328972862 0.05454963047239618)
(-0.0004321854283555599 -0.000705051502521911 3.492409366366106e-05)
(-0.001023998283934329 0.0004944595946351773 -0.002226536933039869)
(0.7941234334636789 -1.198872867444342 1.166981589629882)
(-0.2533696074017329 0.1373799605350099 -5.623819315710434)
(-0.5949083803991945 3.035335259842047 3.27556086518064)
(1.763000146722754 -62.5774994147804 -9.751048335800638)
(0.1419639465875706 0.5675300848479072 0.03880845993652665)
(-0.0951436591370253 -0.1805661932815512 -0.03991414229012483)
(2.43047229239971 -20.28959338816262 5.178027900697916)
(-6.163167742788263 -4.809916187284051 -11.55674685142744)
(-3.887744271442826 -55.07929217219915 1.732233952825205)
(-1.662598415019347 -1.7213022591269 4.944120659195866)
(-1.621607840685833 -1.53363446733366 -0.8834849267812996)
(-3.121050147425562 -62.12196537866639 -7.862089314952859)
(0.6431145139929495 0.6742423754403269 -0.2903899175960516)
(-0.9070916963012707 -43.81211644247499 1.092425806800656)
(-1.011149883796943 -2.759786113737424 0.3883231092767685)
(0.07538153066886018 -0.011475143997377 -0.06146509709615043)
(0.01438332497256977 -0.1424493245478279 0.07218907419710775)
(-0.03887683819339257 -0.02800027534415779 -0.03323241113244293)
(-0.1131574987031663 -0.1866347460432031 -0.2977894170771401)
(8.933533922475437 3.228898712216289 9.124311038590628)
(-0.2539937484525665 -0.06102229105135588 0.06323497136858618)
(1.14593528626971 -44.1751846443045 3.885751754598892)
(2.166898114193565 3.842784327695438 -3.564153260493097)
(0.04100722809737845 -0.006909332180133907 0.0236417589660104)
(-0.01117685708555304 -0.001830896836802111 -0.0007535901786387515)
(9.617046942389734 3.584337739511786 -2.729944357043654)
(7.982996886103798 95.25689671568341 -2.573598947443845)
(0.1766578634775008 0.04140628300154348 0.3469178852058907)
(0.01878834940011978 0.01003960566663849 -0.01017932607341722)
(-0.2338266996177737 -0.03741763285128164 0.02916635828967856)
(0.8783823920890872 0.3827746653963539 -0.7654553883365521)
(0.08849616423291926 0.01502423402228865 -0.01794153879082858)
(-0.0147515675401477 -0.03935291307650406 0.05752208054991194)
(-0.02514453921953292 -0.03704815791441188 0.006674495987807489)
(2.534846320628911 81.39040905051542 -2.912526711946517)
(0.6703531430804164 -3.429000219520701 -2.115704592066941)
(-0.02057211476765368 0.02114756300874832 0.05961168640243825)
(-1.861459262232054 -3.92653158542993 0.8368265633726764)
(4.134491920963108 12.58854702481899 -1.746451624137437)
(-0.001126060835227017 -0.0008739599472913607 0.001449790873990741)
(-9.481697515266021 -16.94228602555211 -3.157279914075459)
(-1.780621767186118 -2.01153768816831 0.4799800638160365)
(-0.5976747305481775 1.324520996374871 -5.612427221404454)
(0.002429460868984178 0.00127465955561565 -0.001835690856300898)
(-0.5018934706166688 0.2727511131971362 0.03260362741172618)
(-5.899668424571045 -9.329371370941717 1.588267724711239)
(0.9263905951569464 1.072596221831032 -0.239843157894767)
(-0.0003135910720814256 0.0003968330053214471 -0.008910529070139672)
(0.8064649102131596 -6.912037815045167 0.8657579081520642)
(-0.00209357610755254 -0.001375886019600403 0.0001788528142078308)
(6.01861077805361 0.270423900340411 5.43435067120173)
(-7.327321324498032 1.500821435905283 -43.51297939587215)
(0.009874575273857409 -0.00931306070033546 0.05201424028370802)
(1.763054925876313 0.4118018872667502 2.217103173132544)
(0.2642246056368613 0.4860090396248771 -0.7735865689021502)
(1.401416838272779 11.69119026151498 7.688477882601706)
(1.680817032225758 -0.7370546785287626 0.03414734765194738)
(0.001513658771858804 -0.001094186095326635 -0.002131779103576483)
(0.002012952653423112 0.0008279533936832242 -0.0003347653905688543)
(-0.0010724953987345 0.001852894944444518 0.002260969165415008)
(0.02569020420300354 0.1932998809674213 0.02117145042542284)
(0.06293028091879094 0.1635138910779616 -0.1193314279413381)
(0.05941367784147539 -0.0008092551327635797 -0.1176775847278422)
(-0.02627332175786089 -0.116432313662529 0.01170582701371161)
(0.001716882035431386 0.009174083392822946 -0.01896706549401818)
(-0.1388273984120522 0.2083702763279487 -0.09707839591930954)
(0.002372230940650532 0.002462180105873674 0.001809030625970601)
(-0.3897582311976526 3.334163576078871 -0.1157365940354288)
(-0.01419741233780326 0.004289856587417714 0.01875048941654307)
(1.347285875365497 3.225996745227679 -0.7966186373738013)
(-1.429492080661148 -1.551446262254659 -3.230986748786715)
(-0.004829403164762834 -0.02392857066303567 -5.976694223188044)
(-0.3124119638980123 -1.301111139093117 -0.04890053749034821)
(-0.2492057766610483 57.01178368786464 6.236684124280846)
(0.2535197316724588 0.9875970510143034 -0.4151990287386531)
(-0.008598710403799963 -0.002709552181768439 -0.002293554387217949)