/*--------------------------------*- C++ -*----------------------------------*\
| =========                 |                                                 |
| \\      /  F ield         | OpenFOAM: The Open Source CFD Toolbox           |
|  \\    /   O peration     | Version:  v1906                                 |
|   \\  /    A nd           | Web:      www.OpenFOAM.com                      |
|    \\/     M anipulation  |                                                 |
\*---------------------------------------------------------------------------*/
FoamFile
{
    version     2.0;
    format      ascii;
    class       volScalarField;
    location    "0.1";
    object      p;
}
// * * * * * * * * * * * * * * * * * * * * * * * * * * * * * * * * * * * * * //

dimensions      [0 2 -2 0 0 0 0];


internalField   nonuniform List<scalar> 
78526
(
-0.05292878125646201
-0.002755540382784447
-0.01051511857025447
0.03796812637991841
0.008811441888825579
0.0008641926029353593
-0.8574936094447028
-0.009290196047892035
-0.01922645468622548
0.002399364716950618
-0.04225241077624914
0.1630133921745784
0.1779703775931193
0.880471710539399
0.2706797074255576
0.004430410470022491
0.02121391219930593
0.02215505585379899
-0.006045747127085116
-0.08682585437631848
-0.3645904165879643
-0.6043869532782457
-0.04194567800704446
-0.001168987444208522
0.005575731905599289
0.001449460629197132
-0.009580739278938741
0.005134641249430376
0.02117813667908227
-0.004449097758174555
-0.233325258517572
-0.002932359309270024
-0.1802201458164306
0.004065566258668417
0.01409075290472463
-0.01004133142671687
-0.2514773524961589
-0.01174525463207865
-0.03166173593012783
-0.01906126799714581
-0.1217669169831636
-0.001754275413511108
-0.02402303534249892
0.01445250928350475
0.01342953303698516
0.01445455132949739
-0.02257249330416523
0.003642831382839326
-0.002346902840822163
0.0659140672840508
0.1400746369071139
0.002762786671725532
-0.3495935226353423
0.04020859591358837
-0.001754596575030967
-0.3735909493761761
-0.1472596367214807
-1.945182580059106
-0.07681871332235637
-0.3517204132105794
-0.01871256512056634
0.0135151862816899
-0.006091898498632676
0.007642590565363113
-0.001636677786499208
-0.003081511483413433
-0.001623805318799955
-0.09033352668484408
-0.002081726849269265
-1.340852904424948
-0.01758633603384652
0.4615968773699488
-0.1848717965505089
0.4862025777456559
-0.01627030331102784
-0.199157743818699
-0.002755340698134544
-0.07152158542237709
0.00275791924045454
0.01255242969593306
0.05005457683683729
0.01700634231387308
0.3166311063779274
-0.05159143614442219
-0.06179459346507848
0.004507477395802655
-0.2493267871940214
-1.950739474359277
0.004437908260296806
-0.02290942833928508
0.0004958546895449818
-0.1960115267445795
-0.01116807568321661
0.01587770555864535
0.01237236610227174
-0.001209166261693772
0.01590552105702412
-0.002415410023348911
-0.1677263165488675
-0.003310570494097886
-0.1260210776445375
-0.1139467772969918
0.005638811055694708
-1.034940003076422
-0.003330356420904343
0.01151173652059074
-0.482846588972521
0.02620910273933998
0.004892043633766338
-0.6516142066739129
-0.06904957643783792
0.00956136856257191
0.06967943687082913
-0.1552592897449497
-0.1355415054786878
-2.53034668081627
0.004716069803187714
0.02951002079935106
-0.1578525643172198
0.01163141898968857
-0.002392638388857555
-0.06143893345004946
2.69154234149689
0.01424098457278852
0.03261754626856353
0.02165648815147759
-0.003149586875861814
0.004911672700407456
0.05589543693720665
-0.1092923864633603
-0.1502496259905928
0.02028943003699157
0.1168434608201614
-0.02530315979382733
0.02085956370716474
-0.0005993833601232263
-0.7674548021686503
0.04314394958658196
0.00174918778182015
-0.002620373121131229
-0.08778577008490927
0.01203378405284028
-0.2099999772718359
0.002245839117020332
0.01003949172905575
-0.717239914792047
-0.01699401762311917
-0.03098184504730779
0.04571904308763056
0.03019330116688696
-0.01002005491983315
0.04234048374214575
-0.07788095344051095
-0.005287800088842067
-0.06129925503378011
-0.00601031278363685
-0.008425880030098507
0.007925758069175545
-0.05497544252212542
-0.1310812051220613
0.02825990044611494
-0.1525053322177501
-0.1125996930500275
0.003618775843981454
0.006650017719603455
0.002332983981113774
0.005505228688790246
0.007792860640724881
-0.01043486046811769
0.0305059071465927
0.003333644073587329
0.03136735723244021
-0.002389583096701508
-0.1417439097948807
-0.7502493521629483
0.004201807113249483
0.003465607021243294
0.02557597326856474
0.006499523909229011
-0.001561534188248526
-0.02034970358587167
-0.1452980006813179
0.08310895024973433
0.03571149197843135
-0.12412056787231
-0.01054956264051283
0.03611512771742241
0.07786779514973974
-0.002444995189127703
2.198495264496374
-0.04696375675432363
-0.151079592814439
-0.002640137550100691
3.196352422766202
-0.003293564762460195
0.06353523520304942
-0.1785681990742838
-0.1987002338775688
0.1514020427030147
0.00771133777868331
-0.8580968608911637
0.001864565305882273
0.01845847515978237
-0.001984379324541192
0.007788284520279131
-0.003823197758642849
-0.1543650151036697
-0.3778827611615223
-1.883543257227869
0.04104547422932386
0.03408931467311159
0.02901588904453393
0.2774314585978582
-2.62255371620103
-0.9495375495396008
0.07205371693571706
-0.003035197945749798
0.02353719088236277
-2.459037631766309
-0.09029596854645769
-0.6539394094905584
-1.860680066715851
0.04931994253928778
-0.0002821055647984348
-0.01582767861941136
0.0567421458497024
-0.06857108438717439
-0.07073331512483849
0.03363364908598974
-0.1507569500137986
-0.06421469533191068
-0.008846735690229868
-0.0007095857629060266
0.2220710189412082
-3.63337135434224e-05
0.02206006319325394
-0.003832278941881189
-0.003276495428347946
-0.2446059944658327
0.2519214818480252
-0.3232682267659546
-0.1377205317830715
-0.1866512101017942
-0.1176253791443068
-0.0008054571433251465
-0.1264438227838986
0.08803224623629632
0.07469084650730398
0.0001347341179331531
0.04813143539949551
0.04985988368958481
-0.09828707200005046
-0.1754616661033079
-0.07240022297825363
-0.02789698020426637
-0.1315357233106563
-0.1699357117798247
-0.1769692062567246
-0.03887932292095265
0.00802479744058154
0.01107349801126614
-0.1553285459280355
0.1323097468713448
0.226062307314549
-0.03868065740773884
-0.007627129962524173
-0.2054845465479941
-0.01031900257601586
-0.2668512776601566
-1.071511462787634
0.09629497493669233
-0.9229511758328682
-0.001322224542935869
-0.03786000721411335
0.02140134168604941
-0.001545216646220274
-0.193190004271041
-1.416859743485175
0.01237197931641803
0.008881699700798917
0.01492199397288973
-0.002301533087225741
-0.01511137060178893
-0.6506013161054883
-0.03885792972065829
-0.3373581486699554
-0.4293261739212849
-0.004549825153825006
-0.02450971224896845
-0.1271785220924317
-0.001993925859110993
0.00336090359251965
-0.5283077766373917
0.001403333068606694
-0.2183485298175081
0.1023119829385002
-0.07829973075965889
-0.8482610248974419
-0.06275655320888339
-0.955477087739999
0.007224518840974226
-0.002409164717382949
-0.2944923380398337
0.008041995393011349
-0.1470910527497315
-0.4947851848659149
-0.1462156240857923
0.003567706009218751
-0.03510270193853644
0.04594178939587915
-0.2736042275752908
0.004020315141415257
0.00287310277742689
0.01478015129440989
0.009536960142966898
-0.008651251641997208
-0.1593092657662067
-0.05073910055958451
-0.04480120291569278
0.008994899553135087
-0.1164050146349055
-0.01199591729196009
0.5745695950231705
-0.4091014730484593
0.06744943665225912
-0.001689374879772982
-0.1563971157564411
-0.001725094800070872
0.2475321548298264
-0.01249308490334119
0.005780403019812344
0.002788280011130187
0.006831861179579974
-0.1179896422687274
0.004191138347256602
0.05780630101852129
-0.001549079850521821
1.466479880757401
-0.07700960493551819
0.004438921312237487
-0.002070292825791849
0.158164215012538
0.01928563757623912
-0.1598477065661223
-0.01909996233745365
-0.1526275201172619
-0.1896410762175766
0.02635861070857834
-0.4955290406973294
-0.01010279424124184
-0.303000152571162
-0.02755910634525624
0.02247968124543667
-0.2785687507679067
-0.008427706320489649
-0.1086403181396741
0.4954327352550464
-0.01216823420766301
0.0967564667295369
0.05943181543020126
0.02234321400908195
-0.09363747474752873
-0.1968600868160101
0.01916042545837933
0.02335805976169842
0.01443148071809495
-0.0984331131890574
0.00607706807879608
-0.02312419537189566
-0.4611843957131647
0.606576859007213
-0.001911171878063034
-0.8991280920394328
-0.7468807495830421
-3.141626970655785
-0.02621204423571945
0.08181265979092787
-0.002350061291548748
0.2020736212724206
-0.00260308929350372
-0.9828904272473152
-0.02562001782588945
-0.3887437105972664
0.1225158062813036
-0.01660688956055615
-2.308271173457815
0.5360827125913218
0.01925816520126713
0.01948143311114319
-0.6299191729558872
-0.2860588768995606
0.2938678878378971
0.003242028734330321
-0.09841117889049587
-0.002616986806657446
-0.1690188331644674
0.2148078931134398
0.002282327305351486
0.7815379771674392
-0.2051097900489218
-0.01917312510228426
-0.698731404291366
0.07588449752782522
-0.07366175507954889
0.02775064166416618
-0.6223512044384073
-0.5947301746136394
0.3739776195899815
-0.1439617954922439
-0.2934558334631418
-0.2441668453851028
0.08273381038478764
-2.612322570735164
0.002434653740069698
0.02007448188343342
0.1329697324833598
-0.1474003340123537
-0.1808945116973548
0.00226447473643965
-0.06578733834689361
-0.1275787100445585
-0.2941445855575674
0.00554773256030747
-0.1552277722522674
-0.6466145209050473
-1.949700154845269
-0.1179687197150437
0.01233577846940558
-1.416160889110217
-0.2728418318573834
-0.02589153432595279
0.2927479925034996
0.4132985065897396
-0.03091786179391463
-0.2803096037379277
-2.259776325120572
-0.4352669740852173
0.01777117690652794
-0.3473666502883682
-0.194890819857787
-0.1280672788182684
-0.1612454584687266
0.09706569115502155
-0.3586413495368627
0.03536607523067593
0.01230140802779449
-0.2832649004908603
-0.4114174759598989
-0.2259013511932127
-0.8454235156217065
-0.1136546310908927
-0.001886985563119012
-0.1205133287593535
-0.2946248271944722
-0.515603783815873
-0.002492433075725151
0.2790129065982047
-0.8283764577905184
-0.0005380847382279258
-0.02390514276748588
-0.2014402606682119
0.01926685857444582
0.9932454523270491
-0.04990407013087465
-0.318225679364055
0.01308004347109826
-1.284578313208528
0.03123351850462048
-0.4999444070400281
-0.7279892890499733
-0.4583607736607401
-0.6555219373011973
0.001394701736965154
-0.04675709719258378
0.003767183975466775
-0.008925219614890737
-0.006800930945848689
-0.08311989618735569
0.01918126330708836
-1.145562304105952
-0.6894516869454477
-0.2144652814457
-0.6441689690295238
-0.002284657609496518
-0.1880783614624984
-0.4053227260471007
-0.201639905743268
-0.1768021599530349
-0.1853984598271105
-0.1958015793404763
-0.0327010393437526
-0.2757609771145432
-0.1664607795171767
-0.1377297467521514
-0.4653376828018077
-0.601115810253177
0.001781071859364611
0.02070248164148189
-0.4600038956084585
0.5687486382912609
0.01434184815026724
-0.1941306976822618
-0.01080499629846787
-0.0001188671646054897
0.02866788170969274
-0.02522997405853533
0.1513500353747676
-0.1067988601180605
-0.002028883684204794
0.004685408464865455
-0.5358528083582768
-0.01200648370948184
-0.007300197482416814
-0.2295528933370915
0.09023957729223638
-0.001001199787460841
-0.01196083529216876
-0.2539545318379454
0.0518866008344047
-0.3188583720870808
0.02275625792172853
0.00275437926139157
-0.1250049861107377
-2.308317857679738
-0.1269163992209164
0.02181922090522629
-0.1090901728453898
-2.295993271188832
-0.5867304530789063
-0.6704244016045445
-0.1688792189986684
-0.008775130959498339
-0.5188245187173502
0.09600600980640578
-1.640036387887662
-0.1430848498716243
-0.5024442426214434
-0.04509246910955417
0.003455410323008089
-0.2398514536327945
-0.001484524564456623
-0.1595339665665916
0.03734623712300935
0.002480013538662238
-0.6003624437859392
-0.02117930871081048
-0.09979361503152998
-0.02034175345147265
0.01312263285547077
-0.2022835348897042
-0.02324976815275433
-0.4149293468708777
-0.325005356985086
0.01636560736441989
-0.00258707194282935
-0.9994940443649695
-0.06918430479748755
0.01791760962523478
0.01831609772037686
-0.1225713809054637
-0.01042083607817316
-2.621439972155666
-0.3960368824026169
0.03550859266559107
0.04340136177247803
-0.1520070534776065
-0.4129960006332818
0.07889146875401215
-0.6481286617424281
-6.026539454075348
0.003138714477988182
0.01946136665461376
-2.01085519926743
-2.268445464301301
-0.4704762457766756
-0.08013062425022356
-2.978006297513936
-0.1467114560849842
-0.9288827727104603
6.164533138177485e-05
0.01981625535625092
0.0277949809943932
0.01341410234523333
0.01935969879629085
0.03437232697656058
0.004025777243547283
0.03515274605197232
0.09857215933635485
0.06674012538618364
0.054383588986559
0.003178261817367793
-0.001232859797835653
0.004369360904523717
0.3278641891910843
-0.00402296978877795
-0.144848266422429
0.02678259131705129
-0.1093444055021143
-0.06774906045741574
-0.05665598977623595
-0.002148125695541577
0.001291009944185656
0.001210793908209422
0.005770635608380923
0.06915375898704876
-0.03879115462262696
-0.04064681822485378
-0.09531008750474512
0.007413432125614343
-0.135384353665037
-0.09278061398532757
-0.03048434670232469
0.001025476784049787
-0.002930840244966655
-0.01611652128337709
-0.03198660553790733
0.0005092562849681057
-0.0007137654222776702
-0.002184298057262097
0.002669169867061589
0.08171193248096104
0.0006784621393695368
-0.0733288086177304
0.04858042022468514
0.005712259980624024
-1.824036686335047
-0.03203739230956736
-3.073022815530844
-2.642995600983392
-0.03555351182551913
0.004629284383011494
-4.778572589830321
-1.724724968068015
0.03348178933259564
-0.02731228794640166
0.002971027450130006
-0.00226009113342735
-0.002559181779339398
0.01144749878102445
-0.01807049435436535
-1.385136158368237
0.01091619830657336
-0.01808616225136441
0.001201260167825784
-0.001791871111554463
-0.056415443609968
0.004962525574910549
0.003746284551884101
0.001483134952586613
0.002938651329043452
0.01018031519658854
-0.001434056967936924
0.1111313689018496
-0.009549543890415754
-0.009868143668095592
-0.1331541957737244
-0.1628648041855597
0.05567375479957785
-0.008710961067960809
-0.001264625199637024
-0.05937395656549232
-0.001600303031863697
-0.001880705072573377
-0.0003523098796671226
-0.1444553037285834
2.391323390335625e-05
-0.1078078266790177
0.002415717718204206
-0.002114196686553206
-0.001331926461160608
-0.001314149781431038
-0.00204269212539705
-0.1247592151988208
-0.1476311358688632
-0.003714403231385369
-0.01268501408227149
-0.007540085662269469
-0.06550268509703908
-0.001267866210870588
0.0006215265685220222
0.004383093610425298
-0.004450736975646242
-0.1386896570127641
-0.1047240081847102
-0.001595868960161575
-0.005973229923534031
-0.09741117609874089
0.03720755552627383
-0.1762491989796189
-0.0199513976147296
0.00539047290540759
-2.963362658965441e-05
0.01767668037623632
-0.01061118686979864
0.002447083714856833
-0.0359166092404886
0.05822461819376432
0.02668644786087757
0.009162005136602414
-0.02554430753253993
-0.04023298234649152
-0.1131531168938323
-0.002358131072202957
-0.1297694041898852
0.002252754144748739
-0.07277238294753703
-0.01991842201385286
-0.5784785735421013
0.002786227180927265
-0.00338960832574132
-0.02064069456395646
0.01108929685082221
-0.001574063022299372
0.06188141306724963
0.0036948210422464
-0.01698064355302772
-0.002465480676992714
0.1028523877530531
0.02049875239271113
-0.0169132072495626
-0.002102433831283298
-0.1431869167763886
0.01069972321469192
-0.005696423997374743
-0.1783417819702841
-0.7447160197588366
-0.07303324773434028
0.002689885328707706
0.008972989999349553
0.003809351208935827
0.0009599032640158767
0.06600366019985963
0.01333606211424878
-0.004095688578831046
-0.004234427222924669
-0.0270260732306314
0.1145611277263195
-0.002945370149588003
0.002329090650508726
-0.215443375888761
0.002412917823024049
-0.002038306244461545
-0.04379450748851826
-0.1208652994019545
-0.002821637444442063
0.00371138211350845
-0.01938137385387421
-0.1889993774929944
-0.002409891661807546
0.003703935294529235
-0.03296133951637735
-0.02593642885229448
0.03422700680081399
0.0170195179102131
-0.4512632253359895
-0.002691435591385985
-0.01063214520654797
-0.005272627169515338
-0.1569835763654236
-0.001713300766384238
-0.002485821103797389
0.0003057051932375785
-0.006498537371060061
-0.1691792090734525
0.009314679087997615
-0.1517015134902105
-0.002661244887828713
-0.00709450123682619
-0.02025916486815506
-0.02543799972164625
-0.01034892027976597
-0.002557990461706631
-0.2094328246232758
-0.01167616256868255
-0.006445386528972519
-0.2869551295174141
0.002280139313694609
0.005997383249450318
-0.002286142998562807
0.002089724541121494
-0.1781715261922676
0.00574209555083888
0.004944576392320535
-0.1103818898790538
0.002127919027027469
-0.004961324468736657
-0.007723112703100156
0.004701423964620257
-0.1951910695753491
-0.06421797350836636
0.02959851199901171
-0.2159308709591256
-0.1518803632806493
0.01441294460721954
-0.1101429411059127
-0.00339496034756669
-0.007101911868345032
-0.004153041720215022
0.003616062478294656
-0.07016731994791635
-0.1926778864902646
-0.007153228676733974
-0.002861147711682905
-0.0250135912617596
-0.1106836156768639
-0.003911109688223963
0.0009350023830083595
0.03900177803530033
0.01648680815475747
0.01403046982868124
0.007658705368474461
-0.1322775507972626
0.008384452649511017
-0.0880190544047422
-0.009308953826557038
0.001758871171185078
0.01105433475035013
0.01279868468604828
-0.6149034903184568
0.0126754893340148
0.0006224848583101437
0.01202322644165921
-0.009936428450842923
-0.2008458489097838
-0.001710225708971805
0.01242345393562257
-0.168429429548082
0.003994065637386121
0.01640023550305855
-0.09403831449245464
0.05971128255660541
0.01401743883439287
0.016151775790365
0.02077060804352378
0.01158461528583772
0.0324595762830091
-0.002044941415049887
0.003585022272453507
-0.002222057084610455
0.177160737928109
0.01366100362608647
0.002815710018971888
-0.004900441717954583
0.03020556661262369
0.003272685796576315
0.005845338102836033
0.04242580540199165
0.002492741600232962
-0.004485649087499875
-0.01018597817709773
0.005137180336291004
-0.002875191394419483
0.07898618991414649
0.0007256285830907474
-0.002753678554917488
0.0004590101804768024
-0.003647782210169289
-0.006314296222804393
0.002786527222178177
-0.005159614306322473
0.001400573572354291
-0.06023322727649925
0.00198561404869646
-0.06782120567178943
-0.01546086319420553
0.01625025840628128
-0.001971789918726535
0.0165474560471026
-0.5654262029380835
0.01081758327748542
-0.1925773949917801
-0.1803359837471093
-0.1299182317761396
0.007853343427277828
0.0001123305162525045
-0.1282746571079945
-0.1746226163937262
0.07898702739443972
-0.05711516415088862
0.2326923246211775
0.005550008510697401
0.001866341669354468
0.09943041007447698
-0.165628165679686
-0.1701907204872849
0.001741349150439953
-0.08795192248621431
0.0367722996198635
-0.05230008193943842
1.144920884311003
0.002513747303621989
-0.1702929575737379
0.06430108221029818
0.407283131289428
0.002582222914981541
0.3323769869885556
0.002713390730332687
-0.2165728993108933
0.0003543406951170626
-0.2099562083754732
-0.1935077855181538
0.001468834965104304
0.2080475887177085
0.003881312942591024
0.02119919627825679
0.002516968353562646
-0.2251876727225355
0.02791117016688708
-0.009360667417819372
-0.2113794367174559
-0.01002327411690383
0.003690719207274531
0.01324424241617144
-0.1798266366931877
-0.00765013847050402
-0.009909867871981516
0.00374668148594029
-0.02760901697605694
-0.1789691530232269
0.01032841572200009
-0.008083481768165077
0.06457520809206307
0.004936803818957679
0.0009637583656428774
-0.002714235968751158
-0.166186675124796
0.1874044279352499
-0.008669460345876194
-0.1936200379725331
-0.002032083031377876
0.01141830456547373
-0.1413828877868992
-0.1372688144491574
0.00378590000699171
0.002925815612632095
-1.123016503339292
-0.002686832692871623
-0.6962409125211448
-0.002215960649693197
-0.01020906634456934
-0.001306999576663822
-0.06519425271906777
-0.0497462016265712
-0.1264668957439019
-0.1119227868545729
0.01387483033499873
0.001001118667162776
-0.03379926238808465
0.01789950035518382
-0.004102996016505715
0.02220863173244098
-0.1322359581428629
-0.00476552351279532
-0.05370104440294895
0.000601911731053284
-0.0009298514816125623
-0.005693383787836691
-0.04791201086867259
-0.004791491274694317
-0.02564173926469087
-0.01218403773562824
0.01740071134153243
0.01370465962402632
-0.004804703661418102
-0.01318119658634699
0.03525198808951294
0.01620581037024118
0.01681462839918219
-0.09020844447799144
-0.1733079845505903
0.003868216067423112
-0.4224646892101864
-0.1804076736187787
-0.2757141063824514
-0.1643652261906514
0.1250087640077741
-0.01683407101995155
-1.123496366999618e-05
-0.03980663694392918
-0.05985058793565527
-0.1095226410654176
-1.092256685503731
-0.1371695836846057
-0.01331431387645882
0.02007300501796557
-0.008202199714168332
0.004469404981734472
-0.01759262273400723
-0.007522258539559438
0.0464131306676052
0.01775507439902121
-0.003449243163455075
-0.02021717540215768
0.05469025777759101
-0.005502714111087575
-0.05448512285934933
0.1858867439976595
-0.06230531939731471
-0.1140993540683452
-0.1299042631875267
-0.1135240273664885
-0.006955856735493602
-0.09435254698487711
0.3245779533838022
-0.02676508760598949
-0.008914533871502699
-0.01080122134445266
-0.004347729521164137
0.04947489236496778
-0.003089653035246099
-0.001340092965972026
-0.000697255078757289
0.04812602730354629
-0.002103336707831573
-0.1077774716219932
-0.02919807501506663
-0.007501856234900357
-0.5204874501941332
-0.00689691944262786
-0.1698065385060978
-0.1643689037951901
-0.2241616473052969
0.05460226249538985
0.05465791159667035
-0.1552688595986383
-0.04946062112843016
-0.00695123311463986
-0.007918292121096009
-0.1172599073409147
0.003871480705612295
-0.1506439254624156
0.004436268343227445
0.01171718021821604
0.003484768865802667
-0.1744789320874266
-0.003062592708343267
-1.298739465947006
-0.09072286472055847
-0.07386783571963369
-0.01010255742994935
-0.7055054244129063
-0.002107731422839287
-0.1506069009394174
-0.006709009571957371
0.01094094586478839
-0.002032807461714168
-1.632686231412919
-1.370929820844406
-0.3663358740938809
-0.07671881849555513
-0.3297960959499559
-2.056596086223364
-1.622151218563958
-0.0003772512465139532
-1.569682900977687
-0.001019832243123363
-1.539472777166202
-6.803595644159975
-0.001734137700510715
-0.00275267907838533
-0.0720346971820003
-1.669403822973819
-0.006802743412348421
-0.06174928255746694
-0.0035926890084575
0.05278491464470955
0.0517792919097265
-1.331221374719557
-3.022398448816752
0.003980198657439229
-0.006657835512533686
-0.01096462895754228
-0.002888092009329167
-0.004189571308183561
-0.07021205698840069
-0.00262220820174674
-0.02156406629287749
-0.09387426928371995
0.2543980467292514
0.01271973837532494
-0.01273015336770395
0.05358960075581489
0.006719694091286824
-2.991790805572131
-0.008362906436840732
0.04284823298876774
-5.494512618863941
0.01460558049649517
-0.1190377188083729
0.005719301810348423
-0.03168544740187177
0.8303928345104797
-1.838531815633633
-2.42722493181216
-0.04119656476899646
-0.0883340995275232
0.2170677494866341
-1.471927288455837
0.01603229961248459
-0.0311456792711007
-0.01950951929081093
-0.07769124435957059
-0.03285198416293553
-2.507216657074511
-0.137899621884929
0.1720054795011899
-0.04749369007935508
-0.008353755302361508
-0.01496546966493265
-0.6923006775913967
0.04988030311870659
-0.002284157269753246
-0.003584271289166679
0.004012148173319454
-2.801935975080089
-3.09586377477709
-0.0007762513756287276
-0.288504006949829
0.01829721075558895
-0.008263772617870238
0.0211817854404022
0.04948258174755844
-0.3775002483396381
-0.007438110166290863
-0.004955911026665582
0.02468067934801362
-0.06427545155893197
-0.0003830320086866397
0.002140850277041155
-0.3535596844482691
-0.1557724774776068
-0.02785805068413518
0.02144803108566807
0.003088147663306469
0.002366168906730538
-0.03520075616796625
0.004838133525820983
-0.026759574753934
-0.02113511571329727
-0.1407997758888969
-0.01223793219310725
-0.002043969815264436
0.05207514442292015
-0.05810542914197835
0.01489227979594423
0.003160642584721219
-0.1024656040701713
0.01033103527425563
0.005797800135666854
-0.002267468745405846
0.04697592216564168
0.003173249847523591
0.003402632215323547
0.01288757581952392
-0.1714747324891612
-0.03189799986359847
-0.09548927929248666
0.05740270662564564
0.01128603585149043
0.005893375295659919
0.0043530806375393
0.01834187302272129
-0.2803029787898599
0.02423071852871172
-0.4587827244310801
-0.02814614545335664
0.01789833627144153
0.003169719945989599
-0.03068901747516202
1.229345079845192
0.003952062272828554
0.01575218921529607
-0.3340993438377005
0.004673424617135588
-0.03831487012877565
0.01472447237333045
0.0569928156828208
0.01166999506893424
0.004890651965296056
-2.535682818823764
-0.3567795718415152
0.01259021702924795
0.1114700537529104
0.01025351357819158
-0.232721532204606
0.003623540111450051
0.01859494873142483
0.002817993850047569
0.01379133681141623
0.01313558342727816
0.003942715673048105
-0.002438973822295459
0.007265135239104449
0.006481947101202837
-0.2332029035341276
0.03300552933553225
-0.001753774064013227
0.02003262989418005
0.05056658963452971
0.001407290929508351
0.06703362274754007
0.01161220532782922
0.07794977839088649
0.009120867503953904
0.137968908459401
0.0585935204811531
-0.03274734634282222
0.02976830323171396
0.01806129310920777
0.006483744276111687
0.03570187129977416
0.09822598971996453
0.01439168380266636
0.01233210088797106
-0.01370917929558928
0.004635519136550155
0.03110088496128049
0.05597842837140556
-0.009526314622208269
0.009214557086174044
-0.3001214682024371
0.01436095542743238
-0.03500397242984046
-0.01923590864714674
0.02214030220683453
-0.003323024642471453
0.03489696814661927
-0.3025152110203049
-0.1295354106213252
0.04696955121425971
-0.008838854888910379
0.0330470065584588
0.003518143129620329
-0.003334425190624296
0.006136182705818852
0.002899815452523577
0.0145111673100216
0.00587390170127872
0.05273747045335115
0.00530087263038693
-0.0323721432214662
0.04950962842150957
-0.1543124937203982
-0.009810597137990592
-0.4622478479152965
0.02103381941922865
0.007633102772020416
0.008636913538007825
0.004548782082403238
-0.008114462192551039
-0.7274478487377013
0.009888747927879131
0.005548951556831212
-0.5543910711152223
0.008395301272331969
-0.03420226734538991
0.00703515352951813
0.007649167467989351
-0.03139999418962512
0.02235252106745186
0.02032457911102148
0.01233137891975894
0.2608147315928139
-0.1532322317218834
0.005673045344855971
-0.006151221338654275
-0.01989613127490161
0.002984759738503858
-0.02014105691798589
-0.02056980242069212
0.006411498267894544
-0.02068014391725981
-0.006238775709790379
0.002764050185476739
0.08958374954110536
1.320732457987417
-0.0004322116513226972
-0.1463684933011969
0.1393799784820263
-0.1231562425082399
0.02113188125690352
-0.009547847679096321
-0.2919807056542034
-0.03237102971605848
0.008514646053512537
-0.02973503452319595
-0.05945622314713369
-0.03321148053435018
-0.6195896481430408
-0.07690335609044717
0.005679285626141359
-0.03578639031967897
-0.009578873557179445
0.01864646618276461
0.3861181117160108
0.1780712567216372
-0.2511658848149076
-0.008076184721551714
-0.01739333161251278
0.05442766092486961
0.006445607005981367
-0.0709766123335549
-0.0006245487638125095
-0.1105922425217616
-0.01370524646585923
-0.2649443074994286
-0.3075637103916271
0.02065106438966634
0.05055955397831628
0.2423845455479603
0.007068252042034841
-0.01742300189083667
0.009037419978125575
0.01362388374594447
0.02556291259955938
-0.005686014486765558
-0.01079409745303259
0.007820195247068668
-0.03855056542984164
-0.0309791294325518
0.08441746258824291
-0.3891075615484217
-0.03584000518713851
-0.04050996316986751
0.001384195158910143
0.0002984202518756452
-0.02748703458567082
0.005886244684707451
-0.01507420603783055
0.007906783628470434
0.008525144514459094
-0.07543109928311191
-0.002580339567939053
-0.06704251894907046
-0.009539720914918835
-0.002295579932858008
-0.01025752459945962
0.01282732544024305
-0.008441638394628768
0.008105201269143226
0.01787863189548532
0.004703888637375639
0.1988016326893567
-0.007348251801416582
-0.002449917753079942
0.003625599789888837
0.004368060195226475
0.007916405992896239
-0.3686683293746422
6.150681899766014e-07
0.002263009987881966
0.007954484719831055
0.004205152975197769
0.0878366657085386
0.0129478959198615
-0.009052887060343988
0.006436602381682218
0.003603508935914186
-0.008672671207466204
0.2946060177916545
-0.5083596182824087
-0.01048053585081031
0.004190995273476194
-0.009351924578908212
0.1214765929304561
-0.009902452219622689
-0.1905121543957977
-0.0105614853787004
-0.009549785500631324
0.02257420775869693
-0.0002181767613000003
-0.01273636283298486
-0.01224293935338783
0.02148731018042627
0.3478363719873453
-0.05091397234978114
0.03624272986844173
-0.01144018640374109
-0.02418815702587433
-0.02908511003264562
-0.04613692435796311
-0.02225474925977187
-0.4954571587943847
-0.1026896875004022
-0.02642670198623153
-0.0152476412166988
-0.02459109793541746
0.1784679585178308
0.003994344987800227
-0.001231882102591288
0.005862973848567507
0.0002011989046971571
-0.02911829733500722
-0.01200547477567679
-0.01372912093077138
0.01004475594056738
-0.03010175080349781
-0.0192969160975437
-0.005589052823924281
-0.02008799463047163
-0.09276861816213812
-0.01436220532692917
0.01597031770932807
0.0249949399256281
0.02060689422882705
0.0141185553007147
0.1341897149786661
0.01248010461062679
-0.0379153729430158
0.02933812901188298
0.03533767699246415
0.03115662968112672
0.01743570444372158
-0.002030799362374412
-0.007492668555502662
0.003110828003861554
-0.007707941138134753
-0.07328474590093766
0.0106153543356759
0.01912845819127543
0.02902289246113919