/*--------------------------------*- C++ -*----------------------------------*\
| =========                 |                                                 |
| \\      /  F ield         | OpenFOAM: The Open Source CFD Toolbox           |
|  \\    /   O peration     | Version:  v1906                                 |
|   \\  /    A nd           | Web:      www.OpenFOAM.com                      |
|    \\/     M anipulation  |                                                 |
\*---------------------------------------------------------------------------*/
FoamFile
{
    version     2.0;
    format      ascii;
    class       surfaceScalarField;
    location    "0.1";
    object      phi;
}
// * * * * * * * * * * * * * * * * * * * * * * * * * * * * * * * * * * * * * //

dimensions      [0 3 -1 0 0 0 0];
oriented        oriented;


internalField   nonuniform List<scalar> 
153371
(
0.01420897142809367
-0.802951278064657
-1.448198399671304
2.236940706314346
20.61822866964187
-4.648336696946903
-15.96983936402039
-16.56086288200614
8.220130595698935
-13.28721469621986
21.62794698252629
-0.3773545598864004
1.004659873377034
-2.771043566607809
2.143738253121739
-5.16284858641523
0.8076086878384205
52.36991973344998
-48.01467983487368
-18.28046674214705
21.92005333026538
-22.79490612073251
19.1553195326195
0.229234068823964
-0.01681729108439111
-0.03032632320042734
-0.1820904545455759
-13.91037282559614
-12.08091705754629
25.99147029899518
-0.1101786013359185
0.4256325773008432
-0.4536350421079279
0.1381810661450383
16.7985529728073
18.25903896814919
-18.54201196330819
-16.51557997764817
-7.32173236924493
-11.02482099265296
26.12572755101628
-7.779174189065402
11.00130712169744
4.810309185097747
-15.81161630677192
1.580904658147889
2.855188728469786
-1.480946199572604
-2.955147187055169
0.6945948152256278
-1.253138637213173
0.5585438219614697
0.1181110299604675
-0.1648542144731412
0.02813948479107959
0.01860369971647513
-5.078913036809781
16.72703389027456
2.824026388531697
-14.47214724199575
9.394692565416097
28.05496956751442
-20.94980947850924
-16.49985265441854
-10.1883663995504
-24.86026621010933
44.44332517507696
-15.08110386448842
-30.34614515812069
29.12935695146545
16.2978920711449
-10.52018094439725
4.552393960451738
16.44116028910567
-10.47337330513457
0.04151710950427249
-0.6465055331287113
0.8672091575319583
-0.2622207339091127
-0.123568243825782
0.1467643691852487
0.01072550513304703
-0.03392163049615709
-8.935651283180068
-24.36517852655049
21.21837118547964
12.08245862426424
22.75407557151047
-22.15897076308928
0.5019527539705425
-1.097057562388318
6.967060903475534
-2.972911465848263
7.602677355195551
-11.59682679283049
9.642331113498816
0.4368131537561576
-7.43438455561317
-2.644759711638409
-8.905768520624596
7.606353742601401
-3.174329783937423
4.473744561939002
-7.543200804397054
-7.298131966360442
14.84115356446769
44.35029684361219
-10.62840930993007
-22.33838263248795
-11.38350490119266
-11.26684598062229
-5.806717180209102
17.073728121559
0.1647679787738026
-0.4893897975443118
0.3928437760483621
-0.06822195729674874
-0.09664876296965356
0.8332113558197589
-0.6928959901987241
0.5555947521563614
-0.6270693813887942
0.7643706194119357
4.851797912405773
6.941855179250755
-24.1284011719532
12.33474808029694
-14.94178345090364
23.74749117511936
-3.418471179662898
-5.387236544554971
26.58065114317607
-24.12164709826757
9.188430597529909
-11.6474346424188
0.04731000199722821
0.1465563534766807
0.2996211531593975
-0.4934875086489821
1.513147660006949
-14.62666802440389
-14.30652371634214
27.42004408074638
-2.276584533663285
12.38736358336613
7.176760930876311
-17.28753998053925
-10.10343668840896
3.662162095118386
-11.81246994268662
18.25374453598848
-1.42474895553257
-0.1349408608931429
-0.6501611033682645
2.209850919759978
-4.875886138270881
-9.48698174124884
-3.4288797282532
-17.13698627039685
14.55253653761435
-25.46264872627152
28.04709845906055
-1.49712932240032
-0.9671285449130127
20.45712724929705
-17.99286938196333
4.407311858570739
-0.01990834535370312
-19.32918696412081
21.12272585288734
13.4125136218923
-10.78774829965968
-14.87471255125485
29.44237455320394
-14.56727247811762
-14.15855123815379
-9.921019237442318
-1.582606635029143
25.66217711062792
5.335746816867611
-18.77891111339471
-5.077770547375142
18.52093484390518
-17.9460577687674
2.319836825708161
0.3101083567335071
15.31611258631445
9.166390785989591
-4.656087807937969
-10.85995623257945
6.349653254525673
-0.07121685190604297
13.58601771984644
-6.54773996447384
-0.09738823521301532
0.1072677777286069
-0.009682371464970073
-0.0001971710583776352
7.275610689802005
2.774167472277562
2.51395393480551
-12.56373209694206
-19.60225047713931
18.71614069774814
0.8861433193396749
-0.2222989610666221
-0.02027874280665858
0.4592157899977004
-0.2166380861311534
-0.8202475446123778
0.3077005359418989
1.123092800158168
-0.6105457915049487
-0.2388137250027971
0.1597791693734122
0.2201239895539826
-0.1410894339301942
-14.00544802689587
17.81401421472652
-2.567885216746975
-1.240680971054658
0.6047110327058005
-0.02101436741915834
-0.08932764811406953
-0.4943690171779036
-4.444674448179658
13.57676230309065
-1.525734112353598
8.276484898048766
16.64663012131041
-3.800389166468551
8.631518633843728
-9.413508733348763
0.6853413365471293
-8.327207683562069
15.13340487472544
11.09690142674997
-17.90309861793875
-21.67276849806429
-14.9752796350228
17.04579765594813
-4.708154935201702
15.79299031011547
-23.88599964152234
12.80116426660946
14.84908287046203
-11.6222172816545
-0.379197548178599
-2.84766804062849
0.08598223846340208
-1.6060120554488
1.571069147787432
-0.0510393308177795
-17.09321614549734
-9.020516753699958
14.69964621742875
11.4140866817699
-0.03439507279372914
0.02481541661383361
9.732031361220898
-20.24629197351304
-8.194026266115118
-0.4788576076078365
-1.403590230908913
0.4526454435978158
1.42980239491202
0.2960067896120527
-0.5462809888669669
0.762007059241768
-0.5117328600153094
-1.141536000941622
1.416867446680122
-0.2753314457481384
-8.441374389931829
32.55757693077075
-27.41276199007357
3.296559449237513
-0.4543551573673172
0.4897506179487725
0.5997339179968486
-0.6351293786020091
39.66447599043472
-16.63407480156034
0.7805137260085008
-23.8109149148812
23.5213327545006
-16.29840688543917
4.262731005091962
-11.48565687415015
-6.216825125630025
-2.194269607991603
8.847907887365309
-9.729148367661058
5.60435417074634
-6.39599083615633
10.52078503303376
-17.21248703855445
-16.27768109498475
24.55565455491054
8.934513578650412
-3.236936662181779
-15.90343226035273
0.7812324397685653
18.35913648276278
-0.06182019411768355
-0.0004066719100394799
-0.1177234315624786
0.1799502975834667
-0.3923772025350268
14.40717459977431
-14.01479739722774
-7.677607946663723
-5.80061277905015
-7.836196526259318
21.31441725201312
-5.094203504835402
-16.72887262025817
6.428429630283413
15.39464649481124
0.1575990556634347
-0.2588611750924078
-0.484204525789993
0.5854666452030396
-0.120444251313547
0.1131975243395194
0.01044051105750293
-0.003193784088038985
13.994168213059
19.5353487706054
-0.9023722431359722
-32.62714474052866
-10.20567110466324
3.515298821995207
-11.98620164881771
18.67657393154064
-10.15146296867243
7.738086570787993
3.93473492729103
-1.521358529405784
-0.4663261466395638
0.8067904621124858
-0.04445752587321115
-30.53898242125699
25.66947771174
1.532854422520149
3.336650287002448
20.8142103827905
0.3736478393569269
-24.4247948843293
-17.585206695276
-25.34683619698821
19.07857294179336
23.85346995048084
16.60517437066274
-19.01122031882355
-17.95803751241084
20.36408346057175
-14.33457688497191
15.42314110246198
19.72564616530225
-26.56090149211018
-1.126446126028284
4.119748736429258
23.56759888170985
1.779229968838899
-3.118560931274264
1.489102312137734
-0.1497713497159263
-3.483277893744906
4.909473346479133
18.21398598890539
-19.64018144163822
1.471556410645026
0.1912982630546262
0.420710217790516
-2.083564891481882
-0.939229414328123
-1.517525084349319
1.348703531643329
1.108050967035634
8.562262760681039
-8.747503436812679
12.97298229306051
-12.7877416169268
0.2145884965362044
0.05337906192172261
-0.2003720116236931
-0.06759554684362216
-11.21559089401297
2.013215075710321
24.94839300490202
-15.74601718659936
-8.059845673868786
10.61205624446407
-12.91054743002706
10.3583368594335
0.1263043087695417
0.01806096326442419
-0.007352574769179484
-0.1370126972721434
-23.74714819106176
7.412701774683593
-9.021243629893007
25.35569004631214
9.291038721817504
8.778443185431842
-18.069619602122
-0.02630317713284633
0.06986043285944393
0.03372142402099117
-0.0772786797541016
14.26745207092026
7.281726644023399
-5.879171616518356
-15.67000709838932
4.578984339898809
2.628720575484272
-10.18061638124212
-0.2153494287351132
0.3828076877866477
-0.4254327851321791
0.257974526074977
0.4069853761983325
0.6685356590696717
-0.261464923061628
-0.8140561122269919
1.704973207196063
2.108443676742373
-2.698745066202319
-1.114671817708645
-0.02996782680283939
-0.01081297513303613
-0.04886434221771835
0.08964514414906734
9.074330913845774
-7.308946052511754
7.525653860483811
-27.40012764971058
1.957107998809061
24.24464703096674
1.198372619930093
1.105394420670879
-3.567713708424544
-1.015043368667037
3.477362656470671
1.460722677945129
6.969453394437916
1.290520873583163
-9.720696945870236
7.321763752316787
19.97924291536204
-43.1884658691538
15.88745920147586
2.831938566411779
-19.31770931359667
-3.900882014164501
-0.1235940393029704
0.129882214283703
-0.1137340917635749
0.107445916775099
16.38466693824143
-12.80557815765697
-3.128346957212742
-0.4507418233709825
14.78370172349659
-17.67326491519328
-6.368730018564627
9.258293210320485
9.107310844121658
-23.36240250957901
14.86064926603292
-0.6055576005756782
-12.72038407317234
-10.77499813773299
-15.57516677349543
39.07054898440075
9.209048677414367
-11.83669077659179
28.13104048371609
-25.50339838453712
19.30096805565214
-8.693662580766002
-8.235844955594519
-2.371460519280096
-0.8902292989441039
1.954146080718453
-2.761399978632104
1.697483196888284
0.5810987421685312
-0.06764807013561482
0.09158877074382585
-0.6050394427792882
18.87375019925088
-18.9620033626748
-0.8039869282817682
0.8922400917137271
-20.50949474360709
9.390722453074925
11.11877229053566
4.261653659840307
10.58587417802316
4.497176022384284
-19.34470386027209
4.8285622944211
6.973120178289208
8.359492687561879
-18.93520997245059
28.59316127742049
-5.703230183495563
-3.954721121472351
-0.01371173847225754
-0.1626304160033539
0.140929258898344
0.0354128955679025
9.453555471240467
-16.69436373520493
-1.049458649787859
8.290266913757103
-1.89237564153111
29.90041356209382
-2.918557534425756
-25.08948038613379
27.3185747779345
-27.16818622877589
-3.799404044957098
3.649015495800094
2.081982858234773
-4.632243345383374
-1.984248040562036
4.534508527754768
-15.57763241105693
-9.504877780459983
10.26618182861564
14.81632836290306
-0.1804394040130489
0.1302401105609325
-0.4161268531995931
-0.1414009319323305
-12.27619086823867
12.41753247287881
27.86224407929264
3.21830430356142
-10.75756280063735
-20.32298558221628
0.112289780343773
-0.1136251995886973
-0.2242217244572647
0.2255571436952431
0.1714816210983513
0.0145021837111771
-0.1820492644950678
-0.003934540327039037
-31.87797410887649
-0.4879354500589202
33.63868064748095
-1.272771088496919
12.31187275005484
-6.314224202226658
-4.659078820578828
-1.338569727246765
37.09936565517749
-25.55043201621078
-34.52652483864804
22.97759119968991
-4.256650015130277
-22.43663148023914
2.748063813328271
23.94521768212973
0.1604816393410367
-28.50174104594688
-1.061367890864383
29.40262729747582
-16.55399140056099
13.04798738746771
-14.46132324827439
17.96732726137323
-21.59008506044056
-16.49424025453113
10.12424228828265
27.96008302668644
-20.74884483813635
-6.669835449662924
14.1654509313328
13.25322935647738
-16.11282346508095
13.55274155883371
6.850028537585053
-4.289946631352442
18.60014089447235
14.14321476262562
2.994573108427719
-35.737928765524
13.93573771356148
0.3509916902668354
-17.23807983825031
2.95135043443557
-20.21582835512637
-6.328876924184853
28.07263968635397
-1.527934407013738
0.2101320139699167
0.3962107004740412
-0.1514616466018843
-0.4548810678521938
-22.2123129261434
15.41803034636028
9.947692173592102
-3.153409593804731
-8.093010496255513
6.994471728117761
-8.280887814679742
9.379426582835663
19.96689895928613
-25.73285521769512
12.05370028816529
-6.287744029696436
22.83129797222094
-22.06638391963506
-15.37959940870821
14.61468535612343
0.3892936962315292
6.645217921601929
-23.83762475358242
16.80311313575054
6.200525486722629
-8.321833812053654
-16.8216260809653
18.94293440629743
-22.63959247763765
2.169314711421436
20.07223218868594
0.3980455775272341
-6.765093177757194
-11.49444408181303
25.64211779255917
-7.382580532988233
11.4824548966476
-20.38664671245633
9.05387043645778
-0.1496786206495611
-28.97081214265912
-17.0116983611603
16.94748845950068
29.03502204432333
-21.77882217772154
7.071964180166786
0.5977737740522246
14.10908422350336
13.8842228456125
-20.99885386573467
-20.28549662959745
14.561145426256
-17.4819802987692
2.920890588795024
-0.08016453440921487
0.697281924572552
-0.04720234756383172
0.4720394633986789
0.01667730334307086
-0.441514419182368
-11.08916211728718
16.2984574524451
-9.212493629521578
4.00319829436406
13.57935676719944
-18.6746971073332
14.90687007692243
-9.811529736783839
-21.8785798321942
30.75505761865335
-24.9491535434187
16.07267575696614
23.17683294033325
7.011934325025919
-27.70149035040512
-2.487276914954239
-23.26552444974122
11.4022137584395
10.94286290180036
0.920447789501633
21.60121032768737
5.186794810073443
-2.037567500723036
-24.75043763704667
-0.4470745454236136
-2.172771910957779
3.725240877080909
-0.01546630307005663
0.1084304607106896
-0.1058660796874325
0.01290192203941451
-16.79192850774412
-3.70905811184961
12.22718432615403
8.273802293441856
1.38714229762847
-2.658901850890908
0.3815302543396422
31.04001851512182
-9.164618915975961
-0.9279817744116095
-20.94741782472699
-1.326220196160125
5.21273121802208
0.0626368116432785
-0.635466005583804
0.3315183830786633
0.2413108108430664
-2.970021093190101
17.53122633848385
-0.0222475973942033
0.06664388946751144
0.0955280342181722
-0.1399243263051956
11.33495406881177
6.701575768213487
-18.90941614335422
0.8728863063663764
-1.439380843518829
1.917666098914498
2.193884082528842
-2.67216933788367
-17.50280694339344
-3.566836970571119
21.06969557787896
-0.03752017927527201
0.00855474862811002
0.1254468599278543
-0.09648142928563343
10.32052482260805
-4.161781153343603
6.499871580947253
-12.65861525020979
0.2771521887128522
21.68612336586702
-19.63989950449783
-2.323376050077488
-0.4841647930200551
0.06220800673198111
-0.8894556554978886
1.31141244176455
-9.832939226434853
-9.394161268257935
1.175700302527601
-10.4217650836581
9.377431951104629
-0.1313671699291231
6.165536699100108
-7.80337748483787
0.2874448900627419
-0.346228682282437
-0.06933970307717395
0.1281234952848159
-0.09902766725765454
13.08055806866844
-27.27914070786231
14.29761030646181
6.969872223760231
-16.30946596334557
-9.487749092842103
18.82734283246403
-14.69452158581609
-2.093385941545931
16.78796425226195
-17.14587149680338
26.87557120755572
-9.729866173373193
36.66752677881333
-9.098689624424086
-16.74890716812452
-10.81992998626326
-2.288341369132776
0.425600867918993
-0.0237590834957116
-0.04515717909195461
-0.1018140028433043
0.1707302654242578
0.0329638894409741
-0.1020228221740384
-0.05138531858284998
-11.31775092153578
-10.44040462158727
21.75718919367772
24.59149548596286
-10.46335431298287
-0.2439183273689318
13.54895508110362
11.33353535985884
2.623272630284397
-27.50576307124396
1.639676591665552
-5.725221868229997
2.363684026995697
1.721861249530182
0.05650027420430444
0.1308658732007023
-0.07416862306929529
-0.1479793549849621
0.0140226440901817
0.1559382781850994
-0.02198156729463055
-20.93156656680438
8.153688943073377
6.577519506346484
6.200358117426506
29.21537976543528
-20.03545862063554
18.46523583594671
-27.64515698074989
4.428302781820048
4.842507524359291
14.41809125690383
-23.68890156308503
0.1420011042159147
-0.1216083839205817
-0.00995220924132947
13.07695987042286
-16.18364290006547
-23.74737993128248
26.85406296088252
-0.1525197073272746
0.1273690963812011
0.07721383777469341
-0.05206322683551673
0.2248671972443664
-0.09924894119642118
0.03416091332316504
0.5505758986876468
-0.7014955880782703
0.1947043416637868
-0.0437846522788471
-19.97121115234961
0.001258913424703582
19.9699583492624
-23.79194080692707
23.961694768147
5.816715353652982
-5.986469314876017
-20.99637950923508
3.667407228999383
7.162934222668325
10.16603805759784
-1.569301797311233
26.57846442620384
-10.69120953692087
-14.31795309192452
14.51045254772469
3.499937416750515
1.919923950358963
-19.9303139148233
-7.855327841640896
-12.4111449951258
2.351094407642757
17.91537842914838
-1.540163628821912
-0.9994597296057184
2.092548813041835
2.286106618054443
-2.213384919071639
-3.6759989371147
3.603277238107885
-0.1415441679270528
-17.28475872967157
2.526924189627003
14.89937870796495
5.8414821231395
-27.41300473792157
-2.278067297102065
23.84958991188486
-0.2180078525222371
-0.9266173875647501
0.9957054695213146
0.1489197705321501
0.02336688094351753
-19.99457724329795
10.46055884836998
0.7810171040667888
-15.84619344825288
4.604617495813256
35.21580341422295
-9.093194292482217
-46.46572224511005
20.34311312337156
-7.24365001971613
-4.340891120132096
32.36270162323701
-20.77816048338875
0.3999881569261491
0.003662375132317242
-0.5463727376931686
0.1427222056350073
0.06234781177937788
0.6820886226587787
-0.07488779241908887
-0.6695486420381379
0.2258383918698771
-0.01571471191346068
0.2080861950595194
-0.4182098750276096
1.322814063421001
-1.184062832610743
0.5119235352612825
-2.030956807608356
2.703096104990552
21.434965627752
5.075896091179422
-4.451135934911455
-22.05972578397298
-23.05654891297808
14.84814893674486
6.139819973443696
2.068580002788408
0.05001840970909489
-0.3090872905690391
0.1215262238875363
0.1375426569627297
-3.605707718077872
-21.70355686241865
22.59573191083361
2.713532669669537
-0.9460379983891041
-0.6809447524536586
0.1812121997374566
1.44577055110364
0.5147589188554557
0.2467693257625925
-0.5162263829290151
-0.2453018616960735
-33.11646237223514
-1.730093752032587
8.337501256012898
26.50905486823253
-24.38094170219818
3.875633068185861
-12.61115373822688
-14.50614460090349
1.109869483133944
-5.751169322243791
0.4192870891508317
-0.1841435273343761
0.3664576577306426
-0.601601219556266
-18.51773123051519
-8.592591104962709
13.84797196050865
13.26235037499246
-1.051301427137052
-9.931805902484221
10.98310732967439
-0.6767513025975428
-2.828257842987851
1.164734944692788
2.340274200782695
-0.2445929617530421
0.5837155164924821
0.80650799813677
-0.546115579458477
0.2067664182158237
-0.4671588368981059
-9.637698255109591
-20.21225664360453
9.218070499264176
-16.20843465574535
-1.05344914071501
30.44164264882439
-13.17975885236308
-15.43971154301257
15.93400927311481
-0.4946873931780009
0.02714623284393829
0.2070878930448589
0.04739034503687097
-0.2816244709380931
-0.1321345474271012
0.04292899456657047
0.1113661377282627
-0.02216058487546094
0.07524416305640465
-0.1165635207725989
0.02681846743879242
0.01450089027130983
-0.533789026266883
-0.09331467566200827
0.1060175778242008
0.5210861240768646
5.395364936195937
23.76027588626971
-21.50724055700665
-7.64840026544569
-0.09234532624369242
0.5871352392806057
-0.8587761441244572
0.3639862310768807
0.05159234775619491
-28.53253172102808
25.78843408221142
2.692505291067171
0.292261674578713
-0.6044499794240706
-2.14399593689598
2.45618424172134
-0.04307908695556004
-0.2336706415218351
0.3881501021009249
-0.1114003736317475
-4.146362718799383
-12.65582552495498
-1.647282671417686
18.44947091519547
-0.06673227516055562
-0.05142280416551936
-0.006776337374875287
0.1249314166969186
2.399821296679025
-0.3936256937585459
12.56957679920178
-14.57577240212201
24.20772897076399
-0.2532921237651131
-5.285194644497882
-18.66924220249103
15.51822813871791
-3.136368621476159
-1.416254433744677
-10.96560508350325
-15.87665260236758
-0.1657257146726345
-5.630390181022906
0.2600899784985652
-0.07959104272191272
-0.03562634284485439
0.01284360709851587
0.1023737784640955
-6.992811393875963
-3.216799917810628
10.7677475714526
-0.5581362596933619
-6.600909241077898
5.867362311011999
-0.9767961636687449
-4.918201589080189
-0.7059114883387588
16.45265040731408
-18.38742464799234
-24.62612725143148
-3.056275339253356
7.243119524905421
0.07500198918177239
0.05729024323548638
-0.0471985454679734
-0.08509368695404604
11.77985854742145
1.864439304291641
-15.06654178345838
1.422243931762884
-0.498301958733168
0.4457075183770433
0.2972144098177539
-0.2446199694710077
-0.008816185701580973
-0.1086073914619217
-0.005211273121763712
0.1226348502815601
5.886107672807385
-0.2125295693866536
-25.414215823769
-0.5545364918335269
0.6516987860885679
25.31705352951487
0.8918276029764243
-0.9463200768058515
-0.3236123523884675
0.3781048262082952
-13.11549453879151
0.2212951864514631
12.89424330856444
-14.55792911754686
15.03491414564556
-12.69914276218381
12.22215773408619
-0.05715953112440091
-0.4168152096016087
0.6677450047864184
-0.1937702640764863
-0.8052539245861147
-7.704892185296076
3.997622893109606
-2.560752763814288
2.451834037161738
-3.888704166456497
0.3869300893838848
-0.3764139073162294
-0.1328372167399319
0.1223210346567547
-18.2516935667949
17.07145441786251
-17.07532703915244
18.25556618812094
-0.1648303675610285
0.0417478773131132
0.02571082702178602
0.09737166322105535
-1.727154256176877
0.2419790188460446
1.45575091271289
0.02942432462496037
-0.03765185596934156
-0.09072234968762145
0.03133224118084341
0.09704196447024657
6.2266167493861
-11.03228072951195
-6.396329450858914
22.84904975682372
-0.02273313908197577
0.1129599694971216
-0.1408182289924617
0.05059139857191314
-19.34528940027523
-3.463117617443054
6.599972361973177
-0.3119682661160725
-0.1587542432710884
1.139258168438106
0.0318210802460162
-0.1341135873913467
0.01225536699990213
0.09003714013626814
0.114423702276554
-0.2962461677124513
-0.1579879389703048
0.3398104043996795
-14.25445447083212
-0.3035742417347982
12.99462279948664
-24.84694368306857
25.28715921850303
-13.43483833496626
-3.368215747328688
7.968020556700573
13.08402248498572
-17.68382729437908
1.947906030251448
-0.9664021118787011
-0.2487780150286192
-0.7327259033497776
-0.4345232209238052
18.54410997653201
-18.10966354531516
18.95415691608191
13.24484957273043
-21.8257422973028
-10.37326419150793
-38.07347827233115
0.06813419474325937
20.93505552754531
17.07028855004451
4.401080553919593
-30.7193284885285
-1.863212608958826
28.18146054357004
15.69611391703684
-19.43565391671373
11.03858848816083
-7.299048488482554
0.334394952522781
-0.7800034029312234
-0.6621517422150021
0.1832731482949622
0.3212481186636266
0.1576304752321916
8.887384954870285
21.16691537236745
-27.50918455058011
-2.545115776653506
29.20775921937328
-25.17577856196309
0.369099896510648
-1.249309582358731
-0.07990209035081842
-1.369533393481086
27.8009181396427
-13.26516976763558
3.668417399679808
-18.20416577166487
0.2165331612590503
0.3700609586743672
-1.150034214917897
0.5634400949701515
0.4802526586077144
-0.1257284367685908
0.08268824994240341
-0.437212471785793
-0.0747834454262948
-14.35631528503645
-10.76796914498255
25.199067875465
17.65326976877148
21.89979594738911
-22.27298653225938
-17.28007918389891
0.8242220562706272
-2.148426250065459
-0.9641371753176288
16.75273195432235
0.900580741437824
0.1561154468413176
-0.006697617879947534
-0.09192129194335873
-0.05749653702424764
-8.535207506443339
3.965183352598207
1.513748814608284
3.204137379697968
-4.769891491768238
-13.39297093401639
-2.597766023097828
18.28317875900123
-2.292441801886713
-26.79590938795698
23.42698565285726
-30.65271952139017
34.02164325649437
-0.2220808489926247
1.541050326286254
-2.106842463650498
0.7878729863384745
11.85181061530033
-5.757490768109967
21.19782857647537
-18.59199608248838
-29.62315352641811
27.01732103242435
1.843494294492589
14.08764609346005
-10.87203875191393
-5.05910163603831
0.08300309244667269
-0.04811338913984756
0.01832224920290346
-0.05321195251974307
2.796679140270269
1.382254655389697
-1.42574310307827
-2.753190692617429
-7.695652461682349
-7.459322448826269
15.15482368617589
-11.65628526901963
-5.961444927114931
-2.598805249111716
20.21653544524882
-2.395934586045309
1.032195329626198
1.105539219928828
0.2582000364720964
11.23790163244652
-13.50978169919154
13.95704927698387
-11.68516921023663
-0.5245169203033982
0.5300124883115784
0.09178068065186668
-0.09727624867786856
-20.16905955701608
11.55607948444374
5.852066609570569
2.760913462988961
0.01349326449105567
-0.2771244913013159
-0.3610776225834381
0.6247088493913733
0.009626302876777001
-0.125221488769974
0.03285293116504176
0.08274225472321772
-4.957618775905585
20.56055678042926
3.26102657900455
-18.86396458353127
-0.1548479584766211
0.2132582976421495
-0.0009822609730293303
-0.05742807819957781
-16.99806332799164
12.53628363884921
-5.135949525319282
9.597729214439291
-0.2322599339003918
0.1234220850400904
0.1629424895030862
-0.05410464065075274
-9.904920112953974
0.7875167470145981
12.21242614294357
-3.095022777014364
1.035802531108112
0.990596612229833
-7.248529524297289
5.222130380959878
0.3464806641086468
0.06880942790695446
-0.4151818070155671
-0.0001082850065564804
2.466622493218137
-5.911944262388658
0.01493268936265864
0.5873218194222566
-0.605375944104976
0.003121435312615912
0.1130749046568745
0.07757542258861096
-0.1519304089031253
-0.0387199183538021
-13.22869250186469
1.675521006234497
2.979987635744379
-0.9556522368735446
-3.699856405172517
-0.007656613020379005
-0.3974322078214932
0.7135446384745886
-0.3084558176639616
-17.67579412206291
29.31968048913762
-10.16733538452143
-1.476550982549248
-0.8978055528929831
-0.5227311133935922
3.152217386159464
-1.731680719936076
-0.7644508971340266
0.6919434121059563
-0.5995313957370034
0.6720388807372923
7.060923322181306
1.197791212444247
-7.222912003526004
-19.53298042988662
-12.22448016344238
16.90162275934176
14.8558378339902
-1.719250326324268
-0.04947629143717502
0.322235021091583
-0.3162989023456841
0.04354017267894199
8.155624257522586
17.77606137224154
-37.31310076126321
11.38141513149998
4.975963418237762
-3.324804046774283
-0.002624841837711514
-0.126834395620676
-0.02698872842118754
0.1564479658707277
0.6674509329978032
-2.027205820282134
0.4033834534666811
0.9563714337944943
-26.03365603878636
14.37572008154104
28.41066791156981
-0.008810854696132433
0.06460225928851894
-0.08994234796906558
0.03415094337160671
0.005728188836351746
-0.1333544802058941
0.1232575629930396
0.004368728369300554
-0.0541019676061356
0.03405802303768708
0.02004394456416751
-9.163294347435132
0.3029287425855746
13.83632902310014
13.8336718402916
-1.118463064559684
4.762897487253871
-17.47810626295261
-13.8814671412274
-3.600443949482377
-0.02567246450133338
0.1548281692475858
-0.1277582667287988
-0.001397438022373415
24.20938967479294
-23.65412077476645
-3.525289993216124
-0.07205761719813626
0.07378926384344585
-0.03910041948676094
0.03736877283814447
7.997112274474934
-13.57960864829503
23.76393865776534
-18.18144228388681
-0.240985442051642
-0.2194211903916889
0.4546077662447859
0.005798866184462541
0.7313593356238601
0.07409720329306907
-0.006880563338534199
-0.7985759755882982
-0.1734494306243917
0.1045731487221865
0.05472208783416945
0.01415419406214414
0.02116840694610344
-0.03528257642075055
0.238981366715571
-0.1798905594446363
-0.5364782311378469
0.03271199732259126
0.6836567932512551
6.808590309947169
15.06143375202133
-14.13752033053839
-7.732503731433805
1.555890897789478
-7.558105679421786
0.3312549390718647
-0.1504348869656455
0.0921118833824177
-0.2729319355004717
0.001892066440320576
0.1813561100445851
-0.1578982802336347
-0.02534989625892924
0.06789450081388092
0.04279554146220969
-0.1106900422804439
-15.79779055196227
6.971287051601961
15.455226530555
-6.628723030188783
-0.1063813819931245
-0.004622550018897989
0.09797785828275936
0.01302607372363447
4.273569553409171
-21.77631263562456
-0.08083693714867765
-0.5224952350078401
0.3587392104037436
0.06901885873592539
-0.04452982570387842
-0.1098551123089425
0.08536607926928752
23.13559912198767
2.756712737190157
-18.85584570310407
-7.036466156072033
-0.1096542266096747
0.1129904878440099
-0.003336261238630076
-1.923270685299049
-1.15002137020921
0.04345072934534668
3.029841326209368
-19.97981309569505
19.91428572502608
0.06552737067609282
-0.2103880419924822
0.05120858592097233
0.1086415490834459
0.05053790698120949
-6.832633340615926
-0.5663482693992146
-13.53258495676391
17.87810017795346
-14.75233863413831
-15.29309159475872
12.16733005099013
0.05827877303659857
0.4304010331612413
-0.06081900095536958
-0.4278608052518401
0.1060188312970012
0.02893711725121255
-0.09731182548486962
-0.03764412307220335
-0.1464932596365211
-0.4897600650232493
0.4342501393532229
0.2020031852961917
0.07252206821283347
-0.02773388890428878
0.1686133754379691
-0.2134015547523241
-0.116449678688217
-0.2276018206972821
0.4584752016587294
0.1239342004342372
-0.5803903682426984
0.4815729951216927
-0.02511682733595074
-0.3099427974916002
-0.24183699531022
0.4134977088767661
0.1382820839140973
10.77658101807324
0.7955896099446732
-5.737397788246308
-5.834772839781401
0.02774782142737284
0.170753556990587
19.00348015959335
-18.38799637157371
23.11413147433403
-23.72961526235266
-6.077576683807172
-12.15898951092022
1.553564919037568
16.68300127569756
0.1483471399708451
-0.07818565346000569
-0.09795429036532398
0.02779280384608666
0.2914562142355958
-0.01169519245715849
-0.03394157373632748
-0.455138201791462
0.5321408694467129
-0.04306109392818661
-0.2509181774351115
-13.0938780496462
13.34472252735178
0.1933406865863805
-0.2215996935445491
-0.1519415578679394
0.1802005648145008
-0.05793751347708612
0.170000264965428