/*--------------------------------*- C++ -*----------------------------------*\
| =========                 |                                                 |
| \\      /  F ield         | OpenFOAM: The Open Source CFD Toolbox           |
|  \\    /   O peration     | Version:  v1906                                 |
|   \\  /    A nd           | Web:      www.OpenFOAM.com                      |
|    \\/     M anipulation  |                                                 |
\*---------------------------------------------------------------------------*/
FoamFile
{
    version     2.0;
    format      ascii;
    class       volVectorField;
    location    "1.1";
    object      U;
}
// * * * * * * * * * * * * * * * * * * * * * * * * * * * * * * * * * * * * * //

dimensions      [0 1 -1 0 0 0 0];


internalField   nonuniform List<vector> 
19632
(
(5.013466867380042 0.01880768884656453 0.008574596025074557)
(5.000084070122141 0.0004843573830826834 -7.6375098812575e-05)
(5.000471419052448 0.0001437721131792114 -4.517431198594527e-06)
(5.000566224761382 -0.001387990729544734 0.002701787752636959)
(4.999944498737829 0.00101017662692433 -0.000171613056559284)
(4.997615126333801 -0.004544045445342437 0.005090757388102788)
(4.998091300215283 0.01283859384213653 -0.002017414371155098)
(5.004035096686268 0.004069216581716747 0.00303592452621972)
(5.006354253207175 0.009160514818927696 0.004188282837539464)
(5.008652023165798 0.00391035374418549 0.002338713457185947)
(4.999677724323879 0.009719351558146769 -0.0002252891061223451)
(4.998128565631305 0.001799598379618004 0.002714770105099488)
(5.008125610291244 0.004571010059373544 0.003170189693140727)
(4.999715014060664 -0.0003847388731849751 -0.0002728548813216782)
(5.000111630165242 0.001069134632463118 3.521246107123187e-05)
(5.000188804202664 0.001375492084081893 0.0003038767852559871)
(5.000203181661076 0.001537416725785923 -5.266798009163635e-05)
(5.000269862654537 0.001043203519089214 -0.0005036001699292145)
(5.000282530993135 0.0002469243614531668 -8.101032125515255e-05)
(5.000014610659903 0.003701840980789773 -0.0001432929894487721)
(5.004747639175384 0.003922962688198594 0.002096302823115224)
(4.999624321715165 0.005035376891668849 0.003822401210959428)
(5.011402413180957 0.004269165605536723 0.002398530225978236)
(5.000318632020889 0.0009143044036359442 -0.0004747536182024342)
(5.000842994786851 0.0009057244027275634 -0.0001778384944796241)
(5.007193200035098 0.005433941097395791 0.004763436706736509)
(5.003737766602856 0.007146655073655331 0.001487827808533774)
(4.99982109258363 0.0008550652011488772 -0.0004666520489786325)
(5.000726296115236 0.001020686326775119 0.00166204891500515)
(5.000240749165915 0.000368045026311676 -0.000114045271248137)
(5.00025711559446 2.691309401492525e-05 -0.0002297122975831653)
(4.999638566660364 0.001548054320027434 -0.001669933471209021)
(4.999732221360315 0.001061879547877611 -0.0007492948071692846)
(4.999189960690903 0.001179605852926379 -1.499966519264403e-05)
(5.000198052708074 0.000373796007062077 -7.367258135584456e-05)
(5.001201241193715 -0.0004125472346762862 0.001811670492065054)
(5.000708679781002 0.002931362593420656 -0.000109654023776125)
(4.999958887077876 0.003716674495971107 0.0003270221309858274)
(5.004178030137703 0.004251706618807594 0.003910598366784496)
(4.99966378004641 -0.0006383139341754624 -0.001118167347511515)
(4.99980700139999 0.0008349368534735387 -0.0006391429026733175)
(5.007287864870068 0.004946394096437453 0.006443350288479109)
(4.995399042158579 0.004575756097138773 0.002831032907128918)
(4.999958366652367 0.001109320766276848 0.0008444577878119048)
(5.000021929889471 0.0004300407783834573 -0.0005016115546079118)
(4.999333285117453 0.004445602548836127 -0.003095831869106835)
(5.000468178026214 0.002397648991729044 0.004394434272832865)
(4.990066999234167 0.0002295139828328463 0.002501592001759432)
(5.003010414853796 0.002436065870125421 -0.002654478988059978)
(5.000537422941137 0.0001501677385679969 -8.804173024645376e-06)
(4.99066385841133 -0.00126586963318651 -0.005941610893889905)
(5.000569566075476 0.000405806106526767 0.001787469432141719)
(4.998790047163961 0.005032905136369601 0.002486185540651436)
(5.001040294788726 0.008894650269627769 -0.00334820026259109)
(4.997936457189405 0.002096414079952034 -0.0002308527271160394)
(5.008813209970782 -0.00229957534087471 0.002414122652787292)
(5.004582645976157 -7.652440257259508e-05 0.001216711929179988)
(5.001351487640425 0.0002857094396009612 0.0003089291539034144)
(4.995747486502631 -0.009709909125211568 -0.0115575301424776)
(5.000055500232172 0.0003637124268228441 -0.0001679218112185186)
(5.000433945346071 0.0004630667482618216 -0.0004126610790619688)
(5.00061243344618 0.0001610311264673655 0.0003717245529806821)
(5.000299267593407 0.0003587740349094868 -0.0001139016181363453)
(4.999005853647421 0.0009661623746374414 0.003411075849349102)
(4.99878767836279 -0.004423597224300356 0.006622078610011464)
(5.000064186634139 -9.186235527529914e-05 0.0002441160285275265)
(5.000877273631461 0.001086725326974336 -0.0001675518046281139)
(4.999343326673466 -6.706427991745493e-05 0.001247635458970677)
(5.000540185468615 0.0007468402815857092 0.0007196240536397156)
(4.996798076121856 -0.0123809447299546 0.01639758712983836)
(4.999979311405584 0.000472933744710027 0.0001456959508133658)
(4.989253404462981 0.002982827942832741 0.0004355006095366936)
(4.982814186798778 -0.001121108977728733 0.001637155522372435)
(5.005355490977775 0.005354628687389933 0.004896089124447301)
(5.001016943620753 0.0001629263758001166 -0.0002938358459683012)
(5.002272752775585 0.0007050623968821751 -0.00505653023431283)
(5.001017141744457 0.003824598111704284 -0.02371343454129107)
(4.991373697149903 0.0007122774357130129 0.02870236281404354)
(5.000121619956928 0.001517188925437604 0.0004679996585722299)
(4.999515282655145 0.003742374038948715 -0.0002144069897214678)
(4.998580010734877 0.004311300297539331 -0.008133605653062245)
(5.002838654524433 -0.0004390729913963423 -0.003472800465627057)
(4.99957618411351 0.000138427278407374 0.004748246208246736)
(4.999493719591465 -3.947558023777137e-05 -0.001688087451574463)
(4.998975888604551 0.003616042963787431 0.0003854873995522117)
(4.997628432156795 0.002674346430719821 0.0005790558884224591)
(4.999367963764608 -0.0002715959329221467 0.002056139009007242)
(5.00146242416788 -0.00216978494805484 -0.01172011776077592)
(4.992931367250351 0.007399961133320766 -0.002681988253182553)
(5.000081251711812 0.001196119308271097 -0.0005627759435643822)
(5.008374515478351 0.005837942968950971 0.01427827395437395)
(5.006293453691164 0.01155826308927222 0.007034721285397963)
(5.009405137001472 0.004370389256126646 0.003605180287231036)
(5.000263067168794 0.002553112824306251 -0.0005314338615527893)
(5.004027682856615 0.00228283123763794 0.001780396774251217)
(5.004822135560177 0.003478020411920373 0.005193679337846742)
(4.997395259633841 -0.0004272817903065566 -0.0002879900095748883)
(5.000098275839943 0.01335543442681203 -0.0009474130927418427)
(5.001472897838993 -0.0006837175309762487 -0.003177351857996032)
(5.000177620072905 0.0009597353573615044 0.005763292520417755)
(5.000295664912544 -6.850534309438282e-05 7.744655445708021e-05)
(5.00237519077111 0.002741200887212751 0.001856731827007043)
(5.000692568934276 0.000699301923078905 -0.0007432792349924979)
(5.000468965099143 5.437669322825171e-05 -0.0009091812399856648)
(4.992484287412334 0.004692413414486193 0.007160918269634517)
(5.000085892855136 0.003568271384905187 0.002392561309540155)
(5.000118478712101 0.0005095167757477409 4.982296299201768e-05)
(5.006254013102067 0.004216398989628783 0.007589821376105678)
(5.002079026473025 0.00106976582463589 0.00218163497219791)
(5.00017975289043 0.007106379168522881 0.0003628206465044969)
(4.992657630074166 0.001946166964663034 0.001037891872378772)
(5.007083834440867 0.002715000449005856 0.0001970973755413157)
(4.999513563546529 0.002813953390652141 0.0001139069803535386)
(5.006149319391263 0.001401918010590683 -0.001168281870674885)
(5.008618964331872 -0.0008354683313301924 -0.001714234064954597)
(5.002182847107724 0.006382025866410362 0.009763746722864605)
(5.005714088291866 0.00319273066530688 0.0008583129682936924)
(5.006768830855536 0.002501236909515708 0.001057425995809168)
(4.997265009875457 0.005950016898726425 0.006490133348988876)
(5.003277885488062 0.008922452572572397 0.006912177869361422)
(4.987791778269862 -0.000778372017053088 0.0008384121159711837)
(5.005390786623988 0.005574528543891779 0.006937502804629063)
(5.000103989623348 0.0003011963531902184 -0.0001197421725231302)
(5.007724606854473 0.001384495229863814 -0.001768733447759359)
(5.008042356951891 0.001467902556511348 -0.006313606175737787)
(4.999385986460505 0.00202816305605798 -0.0004161502277098484)
(5.002210813919785 0.006377033773004182 0.009548478865938469)
(5.000635577229525 0.0004020281218338234 -0.0001128977672078251)
(5.00061472533037 0.0002491529616079341 -0.0008375173166686761)
(4.998093172223246 0.00620339206280107 -0.007083114947292071)
(4.996158074785 0.01003526299077015 -0.006379320549341117)
(5.000464666935694 0.0009193755425028208 -0.0005899631836561491)
(5.000055592137967 0.0013175265679254 -0.0003942740632601112)
(5.000514461131418 0.00187725055723949 -0.0003808685725303943)
(5.002511894997121 0.0005309220925631546 -0.0007442452915508246)
(5.001624628297118 0.0002760172608434242 -0.0001233642033157655)
(5.006872698148521 0.0005212007390116941 -0.002113662191908638)
(5.002042217245535 0.0009911021303697035 -0.001164296985635713)
(5.000509948849873 6.274852274589636e-05 -0.0001015174295384768)
(5.001148098156293 0.001329532515741842 -0.001075794018444959)
(5.00124755187478 -2.055874305902501e-05 -0.0007385874412741341)
(4.999084849245528 0.002769053025001407 0.006232216933196453)
(5.000519525163135 4.024254690879448e-05 -6.853222336809102e-05)
(5.037362202298526 0.00841224098356769 -0.01549790628646986)
(5.000797242258737 0.002112879756831708 0.0006087121505603103)
(5.003378135818988 0.003640887293332711 0.01362108349341367)
(5.000567453039697 6.487521024632339e-05 7.300092170536364e-05)
(4.999677172583459 0.001035691940091593 0.0009552418756429561)
(4.999362241816293 0.0005479826018926527 -0.00080739209299777)
(5.000648193685739 0.001824388151742267 -0.001053109201634049)
(4.999859670606824 0.005605703538808845 -0.0002062119004000302)
(5.003525239913801 0.008344783679890749 0.0006196866647021988)
(4.999728784363445 0.001197553661924505 0.0005553828243168527)
(5.000326047649486 8.862818555534678e-05 -7.448682214891411e-05)
(5.016045189137035 0.02809953554817151 0.01633910583593405)
(5.006022990468284 0.003111787520591078 0.001429395750263404)
(4.991391692572238 0.01059316095217604 -0.0004370605964652423)
(5.003203565810113 0.001151918891876856 0.002043723969594729)
(4.999077210143213 0.002706592759298545 0.006647251303245193)
(5.000429092341421 -0.0001186307611806972 -0.0005822909363213823)
(5.007345854379265 -0.0003209488842828563 0.007695926731573606)
(4.99493988799013 0.0006174700165122056 0.001046413831368277)
(4.996871085776999 0.002882581424842905 0.003715191119651446)
(4.994030832003926 -0.0002149501011640315 0.0009513545419454764)
(4.998830465814406 -0.007880184763482692 -0.001705924804117108)
(4.999956699643398 0.01358586007227859 -0.01458699461562207)
(5.000461070978832 0.001446527138026114 4.119479086958725e-05)
(4.993886590247058 0.001541598466603606 0.00136367447524081)
(5.000323907086685 0.0002668996865528512 -2.746009809166045e-07)
(4.990177457274917 -6.541313239205831e-05 -0.0001373332489294346)
(5.003595357335326 0.004743641234617741 -0.01566384564531313)
(4.992851879335559 0.0009573268334523064 -0.001056451905354183)
(5.00051596906313 0.0005894096781185655 -0.001347899591234798)
(4.999486579574244 0.002947167961057552 -0.0001664543344843435)
(5.001422338026105 0.001660321582463805 -0.0009923170274628518)
(4.999918114790211 0.00662899946769677 -0.009458381480033464)
(5.000289738161037 0.005107983357313279 -0.009827507100705228)
(5.000234648182886 0.0003303603075101199 1.208964916443243e-06)
(4.987033700656453 0.0008639080079268782 -0.01311503735966016)
(5.001161213049643 0.001343255750436615 -0.001376170045085521)
(5.000443485551284 -0.002164542303610092 -0.0001743840500998166)
(5.000423784644575 6.374690275898392e-05 -3.301179975570342e-06)
(5.000169152787713 0.0005364426060413067 0.0001459611743094878)
(4.997250877056326 0.01074788188238019 -0.003910852443291337)
(5.000878964012219 0.001360588797122452 2.319404364732449e-05)
(5.000425675461814 9.879614920165149e-05 0.0001892689263170964)
(5.000381499457085 5.430003439064644e-05 -2.431014322759587e-07)
(5.000349275351602 -0.000309645360345264 4.921142750644451e-05)
(4.996042471961848 0.0120216793438366 -0.007175471333849113)
(5.000311126972171 0.0003142154428316672 -0.000247869921488624)
(4.981602531272911 -0.0023407467873916 -0.002001939591478412)
(4.99659191880962 0.0012878218120735 4.186847617534078e-05)
(5.000293847485107 0.0005035258806151243 0.0001082030122094871)
(5.000391027690926 0.0003669578245464647 -6.39024453553847e-05)
(5.000549106070259 0.0008434469881741723 -0.002179527865476297)
(5.000041357876385 0.0006777673859172464 -0.001068985675850506)
(5.000421437914951 -0.0004543222033983315 6.64424392326021e-05)
(5.000192471196939 0.0004637758604323082 0.0002451870539569137)
(5.000460738609146 -0.001136847701011526 -0.0003940703220177375)
(5.000771023257976 0.0001136952451197576 -0.0002366874404862396)
(5.000161930162808 -0.0009335002391036146 0.0009399363090470833)
(5.000383370719539 0.0008407754829133505 -0.0006106758762362332)
(5.000531033690398 -0.0006732461698575218 -0.0005940837281219276)
(4.995350814360968 0.0008408320047539143 -0.001146752542732619)
(5.000650815054623 -0.004142884072958699 5.713230385839291e-05)
(4.999771764023621 0.0004628417071925391 0.0001975309044337749)
(4.963085119670295 0.0612389063894728 0.1141443950850537)
(4.99685592258983 -0.0004279218803966715 -0.0001981662476469509)
(5.001312969411453 0.0006462456992348936 -0.006025133872800034)
(5.00049613016135 0.0006400265262384723 0.0004802316254652396)
(5.000047456643374 0.001629551462166527 0.0006512776003325814)
(5.00423807093604 -0.0009282756161190346 0.007747990293329425)
(5.000490269158896 0.0001332573813303318 2.010929108302119e-05)
(4.996773270516797 -0.0002105727096172084 -0.0001131397630076961)
(4.999736455618918 0.008636783708793788 -0.002455260317665196)
(5.000128586066317 0.001872444973271353 -0.0002276337983381022)
(4.999230283098569 0.001065960875602266 -0.001194962029858414)
(5.000937256937045 0.0007832799391794723 -0.0002020232219655563)
(4.992690929239458 0.00854576720979839 -0.0002029538500984789)
(4.998760253069729 0.003313941965607328 -0.01014268238240937)
(4.999895625295701 0.0004505656521847985 6.84036496704975e-05)
(5.000871768776429 0.0002751957870865636 0.0005950477372310081)
(5.000917127231379 0.0008055061577043254 -0.0004281481843775057)
(5.000950529774462 0.0005476468147648836 -0.0007932773380685567)
(4.999812610576666 0.0004794748375453123 -0.002534518457111083)
(5.000364972906925 0.0002215766578549455 -6.156305220420992e-05)
(5.006824271986321 0.0004744448271251261 -0.002319846914590554)
(5.000216285345086 -2.290354614046338e-05 0.0002441081472445844)
(5.011933768692691 -4.406994041663789e-05 0.001460596059352162)
(5.000404695491674 0.001503011774865576 -0.001384890751076836)
(5.000121161925355 0.0009324626019648403 0.0001519825508007428)
(5.001647117659004 -4.761671933378894e-05 -0.0001900989248717264)
(5.000479252117852 5.863530412362485e-05 -7.862453869793999e-05)
(5.000243414863043 0.000817544360692362 0.0001746989343588819)
(5.00009905349915 0.0002002562944207221 4.459318176329426e-05)
(5.000594356824187 -4.234104386415124e-05 0.0002820717939066025)
(5.00060089992687 0.0004856376164072482 0.001467504460475014)
(4.998954165269082 0.003333345699840734 0.004238548540592356)
(5.000056080717174 0.0003975386799570155 0.0002011129948965998)
(5.000524545244354 -0.0003130385652812383 -0.0003955916377097686)
(5.001896967753928 0.0001256124022663451 -2.250487885096257e-05)
(5.001141926358075 0.0005654811142573818 -0.0001497089232731298)
(4.916864830842304 0.00314685515574212 0.07813458866594067)
(5.000503190064309 0.0008925865188508507 -0.0005650846710061775)
(5.000354491865523 0.002418179298127395 -0.0004134826684847282)
(5.000326165690577 5.028958514598571e-05 2.281596685468824e-05)
(5.000612270369824 0.001119473365104072 -0.0005557178688010642)
(5.000498465241855 0.0008492166385739751 -0.0005193147175588488)
(5.000738796326273 0.001527190044599542 0.004546265063922686)
(5.000179743504162 0.001621587629807833 0.0002765134384225976)
(5.000367550867061 9.384392164621822e-05 -0.0001307865929880002)
(4.999412647487581 -0.003456083589839728 0.02152994388038561)
(5.000434217129209 0.0007629733473997909 -0.0006381508020897504)
(5.00052185036464 0.0008679027882068089 -0.0007471824771851928)
(5.000242546080846 -0.002960773091406329 -0.002983818710401549)
(5.000659297624335 0.000699262368938869 -0.0007050734252244769)
(5.000345571989964 0.0007997918314220821 -0.0003259504984935686)
(4.997460375917551 -0.0007444177250926637 0.0001945473615283318)
(4.999959562730915 0.003271949532589595 0.008990806692601707)
(5.000642304771471 0.001038395293972051 -0.0007375019016480164)
(5.000910610460156 0.001257393388184191 -0.0008870966653488787)
(4.999863623422052 0.007172571023157148 0.01004936717183659)
(5.000782856523582 0.0005066910546479403 -2.617535502110904e-05)
(5.007171682433937 0.01453577156682848 0.003099962476140014)
(4.999890750289434 0.0004522176141124302 0.0002741300950840752)
(4.999764829591464 0.001877743727884294 0.003922586942186813)
(5.000556742144223 0.0003946270884161084 -7.374404361653344e-05)
(5.012884977382986 0.003103214950746073 0.005424308864899572)
(5.001514118534282 0.0002647122158850117 -0.0005049228726303662)
(5.010044910431257 0.003427405563854029 0.0006228959583168336)
(5.000676573240771 0.0009814046831760578 0.0002296436616319353)
(4.998411554899415 0.007234823487431239 -0.007922232948547686)
(5.000613580204327 -0.001103010869518938 -0.0001694842289748436)
(5.013866428152261 0.008963164095676964 -0.00560589182131464)
(4.999697940774065 0.004151057819938096 0.0001246794464882959)
(5.00618817536501 0.001946459828913025 0.004428396949868185)
(5.000861801556103 7.636228252165508e-05 -0.0001784983941551769)
(5.000961273058664 9.780858800879699e-05 -0.0002481715751868102)
(5.004909224966567 0.002846993732167109 0.004495274345770767)
(5.002901167568748 0.004445321881694247 0.004298179140062412)
(5.003741002721035 0.01046989730530558 0.007658395241790796)
(4.993820559098339 0.0009635043043672818 0.0004635365051685781)
(5.000380291465913 0.0001449349141854052 4.957757063875601e-05)
(5.000430382463472 0.0005822190750697032 8.470296005206143e-05)
(5.000400958949614 -8.846471747072404e-05 -1.231979953969509e-05)
(5.000199316918063 -0.0002345532215284846 -0.0002351047617346219)
(5.0001868815936 0.002399972892188272 -0.001326897296301439)
(5.000973360631707 0.0002314654993066644 -0.000210541252281662)
(5.001966665147694 0.01936164586966675 0.02401968191474935)
(5.000377341245368 0.0004466262910844545 0.0004039222758761694)
(5.000291012255891 0.0004720134315967129 -1.685343295029896e-06)
(4.999678571770828 0.0002827323209125915 0.0004518730132051996)
(5.000744839525796 0.001346433276847641 0.002680191592878678)
(5.000446857720044 0.0003128053580578799 -0.0002887262105613924)
(5.000596091737802 0.001816697237176187 -0.0005587695576769316)
(4.998407599910086 -0.0004894790244207768 0.001639005831689285)
(5.000246923337329 -0.0001458871028505101 0.0001845322046336186)
(4.983357977567278 -0.001307821607750901 0.0008445576273036816)
(5.00076906575794 0.001340245848359469 0.0001517359296521644)
(5.000446308200168 -0.000219358199950479 0.0003888673047371215)
(5.000524778173771 0.002489813687980381 0.007096105526939424)
(4.995464601067435 0.003419757813830109 0.007736521693758119)
(5.00004488127347 0.0008221890647122093 -0.0003546678421500296)
(5.000476812424562 2.312919689522726e-05 -6.547907778532335e-05)
(5.001073994861246 0.001483945634627702 -0.0008471235062695259)
(5.000477668406579 0.001923945776534158 0.001014624104920176)
(5.000480996287546 0.0004385152370484048 -0.0002738034307936383)
(5.003123560187934 0.001904822169557163 -0.001481769086066987)
(4.998456542155642 -4.593172098528072e-05 0.005386582090499869)
(4.999611208026902 0.00102064163994765 0.001430374202634667)
(5.003873065676289 0.003203131556769696 0.0002860580149857262)
(5.001131054895491 0.00584667375108222 0.00872693184882809)
(5.000816654705869 0.001241362616860694 -0.0007798248682938465)
(5.004497996761137 0.004912480267656396 0.004401690419438047)
(5.000260576649556 0.005489331317152133 -0.001002312347965975)
(5.000578105481099 -3.978267575251348e-05 6.642040060468711e-05)
(4.999017627463709 0.005532505213277776 -0.005018870238614546)
(5.007725049391138 0.001777322629888423 -0.002415059359110652)
(4.990136994873241 0.007432886277889622 -0.006194995623429804)
(5.008253674539063 0.004865205294605363 0.002775187157611694)
(5.015914041953771 0.04318885819899879 -0.004159469206303498)
(5.006340804379122 0.00410980027141702 0.003276794754855674)
(5.006168752459088 0.005929845724796696 0.003903440455165498)
(5.005575750402182 0.003916010015920877 0.001305718523305881)
(5.000873297909049 0.002295456403847554 -0.002025559586824967)
(5.000596285293493 0.001664687581505244 -0.00134330974039325)
(5.00026876981628 0.001657505218558505 -0.001654460218292714)
(5.000480149262559 0.002417392488313203 0.00030239161141933)
(5.000710105000827 0.0003349900206376735 -0.0006841385098613928)
(5.000417479620906 0.001156296408178497 7.485749734571975e-05)
(5.000439821865085 0.0006508025438226755 4.388518674817941e-05)
(5.000622295708847 0.0003970352684537489 6.21843396462361e-05)
(4.999971514112178 0.003085534973418379 0.0005103918761163908)
(4.999469483491158 0.002145185656829115 -0.002064909418150301)
(5.000335988825909 0.001190619891645441 1.316626747236281e-05)
(4.999909544373219 0.002491701827449182 0.001052552030114574)
(5.000097453306338 0.000508535486030389 -0.0001689804032797435)
(5.007987457216609 0.01806593704547279 0.009983144580486556)
(5.000242792607821 0.0004841291248980589 -0.000211603759846944)
(4.998638577275834 0.0009953295905859305 -0.000416798953880738)
(4.99972837280842 0.003087547773796986 0.001335731371006229)
(5.00054802749895 0.0004279361594794644 -0.0008843448716689395)
(5.001014682992595 0.003856902520142755 -0.001562234109305141)
(4.993741807722911 0.0008994006135310955 0.0001038856032429637)
(4.999699819400119 0.003337039388588104 0.00145373927899481)
(4.989714970568481 0.002579415084798329 0.003542451534350166)
(5.000404097128786 0.0001620772463634996 -2.226045219234966e-05)
(4.997430146408774 0.002892917241183465 0.009534801653315904)
(5.000395445828786 0.0008660276953947786 4.436586459275093e-05)
(5.000399370708915 0.001302007352266598 -0.0003773002806643516)
(5.000981235364119 0.0004114742298174163 -0.0003704140395083576)
(5.001860926341124 -0.001252139914671781 0.007443590283651717)
(5.000237536183882 0.0004207613214538715 -4.424378450894299e-05)
(5.000223685565169 0.0007228998547952269 -0.0004550126188303425)
(5.000832424910667 0.002001562092406658 -0.001652639048765815)
(4.998500068825056 0.0003666078376910211 0.0001834015537639794)
(5.000340096889785 0.000208924520102899 -3.555721871083469e-05)
(4.999650239967846 -0.001633060037701258 3.32543797660387e-05)
(4.999729612258916 0.003394277795268486 -0.0006368387583394359)
(5.001542872329257 0.001195888303006651 0.001218117076038878)
(5.000995593460024 0.0005001904310989212 -0.0003901033365950892)
(4.999988522823979 0.0003479233648879784 -2.129170583598008e-05)
(4.999830295894322 0.003406870062716726 0.001293583949751284)
(4.99964365796377 0.001005142555363935 -0.0007009531642864308)
(5.00250965866466 0.001392612879206981 -1.878849956850088e-05)
(5.000303884373013 0.001445098737818924 8.308813162939169e-05)
(5.000339600362065 0.01003706247789118 -0.0006453324323398839)
(4.999986399120434 0.0009058980683880538 5.06025038288449e-05)
(4.999030332230064 -2.01257697917052e-05 0.006921400264815029)
(5.000527896001873 0.0008020798265174691 -0.0006201414856060123)
(5.000688498766245 0.0004946685463632478 -0.0006707042735952737)
(5.000189383043603 -9.743356317858652e-05 8.79402975445122e-05)
(5.000786019617291 0.0007294663259745427 -0.0007826747379567535)
(5.000812985643297 0.0002149301824801837 -0.0003899768165372971)
(5.000006426643654 -0.0002725018105997341 -0.0002777729850124503)
(5.00037263998431 0.001123874792208681 -0.0006214135851080549)
(4.999805694658813 0.0008673142844099009 -5.120320322608055e-05)
(5.000332025275431 0.0007834145765607022 -0.000370625463626573)
(5.000774490346018 0.0003906513723540596 -0.0004045664159266962)
(5.000204919749607 0.0002279893101225936 -6.569340832508571e-05)
(4.992922341195634 0.0001824706278615478 -0.0001027690553208731)
(4.999952795204851 0.000528882900033304 1.900753690579157e-05)
(5.003870954301488 0.003062449114368992 -0.001397026971439231)
(5.000474968125632 0.001436140133256826 -0.0007724684483966839)
(5.000324206450659 0.0003024710005984806 5.556250845448211e-05)
(5.001818284185126 0.002551976706830197 -0.0009919545121801618)
(5.00217206671303 0.0007614910536571585 -0.001239147819712392)
(5.005437931560398 0.01176786251801512 0.002430400434276329)
(4.976547938400802 0.002012621174841239 0.0004721488140785361)
(5.000276325472953 0.001611608769844407 0.0006124540645903258)
(4.999590988446226 0.000383526795173689 0.0003437784990595782)
(5.002849781300461 0.004897282489893443 -0.005702257879341994)
(5.000891357551038 0.002193213937256583 0.0002781789242884755)
(5.000241071098425 0.001404216744880709 -0.001086459660270758)
(4.999472861141356 0.001208563541613176 0.0009339927382044023)
(5.002736073266258 0.0007944777243337262 -0.000953963969082644)
(5.000230731511349 0.002205803745094184 -0.00959213567427716)
(4.983845904534168 0.001376433251614987 0.0003445796334704655)
(4.999953819948479 0.001880163641237416 -0.001796172696545214)
(5.000261901439622 0.002301991690007908 -0.001356212333698962)
(4.999438840357882 0.001607358576853556 -0.002155929682085948)
(4.999897397774248 0.000414796640514287 0.0001824941397498622)
(5.000045150174913 0.000402028058014262 -9.731682340659192e-05)
(5.000040254799934 7.684397381012586e-05 0.0003895353579247031)
(5.001811969811394 0.001634059153741825 -0.0004397620633300261)
(5.000260689896948 0.0003133485126714194 -8.870131213872146e-05)
(5.003080362248054 -0.0008991780180507974 0.003022286707806234)
(4.999976424754421 0.0004779804455598714 -3.746368211410601e-05)
(5.00088014986556 0.001827562072602414 -0.001091289255802498)
(5.000315460908645 0.002192952015640676 0.0005902820152259881)
(4.994313489896991 0.0004723630670217586 -0.000952628106328727)
(5.00095439592442 0.0007879966535280421 0.0009100224483265246)
(5.000268125967654 -7.668428118697321e-05 0.0001326109967704808)
(5.00055868981423 0.000999738974522996 8.784642958140105e-05)
(5.000890529977286 -0.0001845967837799373 0.0002347631394774805)
(5.000396190689184 0.0008019651997791115 0.0001224802681209356)
(5.000576769696141 0.0008329175077003299 0.0002304978200381246)
(5.000126818930609 0.0005367499766522095 -0.0001228478645068339)
(4.997763110160388 0.003935834646521165 0.01005967412045322)
(5.001711277207971 9.564583181147103e-05 -0.008099644157368708)
(5.001547873474879 0.0007907125057696708 0.00015279932591017)
(5.000566879792283 0.0007405274011326354 -3.379861129631817e-05)
(5.000256642477334 0.001723518483346944 0.0003292824958111298)
(5.000639312666666 0.0008027940021834815 -0.0002159342841328025)
(5.003302596770436 0.0001316224021961127 -0.000202613253808011)
(5.000496916084698 -0.0001804229242058205 -0.0001680166578267785)
(5.001632011172032 0.0009790962363192593 -0.02422978169173105)
(5.000380797818864 0.001060076680420157 8.282032534304166e-05)
(5.000511181343381 0.0006643949528367869 1.738317643485585e-06)
(4.998795962891892 0.001636708883451028 0.0002051922172156196)
(5.003849977591912 0.004365162512825024 0.005140673132442827)
(5.00053107300506 0.0006448617763126711 -5.4523623213688e-05)
(5.000610895207307 0.001034385360317015 -0.0006280755025981314)
(4.999761876974202 0.004089881917770055 0.001086984992067598)
(5.010964639578427 0.02033258275113229 0.002029809860005931)
(4.992460268781548 0.0002578658626111084 0.0008392637487868389)
(5.004877431324058 0.002176891664943613 0.001763763564813574)
(4.999543275302021 0.001358941907187875 0.0004164051826875277)
(5.003653708610198 0.001231726819643675 -0.001522891787988063)
(5.000563249983917 0.0008634330735314137 9.124692393873237e-05)
(5.000467910637299 0.0001891904236923511 -0.0002837780084553097)
(5.000414754168849 0.0001694311595106426 0.0004299459537840151)
(5.000387731417161 0.0004067296830522799 -0.0001347406538623415)
(5.000374385837986 0.0005219263651012924 -0.0002543225983752587)
(5.000388445422569 0.001060116196010541 0.0001603944155748585)
(5.003967247866334 0.0004898300487845226 -0.0005328722321438603)
(5.000672572435806 0.0009623860045357563 -0.0001496719298839744)
(5.001131510313415 0.0001812127714345155 0.0006751150808179707)
(4.999959555220902 0.0003747777234172907 4.911843500717112e-05)
(5.00037248440432 0.00199790206538589 0.0002362098001107418)
(5.000296493148483 0.0003972851233137078 -0.0001725546753369876)
(5.00023843226103 0.0005740121806227655 3.643199432474382e-05)
(5.000461113513455 0.0001100428459244327 -7.465708745207661e-05)
(5.000773277527756 0.0001743500796614318 0.0009643707915842901)
(5.000626936825384 0.0009167097784282611 -0.000192822106066473)
(5.000043506435794 0.006551723128652314 0.000547660696440637)
(4.994480872927536 0.0006459309025310491 -0.0001533856897237888)
(5.000149086603783 0.0007972268690447995 -8.657767328120799e-05)
(5.000500730699856 -6.94819053773112e-05 -0.0001595417949046357)