/*--------------------------------*- C++ -*----------------------------------*\
| =========                 |                                                 |
| \\      /  F ield         | OpenFOAM: The Open Source CFD Toolbox           |
|  \\    /   O peration     | Version:  v1906                                 |
|   \\  /    A nd           | Web:      www.OpenFOAM.com                      |
|    \\/     M anipulation  |                                                 |
\*---------------------------------------------------------------------------*/
FoamFile
{
    version     2.0;
    format      ascii;
    class       volVectorField;
    location    "1.1";
    object      vorticity;
}
// * * * * * * * * * * * * * * * * * * * * * * * * * * * * * * * * * * * * * //

dimensions      [0 0 -1 0 0 0 0];


internalField   nonuniform List<vector> 
19632
(
(-0.00110865341648405 -0.001787848153560517 -0.0007485225550904306)
(-3.923170788477643e-05 3.806598003127398e-05 -4.291670614882846e-05)
(-0.0002471592601517384 5.608179935357881e-05 -0.0001028834451573658)
(0.0004127533552063324 -0.00066891332530436 -0.0008659555741488922)
(0.0007015655287311021 -0.0007973347229519519 -0.0006151643601593614)
(-0.003584744465023214 0.00167769927854738 0.0008364995146550412)
(-0.002196325769442289 -0.0003435533319304002 -0.001847334249848429)
(0.000858508999369593 0.0007226501130803658 -0.0004776408077045462)
(0.004892943217991337 0.0006731812914007387 -0.0004712564462803241)
(0.0004877418373774313 -0.001465951434252505 0.0006549381411956117)
(0.000697462705437665 0.0007314557412176147 0.0003276472733774278)
(0.0009984774185044054 -0.0003113073266228434 -0.0003796484690392568)
(0.006547679810230514 0.0001278795780073811 -0.001514334660800178)
(-0.0004810129081918758 -0.0003770196537303321 0.0001101500734387216)
(0.0003623005939772346 0.0002140484102849188 9.840988238722295e-05)
(-0.0001592414904434604 -8.861776781528375e-05 7.005891384834772e-06)
(-0.0003193003996920115 -0.000103158535906606 -5.753974044280246e-05)
(3.285329800695623e-05 0.0001665449903784786 -7.923448178298958e-05)
(-3.654208193493472e-05 -3.756729820876379e-05 6.38278785497714e-05)
(0.000317317183742952 -6.701915499551998e-05 0.001378511047207747)
(-0.002415985629523445 -0.001180123972870684 0.00104370580366811)
(-0.004268576695003246 0.0007789065933028877 -0.002028276817678821)
(-0.001677592936823989 0.001015687574827324 -0.002616717448949951)
(0.0003132423002762968 5.915751879178224e-05 2.541263690133358e-05)
(-0.0004839116662530491 7.811072468557935e-05 -9.612089079823447e-05)
(-0.008667317397724174 0.002306964052869866 -0.0003284149992770277)
(0.001171928190714205 0.0002321445192035581 0.000268877531432968)
(-0.0004011041855349211 0.0003497910680665305 0.001133347899505309)
(-0.003291496401814305 0.002007371377943688 0.0002831669154081678)
(-0.0001972915010221801 -0.0001984926596849584 0.0001886296950560396)
(0.0002998236124112695 -0.0002582819022937991 -0.0001002490950067516)
(-0.0004353001967809567 -0.001100161628292377 -0.0001332172602109189)
(0.0004278409307957709 -0.000432368117091484 0.0001213090136008761)
(-3.472449889726129e-05 -0.00092041200956117 -0.0003826140890271091)
(1.128139415185641e-05 3.032672423281301e-05 -1.450159117762564e-05)
(0.01006589464353786 0.002642854345367221 -0.0004607022753274366)
(-0.0005129118715312256 -0.0002428496971478637 -0.0001191401246482066)
(0.003438694656341149 0.0005010545646609785 0.001105692405682465)
(-0.0001857680731958908 -0.0003310092511464303 0.0001216511410691586)
(-0.0001821695236589936 -8.647953828741734e-05 0.000558381460797482)
(-1.559719565336887e-05 -0.0005491885001560097 0.0004684222576626418)
(0.004131522603709771 0.001630197863517963 -0.0002026387758483671)
(-0.0006530008452542444 0.0007537294019994945 -0.0005954519017752746)
(0.0001080161315157455 0.0002361065430402128 0.0005074206592777121)
(8.343137324831483e-05 -0.0001274714322800039 -0.0001070814760322187)
(9.34293063288104e-05 -0.0003862318884169118 0.0002094174204806437)
(-0.004663698783676604 0.0001791436419058029 -0.00211359491275103)
(0.002098420000634666 0.001073675156653083 -0.0001135656459570485)
(0.0002810155429117229 -0.004898840142288472 -0.004374401545770613)
(-0.0003188702392277478 4.242503759722827e-05 -2.666624266745531e-05)
(-0.002754171368516757 -0.003701294965216597 0.00230268904039603)
(-0.0003533864020511387 -0.0002858381155233149 8.74076724457445e-05)
(0.002132883887267662 -0.0001615830758896832 -0.002053773345472817)
(-0.002463728406753067 -3.885875102578422e-05 0.0005449344896775829)
(-0.001144016906683432 -0.0007157580377468234 -0.0006659249959965451)
(0.00667094639605033 0.00530167597349751 -0.003800042499702836)
(-0.0001287495617516659 -0.0006248993954078236 0.001517342770552956)
(-0.001906039382474352 9.416386944528614e-05 -7.814222293824101e-05)
(-0.0004596100946181369 -0.001080940167117886 0.002856444749018834)
(-0.0006534178616772635 9.40434437589857e-05 0.0003168086716771405)
(0.0004148998459628189 -8.523274574486042e-05 3.061947895926056e-05)
(0.0004727693524586355 -4.490807512563225e-06 -0.000518411549547156)
(-5.894658403006916e-05 3.944662133696032e-06 -1.180216704170055e-05)
(0.0001578141304030439 0.0004145672025770421 3.868664392689996e-05)
(0.0007720963674265008 0.001336541123282949 0.001126847451656025)
(9.327713570051504e-05 -4.93797128325055e-05 0.000141324993149159)
(0.0003491601348961234 -3.091093783714217e-05 0.000118545010736043)
(0.0009827277643520563 0.001015042857283844 -2.95267010472371e-05)
(-0.0003166330416781858 7.241884107571541e-05 9.452876167055025e-05)
(-0.003655784578453677 0.001780067859488085 0.003042003498647823)
(-0.0001160644373217316 4.297970255157801e-05 -2.344081677393829e-05)
(-0.0006943220271675044 -0.0009142579172736174 0.001544384693956442)
(-0.0009869515482673185 0.001239669493413568 -0.0002584503678338201)
(0.002710863933176182 -0.0008636564529805443 0.0001657132171225473)
(-6.452572582788832e-05 -4.771977730459667e-05 6.847565204836483e-05)
(-0.0004337036694732103 0.001776888224650871 -0.000571206538529809)
(-0.002216409977647964 -0.015486147009823 -0.00129907223356255)
(-0.001028900407819888 -0.01290101255206652 -0.002164559777254906)
(-0.0003808430340425476 0.0007596750779016233 0.0004793146311787698)
(0.001251632583796676 -0.0002677257032742522 -0.0008348636381662981)
(0.0005085204813231523 0.003980384853346884 -0.0009739199447215389)
(0.0001722232557206319 -0.00147231376569558 0.003014653218461394)
(0.001347994190624347 0.0001993659586547143 -9.479138600856319e-06)
(-0.002105199684254852 -0.001248026840642973 0.0009679636607681228)
(-0.000726607205935049 0.0009409605265292837 0.0003513340897594147)
(0.001751424181174413 0.0009450146742062886 0.001052847359330567)
(0.001146681210362623 0.0008579238687114331 -3.120458178432206e-05)
(-0.001998074244152681 0.002752242135576545 -0.0002724628378614082)
(0.0006392292698023071 -0.0007031322661688188 0.006712391001331258)
(-0.0001733088539706689 3.924093936777264e-05 -4.311414266154793e-05)
(-0.0007451691983775726 -0.002338256252900188 -0.003726356064363343)
(-0.003380726108500841 -0.00164457993874428 0.001630788456056479)
(1.286062735654243e-05 0.00217115509340844 -0.001408380878220098)
(-0.004275943391303067 -0.000714738044351484 -0.005221268160043619)
(-0.0002564360751454286 0.0005960287636810426 -0.001422790155925204)
(0.001328142141347731 0.002661819298351829 -0.002036842783422327)
(-0.0005147673447475691 -0.0006842531946480375 0.001101567171844745)
(-0.002916560107443475 0.0003299932582983885 0.003016953335362102)
(-0.0009202778974888909 0.002213097755013049 -0.0006937567696479029)
(-0.0006797205252791021 0.0003909693264857018 0.0003221191564989919)
(-0.0008144156503753477 7.591592709886891e-05 0.0002818702548170195)
(-0.0007490599206862336 0.002160630263317326 -0.00166812012117379)
(-8.869672014174396e-06 -0.0003436082955042683 -0.0002273429910155104)
(5.377797019899167e-05 -0.0002569873108566143 0.0002003096129557321)
(-0.0005011036346935921 0.0003326810418116223 -0.00064833288781299)
(0.001133371955952578 0.0002973684614944859 -0.002310445006684196)
(-8.040088624772964e-06 -8.11050499314914e-06 -4.476528815886441e-05)
(-0.002663878970490228 -0.0002523920602955616 0.0009677359708791191)
(-0.0005377549201937148 -0.0002654500911328802 0.0004923272448162858)
(0.001170100880433778 0.0003374556366958641 0.0002147477500938945)
(0.001362437894926749 0.002041116878785787 -0.00135734742215382)
(0.005889718733112529 -0.0004778673076157784 -0.001265433793352963)
(-0.001931847565749018 0.0003461687257690514 -0.0007428129626189423)
(0.0008041973441748227 -0.003113603808048341 -0.001226955157226857)
(-0.001073571292142549 -0.0006587223531564451 -0.0002829736692770101)
(-0.007039086668016149 -0.003687774634621304 -0.0002975252279867448)
(0.001131502038386035 0.001168295872537308 0.000604442486056768)
(-0.0001439642204788936 1.726312307541423e-05 0.0006318356891613031)
(-0.003240399486127151 0.0008886841607951183 -0.002019592275509884)
(-0.001724589213685223 0.0001954738140511155 -0.000635691588525156)
(-0.001023856484888663 0.002686099266529892 0.000859451801848887)
(-0.002179279192748696 0.0004777330726866883 -0.0007312890753682819)
(-3.724969940082756e-05 -4.468973470600957e-05 4.368072898471041e-05)
(-0.003920099665631751 0.0003899835891204274 0.0009825618552130612)
(0.002439348366776735 0.003053384120000743 -0.0002681438978880237)
(0.0003680811480598156 6.316649305861684e-05 -6.986709012068748e-05)
(0.00285225672421395 -0.002924669333425749 -0.001317391862108883)
(4.936615694385059e-05 1.923004707885935e-05 -6.579110609540864e-06)
(0.0008087757380656457 -6.649012122572108e-05 -0.0002360781955486723)
(-0.0003549381876447621 0.001926541268258034 -0.00182683274228819)
(-0.001337536663107863 0.0004568719067395256 0.001724307851890032)
(-0.0002858181724193818 -0.0003118126940730418 4.088651033222834e-05)
(2.003368796363195e-05 -1.878855632479156e-05 -0.0001360526601151433)
(-0.0007381138838975095 -3.572354644915262e-05 0.0008032174144584963)
(1.901341331035147e-05 1.610155874042902e-05 -0.0002078234065350847)
(0.0004514193415121638 -0.0004517153489770233 -0.001034209748685763)
(0.00143614290926781 -0.002600985942884825 -0.0006375345327038987)
(0.0001340085435062442 -0.0003798953204888565 -6.396768388527838e-05)
(5.261275608179647e-05 -4.277204635663809e-05 4.773044937120109e-05)
(-0.0001739511765838688 -2.712703653661512e-05 -1.123358503913143e-05)
(0.001178698023677737 -0.0002310537749736326 0.000967541876285841)
(8.057983756457212e-05 -0.003848130572401623 0.00590187047383366)
(-0.0002610290457731968 -3.876562332787433e-05 -0.0001054975304411564)
(0.007071477190814112 0.0102172761921823 0.01708127646747295)
(-0.000468046662074551 0.000866291345876035 -0.0005596686176827079)
(0.000425672584323401 0.00477989848016698 0.002104012018955257)
(-5.800681960718629e-05 0.0001120806879971518 -4.564028307684483e-06)
(-0.0001350470826148041 0.0002180334009375139 3.021899624437059e-05)
(0.0003064634301962354 -9.123183732653324e-05 0.0006333019718565503)
(0.0002037479070284923 -0.0001004601716060082 -7.237111538319049e-05)
(-0.002290281605881849 0.0002768386252053009 0.001208586191190818)
(0.002281335259407745 0.0004727965613891088 -0.004489324041586976)
(-0.0003352267493908238 -0.0001441541899766524 0.00039722137577954)
(5.100509643647612e-05 -2.79239958340023e-06 1.610571446934004e-05)
(-0.003984490455174209 -0.01082644810530365 0.01582360199346292)
(-0.0007707498481190577 0.00162979332777806 0.001655575927670061)
(-0.004758490824266539 0.001390096233625808 -0.0004099610953057289)
(0.0004387730972084451 -0.0002921231083294889 0.0006698061821905888)
(0.005479786479376332 0.0005967420137921086 -0.001966015036782153)
(8.145862895885369e-05 -8.943915025571032e-05 0.0004126940568240702)
(0.003859417912146969 0.002263802393836323 0.000553078692481023)
(0.001536683767937041 9.923404427482764e-05 -0.000443984423281406)
(0.001032560350868483 0.0008046368023181843 -0.000676443428416955)
(-0.00290502471050052 0.0003875740469519895 0.0002681520044210242)
(-0.002912908029098977 -0.0005092224585902527 0.002145261797843401)
(-0.001752716670353554 0.005443186633240846 0.0003971214039149804)
(0.0009405330006016715 -0.0001451942118957695 0.0002158055334052071)
(0.002235156914110888 0.0003462624693888974 -0.0006737196037596244)
(-0.0001230936458727984 -7.228471978646284e-05 0.0001033481777472687)
(0.0009993533851162452 0.0001657618627346819 -1.758076152675339e-05)
(-0.0001904415722533579 0.007357656389917908 -0.001673635222673231)
(0.004363795236708807 0.0001666912060357677 -0.0006051360589586742)
(0.0002425250939231096 0.0001029123961066281 0.0002543950406961005)
(-0.0001879584062520399 3.390908492471943e-05 0.002450720574677307)
(0.0004656367761767292 0.0006224685188944205 0.001641785150254283)
(-0.005211048098796641 0.001439953139606959 0.00240725771478664)
(-0.0005549942278318257 -0.001438793721184306 -0.0008086226282346282)
(0.0004559845961355049 0.000742240430188658 0.0002394151904348528)
(0.005517731565868276 0.0001648107688676567 0.002426747677701009)
(0.00016663840235522 -7.758323601731988e-05 0.0001191137054410295)
(0.0008843115080674514 -9.418690346010898e-05 0.0007084569925390066)
(-0.0001415775498502555 -9.33102477005322e-05 -8.388291876520044e-05)
(-0.0001688959355388667 0.000186699110621 -5.945590781347672e-05)
(-0.0009859737755248386 0.001005650361866618 -0.001003970457620626)
(0.0002138972049698504 -2.98482721632145e-06 7.087435736471104e-05)
(8.347228323188096e-05 4.783411124907206e-05 1.354810604204483e-05)
(-4.05839909405861e-05 4.993755595137492e-06 -4.588112295319866e-05)
(7.397534912694508e-05 5.759845821051878e-05 -0.0001545610937166924)
(0.0003934082970330176 -0.002305007366016855 -4.936655527930018e-05)
(-0.0006800795190141112 9.856097608010692e-06 -0.0002152655425763462)
(0.001391340665562506 -6.820523764227679e-05 0.003251504220118915)
(0.0004966977874374471 -5.575860194425946e-05 -0.0005624033836613826)
(1.427832266787338e-05 -3.758910429975866e-05 -6.599329618223225e-05)
(-7.770024937395031e-05 5.793462827352377e-05 2.79434557078084e-06)
(0.0006443917426896143 -0.0005164261811815 -1.381339869832839e-05)
(-3.546688601916529e-05 -0.0008357063392588377 0.000220033492284368)
(0.0002669534643130196 1.413213946287664e-05 -0.00040221096495809)
(-2.606352073483326e-05 3.032144657755178e-05 4.442473052615203e-06)
(-0.002933090140348346 8.000914317699413e-05 0.002329229213279648)
(9.129148567754628e-05 -5.848252375775025e-05 0.0001078813114058891)
(-0.004199189887210922 -8.781592457819689e-05 7.731941943910541e-05)
(-8.476262798753887e-06 -3.044726516190827e-05 -0.0001190770287565077)
(-0.00217815668564114 -0.0007336881012901908 2.071183592674923e-05)
(-0.0007038521101097241 -0.0009175830706052558 0.001812950017882566)
(-0.002040487505761658 -2.596635712677551e-05 0.001360674575013248)
(-3.013928407530808e-05 6.88537838660725e-06 -8.448563400612264e-05)
(-0.02391955664540305 0.01736745298342404 -0.02922361878301845)
(0.0001593068644371864 -0.0001278292201363505 0.0005920632613903491)
(0.01467943086972755 0.001112308797093081 -0.002252461495575858)
(0.001433816291306997 0.000474675178819362 2.224909578901139e-05)
(6.369361138944259e-05 0.0001198256525725054 4.091997330638362e-05)
(-0.0003037965295085791 0.008425118058010952 -0.001241592109240776)
(0.000117831951254061 -0.0004529912703554406 -0.0002511726520704109)
(-0.0002282251722893171 5.253539158187753e-05 -0.0006299763928025388)
(-0.000496710586945543 -0.0001543890239364237 -0.0007499743865212147)
(-0.0019429215379236 0.001261805307784541 0.0009734427361170004)
(-0.0009790894215744343 -0.0003495842293322669 9.990009462254004e-05)
(0.0003480972521874905 9.442481648532239e-05 -2.170993844728353e-05)
(-0.004032544717664935 0.001249597807258283 -0.0003169401519733973)
(0.002863324635684597 0.003273817263926505 0.0008640003568567805)
(0.0006034661505566306 0.0001081372428106646 -6.865756064578022e-05)
(8.266118362342412e-05 -0.0002554164323799699 -5.41018565178143e-05)
(0.0003184302244702904 -2.339202189395775e-05 -2.208658280466013e-05)
(0.00136032427712835 0.001659020333093626 0.0004105197292493557)
(0.0008287216266039712 -0.001063740925783401 0.0001877029304395159)
(-1.510095083292308e-06 -1.074886646581916e-05 -1.030903164139622e-05)
(0.0008096407421166109 0.0002454972821012038 -0.001159835233382535)
(0.001793686723217953 -0.0004555634191726162 0.0002432392400249623)
(-0.005508438757921591 -0.003128155786292664 0.0002155655983657623)
(-0.0001444422016136647 -0.0001151538054684549 0.0002560424250267134)
(-9.429849671965151e-05 1.18126999195431e-05 4.33464845533105e-05)
(-0.0001776480715387085 -1.864254078687157e-05 -0.0001576654300748395)
(6.309427528951416e-05 5.895360768570706e-05 1.988991805400746e-05)
(-6.733205954874834e-05 -4.853279450265768e-05 8.262316685175245e-05)
(-0.0005627353132298954 -0.0001886454112509237 -2.549084319919341e-05)
(0.001361159246258667 0.0004306438992738324 -0.0002033596487328557)
(-0.0009945463834092156 9.67209174236606e-05 0.0001400675140476499)
(-0.002949880045909832 -0.002597553047670121 -0.0005590604182822427)
(9.887176569783546e-06 2.923277536611536e-05 -3.716724540139578e-05)
(-0.001419238923684192 -0.0002513743084164896 0.000108572583091803)
(0.0001721009029645007 2.829769428813099e-06 5.253646024528063e-05)
(2.858306823789045e-05 -9.261113966353014e-05 8.919279004476394e-05)
(0.04208317690090849 0.002775835325299472 -0.005609270897891984)
(-7.266262910144944e-05 -2.201306307990414e-05 -7.542163600480341e-06)
(0.0006074249074694824 0.0008440216651974942 -0.0005630703383975134)
(-1.408338004132894e-05 -1.369046633911751e-05 1.708617631837402e-06)
(4.041958728872124e-05 -3.454179382739262e-05 9.117507665620071e-05)
(-0.0001224147585174782 6.295636293978657e-05 -6.70754257420366e-05)
(-0.0002264750408260993 -0.003921141664387839 0.0003183707956664505)
(0.0001017424323365366 0.0001783951631882085 0.0002996989015766335)
(0.0001493026988595841 -9.814903976914444e-05 0.0001151151299101349)
(0.01119243429482469 0.002768632987823656 0.0002904605714372371)
(0.0002235732732425434 -8.540799652535645e-05 6.655476521929924e-05)
(-0.0001002533283676741 7.038261465650361e-05 2.42326121975951e-05)
(-0.0008200935080367772 -0.00154327068273458 0.0005876909444763774)
(-6.269526311114662e-06 -8.883999047385743e-06 -1.429809392365184e-05)
(0.0001804030274699994 8.485915834739518e-05 -4.035905976990307e-05)
(0.0001048738095224847 0.0001005625169915924 4.927056202763887e-05)
(-0.005361352169129733 -0.003639837468473856 -9.171825462407279e-05)
(-8.013098167248162e-05 1.925623344051971e-05 -5.585850783419143e-05)
(-3.722115900486174e-05 8.265049659550959e-05 6.288856490632903e-05)
(0.005455228073562249 -0.003090052881540599 -0.002137769450558478)
(-8.59918879628617e-05 -5.197972224622907e-05 0.0001181394892807174)
(-0.004694679413203765 0.004082419456806262 0.002369437461706463)
(3.164294170840913e-05 -0.0001479514784392379 0.000172584741245584)
(0.0008580813716584316 0.00454181101882195 -0.0004939230741065966)
(-0.0007071452205252227 0.0004301388167267794 0.000106313467936783)
(-0.008828495786431814 0.00753071774025669 0.002218878444443869)
(4.151546909981297e-05 6.689624259912577e-05 -5.388326080922307e-05)
(0.005962023297726176 -0.001718395044210258 9.45572826270987e-05)
(-0.0001046845382418923 -7.656752938629887e-06 -8.456013225631461e-05)
(0.003352261364263884 -0.001484154993826328 -0.001610773724189345)
(0.0005819177310269951 -0.0001197687219309377 0.000242883010911128)
(0.004368193105186764 0.004254173284334209 0.003158954868011044)
(0.001141252756702206 -0.0002891984752663892 0.0001411785775077371)
(0.006947029093818174 -0.0004443052044847476 -2.488979299872999e-06)
(2.619193827059309e-05 5.85655132524811e-05 7.458473919192287e-05)
(5.92893924130336e-05 -4.284455277539956e-05 -8.172961359559149e-05)
(-0.001023658793533633 0.0002474416083564252 9.988408337075502e-05)
(-0.002157443265778001 0.000242228527649541 7.448598468213097e-06)
(-0.002680766295901644 0.0004867326051829543 -0.001793449105657637)
(0.0002673390453915605 -0.0001312532329870151 -6.665957208186815e-05)
(-9.919712881542817e-06 -6.239010821998915e-06 2.218265241268203e-05)
(5.870306634066869e-05 3.861185839161065e-05 0.0001234089156923125)
(-1.156908894000771e-05 -1.055274149435113e-05 2.046780984237351e-05)
(0.0005045990336039879 -0.0005127281118398124 -0.000102964982740845)
(0.0001326918766753509 3.342027345737288e-05 -0.0001300657054322089)
(-5.534365080301633e-05 3.846441798381016e-05 2.532594243245688e-05)
(-3.438051607314568e-05 -0.01186062172170624 0.01026319194279936)
(-0.0002012599699149876 0.000141760207959866 -3.105321392453035e-05)
(-0.0001786103957885346 7.578095987566793e-05 -0.0002462368145605385)
(0.0007394872437978073 -0.0001370843255875693 0.0003176892727170812)
(0.001274252408050814 -0.0002344463541323106 0.001387584322705021)
(0.0007684526886521112 -0.0002168966819049019 0.0001902640838133269)
(-0.004503527780491108 0.0001186280521038174 -0.001938320468800248)
(0.001582054639207733 0.0008879031244462051 0.0002358320463470592)
(0.0001253523195940899 0.0003077124705900602 0.0001055214930219984)
(-0.001948824519878999 -0.003133833248290965 0.007908486398096243)
(5.769515183575839e-05 0.0001267897900376409 -6.014681702500814e-05)
(-0.0001628865328860828 0.0002818155265102851 -0.0003409184522567649)
(8.552964947289169e-05 0.0014311455528788 -0.001034043915366899)
(-0.00777598541827258 -0.002551527341068786 0.01019111286985827)
(-0.001389372641289697 -0.0002978695035306007 -0.0001789036989008217)
(6.761685422272062e-05 2.751435284315059e-05 7.192072549894472e-06)
(-7.246861441959979e-06 -4.647550874239917e-06 -0.0001657509286629419)
(-0.0001617654542634974 7.991917813931144e-05 -8.687250356273751e-05)
(-0.001380688576908563 -0.0003195451402853823 -0.0003627556468575472)
(0.001038441889592506 -0.0004505658535918065 -0.0005668635513013413)
(0.0006538993289602977 0.003209932997559657 0.0009351077100929607)
(-0.0002606483036480117 0.001136915724988051 -7.86917457700867e-05)
(2.690864465494484e-06 0.0002040822340959831 0.000296465402547694)
(0.0006250915880205946 0.002227859855669017 -0.002433533585299057)
(-0.0001773021340213986 3.741251651021815e-05 2.873197493374686e-06)
(0.002014704734834612 0.0001370250038653748 -0.0003432264264402694)
(0.0002666494498462326 -0.0005248998359158087 0.0003853838216346098)
(4.179362606587923e-05 -2.058778187696011e-06 6.288291151104878e-06)
(-0.001219058011368449 -0.0001502751259863475 -0.001272081966523283)
(-0.0008253037043069035 0.00314576909482597 -0.004968503246876757)
(-0.003062872728951047 0.0005913139328864805 -0.000869551969403538)
(-0.000857127257926659 0.0008404266657162796 0.000855498370507278)
(0.03740020669692579 0.01538884866222952 -0.01090020285845028)
(0.002001263882091508 -0.002000921381414781 0.001923988647787799)
(-0.0117786816873054 0.001534792543775182 -0.001785504389544424)
(0.003213492486541304 -0.0007425236671065414 0.0004842021624081031)
(-0.0004528189260005429 -0.0001295263115795826 -0.0001339207235562024)
(-4.180975904892948e-05 0.0001850124594999886 0.000152006221366105)
(-0.0005639413619422713 0.0003467449449571095 -0.0004364395706058045)
(0.002181342708781261 0.0001403881522234365 -0.003420864364893695)
(-0.001077774669424611 0.0002043070230314222 -0.000277262179193091)
(-6.08449461141731e-05 0.0001006512570884315 -0.0001180640647318986)
(-0.0009270335206451581 -0.0006162998741832502 -0.001328869154955161)
(-7.962326060916259e-05 1.214293936622942e-06 -5.878883143810877e-05)
(0.0002068113586929285 -0.0001236205884069241 0.0001058974342614753)
(-0.0006462882601421602 9.237188897625987e-05 0.0003579043042232165)
(0.0003786088182241387 -0.0003308753895057629 2.380664025665392e-05)
(0.0005274110939289537 -8.897124458426927e-05 -2.812106376919248e-05)
(-0.0002101604294210895 -2.58644637266304e-06 5.446690056224472e-05)
(-0.0001684882987665897 0.009457274354098105 -0.004791089686095284)
(0.0001681770398670607 -1.41501473820495e-05 -1.74497375022194e-05)
(-0.0001902044549063835 -6.700905100233672e-05 -0.0004033051147153306)
(-0.0001009767403756892 0.0002988230679866804 -6.480890171196391e-05)
(-0.003652843217911778 0.0001573603196291386 -0.0009435491357727963)
(0.001377037977749867 -0.0007526167505435735 -0.0006355057518038523)
(-0.001061262562755873 -0.0003937021082378473 -0.0006630197191317157)
(0.0005299971046342215 -0.0001498020900886528 -9.941631491640747e-05)
(-0.002634310229351141 0.0005527026839871217 -0.0005104541299602522)
(6.799116311213984e-05 2.085205535517053e-05 1.5857039177103e-05)
(0.002870666728720364 0.00245418064296552 -0.001686439308141681)
(-2.972741702376821e-05 1.621488386844635e-05 0.0002886098297143298)
(-4.930687660468311e-05 1.660967888193003e-05 -7.992674510926485e-05)
(7.766179020155244e-05 -1.632432620562177e-05 -3.616336914812114e-05)
(-0.0008403103656879716 0.003259457876009969 0.002472684259724022)
(-0.000329826216622328 -7.0234451193189e-05 -1.97497763446085e-05)
(0.0001853081227071495 -0.0002488579669197129 -0.0001620491317131192)
(-0.0001646612952752723 -3.966455691437827e-05 0.0001180257252806207)
(0.000119748947193935 4.882357540272544e-05 -0.0001825618124172749)
(-4.107713409935087e-06 5.070780762786012e-05 -1.92291720764403e-05)
(0.0001415026522770046 0.0002119582346580666 0.001712879104559516)
(-0.0002219196988390818 -3.166779086407907e-05 -0.0002220964383874775)
(-0.001084941448323486 -0.0004461230963139417 -0.0004271491063264098)
(0.0001047667644236339 0.0001034365293050333 6.234434784994955e-05)
(-2.52464197781761e-05 -1.576576213317614e-05 -2.956088669986484e-06)
(-9.612388492319103e-05 0.00156986067584415 -0.001519721877351224)
(0.0007072338748823815 -5.119385652290688e-05 0.0002974600389831019)
(-0.0009344709287653543 0.0007792575947740396 0.0001713474145409933)
(-0.0001340571920280497 -0.0005327322341266429 0.001898867692881598)
(0.0001725805347153792 -0.0002647725385521251 -0.0005217831389052654)
(0.0001128453069989626 -3.415156189964849e-05 -0.000221606422614584)
(-0.001448750651284405 -0.003764700803947598 -0.0005016134191466868)
(0.0001490290190393028 3.367831142758591e-05 5.976485063020192e-05)
(-0.0001114137428204448 0.000204542885248049 0.000242594403215627)
(-0.0001700872571982335 -3.761604559802996e-05 -2.811622453676066e-05)
(9.797504680865629e-06 -7.952166831236244e-05 -0.0004707003940107474)
(-0.0003009688255557842 8.230048506820795e-05 -2.497953729663109e-05)
(-0.0004115506207565001 -2.966681695209942e-05 0.0002077845757419404)
(-2.160553359175422e-05 0.0001077909762915489 2.6742574573127e-05)
(0.0003489825374363619 -6.249432799614273e-05 -0.0003779591272634965)
(8.402040183573069e-05 -4.376671142345953e-05 -7.274563587430637e-05)
(-1.796261343069752e-05 -0.0007324767105603145 4.250574485347964e-05)
(-1.408613515800823e-05 1.680389267027077e-05 4.257676574081412e-05)
(-0.00017168954938135 -3.590324157465017e-05 -8.609165548399252e-05)
(-6.850077974059068e-05 1.396823630855579e-05 -3.337280195290378e-05)
(0.00221308390559222 -0.002826900366696731 -0.0001250931970475772)
(1.597321425928513e-05 0.0001385708475278112 -6.944738737316623e-05)
(-0.0003160355312605035 6.231462477057487e-05 -1.536126795755201e-05)
(-0.0001292513303915355 -0.0001220126829335996 -0.0001377279504885346)
(-9.648638861764563e-06 0.0002097593235794253 0.0002224200664927972)
(-0.001632675399040534 0.008812737925898291 -0.004097856722915986)
(-0.0001076608189268202 0.0002640524043849996 0.0003403065150050916)
(-7.122141035675154e-06 7.333380479515628e-05 1.212377085251988e-05)
(0.0002656303376855469 0.0006871570628522551 6.343748531636482e-05)
(0.002548152808112039 -0.0003489818822622357 0.0003602263632723198)
(-0.0001064365934565798 -3.927955096150456e-05 -5.033261979253233e-05)
(-0.001398166213435037 -0.0002542894872272125 -0.001109505551376426)
(-0.001341854417021862 0.001219706763730989 -0.000225389093530682)
(0.0001637503824065517 -0.0003272787704905536 -0.0003431026767896828)
(-0.0007812730210911094 -0.001066386583697735 -0.001936752980203605)
(-0.001127452338554778 -0.0004218896590955509 0.0006923099386322382)
(2.827082271771001e-05 -2.486203267420731e-05 0.0005444515312480885)
(0.0001407694366044557 8.719379539785612e-05 1.943564120444798e-05)
(0.0002885517100406339 -0.001405440710991972 -0.0001369542366455296)
(6.256792021781262e-05 4.442544083021319e-05 -0.0001636496980849648)
(-2.758310916773907e-05 5.021529169643161e-06 -2.192497420337782e-05)
(0.0001486845141575845 -0.000165255837887361 5.591175436539619e-05)
(8.729271747701541e-05 -0.001720461484967441 -0.001238184533550696)
(0.0004074551122384786 4.514186041342864e-05 -1.803529281707358e-05)
(-0.006201784997712369 0.004702526548874322 -0.0007454900301153192)
(-3.301891983620419e-05 -5.949610545137901e-05 -9.537866240691848e-05)
(-6.007127622160153e-06 -0.0001808612253891626 0.0001853897370009775)
(0.000798510523140773 -4.44768805648777e-05 -0.0002246357623917709)
(0.0001833407976548177 -0.0006401087550989308 0.0007380357056668285)
(0.0005653671686195374 8.44391130620279e-05 -0.0002555437214971592)
(8.368208316206162e-06 8.270611695284979e-05 0.0001158261181290362)
(0.0003223840566997934 5.283663484400119e-05 -2.230649989157728e-05)
(3.595411177484024e-06 -0.000460600374115614 -0.0005715016940890245)
(7.042572114194501e-05 -3.574070237453254e-05 -0.0001428165139358206)
(-1.531484065008924e-05 0.000277367877382286 -5.373425399625991e-05)
(-5.242341395064929e-06 -1.500124881409563e-05 -3.51632434743537e-05)
(-0.005302148493200144 0.004442353471340714 -0.0008928162506354973)
(0.001098351770714177 -0.003470380713920632 0.0002021787321526487)
(0.0005736632404954457 -0.0002642496185436305 0.0001540685247339783)
(0.00019566113063693 -1.369766015727852e-05 7.405568144550265e-05)
(0.001638355828117653 5.571612759172156e-06 0.0001919917623678552)
(0.0001147610634924804 0.0002758342117534859 -0.000115940336763955)
(0.0004884202908195803 -2.370466186590725e-05 -2.420820746457144e-05)
(0.001226945912106262 0.0003781806628505016 -2.545307352705656e-05)