/*--------------------------------*- C++ -*----------------------------------*\
| =========                 |                                                 |
| \\      /  F ield         | OpenFOAM: The Open Source CFD Toolbox           |
|  \\    /   O peration     | Version:  v1906                                 |
|   \\  /    A nd           | Web:      www.OpenFOAM.com                      |
|    \\/     M anipulation  |                                                 |
\*---------------------------------------------------------------------------*/
FoamFile
{
    version     2.0;
    format      ascii;
    class       volScalarField;
    location    "1.9";
    object      p;
}
// * * * * * * * * * * * * * * * * * * * * * * * * * * * * * * * * * * * * * //

dimensions      [0 2 -2 0 0 0 0];


internalField   nonuniform List<scalar> 
19631
(
0.09430917247074966
0.5628447986247338
0.3776839378513095
0.1227179028272094
0.2979304106771973
-0.4268446833740913
0.2805926439697753
-0.9995711820804675
-0.8106404516096264
0.1800350167178922
0.5313027764392594
-0.1662889970384793
1.415807831131577
0.0529076714207366
-0.06607530262997975
0.2888661549169972
-0.2647089068506877
-1.613199725167763
-0.09519040226048431
-1.006777585618263
0.1828678600894781
-0.1391357302819069
2.873914536205182
0.02976492905728205
-0.1102061099157803
-0.6980040682684328
-0.1193763603784827
-0.3403810747543204
0.08275655340504462
0.3531129768740505
-0.1008154560394998
-0.126308568596465
-0.2237933568543876
0.1853711906969994
1.680527639723326
3.611455785420672
-0.1468667670236032
0.6521422641035348
-0.1743808433077626
-0.4411749941225782
-0.5932760986969385
0.1438405561597931
0.1323504501277715
0.2602093244274901
-1.004813029044023
0.3061143113740991
0.1821832295807964
0.1077669683639552
0.08909124558834712
-0.05220044433305226
-0.01777611139696155
0.1403375359949861
-0.1356066762120703
-0.4491335362038499
0.06873819531789542
-0.3124965936552515
-0.4002586633422984
-0.3346040330784386
-1.196692050199548
0.1973523864736057
0.009778505077156536
-0.5298373717858024
-0.4174445585842676
0.07673357851820993
-0.1258408315584643
-0.2148301561529783
-0.009035521994599139
-0.1573189534414573
0.7188990635707377
0.07131530852676705
0.1477185137438167
3.033213117813637
0.3122560934458906
-0.02695182478326189
-0.2184293274118654
0.2770922707585278
0.2783381759778676
-0.2104552133206486
0.6901616909209703
-1.297540981282258
0.1553142627324348
0.1514105124048366
0.621907194783578
-1.155144494791938
-0.1746597869059507
-0.1633979039470824
-0.1253911788476819
-0.1059362594300692
-0.0872397918374479
0.1340687336333363
-0.3598434335268773
-0.02049055189853008
-0.02803669702165672
-0.1221490644513084
-0.124047292958655
-1.337202022264095
0.2030842011532478
0.2753035136482806
-0.01781465917985575
-0.06345426220260889
-0.04648325414113154
0.3133276998540347
0.3060936983009731
0.1616615974935814
-0.3243941176200913
-1.982902819534285
-0.3418361344530942
-0.07259978921048911
-0.07479355935046172
0.05922506212968128
0.3592149662944866
-0.8375787074813718
-0.2128970877541089
1.160740722082782
0.1103461400312729
-0.6520914524992132
-0.2943684388599071
-0.1009832452471895
-0.6337413470310782
-0.1132638870913253
-0.06037184564559088
-0.1405235514291906
-0.1925654110249512
-0.0999850659612332
-0.1756912212578852
-0.2044438444562667
0.502109616500325
-0.01881316791187023
0.1458563025862113
0.1468975111916861
0.2369670246693637
0.1733606054880917
0.1678191058981561
-0.7401544305552946
0.07654894183936831
-1.158059202926683
-1.063928791725691
-0.1384817558559295
-0.3431777935066165
-0.05745725987261352
-0.4677460568676214
0.04176830342145781
-0.00133033975436251
0.2444053148190443
-0.2425222992401151
-0.6076572943966786
0.04157188513718356
0.1373975466475687
0.2488768945111624
0.03211603845923871
-0.1118140617351776
-0.01824860563148956
-0.0104662563505494
0.01710787070029738
-0.03324327902938973
0.008451929458379654
0.1960621166281575
0.2955479679761175
-0.2553472801348867
0.2183502801374994
0.01019118760515096
0.5053417582561394
0.0004106922455892799
-0.08605752873484047
0.08338588133643193
-0.5056597517605467
-0.1495446621432764
0.2319834389175647
-0.7157654012373024
0.1002605261193551
-0.1100958316745156
-0.10789735042371
-0.4110686023532437
-0.0295232142203028
-0.001062400241808443
-0.0658314191986053
-0.1797767098895809
-0.07289861718535909
-0.07540841895848835
-0.8277601788966075
0.02288135465764877
0.1486605998308639
0.245325923661758
0.8322560251729548
0.08691026964666221
-0.07757850067902421
-0.1180516786214937
-0.08187762260573332
-0.05873811347932646
-0.00898283707858873
0.01038209168163353
-0.1986153818802956
0.2134715010890961
0.1160595525631057
-0.06833997044761876
1.559412009444637
-0.03874950505905932
0.2437444142341171
0.4949322417517877
0.4926113590599198
-0.1282794530265449
-0.09408559589121761
-0.07368136385059487
-0.1762393931011169
-0.04618964560735105
-0.08976709655901932
-0.02355019692971226
-0.004454871826344729
0.1491987320726531
-0.2847985130945788
0.02545752573707698
-0.1039307004732493
1.743169378245354
0.1502468127217303
0.04142487855152118
-1.613596566728138
0.08856468366061614
0.2122406525284544
0.1147992399493881
-0.7698950137149405
-1.280838433237413
0.02004462892637342
0.3997448875068139
0.1866746057909074
0.04909694359692906
0.3847521763103135
0.1778984024234131
0.1231433256550106
-0.559622923503093
0.004921883789184778
0.2543139103220818
-0.9684044044579612
-1.035697840760065
-0.08924579895426364
-0.276763182333838
0.0432680267488224
-2.230476310345559
-0.2461578819730275
-0.3809491097398728
-0.2491207485772122
0.476587967258376
0.01706919023051572
-0.1772226616584104
-1.492837594887375
0.09340735019792701
0.783085428869015
0.1646134029549602
0.1158531822812855
-0.2977226063842394
0.1181215980890361
-0.349663979129777
-1.670307714321351
0.4294444854195414
-0.09206339860237786
0.1503931294399105
1.524663231495139
-0.2852936262721587
-0.1511482047920459
-0.780380583332294
0.3090019904066061
0.3432497703157771
-0.3515759017493399
-0.7041215218796369
-0.2901905092546239
-0.04266593318293108
0.2516770087572365
0.330866101724205
-0.1922535231337155
-0.01186118947074303
0.1358066921146514
-0.5234385209943606
0.2788470338663822
-0.07017223670116433
0.2593553017438044
-0.819594552057721
-0.2647045005259035
0.3169013275901296
0.3421272456215758
-0.0443885555639368
0.2241919987147708
-0.7557325398591
-0.08296524247588651
0.2419624338000213
0.5093374373196163
-0.7392727419452485
-1.086162088139123
-1.198447324630934
0.1204585015622407
0.07975904260219961
-1.097888302427658
0.002858186905757715
0.3109525757431998
0.1672367251296546
1.882742356748233
-0.3628613352874788
0.02300740532538418
-0.0720642673036741
0.2108634446014475
0.4115694543463962
0.2921954025698151
-0.5633742418836728
0.9003721310933254
0.07722079084605082
1.811101831125961
0.8217680044773312
0.0674301672375435
-0.2898011757315718
-0.2765208023824569
0.07669106168587307
0.6276412691730067
0.7728822397029695
0.06811731557208017
0.2378365929148284
0.3283903320850341
0.3446419133359733
-0.3812645994935729
0.01677783190721906
-0.3111234571115858
-0.3680184340158554
0.1780263699498337
-0.239916163881603
-0.3455805628404834
-0.0003470094116452625
-0.1997520422537252
0.3481669709706143
0.2937381769990406
-0.3436641850606892
0.3098153437297188
0.3067746303862194
0.2087740078711401
0.002354795440478056
-0.421137430969781
-0.4500411673309906
-0.1640730264122582
0.7612595853995108
-0.4695968292155615
0.4459900971484743
-0.03212095523330093
0.4598545405792316
0.1785767150823074
2.052612930023178
-0.1638428122575692
0.2336287036356964
-1.086048109209081
0.1930255833627816
0.1946261406783615
-0.3086214679824923
-0.1042471511667841
0.2186554872364959
0.2416431908401555
-0.09442954855917692
0.1642166693311193
-0.6154274590727168
-0.2640417195818036
0.1415037770125083
-0.1520889565495959
0.04645219585759763
-0.4754592620925196
1.560002854506635
-0.6312840723152611
-0.2169685053151729
-0.1786368997644276
-0.8115280746187784
-0.4340125833546528
0.001885942721006125
-0.5576786655866242
0.2330964210609754
-0.1306261465719886
-0.1706450518961485
0.4710754355721658
0.0729431389886656
0.1127112833896491
-0.1561405053423755
-0.5533764887821526
-0.2222862727094883
-5.053560768798155
0.05701586011449415
0.2936635831791598
0.9904886571751035
0.2963561954714274
-1.487431374436703
-0.1568739802158425
-0.0768237199145321
-0.007230185718672734
0.2395320669900693
-0.7185561241071121
-0.8155978661215862
-0.9477686341737265
-0.1867267811213851
0.2116759296950143
0.4062871414818473
0.2157832607354252
0.1628216245753653
0.4451456297924222
0.1090122904753206
0.115458492301801
0.1021968734630595
-0.4668916525013896
0.08880644671168655
-0.2041767267699835
0.5973520099181511
-0.04736248537735735
0.5465812649633962
0.02525650777831617
-0.3117770319050325
0.07169836360260147
0.06729280985266108
-0.01193107463641021
0.2663610064255081
0.06930607540621743
0.3141659483712508
0.8581245337575775
0.4500966853817839
0.5876005442117804
0.3489984875542309
0.1975741677311059
-1.146451395880518
0.5500328291852592
0.2840764972146713
-0.1090080648349656
13.43665393015902
0.1515459641390381
0.2482086949149671
0.04191234299823876
0.08783442801823271
-0.4212689628290844
-0.6791719323307306
0.5700697118075628
-0.2844865793019773
0.06076195798972334
0.2192498657998916
-0.1100320156170264
-0.1432062826888106
0.07480178360658672
-0.8082503126438574
0.1783726450788723
-0.1245873375565897
0.3120594992453558
0.1489972391936598
-0.087881939035883
0.4130306352823584
-0.4175734642470385
-0.1558604036862377
-0.2501304588355951
-0.5980715015173347
0.2289722426674198
-0.7090845855060651
-0.2568963449377117
-0.646236834203796
-0.1041595136363325
0.2964844004665879
-0.5860766238424259
0.007881434026652492
0.008481730374615991
0.1700216722442463
0.2012582299790753
0.1654827193548311
0.07125508407669442
0.5821430265614334
0.06683582386849506
-0.04682235074188353
-0.5302188381245132
-0.4546492318121965
0.3100449434219179
-0.4042389138183209
-0.5946301878957222
-0.05607240648160386
-0.02085994858931835
1.468312851108609
0.3266491803315492
0.212490553047831
-0.1128791211736093
0.2966255680684859
0.04637658907386676
0.3446047295969488
0.07180285122176353
0.3024610764820029
-0.03423874030074478
0.04354486037419117
-1.096231393102775
1.03246633184921
0.9023151992489323
0.1658432331972007
0.5250435590390055
1.178154280821283
-0.09154282627395086
0.3397015012019968
-0.3519738715757563
0.1847344913055778
1.415502631658152
0.2393336974964652
0.1568291141841332
0.4438139476627098
-0.6607877471293718
-0.4397218827681437
-0.1781983484051445
0.1639494265854444
0.05522468805155662
0.2296960685141145
-0.4249369477200302
0.1598479502576195
-0.1277137144893924
0.4915923077153513
0.3972657923840999
0.8303202094668611
0.04848108028424646
0.337009278899788
-1.201370395510926
0.07301947901224896
0.3670640831039994
-0.07790107661414497
0.2547189811622163
0.1889568899846649
0.1525900021780816
0.2317780442820243
0.1258306448806329
-0.1644425756087737
-0.06591186498177366
-0.324794254025605
-0.3369090364308088
0.01333213736107068
0.1529509351101733
-0.1894876571963683
0.2315275079409422
-0.3872804024146413
-1.199120183176853
-0.00869948638489805
-0.5978745449207075
0.3393831719305538
-0.1522388593549589
8.115250820131063
1.634361963659405
2.48032779617547
-0.06881540134662431
-0.011431239757166
-0.361801832739923
-0.1122537977116684
0.3747267676686093
-0.4271446206315839
-0.991596544295881
0.187009531604641
0.2748898535385175
-0.3896727440467208
0.349071365229924
0.2903456628295747
-0.005087675614519242
-0.5602727247569322
-0.3446928559681763
-0.213995112752559
0.3427649056573444
0.2556664269073914
0.06521876163549638
0.04141269659307719
-0.002427635136915701
0.1350111551967563
-0.3215023392646296
-0.06996302545401271
-4.83384779068295
0.1729187109497197
0.7307134964617409
-0.5297529807654011
-0.3590449447562781
-0.5564664520228594
-0.2205123951218142
-0.6770497659492687
-0.9925343896196748
-0.4750132148439961
0.3200032111974759
-0.2103989495255972
-0.04042791752430642
0.1749067045453639
0.009476925187976755
0.1807793340372093
-0.4921375114193658
-0.1251710440618781
0.04731992779988871
0.09171071461040693
-0.6687286836362623
0.3135801478389881
1.723292777221586
0.7631317534411313
0.0627072017870451
-0.2272408533004875
-0.5268335206919662
-0.01574844790618131
0.1457494713905779
1.697889279253491
-0.03646880390232932
0.2870219347718392
-0.3023636962834249
-0.8844933973652984
-0.6279157129248589
-0.2105849378050461
-0.2110717292044626
-0.3899470666392864
0.8049247620768326
-0.7543230461817229
0.2371930080867115
0.1379250072422295
0.2067205441181208
-0.02161320170376263
0.09836565198989482
0.1123841487817011
0.1454452317760885
0.8339923783489732
0.09521805353461588
-0.3156757733269379
-0.255459443727214
-0.7597301695028827
-0.02933973270653336
-1.233932504630714
0.08924407830282605
0.4993793987134308
2.139298072293554
-0.02528502547371629
-0.4717460983385579
-1.11987622559832
0.06673965850184763
0.2956249272461534
0.9176778562748231
0.009774591658187433
0.1088211899522602
0.1999979152700777
1.772331970958797
0.1955858015036652
0.1305624427765461
0.3355791987414348
-0.1861206413257708
-0.3815127128871427
-0.03463368865673123
0.2201962926633891
0.3102114096493686
0.4881713424157983
2.259616584374556
0.07129175357702056
-0.02620408609264075
0.3530258850573049
0.03598572507499169
0.2669091167542989
-0.278802472543198
0.9801857089356445
0.3285972285567209
0.3717351776580298
-0.337263191106606
-0.2822256795198828
-0.8813064183338866
0.4806177258118841
0.6093023954617042
1.53932120739209
0.5990014544091952
-0.810934941735903
-0.09872853644825257
0.1360874736326698
0.7573751840841019
-0.7658885373162631
0.04894622150858671
-0.09603016969452301
-0.4833632602251604
-1.396812307073946
-0.07135401348191825
-0.6758842051485305
0.1379305304338809
-0.3538479844610619
-0.6681374629215752
-0.4257095143587525
-0.01930864567446126
-0.5028720611918051
0.2544401462771516
-0.01084164308356086
-0.7661748785361818
-0.2123777414729224
-0.07168159074809761
-0.4366622218545386
-0.02334636805032287
1.191924982337546
-0.1835725346884275
-0.2200148252642093
-0.2865184725686126
-0.01332413442199364
-0.3876481639772725
0.1737949481552708
-0.1962868214894898
-0.6991334528779796
-0.6070746269494997
-0.3616958771526268
-0.4398885813297859
0.1717889610255461
0.1334864066039198
0.1298663225921139
0.07612900202257171
0.09759349753997081
-0.7485527537601121
-0.3395508267274974
-0.0602815291434256
0.3786218862569019
-0.003905057006318794
-0.2108424921424515
-0.4937627205297234
-0.1869041752040286
-0.1861312818635315
-0.04499226744651533
-0.2965487581226652
0.4688676309385274
0.1156124032444087
-1.002705744439257
-0.03778112723564232
0.4178743660768326
-0.2984071024116077
-0.6127013058661327
0.0976708464260831
-0.2794003440095894
-0.2046491079390097
-0.4506390032514181
-0.08075060741795326
-0.7372776909005345
-0.8069534816517292
-0.6319244557200675
-0.6034333797361972
0.002223568616782566
-0.1375952706695033
-0.3512702785573519
-0.163587892363198
0.0228717112837052
0.1834726812095487
-0.13649781094166
-0.3560723717862299
0.08159780325250725
-1.480186311335556
-0.2167805981577056
-0.615289579832824
1.064430643113737
-0.6330153924029464
-0.5073341206596605
-0.1341261467395689
-0.05010041317054162
-0.2682451255849391
-0.266662222729563
0.2388376339948023
-0.1449008902201716
0.07565786049588327
-0.1477461508934767
0.05376394481064276
0.1525385095360008
-0.0001225599287506735
-0.1957290427520429
-0.2043940051746245
-0.4727178610338429
-0.2293757228882975
-0.302018451582887
-0.519113763179911
0.4171801189934825
-0.3832869071444034
-0.3303714325384527
-0.2180051620005709
0.231764459734421
0.239377299230438
-0.2688691805130667
-0.3997075205048096
-0.5356976997472098
-0.8110921074575885
-0.3200997030308048
-0.02515018924830687
-0.2779971103478536
-0.5350223557190515
-0.7727304184262818
0.5178205885685452
0.06751745895000733
-0.1025288831203296
-0.3768199469514271
-1.116798671968662
0.3053410078724432
0.108001780743775
0.3799251799039821
-0.9086937359056033
-0.1686707545495476
-0.2725520990561113
-0.3276052464033451
-0.002450813692123824
-0.328092927045872
-0.1912691437807084
-0.1458228672276643
-0.1745225705457499
-0.7474186272691307
-0.5471173552306574
0.4440035800293707
-0.5625377807628503
0.4763720000795734
0.2620582744667212
-0.1074480215339648
0.1001961104874506
-0.414673357654908
-0.06056925054071594
-0.4917550455460421
-0.09644259569851091
-0.1428218474125437
-0.4535314553793459
0.08579470496421013
-0.2446065066352664
-0.7585172091590066
-0.4569229148594345
-0.3777399869501624
-0.0242944097005054
-0.114505139790856
-0.4284900614332143
-0.153602756170851
1.529706722578558
0.1111213182686712
0.3974666577925711
-0.05275042706697697
-0.0806314567852057
0.007456400554206008
0.3717796988998014
-0.4618975221969163
0.7407117456644414
0.01797546490805191
-0.01220729805222892
-2.728449517532753
-0.635416669567465
-0.4243350906135923
-0.85602587956696
0.1020581973184249
-0.3945474472760463
0.66386539416887
0.8187750911682207
-0.4724201572185716
-0.2156143554864895
-0.1544091017868607
0.3586968199752018
-0.1895369682191564
-0.1329703622965888
0.4344191339123162
-0.09706645820404447
0.09170159141069958
0.2283949490384334
0.2769639537286493
0.2719133871239316
0.2079736989012459
0.04538991173117778
-0.229836688994636
0.07544907723419379
0.8715313766962528
-0.4470804626842437
-0.2670726752213901
-0.2637857326925483
-0.5344308569234421
-0.4794348075729207
-0.009398187058158572
0.4508300743569448
-0.3340968019248341
-0.2598239967348104
0.06053956087575037
-0.2353830216362641
0.1435438890081756
-0.7525475382788903
-0.3930625688231659
0.2226358472768745
-0.216108884726111
0.524637502252464
-0.2153131810146218
-0.4819738717907141
0.01129280006633118
0.05853412341983102
-0.05310051775487221
-0.7478032251542325
0.03883833697327781
-0.8849740372111716
0.0113947245819748
-0.7736952303385376
0.4874399561486694
0.2888130127372065
-0.575569003032705
-0.1745643253725357
0.312056721644173
-0.3927000779079816
-0.4302697261495352
-0.02098521787731014
-0.3364754281142103
0.3261982700162384
-0.4577638128665306
0.9893865979285478
0.3482221004402214
0.5467162572130377
-0.5152850003548505
-0.7394032891889913
-0.5545088702564365
0.7072254357549357
0.03515819712956741
-0.274611151430006
-0.5935706346913305
0.8599779006183088
0.03756591144846812
0.04402931598309554
-0.1720994555466339
0.03552569769078086
-0.2762582041077338
-0.2235978837618209
0.0329041002197083
-0.411157108153889
-0.8314142622211982
0.5378295834039648
-0.2527853708317357
-0.3949096329438953
0.1093162283438371
-0.2681155266811495
0.1927686949665101
-0.4568653575037243
0.06363718902930329
-0.3389155300868039
0.01264894538297129
-0.1556213735736229
0.5907248720966379
0.07180857325010266
-1.070582864520967
0.2656544342105225
-0.3087962299186664
-0.004794006672224344
0.1019869597691975
0.05542270527997852
-1.080933786556928
1.209160872522867
-0.3731386496734606
-0.6818088332326693
-0.7251583404835231
0.388053943028324
1.7002849429873
-0.3588016877413804
-1.661900203379831
0.2339458035111255
-0.3203926342996207
-0.1971162874843468
0.1812706957628999
0.0005412408688002804
0.3035770916934873
1.377826727757999
0.4643310439379724
0.0313679479501682
0.1950953022757787
0.2569986366717444
0.06276299006414719
-0.07722404756495997
-0.1003546401851131
0.1341875813410953
0.1447729897680781
-0.2912520804760226
0.1308076541318239
0.1694092079220455
0.8522357303152593
-0.9069579414278747
0.151090803727993
-0.6357703872254131
13.45339711673951
0.1221607512840191
0.1572976207773522
0.806728202955611
-0.4314187765270119
0.7085251573906051
-0.04748089986435185
0.992486642680887
-0.1524743232622346
-0.1554878680150469
-0.1855668437770554
-1.095175217035965
0.01782172176538658
0.006750310729222523
0.4854827811299107
-0.2509872456750019
-0.8178139765762822
0.8071600925640877
0.1361322594475516
0.3282642278455261
0.4179716488993988
0.4273710742323604
-0.4331332876320083
-0.3055545109641863
-0.1014496521937269
-0.4501282351784798
0.6775790928172244
-1.349037546450758
-0.1778666730623714
0.1149000573348811
-1.420046641430162
0.1462435620171673
0.07631099425686928
-0.05001334522094222
-1.217724640473234
-0.6285126145135589
-1.872659594547547
-0.05885961252078069
0.02721581564064576
0.5626342886561844
-1.41675232936027
-0.03888611880777265
-0.2246103420578625
-0.9058227342233989
0.04993330369465426
-0.2192190274379882
0.07326848827575287
0.2873679628342491
-0.6474124375495359
0.001964906564872302
0.2096547466536594
0.1255259689704377
0.06912654913924934
-0.4815558299480358
-0.07073361076043139
-0.03661626530555681
0.224882318863373
-0.3030486254527312
-0.3030763197413333
0.2439042277678528
0.1771055555025427
0.1368133461761933
0.1982861258777446
0.2168227598804469
0.2412784556163127
0.1950311838525525
-0.2038870848060592
0.335880474485799
-0.4790984113894289
-1.028088342716354
-0.07508123845560166
0.01153005250730012
-0.01628896437979456
0.47376887103121
-1.418252797137439
-0.5014852683753724
-0.4200431760215462
-0.4696481314829025
-0.540101699629588
1.712644865513176
-0.4182705940027132
-0.6506077224694137
1.841338856345898
-0.6349921388018843
0.2273102356693223
-0.5642855647850556
0.0006786772598859367
0.1560745227658187
0.1311806633784393
1.062891214579118
0.3382513344562233
0.3215135203294268
0.6635671616205759
-0.2611390340047713
-0.3602220658017777
-0.4488932663993696
-0.6143530266676513
-0.6552422344641432
-0.7241992247507897
0.1569708049553267
0.7236350515773682
0.1550755731500247
0.4823989220059381
0.5114906069677915
-0.1995171909602156
-0.9136476356255049
-0.3793370313346536
0.4128337826842413
-0.2554013897527712
-0.03003631144134237
0.219238411982209
-0.4465119838476038
0.9028150014296967
-0.4827077977907838
1.859901529532128
0.1540484978203865
1.236376967348972
0.9645417284089521
0.06524239587696842
0.1663156938145813
0.01129892712382025
4.221254736814418
1.598594711278566
-0.3883735427986171
3.730806269692171
3.622671526123515
3.17808780398061
1.041403174561959
0.03591009519787212
0.6724521204421785
-0.5477560887934264
2.688819976382375
0.1012895277839927
2.945714241951946
-0.06303737428020947
0.08522944130718255
0.1031684599101872
0.09140202091085832
0.05875063793054205
0.2167953867114251
0.1502975307041181
0.1786305250467846
0.2313285505539733
0.2266631119040429
0.4542533012269374
0.1208245569506687
3.06381770905027
-0.3343561030376437
2.054308978701464
0.1923514070332762
2.900354647946069
0.4063181743946885
-0.3643841085863502
0.7874275200812094
-1.139604578794074
-0.8000500794347467
-1.441700843378101
0.6019048979637764
0.3405201241140781
-0.2376790597681068
0.8579496509633936
0.5101497849969209
-0.6250799502012907
0.1652052847968241
-0.3800303444466597
-6.611323703905422
0.09740192724273615
-0.0230891522043117
0.4499464409021497
0.1559153822189927
-0.4480776544603867
0.2788575630704184
-0.9531142818460806
-0.03144310518627136
-0.312556470615308
-0.4249919777966344
-0.7015741760342379
-0.1259371666364622
0.4457573589491607
0.3699877323428169
0.1977699414554845
-0.6489373000301172
0.3075470702487542
-0.5480512274988654
0.1864063079626115
0.03699694512926989
-0.7215748832856255
0.05946656523352316
1.057837533492314
0.2631489449436857
0.09094851185385876
0.5483680697024292
0.9118701558629954
0.2888831643549926
-0.3296053796660059
-0.263935048082394
0.4121994041169882
0.8608047276392401
-0.7045467614302672
0.2049189959392224
1.035684707269932
0.1877145173832113
0.7755923436323167
0.2088538379917478
0.1515775455894063
0.5749243983345669
0.003306231203301536
0.25449779712439
-0.02939748751917238
0.394487723766198
-0.5927674291033543
-0.699778116790914
0.6111521060535442
0.3057446980192191
-0.02331415837740734
0.01944148824619577
-0.8057450175161556
0.09586186134669801
0.1880129486419314
0.2912704952634249
0.2980347783207293
-0.3780640388041921
0.09469582937629469
0.2508705094732211
0.2663598739557571
0.211566457624021
0.2821939508980796
0.5222380111963589
-0.4488528412682117
-0.1685204657929187
-0.04215311374309479
-0.2080959002231489
-0.28136146566119
-0.374553874669749
-0.08706854933128429
-0.384973564623998
0.1743221843038639
-0.05647262834410185
0.3624720461751478
0.01612837470125073
-0.3942278398260919
-0.5507188009092954
-0.3872399612925868
0.1167616488465949
2.430033612204209
-0.8412367430980768
-0.2832961189906979
-0.339932817110883
0.01269633877490182
0.1542865393551984
0.05530537571166171
-0.3029620341029661
-0.05900235724525971
-0.3917362448448265
0.3814959569164327
1.329783403480009
0.244568736919088
0.3105048749790448
0.07778168212432392
-0.2219197280520114
0.1506437125126533
0.1745641461085619
0.1870382018329214
-1.109717304676441
0.1821173477716133
0.2378539913447543
0.6922370971672156
-0.1592001393456025
-0.05903014652314071
-0.7543604643102115
-0.1359221695788802
0.1582556743412358
0.3450171901065315
1.886541310026913
0.4717019760781481
-0.0520227426959294
0.07613036702818141
1.169677894628227
-0.2416157567571608
0.2747720265819684
0.3243272303908549
0.1433549159820287
0.1571223467754561
0.1399955966339309
-0.5562389242824606
-0.1810496339481996
-0.52694127542938
0.4118442195908704
3.076653349295981
0.2595958791916353
0.4432342573678971
1.974043376223102
2.962899109515731
0.1630944461911271
0.6749110898060731
0.7357654493385288
0.01780333038542684
0.2628647153728348
0.1104721090909961
0.05003459729944514
0.01335888937870429
0.2729179835383004
-0.5585326267568493
0.06706774419724956
5.707524366134515
0.1615976234995696
0.1271153967154023
-0.5334760139720152
-0.549104166756046
0.3709334094471383
0.0726804302652469
-0.09423556840118244
7.599677825757051
1.330470900050635
0.2269428871647944
0.1474430393880966
-0.1732526881059168
0.4883615817399224
0.3132202448777409
0.1741822940497772
1.033041563673228
-0.03415812738924406
0.7308435447920262
0.3348560647035612
4.158985984252287
0.2908347143609918
0.8187919382418493
-0.02991736950520932
0.2443714047348319
-1.233676965870344
0.1021397850960341
-0.01311339871993786
0.4031335331522282
-0.1276891132691497
0.42635349734351
0.24603805981529
0.177855794661037
0.8124043192892481
-1.655970062428625
-0.01221020307199466
-0.01250094272966677
0.1064953085925981
-1.235846579891769
0.2468568550178168
0.1089429819532393
-1.087842601474977
-0.6745859367291173
1.124969196737602
0.394919702315007
0.4337444347337394
-0.5656059854234666
0.3770344000832957
0.268822390297651
-0.1779203806868225
0.4066178296786186
0.406429240624642
-0.3007604466228639
0.2992379182301527
2.657908068988939
-0.05967414597064654
-0.2797911042090315
-0.5504351436374142
-0.3175906046562863
0.5334039883220915
-1.143788765214851
3.76408889633981
-0.5648739714518122
0.06981179368070402
0.06341120315039327
-0.04014197019717314
-0.007399691209707602
0.1478752850438051
-0.01935632692281415
0.7020664624209317
-0.5578621422898399
0.02771900476871413
-0.02399525614089723
1.084057362902793
0.1694116550902455
0.1148439419378504
0.05153856544146277
0.1306802143209271
0.2914218476640463
0.01620522461787636
0.02262815383218244
0.3500702794073567
0.347914798366488
0.3163172611389262
0.1407429969437136
0.07564633995009611
0.1959790125330151
1.384494719771587
0.2804346548043063
-0.2000848320376492
-0.2806250135132748
-0.0197893134633212
-0.5024851913703077
-0.1153593092241176
0.08817921401399402
-0.3694233555304523
-0.2189350561151067
0.001918910378338732
0.2285159570520069
-0.02968113130571983
0.1019518079397917
0.1322494943234709
-0.01932480013029297
0.4569968558862876
0.1719167496753945
-2.451920208863469
0.4224642887073639
0.1524325777601811
-0.07725938889106103
0.1292735338062498
-0.2210644752422736
-0.2627080156901404
0.4884720774329196
-0.04626478489574664
-0.3504284257060467
0.09703194882870993
-0.06325330403992643
0.008443882610045521
0.2040910093872241
0.313420416935619
-0.3183147680799251
-0.7579000506052536
-0.4670948329487621
0.07832673218665562
0.2235835072014067
0.5104038699605249
-0.3887127760967941
0.06661319979861974
0.0107170601268093
0.2624892109644355
-0.06944900342865029
-0.09334938820574951
0.2765614000959443
0.1864747236690728
-0.1697726905409074
0.1125683826643542
-0.1326342382980639
-0.1703199701485648
-0.01479101222249055
0.5812691107688787
-0.2031434434458228
0.1630305679193811
0.1912394971088891
0.1814982630100401
0.02029672807931108
-0.4376994862324995
0.5394786624090657
0.08795394829556143
0.1814473448541219
-0.02924531387998042
-0.09102103757305927
0.1336219703200561
-0.04697713416148258
0.1951479303798595
0.2638206075526921
0.380332605861457
-0.2098349649745768
0.3131976976265153
-0.2538369943025857
0.4272810288401239
0.2550402788392222
-0.09541274479170224
0.1255161338755382
0.1760814548927692
0.1931549186695311
0.06687429408992392
0.1794874776193304
0.00847621442450271
0.2423176255643298
-1.398632644086344
0.1269594282254448
0.4543655079963518
0.1955032662149666
-2.017480520074785
0.2008110733150421
-0.1185277181396382
0.4093208053411892
0.1467129517006093
0.1299090984768497
-0.3030089860795883
-0.2413400548635667
-0.3021771740348091
0.138617544725482
0.1429282893707056
0.06004650959514045
-0.5593836182363345
-0.3722234636381517
-0.2200540259580607
0.1532826632272714
-0.3088195491404541
0.1495739848568848
0.1876132432124281
0.1214216645764244
0.1731797442820927
-0.5220539047963526
-0.726051563149498
0.06016808986307763
-0.4336452612822726
0.4529167245632677
-0.002796937133003009
-0.2668518270902293
0.3589666238387719
0.005966161393486406
0.2059458102562598
0.8567291742372803
-0.07425987343420698
0.5940544860176152
0.183996699514636
-0.081108866045077
0.3967437356605157
1.850685443443644
0.3883320120823052
0.1152393261570357
-0.5799476452616769
0.1213635578425147
0.2831587795377801
0.0970311332782002
0.06245049868696059
0.03171281372482149
0.09720261622487354
0.01666191628045045
1.34253647630269
-0.006183061502042226
-0.1040250664264624
0.282003257691958
0.172045352670129
-0.1729903377584135
0.1532844154071511
-0.08853886636328082
-0.4495364835344871
-0.3981173005340423
0.583130029033231
0.7395726404532893
0.3104625769519767
0.188085189947812
-0.9470187161029415
-2.081948959442001