/*--------------------------------*- C++ -*----------------------------------*\
| =========                 |                                                 |
| \\      /  F ield         | OpenFOAM: The Open Source CFD Toolbox           |
|  \\    /   O peration     | Version:  v1906                                 |
|   \\  /    A nd           | Web:      www.OpenFOAM.com                      |
|    \\/     M anipulation  |                                                 |
\*---------------------------------------------------------------------------*/
FoamFile
{
    version     2.0;
    format      ascii;
    class       volVectorField;
    location    "1.9";
    object      U;
}
// * * * * * * * * * * * * * * * * * * * * * * * * * * * * * * * * * * * * * //

dimensions      [0 1 -1 0 0 0 0];


internalField   nonuniform List<vector> 
19631
(
(5.039273983931248 0.04696987571566974 0.07339415515466313)
(4.916251632294713 -0.01138019497652557 0.02021060888673719)
(4.969396299043424 -0.001920813485163891 -0.03773309172536653)
(3.128024715452091 -0.6159747873839889 0.1849493288689924)
(4.99027748798007 0.2135173339046422 -0.2326698699492614)
(5.00910841269591 -0.04976009852203129 -0.2162303378668772)
(4.991968901370305 -0.01959028562900209 -0.01184089325415271)
(1.661899809251079 -0.07648565526611753 0.07382303589283827)
(3.688868588136338 0.1903504784210245 0.1541072684136702)
(5.016134588275701 0.03602158380418676 0.03378059434637753)
(4.894213562005866 -0.01394836001614776 -0.05632211803745078)
(5.015112590470528 -0.1219739091686033 0.06206404682332325)
(4.378625944060289 -0.748181882627644 0.008169002185787902)
(4.964922923680834 -0.08342010554982882 0.02116689756992381)
(4.99471187860001 0.01603643642189714 0.01102074986669926)
(4.934359624738756 0.2459442158773452 0.1769213712574099)
(4.96089976170579 -0.1143409790955887 0.1991734054333525)
(4.451448800511766 0.2619012176028969 0.7371237478439872)
(4.363896986236093 0.409586225953587 0.1880590269594227)
(3.856022386698219 -0.2046229018352619 0.02735714161501019)
(5.023963601845027 0.09087884794290212 0.03691555279075474)
(5.076620920510109 -0.03357167670417816 0.09037084199396417)
(4.431997994546031 0.1683161168621594 0.2184846544560912)
(4.96013529114472 0.02872449677508228 -0.01302699895270738)
(5.096338044830008 -0.121160349312585 0.2745024506118423)
(4.989069681314385 0.1103539175987851 -0.03628721713852703)
(4.881378929391821 -0.2409386204669335 0.5988883302459802)
(3.528410427855688 -0.05206340309881563 0.3291578186008244)
(5.046720668532922 0.1752435390208368 0.1526151041405757)
(4.983760462062969 0.01014149592921216 -0.02903225362037926)
(5.063058578413789 -0.03001918590860712 0.06017877970011433)
(5.063945578791764 -0.05516794947407513 0.08720114755542378)
(4.955290563066959 0.03415263377968952 -0.03213652848012957)
(5.019707620959827 0.05911892470878118 0.02491518037070942)
(4.320985458743089 0.3445875697114597 0.0589359104761157)
(4.382232713267578 -0.04477575871153729 -0.5857845103286875)
(4.948163875109027 0.05250469692210502 0.05363852626419917)
(4.90187727697732 1.06190226047304 -0.5049443525809545)
(5.099092920170606 0.0115319719183043 0.047689236792699)
(5.260615126205461 0.3257557268779133 0.02519653549734411)
(4.720807331425562 -0.07725373524030747 0.07305368479217067)
(5.034944930743046 0.04705223054946867 0.0392529074337452)
(4.994862538316434 -0.008419816081331957 0.02488070740061074)
(4.982469554880695 0.06511673292329213 0.06631817326413456)
(3.540364591093318 -0.1188845754390228 -1.198388170720055)
(4.411692154275004 0.1112965665195718 0.02200412717176133)
(4.976806965348242 0.006341729244498516 0.002347883708715533)
(5.183521746475342 0.04568775099410548 0.1232113086288153)
(5.039628324714692 0.05658004095689608 0.05945845599903157)
(5.083225045044863 -0.1117938474777191 0.226438837187865)
(4.64730290160161 0.361862368002153 -0.2368549710820887)
(4.73779658752219 -0.5104010762941156 0.09580503070519891)
(5.088252405507275 -0.05835263104259544 0.1593131613985274)
(4.195785044103518 -0.3906934251765195 0.2965566851943551)
(4.960886235125096 0.1233477630216988 -0.02513592459463444)
(4.780629133859784 0.3197647826110612 0.405339768382493)
(4.967535129899094 -0.1656916350157709 0.1709237167315505)
(4.929091743720817 -0.2113343903837758 0.1088127931916826)
(3.567162878470768 0.09385105835054332 -0.120236903210536)
(4.997024040197838 0.008055160836440511 0.01469065196874049)
(5.03544104284292 -0.03096233519183409 0.0122252538970615)
(2.220686846807305 -0.0405512927269396 -0.04914414146121032)
(3.229607287139048 -0.1190631018131002 -0.2053190567441176)
(5.056327540065621 0.1324825144354059 -0.001808379278395093)
(5.072768133881162 -0.02678281157384601 0.06945640036559142)
(3.459545904294778 -0.4433294506356067 -0.1394982798319993)
(5.055149108330343 0.01216956267841579 0.07522797090632302)
(5.079162504781243 -0.02406420992328489 0.162839548380191)
(4.976742414832388 0.1286074518379124 -0.03928200022681003)
(5.025148525809596 0.03211480873763875 0.04092975426440238)
(5.010184624746957 -0.0004700233847943145 -0.001641546656419151)
(4.07652497252729 0.693178518282674 -0.5116348760896088)
(4.987100721880839 0.03775826286283081 -0.04916813068570034)
(5.043992569687995 -0.01724641417555445 0.06674063765059952)
(5.101325452185518 -0.007525125579322068 0.1321854857290758)
(4.910357769940077 0.1933610537047901 -0.06276966689770599)
(4.996158588535931 0.0192000425491211 -0.0659044247862428)
(4.913145867514379 0.1824521127452083 0.1925013924923732)
(4.652904945964184 -0.02089077007215431 0.4401793380262655)
(0.7221186595993178 -0.1180314046091198 0.1949943053164319)
(4.991858420506686 0.07124505144872205 0.02552391876972008)
(5.130310694198419 0.002664546219766661 0.1814154446609018)
(4.890156988161156 0.1556620490964263 0.06377260181967617)
(4.772576701909225 -0.06250871959723593 0.3723098893152934)
(1.447047045141805 0.09543978081626216 0.01686670483099905)
(2.327846266433828 -0.173481343211979 -0.5928532884193237)
(5.08068413525016 -0.08860405991143416 0.1555992906777148)
(4.896344506402901 0.1047041344926638 -0.1143430548889489)
(1.663291171453845 -0.04810573856408865 -0.02727768299307327)
(5.034856320773776 0.05275542682692327 0.04438554081860904)
(2.230491389309569 0.1219314341001097 0.1811671438382706)
(5.063001448863717 -0.02531655214559368 0.08091207458716199)
(5.052844509899639 -0.039460051550859 0.06755786409642779)
(5.072048215080445 -0.02966051497742092 0.03565545702763297)
(4.891528162873094 0.06440776870519679 0.1003493589316985)
(2.68502045528851 0.01917494556002735 0.1203238667498175)
(5.016823106904122 0.07996288547702293 -0.04190782747262464)
(2.434481910621324 -0.1384334017867564 -0.1099785160193613)
(4.985734148956523 -0.09197478554846555 0.03122107341607166)
(5.039703296436991 0.09421427918216889 0.2447185274249099)
(5.054507151848508 -0.03593986200770332 0.06490508037207712)
(3.077884119448107 -0.2113469057405895 -0.6467432812931342)
(3.618082626392429 -0.09168638035988448 -0.01725756969534745)
(5.01791269319691 0.0807048207190373 0.03118853940053664)
(3.925518577855104 -0.1338368320382409 -0.07405448961828887)
(4.276461946149267 0.6901523893974388 -0.758737442482425)
(2.948628624684432 0.1144415285849888 0.173719200606152)
(5.071034488105679 0.003000878781487201 0.1055015734660478)
(5.076262377147081 -0.008750833972285793 0.1249563384572828)
(3.403326927015739 0.268574555458495 -0.150069535001275)
(5.019446587722355 0.3134421651702999 0.158323287274844)
(4.881080885480487 0.4059678929726338 -0.1727854640917995)
(5.241551796136505 0.2863197783644154 -0.3487537679939501)
(4.774403834491334 -0.1776725679638764 0.005975762123281889)
(4.934557372767773 -0.1716526369770286 -0.2482657262111711)
(4.910763247164234 -0.1870920781146546 0.1631298754879371)
(2.47678415888247 -0.2324754555991841 0.04915279447515387)
(5.021770519868294 -0.04724518992618095 0.02173046019159257)
(4.799715563947801 -0.04274572735602302 -0.04749619101010149)
(5.060975517426973 -0.03859392387501133 0.04994521097549948)
(5.061802065164803 -0.02454999099780885 0.04054458464040208)
(5.041726104595004 -0.03075670508642195 0.004524594271821393)
(5.027620557652438 -0.02938859650123779 0.01954857647500738)
(3.508057275794729 -0.123548375784397 -0.3021094705631878)
(5.04086459986106 -0.07915242566305394 0.1505242590262903)
(5.068859518751739 0.06100881295832735 0.05466344493904376)
(4.948337278965358 0.1958520938417373 -0.05472185758445908)
(4.985820359192402 -0.09897832159614339 -0.001943861066646401)
(5.014648300823676 0.03178171282474141 0.02414562925140933)
(4.39153696225092 0.06922552886112499 -0.02887589928933868)
(5.040176996209305 0.002642550099921385 0.01982278179545952)
(5.022846845731205 0.06881559547030877 0.01948056035467262)
(5.083068331450357 0.1382252753277441 -0.1881019056621868)
(2.5026476205166 -0.0449236394149254 0.08240408939017557)
(5.039793339933639 0.1279238050921209 -0.05304425323642645)
(3.966240567148895 0.9016021363099804 0.7943138308817945)
(3.61043099534443 0.2157768936360667 -0.03775446671289849)
(4.964591262139353 -0.09580658195968883 0.05364476340965697)
(2.16137443045805 -0.1562110240715211 -0.223843531077515)
(5.009065905431525 0.02676352692175164 0.05666560074603449)
(2.557604894288142 -0.04605165809241955 -0.0454630494418287)
(4.573348331428106 -0.08015890348941379 -0.5354405355108465)
(4.326232734115378 0.09186016427733457 0.179256990135172)
(4.974996074189896 0.00438092587867745 -0.004638405314055237)
(5.115359513606123 0.008202054930707038 -0.06275546078185149)
(4.58852427424888 0.01720751451773276 -0.2417080700064464)
(5.044640040817823 0.007655313671590996 0.03730736293226479)
(4.995037577556223 0.06884193292288605 0.01372858227329127)
(4.995623261497108 0.01668037270015798 -0.001681016457150425)
(2.938004620385356 0.1256203763266514 0.01696851913296967)
(5.072467405152799 -0.06366837512883372 0.09528553844372729)
(5.055688861949768 -0.01603569009332602 0.06221865777855123)
(5.0549100125781 -0.005950605770642501 0.07516431402998533)
(5.047527917664356 0.05405600727456313 -0.02434307635642678)
(5.057860657358294 -0.005151786719883286 0.0744913846190076)
(5.054592471203104 0.06086109333783718 0.1388115318346229)
(4.998777141292248 -0.01610689216500523 -0.01303018047111084)
(5.008595334969469 0.1594477839474434 0.3048899341063248)
(2.501601524753609 0.1656487426310714 0.2405563013196956)
(4.403740414803108 0.06046275318922933 -0.05075095895360595)
(5.051999995756814 -0.005414180785892112 0.02821278595361542)
(4.988438300122472 0.02256346855374069 -0.009320223747924697)
(5.052336889515199 0.01797611174870693 0.03270271076370779)
(5.064439820529716 -0.02511571328328962 0.04283902828678987)
(4.969257375124146 -0.01278027479206998 0.004786753298155283)
(4.959294236435997 0.1380148148152506 -0.07243354274128204)
(5.056849730437827 -0.02865744669584719 0.03857254547171032)
(5.041657581965932 -0.01084919950289968 -0.001700322224961333)
(2.717464670320625 -0.04894441880645042 -0.3617727754150626)
(5.035114544073843 0.07937380268169154 0.07080508224958659)
(5.061180758315607 0.04024621284734648 0.07751513396520252)
(4.996869309940965 -0.05401194370219779 -0.02445948083059698)
(4.926120549221931 -0.1915531145962557 0.1203130238386347)
(5.012353293616178 -0.04153214731294461 0.02270207416842258)
(5.056800478753753 0.004788409541456734 0.0962933778883117)
(4.963426798726649 -0.1614067586864707 0.2242463909059296)
(4.995674862581425 0.0127017779241799 -0.02694478076535747)
(5.08626049267313 -0.0427993596364833 0.09048971062543334)
(5.061419317882686 0.02186129352373414 0.1831700209061958)
(3.960600943455325 0.09907739313289694 0.493489400923433)
(4.968396100435141 -0.03546132823991122 0.04366609298025078)
(5.002624231218796 -0.0250358980920139 -0.01152026665878572)
(5.006522559843881 -0.07529806438278913 0.01777666115578774)
(4.536864120551637 0.1052253371032806 0.208607243994736)
(5.010205381284135 0.1258106745765924 0.00563382283729412)
(4.975474878020678 -0.01335124375090785 0.03598493609107191)
(4.982608787370499 -0.02467275411026799 0.06682240161693084)
(5.046840355655248 -0.01283139716516805 -0.03136011795587346)
(5.043748347742595 -0.02566579449162364 0.032693247911633)
(5.043485110858494 0.0444818004265223 -0.001453462391861774)
(5.054781639726114 -0.02160900613871782 0.04947342820653836)
(5.029872187850858 0.2396892606141237 0.5995277975753405)
(5.02814368490264 0.1105692041870725 0.08795463007800421)
(4.987858024614707 0.01220348256399207 0.00955024780746291)
(5.066508658156026 -0.08853348668248937 0.2535172461284285)
(4.704583845428337 0.1660395972987403 -0.5498485122361132)
(5.07837951431476 -0.08830506634859804 0.1641744087394816)
(4.990230314404417 0.03321746847990961 0.01867523720483762)
(4.955041450302538 0.004805408463591897 -0.03791146464422754)
(4.956814611429905 0.1359531214851138 -0.06557060443869291)
(5.053135018191767 0.02268752304074841 -0.001435987985932003)
(5.051440895125517 0.007947551930259899 -0.01334076587434096)
(5.040957610769297 0.05174936801023372 0.04487087300143706)
(5.031624900994544 0.004860664106976632 0.01737780835013178)
(5.016654274724487 -0.006033249784387031 0.009269044139353472)
(4.944579351217803 -0.1609773879452 0.04931215104624916)
(5.010836297015508 -0.02060959239002116 -0.002145627297221862)
(5.02067209432761 -0.06533164897738214 0.05606266040327084)
(4.86844056773244 0.01911344716236479 -0.02092720684817558)
(5.018994153681355 -0.02953728654807099 0.3812102742233478)
(4.977130996313812 0.02398863198290717 -0.02827275343004464)
(5.038527017379455 -0.1008390810397835 0.3593559210227369)
(4.443952511506445 -0.1108771527224201 1.287157094994203)
(4.986906745589165 0.0265248231858157 -0.02934204178110202)
(5.050118309077525 0.002770474738862978 0.06944158807707379)
(4.093982703978257 0.181513950129253 0.1325860670842171)
(5.014967235919781 0.03269900175899645 0.0345997920213249)
(4.993182324676048 0.01330063156772759 0.02102013887829291)
(4.993990758047863 0.02947169907302412 0.007968718912641424)
(2.914481759364235 -0.4172320630801769 -0.2253614978710227)
(5.087251764496268 0.06016933405959288 0.09254437436556662)
(4.97082485970778 -0.02963185696683374 0.1048207352537827)
(4.969658178778169 0.06002979049745888 -0.08235793612745673)
(4.99649154239177 0.01301959213687165 0.0004323816023734559)
(5.030120016748331 -0.003493117382758051 0.02003943221111254)
(4.97620071340515 0.1153666980183243 0.03724643735607142)
(5.028435289814847 0.08431224155884832 -0.08478408626148248)
(4.945702726411907 0.1633756212842035 -0.1214606497514856)
(0.6018410774310954 0.05292289342280566 0.09719965855803619)
(3.679152200278902 -0.1078424973316736 -0.1634672616963471)
(4.98950557549722 0.009665449252579192 -0.01479569517093326)
(0.02156161640125482 -0.009100173161008609 -0.001519785335786545)
(0.004042879776845833 -0.01493819583275119 0.005196873010607922)
(3.15990164136881 -0.08064745683903524 0.1234812925707173)
(3.60295980035297 0.2090890437415734 -0.03562811410903911)
(4.787473201749108 -0.4130472817349847 0.0101440140994948)
(4.577216583904272 0.2276911909024292 -1.119564816953564)
(4.866104799732075 0.03764282805335576 0.008045525523654954)
(4.892751552248768 0.1308541799191867 0.05801081673387242)
(2.938834125349977 -0.0001928643917034085 -0.2401524613721014)
(4.931840081614508 0.00156963122964194 0.009357503089309766)
(5.086036308631363 -0.04026113187155821 -0.09766412179905035)
(5.001003183957248 -0.01311573059432139 0.05970520304538845)
(5.139379045631442 -0.0723629196688982 -0.03930012228294445)
(4.974916010827805 0.02850076232615324 -0.01865491438158403)
(4.911169225508052 -0.1733184771884295 -0.4725369586132639)
(4.88412111960708 0.1083759434280498 0.1330773516542808)
(4.974079817028233 -0.0460424017221758 0.007620609653447069)
(4.840528862622244 0.1072431842486641 -0.06094870340935755)
(5.033782137608419 0.03002499927861992 0.04141644425842825)
(4.550902856943668 -0.008053684922704821 -0.04025425725489994)
(4.564518651118285 0.2747209588215442 -0.01947546243911963)
(4.973360373236768 0.09942444932742181 -0.05227217381067031)
(5.094581698049767 0.05592689603919485 -0.1799606239383752)
(4.89427015948204 -0.0169477091789172 -0.0755067504993762)
(4.750041546377287 0.1464822049306825 0.1746295390927698)
(4.96839272252682 -0.03770332383422672 -0.03536874772028374)
(3.341703802249232 -0.1400296176989828 -0.1469451031548361)
(1.944187112772256 0.06171337719305767 -0.1566501889661305)
(4.914706880845854 -0.06332814122318293 0.0930421235292008)
(4.982382916800693 0.07417938387948661 -0.05346220944882461)
(4.913108516235511 -0.1297789783348697 -0.03900045782234361)
(3.989464591614331 0.3567789115572184 0.1777752606078251)
(4.99076685790432 0.02977156430327629 -0.1142181763648809)
(5.119558805244401 0.0860934067084331 0.1713750710146381)
(5.00931256458755 0.03482649219559417 -0.05594831414670826)
(4.973757257692295 0.1299898835183966 0.04158536164742511)
(5.046342053806685 0.08071545883773742 0.1283928228287854)
(1.670177623217404 -0.1574272899031641 -0.0077616310744099)
(3.884935273150152 -0.102592623254757 0.5434784707683699)
(2.495066334244526 -0.144535875089675 -0.09592910125869819)
(4.983691228623528 0.1731204609846225 -0.1858817072873308)
(3.169127836400879 -0.09278018982648137 0.003287366116493893)
(5.002682550895782 -0.007193329054964727 -0.02195000104658052)
(2.458844978816848 0.05211716283183596 -0.2078554255672602)
(2.049026822531166 -0.3011304398265759 -0.3284289031810999)
(4.981869115426456 0.06864971691404811 -0.02883238529450013)
(4.218920636040803 -0.01706226326167266 0.1458501236412475)
(3.155698785733238 0.4317245822630638 0.1169685455366527)
(4.973062008792418 0.001794813397177458 -0.0294651711106654)
(4.997357961006676 0.006892373453136718 0.01650289913513422)
(5.038444521903047 0.01082813240820336 -0.1523864786679981)
(4.825300708780897 -0.05386498776796881 -0.2221199840259603)
(2.681047539491754 0.3050458735957612 -0.09312493459946271)
(3.521477277069922 0.1871257027563482 -0.04934378613466643)
(0.5899600748231661 0.0174787915262147 -0.02555433350803316)
(1.45447604968425 0.1388989257155642 0.1062245623108677)
(2.225807032894363 -0.5561588571245458 -0.1784375723930285)
(5.064108247443324 0.0223864217769606 -0.1010781927905487)
(3.701925520317511 -0.2623475479248059 -0.05231654362046417)
(5.123303099196916 0.4227180964959824 -0.3245210680221045)
(4.970460380419694 -0.03051719247879491 -0.07133308290010748)
(5.009385737581058 0.09749479101906003 -0.1661834190295017)
(2.730715758578648 0.5688035023453698 0.7469815494445015)
(5.09409781529548 0.1534694914420696 0.1985429779223855)
(4.999429894375545 0.007444227579151834 0.01035289082937895)
(5.007788959633036 0.07553147153506307 0.0006414813214336889)
(3.396629380704891 0.2445166322450708 -0.5632577332412578)
(4.942207382397957 0.07924523493758881 -0.0002142312217551586)
(4.75906225109474 0.003547222015297021 -0.07200133173441117)
(4.78597418597414 -0.008775665969470095 0.2288081074838684)
(4.149820532718048 0.5513763735636765 -0.2785543366744129)
(5.052405899723823 0.004926751629434054 -0.03074449985809405)
(4.640480810341542 0.1430249943069934 -0.1529551888090402)
(4.924626793855233 0.2581072428704143 -0.1308329138503734)
(5.037967248131586 0.02470750144197047 0.03373810111551992)
(3.02564442950661 0.08314747543112753 0.05804880200886645)
(4.881432270244712 0.06519406624854054 0.0171909908868896)
(5.026556381083185 -0.005868165548276915 0.06654461044822528)
(4.874689580666881 0.3840825988270902 -0.1860480619438413)
(4.919074016755963 0.2050800237325727 0.0960696393502561)
(4.996068816769644 0.002702485272290056 0.002142297949140838)
(4.963786783151815 -0.02334798893928213 0.002834447234566958)
(4.953474534013893 0.07303299979593374 -0.03863032429786917)
(5.020085034665486 0.1171149753559914 -0.224737736489443)
(3.552456477500471 -0.02152992136738149 -0.0256391341724404)
(3.996208512528973 -0.2244825763966068 -0.04732534411926393)
(4.966993791619819 -0.04230990929994028 0.004457249230732563)
(4.678636797897762 -0.009056954976911396 -0.05658230606313695)
(4.994088288972666 -0.03430695854462622 0.02257471519112841)
(5.101481522026885 0.034847817648785 0.1204790464907411)
(4.960455798072412 -0.1756351387561051 -0.04101129494157412)
(4.015510037770089 -0.07364485768216691 -0.5633116363021343)
(5.094887460545588 -0.02829225176410716 -0.008074672409340839)
(4.985641677112245 0.08972331652014659 0.0195927151903055)
(5.049213887947546 0.03621606199957465 0.09924969810479299)
(4.672325452473871 0.1304122641145764 -0.1222679355562886)
(4.966962602144705 -0.01047318111233904 0.006218720169390433)
(5.00462911369716 0.04172020893447667 -0.1617551697977441)
(5.001954065922673 0.008981321247630897 -0.009665657272995509)
(2.542665561910349 -0.3462501841923034 0.1667776582877018)
(4.711215681827124 -0.07279073520287126 -0.03845585802601842)
(5.069837634867715 0.4446644648333336 0.2706327647734141)
(5.075710475251504 -0.01471444981111378 0.0731812430902704)
(4.919992314815764 0.1509120719449615 -0.00954748692935542)
(3.134732162471313 0.1948810820244656 0.00238944354658503)
(5.009090290859064 0.1548584121181929 -0.0381042206625742)
(5.038907270227207 0.1327285548850808 0.09071416338725238)
(4.482281814508847 0.1994309292873932 0.04599926878082233)
(4.973955839178109 0.002289355922981486 -0.007378527762466738)
(3.904871139690007 -0.02779069300499815 0.09175552041548854)
(5.074149183259769 0.05700798432775907 0.1232673923925005)
(4.997495654081132 0.02003641850040209 0.005158147651271316)
(5.152737064801287 0.1087474671423298 -0.2317865353391247)
(4.372797868860683 -0.15755580511325 0.1311982160025717)
(5.002094074069202 0.08618741017478623 0.0499979326932318)
(4.377151523324571 0.01660863517711899 0.1103030296631791)
(5.061833599602726 0.02243596012126763 -0.01226582327547857)
(5.002464487484039 0.03585617107598786 -0.0465672059290767)
(5.048955272318808 -0.07205255413432757 0.005745847737521056)
(5.077273203411607 -0.02429023084050902 -0.03646901884575234)
(4.999414060603724 0.009238284861887826 0.01579430127747414)
(3.580037846328874 -0.4103920617027743 -0.03559646205934297)
(4.96369619074232 0.04302160868516309 -0.08668599677708824)
(4.998101462209124 0.03787743641598765 0.02299213122463552)
(3.508946335884245 -0.0978260571309022 -0.04402147397383443)
(5.044748214786315 0.04596196418919246 0.0735667610352284)
(4.945546227539333 -0.1073528348711877 -0.00696687764120909)
(5.159457685554657 -0.1399101429072294 -0.1125424986199186)
(4.51388695421209 -0.3259275841157225 0.435910895596322)
(4.020234061205528 -0.3298329916289083 -0.4511586610145693)
(5.128856842039339 0.07818937048342087 -0.1294106952721079)
(3.209146953280956 -0.4056814105061961 0.2062464301565644)
(4.174775719158837 0.8928172400698533 0.3148026340802144)
(5.064653475246062 0.1696032824820115 -0.1024791509719122)
(2.175858618261437 -0.8423985566625074 -0.3395124089867024)
(5.003979538686477 0.08172650543229142 0.02284059124463692)
(5.103294904863425 0.001782930152260926 0.09557385613282141)
(4.208935642689799 -0.1066063310008836 0.1396223032196231)
(4.94641160887501 0.1863207619505286 0.06753907646588028)
(5.066729395438128 0.1344035320043855 0.06752293835233211)
(5.072008414451775 0.1083691808794968 0.09572897578465631)
(4.865345517253815 -0.2617083288238806 0.02876507474529025)
(4.981244566243023 0.2625906404398721 -0.3618086585206234)
(4.344216916237423 -0.1644271381168357 -0.1092234777747728)
(5.270694701127112 0.5602082579625465 -1.256301419269615)
(5.04401102023241 0.1219031238686424 0.08855845558437249)
(5.017797843329078 -0.008373839272423442 -0.005588950777415159)
(4.685476961817999 0.1306232722920267 -0.3155824489443692)
(4.985036581520635 0.1107910148415668 0.2197655933079908)
(1.19987115862848 -1.557571449307114 0.6484200844088875)
(5.084202677249182 0.05540923997251507 -0.1011446884927678)
(2.83115048755308 -0.09281537427544302 -0.5529352517146204)
(5.032060754932665 0.2225855325119946 -0.003518735665984186)
(4.944650569553249 0.06997328795846121 0.1323331146736562)
(3.091218920603821 -0.156501927136584 0.08371318005095119)
(2.827576157276167 -0.3522028006115744 -0.1262820683939576)
(2.803096387924434 -0.09173468791414585 -0.353497170163891)
(4.286403209079862 -0.01217435480354608 0.03007890490995357)
(4.978826489778445 -0.005315824129886655 0.030804520723275)
(4.983518292860924 0.02020250431367963 -0.01634402889440387)
(5.009209112058379 0.141364763074903 0.09753089275367201)
(5.028107178501038 0.05658696310921825 0.03029973185748809)
(4.951053098858491 -0.0415903506379454 -0.06973227065548346)
(4.988317496483151 0.1280326146554664 -0.01377053161612138)
(4.987452780070645 0.01751685491401185 0.03981543972557864)
(5.087548036023896 0.2222783130158945 -0.1180926030792996)
(3.175448540739858 0.1170126652988615 -0.03884208135691816)
(5.004439549467837 -0.03413010432883335 -0.05817575742735645)
(4.893922175178366 -0.05559978551717282 0.1061220675351471)
(4.88191862994495 -0.003193718447265316 0.01919812601890198)
(5.041408518348183 0.06538239350564705 0.05334345898339202)
(4.493598331747517 0.2410876473492879 0.4077089392793787)
(5.076358833405525 0.1388799046083981 -0.1443095764259882)
(4.681487624961207 -0.08716447869061532 -0.01920354542246613)
(5.026662508630321 -0.01044680161611806 0.06223470249076259)
(5.058171565388126 0.1497466907176434 -0.04178022537655376)
(5.067316448903693 0.02667669230250692 0.07053622074091678)
(5.029330389757302 0.08013853597257049 -0.02737062549604177)
(4.998197849960736 0.05742525170489499 0.005926903922413881)
(4.985145628956399 0.01015322141322512 0.01416063133885015)
(4.888836512438825 0.2201291359187923 -0.0796099544147109)
(5.019690883050718 -0.01975363415609251 0.005326801430034565)
(4.922316233020124 0.02392757368668892 -0.1196195593819855)
(5.002936009332734 0.001064487788063503 0.001401481242765186)
(5.027242222195515 0.0998079093561776 -0.005462204053362851)
(3.981172074214327 0.1746892864698969 0.3179269810640153)
(4.686302645728132 0.1190262474769922 0.257758052260609)
(4.98869042714072 0.01406752667078543 0.0340712279664579)
(5.034325881315062 0.02884372957774631 0.01061246879125515)
(1.226233534328861 0.7870392168549079 3.349891354286738)
(5.027698773098342 0.06854210484485262 -0.0447399615602236)
(4.942693686983673 -0.02810844575870655 0.007798225718407939)
(4.946662223827317 0.106856635355392 -0.05760743764206492)
(4.966265316518199 0.03549103652883033 0.004932609131770518)
(4.889913374080284 -0.01259858034737841 0.1469033195087605)
(1.341748855816742 0.5786350656032236 -0.5363099991441503)
(4.961373644335625 0.1945054001776371 -0.001314109006994032)
(4.730231825281175 -0.01474287571364019 0.2231862113702692)
(4.932884265271673 0.006174419765428873 0.01560381554487685)
(4.972054257844648 -0.005633381312696829 0.04719138767254635)
(2.506479931542906 0.2635483593580011 0.2218085157331235)
(2.66917176578074 -0.3468342590328889 0.2072612603664942)
(4.961435832878707 0.008657226336598467 -0.0487394622548472)
(1.739622346042772 0.07197802258148971 0.1220571321844585)
(5.005122484618024 0.02887956674442952 0.04173911581621894)
(4.965352178676999 -0.2432573108234705 0.1060346202083924)
(4.985731348979698 0.1780827046045175 0.07275724502514547)
(4.998636920087313 -0.001215058504976983 0.002127702557937639)
(2.248228641831252 0.1475486581438996 -0.07089967789006943)
(4.975750621841248 0.1361699698644109 0.06635352544147825)
(1.916291371827806 -0.1901005780016374 -0.1177664117082995)
(5.086193765767996 -0.002844602102510894 0.105646589586471)
(4.87009133776923 -0.04655306721320911 -0.1424924080210304)
(4.412069095927904 0.04909022785458412 0.06785637884376498)
(4.841455866095007 0.06814088677672471 0.06338888339096732)
(2.226973470661734 -0.1448363991374355 0.04548039536155127)
(4.411103896084481 0.001171812950482641 -0.3573521268586485)
(4.746221422439353 -0.1206598420916064 0.03736175836946521)
(4.826949927353866 0.1994014164537021 0.02175462017954042)
(4.9896372124202 0.2288347360374905 0.09279657004617772)
(5.018878248429991 0.01326058764040449 0.1582424910865866)
(4.97791806628643 -0.2139299559371134 -0.02410254384101992)
(3.970570344650398 -0.01289518724011792 0.1713572112065511)
(5.015248275585368 0.2870667366565295 0.07689481807261704)
(4.991829325723248 -0.001481097817727774 0.002123261724740746)
(5.00477433952193 -0.06442400062812706 0.02371531035711831)
(4.819987192727778 0.3749466275273264 -0.1067051155605508)
(4.61275802628729 0.2795211444593495 -0.1918146480330584)
(5.029088018128463 0.005850832155876269 -0.06059814336799951)
(5.043452977363294 0.1900851294243893 0.116773296930581)
(2.099160030734216 -0.2720705030604296 0.0410604223925799)
(4.052921844049171 -0.2546845827726547 -0.009045584194625127)
(5.001998742841002 -0.04051782807141489 -0.02600347461541569)
(4.98154424183554 -0.01006829174227641 0.1617746161644813)
(5.064248023671555 0.1364411456699476 -0.2802371931973137)
(4.9988425336587 -0.01209618867517253 -0.03853389949668794)
(4.508014060578121 -0.194245974196513 -0.2082068429273587)
(3.942020220914833 0.2168436919450929 -0.07274067702154291)
(4.669870860955046 -0.03868891994706256 0.2328984182162896)
(5.148325741300659 0.275093077920277 -0.04187228991434355)
(5.057563300736268 0.1244284238502424 -0.1319900825260015)
(4.984784590801529 0.08126493873402608 0.03340072951113334)
(1.642469557997779 -0.5914041559661765 -1.403825615415296)
(2.368203252467961 -0.1918490815195017 0.1362601777512803)
(4.291638268741708 0.2195584532586026 0.3300919790649401)
(4.990636975020684 0.03472364511172944 0.02859244482333659)
(4.947678403235136 0.05254085504697237 0.3863001204269802)
(5.01214961743083 -0.009664662312787779 -0.004275919614639642)
(3.96198566088156 0.1107255032683245 -0.7596004665975233)
(4.911150979530637 0.1466038993785256 0.04416862622461964)
(4.896834784413212 0.1178611716608847 -0.009520070997041826)
(5.09650691453818 -0.0580022786322289 0.004071455670480893)
(4.677085041339981 0.3458137384248993 -0.4718123925794442)
(4.556256540046837 -0.2143628580743804 0.01447372535557604)
(4.969962188352384 0.0953307553753529 0.134375745294994)