/*--------------------------------*- C++ -*----------------------------------*\
| =========                 |                                                 |
| \\      /  F ield         | OpenFOAM: The Open Source CFD Toolbox           |
|  \\    /   O peration     | Version:  v1906                                 |
|   \\  /    A nd           | Web:      www.OpenFOAM.com                      |
|    \\/     M anipulation  |                                                 |
\*---------------------------------------------------------------------------*/
FoamFile
{
    version     2.0;
    format      ascii;
    class       volScalarField;
    location    "1.9";
    object      p;
}
// * * * * * * * * * * * * * * * * * * * * * * * * * * * * * * * * * * * * * //

dimensions      [0 2 -2 0 0 0 0];


internalField   nonuniform List<scalar> 
19631
(
-1.057436133973652
-13.50831038351007
-0.3961042905909127
-0.7468903279706309
0.6152537324595188
-0.1674111598621736
0.1255393362916941
-0.2110893224823854
2.610684061328582
0.2515914980449432
0.3214101182012961
0.4307687860467529
-1.104662415636014
0.1246942604451281
0.05537250038945001
-0.1632050586473309
-0.5891280782484023
0.04380795883642976
-0.464837252377211
7.698921711498523
3.788271004821509
-2.999520525632933
1.510312516628731
-1.835502207681769
0.05228733325670489
0.1723066686554156
0.1004302855509454
1.690175974543406
-1.46215079947884
0.4818029593851323
0.6484354473664635
-0.5615008698220879
52.63072901986767
-0.007772839222944611
-0.3941986942697932
0.1620901595067155
-0.0006874712015484672
2.084297467901826
0.009385789733026482
-0.1906432278917769
-1.213896931704229
-0.7323663329707076
-0.1044281629853885
-0.2881979616542706
-0.05604209143780223
-0.4679073664252764
-0.3344649845609973
0.3515044056956577
-0.0261413598718005
0.1149770311646703
-1.022846413100326
0.244043069425309
-0.0559338847117175
0.2548003720731735
0.4637061436243702
-0.2749976464740643
-0.4047352438429629
0.0850837764396544
0.04340500705146445
-0.6843341957263442
-0.8926318555955564
-0.3804771416723203
-0.6063504040900488
-0.1360452283796294
-1.040558733631529
0.4447877765754837
-0.09193486828546539
1.416070029387182
-0.2775042495368543
0.6805623407187633
-0.4889298241844185
-0.2948247582280042
-0.2432754186436254
-0.4809401464165375
0.01780489520074166
-0.128721896487618
0.04691891695070944
-0.01991279776919651
-0.7418611422644912
0.1672223399316176
-0.7067008263405131
0.4925050054026526
-0.1534335113574486
-0.6200253181563301
-0.4478937818545394
-0.2698021130683336
0.03536168962178219
-0.3778922398550623
-0.4653073336955823
-0.9653315351127346
-0.4736026205551664
0.1176932709384426
-2.389986233494936
-0.5013328172275117
-0.3951305428320132
-0.2487351509520874
-0.196900620409734
0.1074509390833055
-0.2185670134725008
-0.2919803454513869
0.03513922897532221
-0.6879233968754195
0.1173632216249471
-1.342385085178308
-0.7146309928939379
-0.5160296977350299
0.02382837941012334
-0.2772829923040523
0.282407451925008
0.6479310389695363
-0.2663857512476889
-0.7853663884153271
0.4322327438061468
-0.3319053491120721
0.465096764551481
0.5817158066606791
-0.9298537351369994
-0.07843527944848094
-1.116708880874142
1.37671088606186
0.1641236109694109
-0.3937250160977867
0.02955860659258088
0.2552422822748679
-157.4286472894191
-0.1379830578092764
0.7113828821271049
0.06320198033907293
0.1214861220067883
0.08128715285254776
0.8298316337807228
-0.638226718841451
0.1695030313552598
-0.6333304685428938
-0.06077119767674682
0.05433647294323593
0.08551201351861897
0.3309098462100509
0.06599486641305556
0.07708323937161775
0.3924845408469609
-11.630828474886
0.1837888383970679
-0.4189756579572713
-0.09948196463653078
0.0391958886419054
0.1121365367807127
-0.1861438929914256
0.4357617144866573
-0.2941060955716513
-0.008891646574776091
0.2874473901109476
0.113640201020074
0.1697728860803135
0.04070093495817516
-0.003251673738314475
0.05903876608054608
-0.1255076077651729
-0.2714167772982449
-0.007033359444937589
-0.495091626530333
-0.05292408550272869
-0.64804860875472
2.64908738861426
0.06454567331863209
-0.01253663834488552
-0.01617314952126023
0.07463229897395125
1.023420275415007
-0.2140556950739352
0.07794014939618847
-0.7113363042202568
0.07210222236497259
-8.504382181997126
1.587856779878865
-0.7023215742858082
0.6087575667377007
-0.2833366329263383
-2.926307968248981e-05
0.936235136033803
-0.4317215608188715
-0.04007722318149415
0.4855581427280412
0.5719007384176564
-0.2056775244932592
-0.2441427884212594
-0.2644716229292815
0.6742132286618341
0.1787956760580318
0.2328949515687437
-0.2793376125049165
-0.5483104267197916
0.3353626050563301
0.1770036489015037
-0.5979084106204958
-0.6858801178831228
0.5119503352809921
-0.5331217850019668
-1.545489741837252
-0.4459836703273434
-9.264131779039349
0.2368085047399423
-0.7153210793380705
-0.4901747616245227
0.4888475233345914
-0.07008422926022904
0.8612148694396476
-0.8538764566363555
9.620016687687761
0.1277602784220192
-0.1229004566560952
2.258299561442815
-0.4454120824336469
0.4839147865358016
0.3509545677468046
-0.2680512528656952
-1.836468409658778
-0.36924119364963
-0.7602708522440923
0.1872817312034716
-0.3021384381204225
-0.1368329946039379
0.07523656220061321
0.3949431711033687
-0.4159844462530572
-2.019632326963772
0.03252577134713098
-0.1611393558105851
-0.4219549969028925
-0.2228830280944304
-0.1511845154769399
-0.4731002954879485
-0.1673586731556908
-0.3357278902439223
-1.25729391436548
-0.1135051987520992
-0.073654903125437
-0.2186119016204416
-0.1031787804256684
-0.3609859370467558
-0.7830399294010189
-0.1509959669440062
-32.60838101790409
-0.06953914315354598
-0.7413934142854699
-0.5906539946244108
0.166991831455374
-0.3027820523230048
-0.7053329579984349
-0.3130978285641039
-0.7186958365939833
-0.08598994560830364
-0.2103657996284081
-0.3159936015675345
-0.9863782436834847
-0.7147779038257248
-0.1441283742648412
-0.3109509632457533
-0.8685370658040577
-0.2563245774907118
0.2640823745213612
-0.4960229337254216
-0.4344066509289414
-8.169074536426329
0.08941937350128366
-0.2901812316024036
0.3955204976427385
-0.570462515405592
-0.6745182813224233
-0.4227342976750952
-1.577968424707706
0.2445760530399048
-0.6071617464155133
-0.0899147773649991
-0.4391218490245445
-0.4801195908703436
-0.6042044291362763
-1.308273755949829
-0.07106848725897069
0.2715377798010841
-0.4491020527902536
-0.6658879704587197
-0.4344006217287006
-0.110680915450577
-0.7055455531309688
-0.3310957456404021
-0.4618071827253474
-0.4946539496190192
-0.6887382539332143
0.1325199811598375
-0.2131851880916515
-0.2537159272146149
0.2458963715007909
0.02858182247208735
-0.006206824855242561
0.06810030656307885
-0.4625026646733584
-0.1493297020053902
-0.6091723068468998
-0.4103575904704685
-0.5299765246668776
0.590319065531266
0.7170923822269143
-1.755732003013156
-0.265190660390946
-0.06937300722551988
-1.691582248049672
-2.138133097861263
-2.397550339236575
-0.0226620189862399
-0.1105911885726234
-0.6840256284265237
-0.7039469679547119
-0.2319398135280315
-0.008828579396645631
0.4019981969832068
0.3892163152351332
0.3458000850828752
0.1044031215470633
1.127468058320565
-0.3762985171987749
-1.122395106056989
-0.3207029584876741
1.005661663741658
-0.1240519284675323
-0.3829716313185518
0.0204219188050637
-0.9780226289315416
-0.6609462400940238
-1.855333664277361
0.3547678154942179
0.05013676544873119
0.1372362983106839
0.1997544312214465
0.1612930120662822
0.07244204230743839
-0.4455625303172559
-0.3560744567226032
1.000012442475649
-0.2118316131858692
-0.009561901058128276
-0.4199999793615838
-0.1711294402496376
-0.7411911520513754
-0.1221328633345516
-0.229590591503441
3.201050618099076
0.3280178696738791
-0.2527007126614548
-0.4839516819015118
-0.3677072198021485
-0.724193016501757
-0.4255347484652969
-0.7479426284090434
-0.3783738577204273
-0.6958351422707493
-0.1105333472630023
-0.9989614923787801
-0.3847126300801724
-0.3812312862292136
-0.2654044086004653
-0.904736937311825
0.5714937102414404
0.1617034510108425
0.5920940333037206
-0.1769657758093082
-0.9173913110010961
-0.3069133197499179
0.08833136268420297
-0.8636848187232633
6.901902882530952
7.963637727158173
-0.367292660334118
0.1696737235477442
0.8024846915589186
-0.1189099835441979
-14.54416176486313
0.1012788727264662
-0.2574217496703116
0.3454175138515579
-0.7619186385080559
0.08233276191468397
0.5977428209125147
0.6214904468057841
-0.3546043845049577
-3.355402713194924
-13.7508514017681
-19.3787839573709
-14.43548474407489
-1.349536784741372
-0.9713183679089572
0.235231887169675
-1.005719965107391
-0.9421468362170495
-0.2539207006317197
0.04169346294449146
0.0192015242981343
-0.5918253277363311
0.8380155325192218
-0.1493935846754934
-0.6448688604331224
-0.3876414741603634
-0.0497447080019803
-0.9394952643359999
-0.1540372642047837
-1.251740996338915
-1.545605640870796
-0.3974162283176859
-0.8714008459047069
0.02902264947125104
-0.9133805898094604
-0.7123239816161357
0.2376910287988924
-0.3338496948517868
-0.4141471816737536
-0.3742859460227796
-1.396567242442518
-0.2387691909695204
-0.5434761878638497
-0.5350156901301132
0.2373410817840048
0.3868930988960867
0.7736650242394549
-1.686033984845366
0.3602417734185004
-0.06302819908696602
0.2114886888934787
0.07151171318159567
0.1290092444327214
-0.09429857896687939
0.3896562316028338
-2.032561547914898
-0.7701735448872589
-0.467614935163187
-0.07956680802064676
-0.0773435898675951
1.031627175764346
-1.194766309513636
-0.2630723259303616
-0.2268066687817487
0.8676728934132286
-0.3333814697457359
0.3901313492027962
-0.1371591002871542
0.760424973506407
-0.817962438253464
0.9672778041725696
-0.6604083857085972
-0.84797590110841
0.05784326831159031
-0.3985792311239228
-0.2582213460426809
-0.7445988443848746
-0.6000293830403163
0.7792600242309841
0.8803762251067648
0.4095202026665353
-0.5349797686044617
-0.1800687013574174
1.929531095174922
0.4522403009394055
1.514667183041803
-33.16840001246592
0.1467656681294463
0.1937353297649457
-0.2392329928947502
-0.5879835634965719
-0.8357564000093789
-0.6610058235407724
0.4575194521973463
0.1031601855433404
-0.2868636633425988
0.4981755548436705
0.01724468271990503
0.02378158366445284
-0.3660371697480031
-0.06408885645558242
-0.5594785612510601
-0.8058608556745278
-0.3740251725628477
-0.6854556976208881
-0.536993159426872
0.6049883126279697
0.3459340772438015
-0.5529202279886271
-0.2093494871903281
-0.487269281191171
-0.1052238949982834
-0.2261817383146787
-3.678654035445544
-0.3627503562431097
-0.288866256339133
0.7004749796733257
0.7576310907898827
-0.3951702902417462
0.965846085087565
-0.01215862744838735
-0.7298790362450767
-0.4533274366372739
-0.2580724183579624
0.01223947895419583
0.5049755256580206
-1.010404131536784
0.530153830007801
-0.04868672436410355
1.631666926969418
0.5318271042223635
0.6015907336157391
0.521156777018624
0.7115328676554964
-0.6828811217421662
-0.02885480827240877
0.02438439632033508
0.1618904635524173
0.7251553673504583
0.7088456491213634
0.08432354584550694
2.694788667957543
-0.5845515395803514
-0.7949609749504005
-0.03148433558347946
-0.5044464037472612
-0.36573923855518
-0.1937009110132386
0.8043056335349236
0.01550584484161469
-0.5016421409545746
-0.8726409245265815
-0.7210410853229726
0.660423795809129
1.209210187773368
1.135379649832305
0.9730251930012329
0.959695266584808
0.2220452970931328
1.26158181991515
-0.3073523795156919
-0.8715233555274748
-0.6798271595977298
-0.03837462479594252
-0.4057168077206402
-0.2489697314940926
-0.02854976668005386
0.01359103289177456
-0.09064919405776295
-0.3813467755326685
0.2928242688113615
-1.248604115259725
-0.2701302360639523
0.2873722793808097
-0.2692882984846914
-0.09612286936369033
-1.025291460930166
-0.4543682353266533
-0.4082544438674938
1.866354937041023
-1.394815252772928
-0.05360384667727407
-0.2614780578183876
-0.4735663453354511
-0.1896011312906717
-0.149235817012138
-0.2230610167661538
-0.566383370522747
0.03493508639724794
-0.287576688772688
-0.3765900007415889
-1.91575173406064
0.02515511993762983
-0.3278303000650071
-0.6116634456200509
1.219803246048214
-0.009332221446657426
-0.4380847225969252
-0.4542512368332475
0.2781791651026485
-0.4888146196012843
1.261635590168412
-0.5729881413270979
-0.3915310843640467
0.2283019064339904
-1.214688406378908
0.5392217623394866
-0.4821682637522305
-0.3774163890314319
-0.3776538645957283
-0.5163695363271219
-0.06217716478348848
-0.6029981172722697
-0.3731054975122366
-0.1409246514503652
-0.1040578857347936
-0.8882002165922498
-0.36918246566263
-0.8605532763496692
0.03400110998615419
-0.1832101712279365
-0.4644712017533981
-0.05323541825098409
-0.8506081682487842
-1.054706993122181
-0.02542460045822552
-0.7233419794138886
-0.952940073071603
0.3358563031793472
-0.3200880319575973
-0.7776111691597871
0.2168571439459045
0.2930317297894721
-0.1217671320998787
-1.321387362465704
-0.5469757741706399
-0.01404965077123666
-0.2763004135995398
0.04223470218947015
-0.1080825496499082
-0.4361192078948339
-0.05310361324571664
0.1344815567505769
-0.5329910742238037
-0.9659981464808362
-0.7952663672707934
-0.7142907991017468
-0.01824800078421631
-1.190424350188609
-0.0995654898053585
-0.4847651449222906
0.08303990252599383
-0.08693466292037526
0.6014571031268257
-0.3561342364397951
-1.003438267247816
0.918677338231903
-1.382180261641444
-0.05781338676867741
-0.8086257000975728
-1.398385198207183
-0.1962065018912709
-0.2990625248959778
-0.3385888043838916
-0.1453628380994283
-0.6604863339495732
-0.667344658311999
-1.185974400462652
-0.6643116952414754
-0.5954933957517445
-0.5292833320453145
-0.3454120058822245
-0.4604693891660916
-0.3781423376574103
-0.4964119554592136
-1.181447379952032
-0.6008446461106296
-0.5431732734852043
-1.59596824379645
-0.3999304246725846
-0.3575294244415346
-0.3091198157184271
-0.5875528156785113
-0.2167303835392627
0.1924804001155034
0.4636218770576505
-0.5382635342246157
-0.501484952472211
-0.4734114838301271
-0.4483825767378832
-0.629419794177019
-0.4428481529246868
0.2604657629619533
-0.9568683988029905
0.0433252124110629
-0.9927685074267775
0.3988936420126141
-0.4734966895222907
-0.1525368161982382
-0.3982650163598987
-0.5189546078468913
-0.05225501426438703
-0.8213097937060403
-0.623312906262348
-0.8324753050909219
-0.2762423350387261
-1.114758112514086
-0.600003228793283
-0.7047166582266825
-0.7776083270843345
0.2693992857408101
-0.6328789279397239
-0.5809542102842565
-0.4776051169390924
-0.3138068302458114
-0.4091131204363945
-0.4530984600795693
0.3558928524080931
-0.7010132461170637
-0.636224061884877
-0.4453027544449635
-0.5295172812578988
-0.6696592588998664
-5.408798967425304
-0.3413974482180027
0.6743558234143198
0.2059885952264452
-1.366636632105577
-0.5614485241460496
-0.7933321353605932
-0.4374984487724073
-2.107119319747115
-0.5619387320554771
0.1001481581911684
-0.6449555031328205
0.3940922651521264
-0.2756871143393434
0.07604416305575669
-0.4556517704315882
-0.5107250819319202
-0.9558283372137861
-0.6396952583498539
0.7969824206533919
-0.5364935417407976
-0.6260556620203641
-0.2887311235259344
-0.6348426636049225
-0.5274784751646426
-0.9564396627674046
-0.7351962066675545
-0.6449081259566117
-1.130538058980125
-0.5817482622852894
0.7540174634686466
0.1107813828870145
0.3435175445651149
-0.3407666247458274
-0.5769697421945944
-0.2327559577419059
-0.2687172833748009
-0.7186465649658508
-0.3186553098417614
-0.5019431307798474
-0.5810547623799465
-0.1014308740822785
-0.6968290669186693
-1.215708688593061
-0.02667831798642519
-0.1864233238746611
-0.7556448474932329
-0.1978725041242822
-0.5603000751518485
-0.03747563779745629
-0.05327770924373933
-0.1204756659945828
-0.6826694631865263
-0.6337559997573443
0.4117120697431597
-0.5645995096139793
-0.2855548632500713
-0.5692369226466948
-0.4064223155378957
-0.7630228054799989
-0.3385333823198169
-0.5060877355856157
-1.057715128143633
-0.8802893578864047
-0.2586344923081036
-0.5310391207702573
-0.2354063235156492
-0.6422989024320296
-0.854911695750065
-0.5913740530188694
0.1144600240245943
-0.883199332751975
10.77324849474389
0.518544954462781
-0.1964901758677328
0.3896851714429312
0.4926757327735991
-0.6369679321642391
0.4336248793151632
-0.616061904097754
0.5163002377206789
-0.7447310365224872
-0.4124294259343989
-0.7606457978637199
-1.615576974874742
-0.3052557596181986
0.004027753230072885
-0.1726061049727857
-1.662906863677512
0.1102186953648087
-0.752635417272697
-0.04699765585493538
-0.5481118057252558
-0.2515866536110586
0.8583748530412773
-0.1801681237652366
-4.514852959895405
-0.513989872162754
-0.2690074086906589
0.2793150386290305
-0.3128464853351761
-0.1963057796234241
0.1358386023044021
-0.6909540913057074
-1.497402231408261
-0.7123439740062475
-0.8532121131363385
-0.1030661505697593
-0.3414880698155695
-0.674941653640725
-0.9576983080685117
0.3123280386402364
-0.4811854719628845
3.990771426426402e-05
-0.1020138067178404
-0.6082712410717606
-0.2446715114912702
-0.6219625173091817
-0.3343448149694073
-0.6522106851397567
0.05066445394560617
-0.3238548579868996
-0.5864320097782738
-0.8432386731611011
-0.7465879113321493
-0.3576225644076522
-0.8584145700037077
0.0181825894166573
0.1292265526638511
-0.6272862519765172
-0.8192324258952542
-1.181274366192229
-0.2263202729800413
-0.2226801934077402
-0.4735703558452032
0.4880296898446416
0.2094488751282629
-0.02310569030821924
-0.4294068152576939
0.5928811761668046
0.5206193327946506
0.6232143037202373
-0.5112902567535951
-0.2715390673221668
-0.3646443489430494
-0.4559990512280075
0.2627685226224308
-0.6849643109692155
-0.5603796384554546
0.4855348640422815
0.3727545921153628
-0.429339224210729
-0.1662478268093323
-0.4234873435194488
-0.4760775759804767
-0.2347319800350641
0.7223699949437917
-0.1629014801183387
-0.3316947012151952
-0.006568114216505358
-1.063013766221713
-0.2841078461168546
0.03988694465726225
-0.5283863049650459
-0.2923349307926908
-0.5057251781863962
-0.267037075546067
-0.5269206056934083
0.4402326013760153
0.8143135810462698
-0.8228685401866214
-0.477133948141819
-0.1257975267061471
-0.6812106203549504
-0.2461849190153968
-0.05924365848590874
-0.4955549808918431
0.5301945418138752
-0.6340427448984292
-0.4203621984471785
-0.494296220481646
-1.037164236335942
-0.2026242651250538
0.5775991790737741
-0.1612804918325377
-1.837818702209612
0.5257771242331186
-0.6002579686423816
0.2283336247566548
0.1386859193605716
-0.3969279954557096
-0.793042689255413
-0.1431564784305296
0.03790300536288119
-0.1996379163823352
-0.3689000570197235
-0.6070674564781514
-0.940527685631357
-0.2706229567688125
-1.111564063197996
-0.2134471983324791
-0.8227512587124329
-0.4805625868081621
-0.6942269053403077
0.3319516408703914
-0.03115639345615788
-0.5135913078206904
-0.1726792119616764
-0.001805584158568248
-0.3094203883018437
-0.4414423711549717
-0.7030163840494702
-0.1422187327611372
-0.3360164734574477
-0.7405747725672022
-0.357533417695975
-0.5610592543275109
-0.8597353541839785
-0.1433445702609915
-4.699627547447237
15.90620035363999
-0.08751323926433011
-0.2744535435962843
0.2011142372713717
-0.4937489645806563
-0.7305311305617396
-0.547945803762199
0.09041607012503401
-0.48744296595224
-1.872918141693952
-0.6563426924146565
0.1855364841989401
-0.5998625222688091
-0.4379842879784369
-0.1657330872803005
-0.3932305008759982
-0.4748651431208759
-12.79168359105291
0.420561151468033
-0.2470997432705436
-0.5603156773632477
-0.4946200631285296
1.869836544089693
-0.2008593961415351
-0.8308593620818321
-0.2746383483320843
-0.224905095490032
-0.7951714940680622
-0.2310294614237981
-0.9228692751256093
-1.35503631278733
-0.4180632066254898
-1.016598731094523
0.5277691554856409
-0.1531005553598551
0.4692045637949255
-0.3587584425467983
-0.870005074197263
-1.077316205148983
-1.474502129447989
-1.051524108041153
-13.85632824993469
-0.1377499859020843
-0.4454934688064829
-6.129122821041761
-0.06636803573969303
-0.7142871978403607
0.2555662844037137
-0.3457024026068889
-0.4630014281646518
-0.522114148755374
-1.636536816494403
-1.126961870463819
-0.5543254266721893
-0.665851522938913
-1.347971725794137
0.3437998533237604
-0.4326412261847428
-2.172500129424241
0.09098324459094272
0.08227421103684614
0.5461591993412771
0.05311286545543197
-0.5829096007183778
-0.209332744898059
0.344781022203103
-0.4801053633520353
0.954090052858047
-0.4350559995206508
-0.9806687417749519
0.04924389811366813
-0.3355371289620583
0.1218054553791038
-0.02710614638605639
-0.1084670311000322
-0.3359459320505081
-0.348004315785216
-0.1919563482918622
-0.09090728296475149
-0.5920421286921892
-2.066537540975152
0.160142274547475
-1.008404120449413
-0.1545177060069383
0.9218607213753363
-0.3868005389424157
-1.542587520093078
0.5714935961615711
0.1889751644307074
-1.527752478636857
-0.5824909251307826
3.929383874658035
0.5351517419411632
0.5655932388640911
0.2446608969059343
-0.2192564655978321
0.1583577047694686
0.05029071495256531
-1.583146074870404
0.4608611383710636
-0.03744115745677037
0.08914464084265657
0.4938793013027818
0.6191095070644828
-0.7095530956529801
0.256701010329887
-0.1603494569960547
-1.24619298889315
-2.607820942084233
-0.08014862187635775
0.7342737618473172
0.1333500572620493
-0.3139929322300637
1.247014462111117
0.6186280512795854
-0.3707716981374234
0.006726901898458422
0.2438501778394792
-0.007024469500898957
-0.7615395972200688
-0.4857600831232685
-7.932534053833988
0.243981442681456
0.2047609423403623
-0.4390477484266864
-0.03846318576134705
0.1861254917229766
0.3859635624026599
-0.003374733464640865
-0.9669102521031578
-0.9337092158199557
-1.282189650682517
-0.5518076757253703
-0.3442505686644168
-0.6311503320832017
0.4219357911676093
0.4255449736275915
0.541003538797964
-1.010063625865079
-0.9934661763050626
-0.198724177476249
-0.1546571857526491
-0.5234953672014034
-0.04441559667006834
-2.564547316975585
-1.058579842640296
0.0220733278532396
-0.2370035225006626
0.4541624200854676
-0.4250816474403393
-0.583194255162797
-0.03352425107546639
-2.795618453039032
-0.7971599278959995
-0.7647712566459258
0.1905308051555054
-0.2091893823524158
-0.3114954118459928
-0.6282914605828597
-0.5323615768974281
0.2183342496567638
-0.9584827630231511
-1.316935830950146
0.03065840179919808
-1.036794419450764
-0.511052782992903
-0.3147743347293407
-0.449748600369674
-0.7297450862360551
0.3547932860691981
0.2889014264833479
0.2747082387451026
0.1042049736566444
0.3414935186023889
-0.02187562256603059
0.0675637094664024
0.4854221677940157
-0.3205796983837516
-0.1048678247594595
-0.2843235677730969
0.09291452109942364
-0.7437537555470497
-0.3787687881517544
-0.3169692970484497
-0.7705245939177796
0.08573731466491576
-0.2161103510299862
-0.5004289905032108
-0.5980095459502216
-0.8122807145823719
0.0992509657825643
-0.8570246191122917
-0.1574815673307992
-0.3520242223058774
-0.05025895237825363
-0.4519713473748496
0.009959069920820584
-0.679180048554385
-0.899870254225323
0.01030119293984253
-0.9511117863113756
-0.3073392655378607
-1.20659483342219
1.373886434573874
3.681567459433295
-0.172629960185986
-1.203273076338071
0.03991214549544458
0.07544815267033721
-1.602845815823596
0.3247961958948162
-0.08057712946085621
-1.258024127652577
-0.07160968805066806
-1.565913574291335
-0.574302549581361
0.04441680944017373
0.4043179705353727
-0.4933257292462884
-0.4293376108308238
-0.4872214611091524
-0.4476312897930249
0.3427112208303791
-0.7298813325484217
-0.886953691716834
-1.319017541259772
-0.4702025308652114
-0.6257962707554222
-0.4274707582251102
-0.328271184933894
-0.6690129910287824
0.3138057578766538
-1.208953387214654
-8.6926320200467
-0.7075066555314722
-0.1999167547450187
0.6493404834605202
0.5822161580227578
-0.4606964590471889
-1.255234682180966
0.3634039846916682
0.449342176357932
-0.8897712635301982
0.0431962104040395
-0.5604304130331691
0.0994755781978746
-1.234856192095706
-1.696466028301475
0.009886506316721975
0.5164615214963717
-0.5203553815734711
-0.1438905468181005
-0.8758892411300949
0.1767801844825678
-0.3193436316403564
-0.0230193943898152
-0.02708167096684368
-0.3129683310367857
-0.2372787807830729
0.1890587524324789
-0.2985544904747236
-0.4029569418759156
-0.2905565328532978
-0.7868856180387316
-0.6249844467107187
-0.4558234096868148
0.3512685729187685
-1.440734119661693
-0.7202035456410497
0.09605756370802856
0.6763833410904657
0.1527466089227056
-1.043788457860075
-1.331136944949674
-0.9740426581302668
-0.04521818498948613
0.3658020739468158
0.5825319779461142
-0.07907551399348701
0.06229914354130869
0.06331509885191913
0.4095648285828606
-0.2860928890601146
0.1881724563312888
0.378277668905504
-0.1455775329203622
0.5502533680636283
-0.8931517051480447
0.3826446082290168
0.09021879994588008
-0.01670885270021185
0.1186003424001208
-0.09251170950835461
0.1148255925736731
0.2042262581086198
-1.591130861035988
-0.5920949099152044
-1.007604947452335
-0.3934522575250072
0.6361232626084319
0.7479946416614036
-0.7899883007548568
-0.01278451349585978
-1.69415598237639
0.839278589060064
0.3238723089242039
1.474508410802573
0.09307293769592982
0.05227582123633399
-0.1364831774095753
-0.2859710305952454
-0.6981865947021911
0.5487787093464064
-1.073935073964423
0.3441910764305749
-0.09791937614799565
0.8314106726929422
0.05480114554313834
0.1755791576915085
-2.061894683169144
0.3288925017992196
-0.3082674903972289
-0.5522750586631994
-2.467088307503451
0.132420552938546
-0.1203630592238718
-4.120136469965377
0.1780933827413257
2.548605535634801
0.1679874315627538
0.4465734763713076
0.4153753637515302
-0.1597041130591747
-0.3290506158367956
-0.4309240711552347
1.081727696697891
-1.9913347545921
-2.100832845632607
-1.121039622871721
-1.264683927079834
-0.3440263840473565
0.3211618160612439
-0.01587370832869086
0.00204776757254008
-0.05070948559909755
-0.6220874814882643
-0.5925297278792598
-0.1263873435837149
-0.6590200329651102
-1.357341503776907
-1.235581259194804
-0.5129359545181347
-0.114453470677976
0.1694696234386364
-3.233491481584239
-1.282323683249148
0.3616690561652211
-0.3540108929261142
-2.015338566323635
-0.8813582310054162
-1.480185873162993
-0.411557544223552
2.272957861285994
0.2801508172279834
-0.5877684387765467
0.1848665822823864
0.4469809427258004
-0.1252530878319517
0.1187945559935764
0.1313525734003067
0.2463958453652893
-0.1832597614162804
-0.4519902267035411
0.03526997314734882
-0.3715468327457997
-0.0482830873325954
-1.464782544719392
-0.4712960647603216
0.1591198918478869
-0.1479978193453246
-1.131085682347927
-0.2641554195062685
-0.9983811375446451
-0.07664119916064796
-1.676300275139079
-0.07546395609743412
-0.06010532049121186
0.2380211098290589
2.431737278577684
-2.293977604228459
0.1897194798571406
0.6950819425374967
0.08377541274845261
0.5362001287883222
0.1056331458055108
0.2065614337823114
-1.682536020424052
0.9303630917645237
-1.533977094703412
0.119881353479627
0.01031085782459132
0.1350918802837365
0.3778534569771828
0.1894679788301522
-2.20875849075599
0.1408284970123466
0.4421934600015789
-0.03771357664528124
-1.284184260446686
-1.108204735272432
0.7018860471005821
-0.3856755542752945
0.0709552410477088
0.1331927680609949
-11.47430704233353
-2.430613057997806
0.002206410549352483
0.3710268552313991
0.2040647478951971
-0.0206530113443662
-0.05638259313402656
0.6612853349052394
-2.386768423911358
-0.2278625500344172
-0.3047743953942658
-0.3269348127207735
-0.3205746051423554
0.2554291081693347
-1.003020312383543
-0.07578017688903371
-0.6116742382930068
-1.918073963895432
-2.290850283133996
-1.075017553189062
0.1918184830847375
-0.2513322855109533
0.2978968023976293
-0.8527957518134441
-0.1790061152724809
0.03838331320316927
-1.060294147743954
-0.4731979274808056
-0.3129086131719928
0.1655005591899424
1.123006631034954
-2.293531501235946
0.5266431679791028
-7.28931152274426
-1.262639804267736
0.4666663657832606
0.5110813784159604
0.3432822843319511
1.699519172697041
-0.6948925727790901
0.392601380148328
0.06676250878829706
-3.615749661776093
-0.8220808650007029
6.597834214344293
-1.647395069534158
-0.09937722230929338
0.0523935715991365
0.4358380439372725
0.1421056399301589
-0.1069302300584044
-6.357504892261968
0.5949707741796646
-0.9790276270834229
-0.1133466028430102
0.3729777906273237
0.102813055877762
-0.2735037743274062
-1.000250853333552
-0.5884424336272813
-0.2623272236205518
-0.8501241808187213
0.1201553845916187
0.1023848150097646
0.5423392871636867
0.3363080027932478
-0.6879324631044502
-0.5244451806524348
-0.6039595520746039
-0.09259850342998763
8.359639209542488
0.02298543325130542
0.5788683041309114
-2.456063318552994
0.4344858041183565
0.6099190276407201
-0.3638039039034811
-0.4019371434272601
-0.4769611326394299
0.1126226595122633
-1.570045242704053
0.03613928877952116
0.003413346149427861
0.5196655593447782
-0.5469403921689409
-0.5803044677119318
0.4130389062843734
0.3164700009506689
0.04063741613537993
0.2040013615221619
-0.1152586137438156
-0.7692550273183038
0.03395530683545105
0.2749053052176166
0.2529173441228181
0.4466568930254837
-0.7576385982401557
-1.448701291336321
-0.9199878609835955
-0.2591644464318513
-1.437053333021528
-0.9478160595751626
-1.282389060334445
0.2459507293794583
0.4386242797001431
-1.885149994968506
-0.6064155639851156
-0.07070633693789695
-0.1527939896928704
-0.8455163617498699
1.238318677134499
-1.132766851108097
0.701344682279736
-0.6906077520114186
-4.440654806795533
-0.014428756962392
-0.3879004404287215
0.3482670604475099
0.3672316108798471
0.2909646261208555
-0.1849543827787608
-0.8021294053195804
-0.4262549189497865
1.855789845405128
-0.2915198987491101
-1.631998434878212
-0.3065166386012144
-0.6204371897467276
-0.2165089320241252
-1.061352126778939
-0.3240910099337589
-2.858620938734356
-0.07786628197344687
0.1206543874746758
0.617952891652009
0.07009740537085862
-0.5435943319708552
-0.1100665708446649
0.3631881317335169
-1.13930601218706
-0.2507982036981171
0.07894275363848995
-0.53044649844075
-1.425695587040271
-0.06563627200377106
-0.7676194114888283
-0.5882346922723692
0.5116249558371523
0.3266441229725844
0.3757853051943613
0.643723261989571
-0.3340790488514036
0.4582560843857649
0.3503002122800966
0.3417427044091132
0.3083498400562736