/*--------------------------------*- C++ -*----------------------------------*\
| =========                 |                                                 |
| \\      /  F ield         | OpenFOAM: The Open Source CFD Toolbox           |
|  \\    /   O peration     | Version:  v1906                                 |
|   \\  /    A nd           | Web:      www.OpenFOAM.com                      |
|    \\/     M anipulation  |                                                 |
\*---------------------------------------------------------------------------*/
FoamFile
{
    version     2.0;
    format      ascii;
    class       surfaceScalarField;
    location    "1.9";
    object      phi;
}
// * * * * * * * * * * * * * * * * * * * * * * * * * * * * * * * * * * * * * //

dimensions      [0 3 -1 0 0 0 0];
oriented        oriented;


internalField   nonuniform List<scalar> 
37503
(
-7.355422746167991
-10.9387478574475
26.02948205188184
-7.735311447430188
-26.89128848888016
5.982858565660379
26.82267892210333
0.006921477156440216
-0.570937802697718
0.7896529812945101
-0.2256366560716158
-0.0834854963167531
0.1111476052554011
0.0009945851732054774
-0.02865669417811011
12.39516478854087
7.173508839225399
0.6049700595720178
-0.02284226682037752
-0.0851048858247434
-0.4970229071209926
0.08847973928233702
-1.625739568020902
1.575433955703611
-0.03817412711653804
-0.5077339013242952
14.17218710753595
-13.66445320602912
-8.075799925140364
-5.585410450391998
-7.66192080513855
21.32313118123468
1.788608155880884
-3.145612392908764
1.477286617341107
-0.1202823803851858
1.489851195780032
0.1673978427696587
0.4114055929078749
-2.06865463137231
1.700902866357154
2.130254201480789
-2.727930952316208
-1.103226115331668
-0.02303042069608408
0.0002529039593802655
-0.01985802473126863
0.04263554137931897
1.112857099987723
-3.592376414927279
-0.9931494571400467
3.472668772590922
-0.8981382488020645
1.987967235739558
-2.784582935115711
1.694753948475935
4.439751359845138
10.55329477957305
4.466761329093512
-0.007433544969350056
-0.1593695991402521
0.13677598833859
0.03002715567529374
2.088876166986792
-4.63464029372721
-1.996390388510398
4.542154515878627
-0.3891697132972592
-1.276981943197395
-20.84398697129173
10.63537125544479
23.39834538846744
-6.428133659135443
13.97534856531318
-7.889575154692216
6.066279849186047
-7.771347919109869
9.59464322491157
19.88535809936441
-25.32287312232365
11.7950095808278
-0.05625000764120718
0.4452993271120848
0.04464282780627901
-0.4336921474400035
-0.4390648158470881
-2.18432059050317
3.73624250661116
1.40108046845798
-2.677379305327896
0.3781605882414306
-1.449304199101654
1.936882668313383
2.213255305471589
-2.70083377425742
-10.32297375473524
-8.955410299931275
0.2291713517458437
-0.2773304562575446
-0.05585814883262145
0.1040172530423009
-2.282185243761401
0.3907116953239424
13.35231799004027
-16.2647265622012
-23.84805248136685
26.76046105292327
-0.1451275996727969
0.1258498937246739
0.07432723306631039
-0.05504952716482212
51.21841599319995
21.13256816027996
-16.76318221469647
-1.544734795333742
-1.002913246789614
2.108583226719409
0.223090578406008
-0.0194661785621335
0.209416349513716
-0.4130407495495877
1.347014079501431
-1.151457736773054
0.4870541011375605
-2.064154389091237
2.728558025054166
21.59826359623792
4.159515175794426
-4.116830689023535
-21.64094808225635
0.05042513585347944
-0.3113373788334531
0.1184563970307489
0.1424558458706619
0.2865500515252
-0.601089302774294
-2.163688738844737
2.478227989807941
-0.02978619714812348
-0.2302267646431094
0.3680788720665309
-0.1080659105029882
-0.04907617428062232
-0.0475225663665292
-0.006989538398017687
0.1035882789623419
-0.4999081801594099
0.4510016755470818
0.2996784318968524
-0.2507719274553291
-0.04674669490918744
-0.3123728308491601
0.4946858231979842
-0.1355662976074936
3.624112164012621
-2.375403507286669
2.306327841193976
-3.555036497709326
-0.1100723760746051
0.0211389707494192
0.01893940157254739
0.06999400369600284
-0.0259440392271038
-0.08244335108358912
0.02919328162730567
0.07919410861955299
-0.01766027912781632
0.1171133729964409
-0.141996891578133
0.04254379767312431
1.971384991746736
-0.98674356547695
-0.2467882533887795
-0.7378531728712393
-0.6639776662167368
0.1804678315066441
0.3279123735089775
0.1555974608061004
8.616649492216467
20.9288877054417
-27.0381041839087
-2.5074330136719
-1.238705389211367
-0.06552014472797654
-1.423705418405293
0.4021326088360359
-0.1239002028303378
0.08298097604080865
-0.3612133821211387
0.8373412054039082
-2.167112085558664
-0.9524143634697678
-0.1960488349579641
1.510485537503987
-2.085344580558429
0.7709078776411697
-0.1540229015874742
0.2075751967541036
0.003152061847278331
-0.05670435710438443
-0.2357909607134186
0.1222836322896781
0.1681757194027411
-0.05466839107328847
-0.8906492803820297
-0.5339973055470391
3.166151223796307
-0.04405918940238768
0.3243055708982715
-0.3189978731357051
0.03875149139967848
-0.004040879761069105
-0.09091892333347175
-0.02599582292855074
0.120955625916843
-0.009850193028751652
0.05193611251029707
-0.06239210978163646
0.02030619024294563
0.005929658293404368
-0.1344438210334885
0.1210179954481842
0.007496167153477284
-0.06877986873398591
0.07217122003812303
-0.03578353759352019
0.03239218617812551
-0.2363074641949634
-0.2322117797618
0.45955729572031
0.008961947915203886
-0.1485348415199093
0.07694329634504224
0.06926030557340179
0.002331239480947893
-0.1061276804057096
-0.005582186625603078
0.09731627602669307
0.01439359098703692
-1.934228376458049
-1.153065838625982
0.04299122590206136
3.044302989970908
-19.97417242144905
18.85799228119483
1.116180140354359
-0.140963212753839
0.0445294772721522
0.06986660986431895
0.02656712553016254
18.00017139733602
-14.96460368747069
-15.19461704788422
12.15904933913279
0.07630970765657633
0.02067932113601736
-0.07481901985567252
-0.02217000899740771
-0.1466404501382906
-0.4977185168957453
0.440128821347273
0.2042301454331835
0.1238543296362513
-0.5892426817806291
0.4911315629870253
-0.02574321113644731
0.1321780734492127
-0.07202943189712334
-0.1004732286489573
0.04032458688280157
0.1954113930638355
-0.218458266873557
-0.1560997764037322
0.1791466499738096
-0.0542550845440515
0.1276309752950713
0.1620453409782574
-0.2354212317823069
0.8523139899325575
0.6130670500778327
-2.228586911450408
0.7632058712236904
-0.01493137268639326
0.1164346892129042
-0.05124282001219675
-0.05026049666333414
0.05255134759453271
0.00401934169122932
-0.02892672387822927
-0.02764396547950461
0.8266950017061477
0.8332086761518182
-0.03949111069429884
0.006817975365221443
0.03267313529180957
2.766903756316403
-1.558122812816112
0.776757861113218
-1.985538805105674
0.2168520950893716
-0.09515422376193124
-0.1020393056347794
-0.01965856591742599
0.078013652560424
-0.01232694485413869
-0.04641063056237407
-0.01927607726783418
-0.07467026705229414
0.4567458662478043
0.4025682773747166
-0.7846438768369285
0.2551731212724676
-0.1894251187568046
0.1592629405716187
-0.2250109432001191
0.1127048700958059
-0.1716009373602111
-0.2448632172377136
0.3037592842307095
0.04718978139300762
-0.1070812833335889
-0.01015127805772846
0.07004277995585689
-0.08386692876258581
-0.007048449085835781
0.007429881476557217
-0.08243900832781974
-0.09044232931542719
0.07772568275492309
0.09515565482904893
0.1906550888606914
-0.1094702975158389
0.01752349660528028
-0.09870828802030876
0.8039974213529298
-0.5512193598817698
-0.2656667726380896
0.012888710736185
0.09267254612117563
-0.2910215079525879
0.3373034762104987
-0.138954514639442
0.2496179412744345
-0.03748561997678675
0.02314899802430798
-0.2352813194253883
-0.0595508415891334
-0.2336040818523843
-0.2002664040137783
0.4934213273556396
-0.03348808936722029
-0.1923464581165119
0.4093882271362596
-0.1835536797573099
-0.09663170368898823
-0.2561698766611445
0.1054463719954883
0.2473552081995095
0.0276516216551895
0.1452088765358205
-0.1949143408055514
0.0220538425168052
-0.1026746639945135
-0.0845153931679848
-0.2557825392643672
0.4429725963568867
-0.2017919813351334
-0.2841559445733248
0.3453593973764805
0.1405885283179884
4.801431659173729
-1.466450343832914
0.04785166153894764
-0.04940734637077932
0.001555684713755626
1.020613666827472
-2.235870065588298
-1.462122906444489
0.02673828521913401
-0.02040967330493823
-0.006328611945209439
-0.1840981359903444
0.04770745407534255
0.0212280325708654
0.1151626492480589
0.002834605184060689
-0.06281540628351898
0.152132220905694
-0.09215141988227166
-2.328781179384396
-0.824555559584141
2.612865486956738
0.540471252304324
-0.03450970638298446
-0.08920911263347238
0.1341383141357759
-0.01041949520679786
-0.4348419994170368
-1.178353692779626
-0.8803558602260769
2.493551552669347
21.0424031216126
-0.03681633860273308
-0.33140320631702
2.873688105916106
-3.69374263634522
0.06188274906282557
-0.1020931484978969
-0.02909308424457104
0.06930348358939309
-3.099059347773216
4.857631806844296
-0.1001331695496055
-1.658439289978778
0.09368171569752534
-0.04224729787718378
-0.2380622600700568
-0.2469185042502563
0.3444806991584201
0.1405000649500892
0.1851575041585943
-0.09468801640860013
-0.02351945345413179
-0.06695003444682762
-0.07014015973312128
0.2386645346055332
-0.2272954575465755
0.0587710825669242
0.1795086574696133
-0.2855541530986875
0.3061617407405557
-0.2001162453528807
0.02931793792512629
-0.01140974739067248
-0.04175048312924611
0.0238422925692064
20.15263919867503
-18.64404977936161
-0.1541785348396248
26.90977746285527
-27.26333282900925
-3.358637939499686
0.1239125299099968
3.881579969659201
-0.6468545597919225
-2.046816715549488
0.3427318518616187
0.9156431362268878
0.7884417275030853
-8.041308427661303
-4.514185511610595
6.678597903978535
5.876896033645906
-38.45964460316041
-29.23939464838951
71.27272234823762
0.7782284627443281
1.560130580101382
1.397883464044795
18.28686054992357
-10.77655590676184
-7.510304643276138
1.194003043859057
-2.360577250794653
-0.06753165009920076
-1.696437618201675
1.142895221171575
2.33284008327563
-31.34597636406825
-1.54770023564097
2.472574238311156
30.42110236215806
0.09632140426888981
-0.002471584731204081
-0.1108910155358223
0.01704119591348268
-0.1477883150830483
0.01014286252472079
0.1376454524242457
-0.07873105031306254
0.04370767297450687
0.08709059036115066
-0.0520672130924914
0.5355478183661094
1.439511387130293
0.5331333623357039
-2.508192567201602
-0.607678076426536
0.2157795652742036
-1.782842647928423
3.107237954718563
1.855802247412945
0.7094359491104834
-3.318080809975718
0.7528426131106197
-1.917326902777752
1.899370022460939
-3.096105715754498
3.114062596821005
-0.394142902064023
0.1807886243716288
-1.908849657643708
1.632718180729246
-12.81286946862221
-5.633575868760451
-0.05409664191654649
-0.1496514035076521
0.1146422499926761
0.08910579533051724
0.1178958698657527
-0.3430347410387453
-0.3575768970472714
0.5827157680456755
-0.5186605792877854
0.3617625873900147
0.1192957457985145
0.03760224581768847
0.4562030982825553
0.215755474774565
-0.8257454924821547
0.1537869191816146
-0.3562367114131189
0.4834918045223281
2.221022182444596
-0.1368251612446613
0.05138256299095148
0.006403975492647864
0.07903862270238139
0.004987241270817349
0.02595766969110599
-0.1107651935447683
0.07982028249450276
3.127029300035949
-1.089495162408046
-2.57260879876714
-1.158494989169061
0.5604541707409338
4.738944273285976
5.609301146446529
-10.90869959025964
0.1967615949188751
-0.8114415087113791
0.4838134836626042
0.3276280248369712
0.07878321559459979
-0.2786687057937461
-0.2110253628308857
0.4109108527583162
-0.6450613013679486
0.2523027092568075
0.5527227531801213
-0.1599641611831126
1.806713835241674
-26.12372293155306
1.616515370961125
2.858666610549448
21.6485409502529
-13.83994362816806
7.688227283480086
6.712170515969934
0.1685525446321806
-0.05409535482820311
-0.1154075380354522
0.0009503481835074341
4.626724690953131
5.38449175361749
-27.61046612929232
17.59924968573126
1.647366581678745
-0.7766494048170203
0.2913894868449394
2.673264772619258
-1.77065121527119
4.07501960234872
-1.740472474109698
-2.961699469566256
28.8604020516021
-14.20261469914729
-14.65778735191473
-0.07669546679107979
-0.00500728033290057
0.0936989012612631
-0.01199615417602637
2.317506256120851
-3.601323825951496
2.078768082837046
-1.850711100326277
2.645631123677767
2.174516755752249
2.040990328860531
-1.898000828238289
-19.17988661484537
10.0745419915934
-9.684587298455718
4.373732372816693
-1.80850392152869
4.119758411851248
12.70260964321209
-7.667544745394413
-4.377457630144114
-0.6576072679099467
-0.01710146128595262
0.0798990405171613
0.006705612007893682
-0.06950319137713819
-1.297576793916082
-0.7311326337935865
-0.4658640369254634
2.494573464254266
0.4102995496622592
-0.4085118360753523
0.1958737696086081
-0.1976614833830355
0.04217095510295252
-0.06314031711665291
-0.2148215988120303
-8.064278165736422
9.076512969069526
5.20116088626323
-6.213395689436825
2.593610595174727
-1.956764674581863
0.7025402226677485
-1.33938614391327
-0.1089802772614768
-9.122973913526543
-1.81666188999052
11.04861607943235
0.1921844442323653
-0.1503895332869255
-0.04179491106446848
0.07758989462761384
-0.1518623276418387
0.07427243294014074
-0.05167901177656662
0.2698422516836047
-0.04898139022979259
-0.1691818497964185
3.683541889120459
-21.66097856597869
-4.120980125784616
22.09841680311102
-0.1574788588841259
0.1474620219758303
0.1566982811026329
-0.1466814444363636
2.639364089524645
-1.268843896500556
-1.805362192240284
0.1746158505385539
-0.09702595596783314
-0.1466991415860366
-0.05191755381913489
0.2311733146836512
-0.03255661941518528
2.882472472550655
-3.493370313469424
0.02933479282699473
0.5815630473936645
0.3625544142443208
-0.01910190228653823
-0.01857562992153358
-0.3248768823887637
-0.01601092815393652
0.01914904575783534
0.09001921147813931
-0.09315732916020893
-0.4333972827513299
-0.1122955879318157
0.2633848206394453
0.2823080498579558
-2.278267406568989
-2.138282731125233
-1.456996949086571
5.873547087009796
-0.08410468441841022
-0.1547454328134629
0.1033477013581566
0.1355024158154319
0.04942482880885161
-0.1460512208874848
0.09662639194689786
0.0700634229966892
-0.02126545060955204
-0.09033805363538763
0.04154008115872112
-13.78010803509314
-0.1338713040918022
0.00664520992413084
-0.02067364415383232
0.1478997381571437
0.01737886771640948
0.04662317659657804
-0.06400204439244027
0.03402805787836559
0.05996849501522203
-0.1077598370977657
0.01376328410412796
5.958365604300254
-4.114233451572582
-5.318460541043382
3.474328387717254
1.982544544170951
6.107424722466454
-2.415923621768006
-5.674045645108617
10.29115895381183
-6.594448778650739
-20.74952754896712
17.05281737423514
-0.0758030791623468
0.05499754442786074
-0.0818751857446047
0.1026807203985458
-28.66289271997699
8.786646879623403
-0.967741130843905
0.7240370852910256
-0.3685726869368082
0.7041303381642252
-1.059594736471166
0.7270050980727053
0.1501256013791153
-0.7220670331515322
-0.1550636665369778
7.192586977658133
-0.8571284912020534
2.121659147834451
-8.457117634723517
0.1038030738724319
-0.1240478143851471
-0.3366181979072735
0.3568629382873451
16.69860946454667
-13.53418311117683
15.12243419646
-0.6446204158576283
0.1856692394346485
-0.06172295880393104
0.09750849626492165
-0.03578553750515876
0.03927821151166351
0.1296270354598312
-0.1639686701345967
-0.00493657693011044
0.1062926963330927
0.03081359260281015
0.0227330004231815
-0.1598392895009914
-27.23883785146221
13.93660015034545
1.470781125128846
11.83145657705749
0.2985414388675607
0.4376366008812561
-0.3519745933495917
-0.3842034466322583
-12.76899132783067
16.42372881734872
0.09577033772189521
-0.3726712327446118
-0.1184817273227264
0.3953826222942318
-32.35645579763106
9.845163007257124
7.273327942430507
15.23796484835863
-0.1626024116671592
0.0394380027608446
0.05616050536585584
0.06700390341236091
14.18599029881725
0.03272248254770017
-0.04524330411615493
-0.02292891424884214
0.03544973566310242
0.44589401486668
0.06418092237660894
-0.551355548350863
0.04128061111903999
1.433415499076693
0.1559479253287433
-1.024254979901555
-0.5651084447602057
0.001831201939142439
0.3858910384102209
-0.1161426098381434
0.05573197177113606
0.1930328048224781
-0.1326221668402651
-0.07617599021465367
-0.1285292416926275
0.01156833762380215
0.1931368941629623
-0.208190687372599
0.02758903347005712
-0.002858456941935447
0.1834601108022563
0.1314195158734978
-0.04330240497042791
-0.08811711097591889
0.01869009914154075
0.03684540965717076
-0.05553550882665764
9.702374669898544
-14.114594044407
4.412219374272713
-0.06143073945157046
0.08147921451778199
0.1808777022919312
0.2138611502300773
-0.1385910087100528
-0.003114684766130909
-0.07215545696791395
-0.1031793091716838
-0.3017978394035757
0.8363828248319478
-0.4314056763755441
-0.1357553906415777
-0.3204585839027546
0.1617669721232037
0.2944470022809588
0.2099906984961879
-0.3948347979424203
-0.3701671604256608
0.5550112598135831
13.73643944893214
-26.46416073099704
-14.51111656853116
0.9064058434173671
0.5033238319941477
1.755669067841779
-3.16539874324623
28.78316047785729
-28.35595219723275
12.08844394375805
-12.51565222402969
-13.20504083862559
-16.12107530359614
10.14999266004325
19.17612348278417
0.1299981630220635
-0.03101983020345582
-0.09897833291740715
-0.0193325734524029
-0.0004174818618203639
-0.09201747427729288
0.1117675295178715
-1.246533496823647
-4.790174487920985
-1.027682426662806
7.06439041128235
0.4052967397818598
0.09243962157682389
-0.5775260701180963
0.07978970870296978
-0.04320360482470452
0.1423904462872264
-0.01598965300748448
-0.08319718855676878
0.03970303181664874
-0.0226598624524742
-0.07626695643226335
-0.02831656148125157
0.05078086642569736
0.0816889404565951
-0.1041532454832499
-0.05366241096737376
0.1137512153433919
-0.06008880441738322
-0.04794017895127098
0.04584273762958718
-0.1313580449989429
-0.05460868734168484
0.1943292332388114
-0.008362500998941733
-0.07004548133217509
-0.0300839619699526
0.1001294431700879
-0.4444328951983574
-0.02680902615128605
0.4033963169873561
0.06784560427105289
0.19894655621181
0.1788771214488177
-0.3273985418714736
-0.1435776486144434
0.09493229772010292
0.07589730013610697
-0.02725194932770306
-25.90178135072735
25.1283092879521
-3.50787093908265
4.281343002719046
-0.4437804585857001
0.1035748035477536
0.2806850491790394
0.0595206057268528
-0.4003030660620429
0.1602665088848438
0.4934992876190414
-0.2534627305737812
-0.1651749503471632
-0.01197531485934874
0.1047307224448697
0.07241954258410893
-0.06779782742498577
0.2774741173883765
-0.2448921854504073
0.03521589525419576
0.03650627369129514
-0.2412014373047769
0.148586102077371
0.05610906135664419
12.31394634395906
2.584687501332246
-1.437604128095304
-13.46102971690477
0.1149739442766887
0.02436925871769709
-0.09359170250527955
-0.04575150063616258
-0.08423118295295109
0.2122106542845574
-0.03860471068947693
-0.08937476086661941
0.1272248490937454
-0.1096043105935185
-0.1694828662467465
-0.04062107466995126
0.03447967084581739
-0.04488767842284449
0.05102908199056389
-0.07017201342396745
0.4387784387971859
-0.3161898497218252
-0.05241657578449004
-0.01855588131782463
-0.2068562412664074
0.1764444270756881
0.04896769525303213
0.1167660209501047
-0.008555708134128931
-2.284096562006401
2.175886248619851
0.1194142899672559
-0.0213967733984223
0.03978424926038057
-0.1378017659446711
-1.30246346972627
2.09623357865024
-0.3223791204500442
-0.4713909885002424
-26.94797733408928
1.400733799874566
27.17241970463073
-1.625176170032018
0.07992726586312331
-0.3238196994908748
0.3356415508811286
-0.09174911745871277
0.09976174355539315
0.02078522238843952
0.07026651811605697
-0.1908134841073316
-0.06983854529806557
-0.02003992292289646
0.0649765867421387
0.02490188141090115
-0.5232548318607465
-0.610012927290033
0.5899276271975794
0.5433401318357626
0.05668525353465054
-0.2600559926136555
0.2067192451891104
-0.003348506195869063
-0.1841516442633135
0.03114519404141346
0.1976863575356072
-0.04467990739097741
0.02274184876802814
-0.08779871722396879
-0.01468977072593419
0.07974663914479579
-0.3767128216035888
0.3634870344218277
-0.663035093723522
0.676260880718919
0.2598964013544827
-0.008523469903077495
-0.6479002394496555
0.3965273076054554
-0.06922123227472181
0.1382991566021617
-0.04739853654376888
-0.02167938784183123
0.1339763714867786
0.2835857936036957
0.009675180587687651
-0.4272373457884245
39.17157780058007
-25.17474166384708
-18.11796389240139
4.121127755903593
0.3501010606608908
0.1074903668886785
-0.1679708120837446
-0.2896206155512411
0.00919774204496487
0.01593266447745102
0.2118325187786921
-0.236962925411028
-0.6601020600489076
0.1225907663242054
-0.09316912383669404
0.6306804173309992
0.08583084032948395
0.0374198349973091
0.05274711518090235
-0.1759977906086985
-0.05230796206335463
-0.0545249011685577
0.02365226933609227
0.08318059382990572
0.04591130496016178
-0.410484715029316
1.72243559047461
-0.8452737621752843
1.276098662841496
-2.153260491545018
15.54833572174867
-10.98121727687344
-0.03856987843440005
-0.1229669913987082
0.1323717487713182
0.02916512094357362
0.0005523800716802309
-0.1259642944570318
0.02242239322508107
0.1029895211186929
-0.1292648610692856
0.1218520074398447
0.04005982631362457
-0.03264697272989967
-0.2353994771951864
0.1015388572376248
0.3134879526633718
-0.1796273327852226
-0.07162745099388609
0.0325980901675514
0.01846534463385941
0.02056401608422011
0.08041705873225805
0.02218918811632441
-0.004347458083013082
-0.09825878882606004
-0.0732878557464426
0.0554858254637825
0.09933019280276498
-0.08152816267081725
0.6028531231337571
0.7072172024291883
-15.20864794707428
13.89857762233897
0.1559629610149196
-0.1640116986524422
0.003444405611271862
0.00460433190386262
-0.1578005549708967
0.05270999894494269
0.02630630951822333
0.07878424645055991
-0.1908142100279236
0.3424357188353199
0.1333510927364711
-0.284972601742446
-0.04834871685218874
0.03959389147188907
0.008754825314426569
27.66853757260483
-28.43755630736523
-8.287244315300887
9.056263049734724
21.38781342824505
-2.426850273906008
-21.7730059644989
2.812042810124096
1.977321825729746
-2.185517539706921
0.3185957317763857
-0.1104000182671249
1.829536904355087
13.13403510533957
-8.35635711090586
-6.607214898881148
0.1377554369418161
-0.04978219269117846
-0.08797324430768953
-0.005139231658423136
0.01263945818268088
0.08516734530152459
-0.09266757191093239
0.2832450515733481
-0.1243075859764314
0.4374514007575577
-0.5963888665086716
1.827300301094224
-0.1377499693464898
0.2884308239186003
1.226307810563606
-0.4761502097433482
-2.061204353049093
1.311046752007919
-7.366443913619142
-0.2956611003051015
-2.383080259329254
10.04518527441635
7.589542709251635
0.9282386265873416
-8.209621792198071
-0.3081595441207555
-0.2815524793289002
0.1146449037884894
0.1126524909482289
-28.68729422556507
22.20462779967072
4.575255692442658
-0.1048606517145052
-0.1533136038536471
0.2246861661338517
-0.00165041528395355
-0.01966799965218692
0.02131841490411797
0.09551402761842577
-0.04780501516352306
-0.1442828225000006
0.09657380998027788
3.115486251245258
-1.651390401387694
-19.30227495977249
17.83817911071294
0.5384089908660767
0.07131062020900668
-0.7356308601089128
0.1259112489117628
0.0452115033782237
-0.04113271636628085
0.1235521882551027
0.364634272213348
-0.04025198702344779
-0.4947775503749894
0.1703952650799932
0.1371342308990784
0.03552112060284442
-0.07634867006379789
-0.09630668152698077
-0.09073642018359028
-0.4247855570999883
0.2061277608540726
0.3093942163106828
0.2438123555271417
0.03852887141814923
-0.2543771346491539
-0.02796409251573045
0.03178239734822336
-0.1960421471572589
0.02963535225946315
0.1346243972584802
-0.03086256496047589
0.4674851360871781
0.2591636965543929
-0.6957862677486949
0.2008628670021801
-0.2561547064280791
-0.2670725234028986
0.3223643626136467
-0.06525438898958232
-0.2846792744943849
0.3041367774343376
0.04579688575095284
-0.03711580474277094
-0.1423723529948852
0.1794881576498961
-17.09640716494201
15.47113680473683
-2.555687297439261
4.180957656855172
0.08116341995451896
-0.1182792247541627
0.1035283069020413
0.0766982511418782
-0.06267627772584494
-0.1175502804548323
-6.566852676961582
20.62286800549418
7.542248268292382
0.7205163845285288
0.01655191092842748
-0.4538232440021061
-0.8021144945583323
-0.3154988038839765
0.6591274081726098
0.4584858899720067
-0.03104637046284649
0.1116711506615893
-0.07508103576990414
-0.005543744477742977
-1.067484625115372
-0.4110384045790552
1.362593896033828
0.1159291331850385
-0.00168783865872569
-0.00608100947664588
0.03708678603667415
0.1227475782139733
0.04698546932510041
-0.2046954376555163
0.0349623899932027
0.06751111410016847
0.1363998840147444
39.37652494739785
12.41541592940117
-37.73395654316992
-14.05798433298131
0.04405699556033461
-0.08816662377585396
-0.002133313461403647
0.2872784048653758
-0.4869370728773872
-0.3401568243410711
0.04287648565016116
0.3661249175287167
-0.06884457907173476
-0.2754731806240037
-0.2685733129035547
-0.1734953364712762
0.7175418297851596
-0.1257714345686976
0.1722927604540622
-0.08411600920088741
0.0375946832647527
-0.5363863430912894
0.4372100213316335
0.01972689689120765
0.0794494247611644
0.06808869670237201
0.003451761952495804
-0.01922309625501356
-0.0523173625166901
-0.6592660550768616
-0.1067092215885406
-0.1475844926175276
0.9135597690642091
0.1021006514624966
-0.01023321231180889
-0.02766096685485294
-0.06420647236977485
-0.3634988066907482
-0.1061973705969766
-0.04896440219401618
0.2606251308237624
-0.1677229782238464
-0.09290215268089157
-0.036775571976288
0.02000080713121122
-0.1182437754190917
0.1350185401812983
0.03415165064010135
-0.1101307173195819
0.1024166232570538
-0.02643755666009793
0.5419727960092035
-0.7393441672239527
-0.123843078611525
0.3212144496864242
-0.06894359606991833
0.06830605736670613
-0.05341655336820351
0.05405409203466293
0.139375484963212
0.06853946734526066
-0.0005420175637064157
-0.2073729348078437
0.5983966088299926
-0.3691828460929352
0.03241906604621659
-0.1538962017989632
0.1097438442386639
0.01173329136529991
0.04309745859917085
0.0009455680493702404
0.3372873279602004
-0.3813303547663187
-0.08368183578520852
0.006998607855501491
0.006844682588014832
-14.10339198335883
-4.777055593720145
-3.376624196802421
22.25707177408733
0.4628760338531739
0.079651114518404
0.001553373753071901
-0.5440805221692648
-0.04858010217682635
-0.1885777764048426
0.1764809891885389
0.06067688926420019
-13.52472846035542
5.509309336936194
13.06842008595598
2.46628503507717
-29.05943358132518
-0.1299529183087644
-0.03932746170118211
0.02258123835103037
-0.05118784243921726
-0.09377997007695417
0.1862568903015794
-0.04128907794938883
-0.3134610226421061
2.291642410127562
-4.30676412381888
2.328582736476323
-5.648351955755511
15.81979300352506
-8.341904143300798
6.93752659951398
-11.38642392223376
11.77577413941657
-7.326876816505361
3.247440449651056
0.04191346061342342
-0.6716305174559118
0.7728331855771885
-0.1431161289605158
0.09667195456016425
11.02590616487094
-4.713638278815125
-6.408939840589851
-0.100515922858589
0.007523603147320686
-0.0861296135816898
0.1791219331644465
-0.6382657463308008
4.067279679954039
-5.169486407719396
-7.740009624527436
3.272307472910495
-1.194444419212791
5.662146570841103
-6.560933425217313
3.855961363536022
-6.852360797520008
9.557332858791129
-0.007883528525610924
-0.1402716621983967
0.02518300430951545
0.1229721862978011
-0.04191047610159424
-0.3257152591592459
0.3496845121797472
0.01794122286036695
17.27350247089142
16.861102235004
-13.30716532597546
-20.82743937956601
6.675085197777464
10.59841727336322
26.61416671325663
-6.157320070284706
-3.595744407676117
-0.05391154595497392
0.1695088063739654
-0.04687301837887568
-0.06872424210415663
0.1345730276081275
-0.09348381563277772
-0.09500075799833892
29.54411802479901
-40.51514311661467
3.40774509359919
7.563279998360342
-0.04838575531812039
0.04820578117479952
0.0008721747923096408
-0.0006922007198245798
-0.03037802931991081
0.06911559933364915
-0.03873757005333787
0.1394964898154788
-0.1760729418503091
0.3283614663812992
-0.2917850145563043
25.66337546908306
25.89250014526112
-0.09648362147785304
-0.01193085751185842
0.1272029030299847
-0.01878842407247809
-14.06902573875836
14.0400863717331
0.1242541380839911
0.02425964305845535
0.01982864465987487
-0.1683424259231901
-0.0254197372228326
0.009590045631234799
0.0158296915181671
0.1595856072494115
-0.01564657249817888
-0.1715725761660012
0.02763354134770812
-4.252254127761525
4.843210868304515
4.472730625032529
-5.063687365467137
-0.007765379559979526
-0.042986084527595
0.008395455676086254
0.04235600835569028
-0.05030412059553175
-0.04592854461769649
-0.0295186320379757
0.02175325245752446
0.03157800786815142
0.06100933635527529
-0.00675317606953384
-0.08583416821399678
0.07469383525832135
0.1160356601319991
-0.005981191182376084
-0.02353744088307774
0.07187236626495157
-0.1114839962322111
-0.1038449095259327
0.1434565393650129
0.04019867938200156
-0.01432578122306933
-0.0258728982086496
0.02238271640787411
-0.09356147522523804
-0.09455482078170746
0.1657335794722213
-0.305239758769339
0.1264298138006661
0.3198824886248288
-0.1410725439977812
-0.7441048659687771
0.07203791687645436
0.4989662701880841
0.1731006787180517
-0.1061065862343915
-0.2020886724976945
0.4278932504754407
-0.1196979919418258
0.3029403362222952
-0.03430298410729772
-0.5052735062184484
0.236636153959795
0.07700380479534746
0.01787315279167389
-0.02030415009552254
-0.1390335128347041
0.3287012921444205
0.09587510369187896
-0.2855428833919447
0.08132641853209562
0.05966297943678101
-0.1409893980159586
0.09069658960383994
-0.1073320975097216
0.05846099437864417
-0.04182548656929275
0.7920429392221643
0.01388695905570867
-0.4565784555833624
-1.266671526270143
-1.303642219442848
0.9450560365151635
1.625257709199821
-0.1077988150571154
0.02950857474235501
0.1107093062874638
0.07410900575894915
-0.03485006366781977
-0.1385170596978005
0.09939019802385637
-0.01670062990120911
0.0558274913856344
-1.179051414269003
0.7504279838815143