/*--------------------------------*- C++ -*----------------------------------*\
| =========                 |                                                 |
| \\      /  F ield         | OpenFOAM: The Open Source CFD Toolbox           |
|  \\    /   O peration     | Version:  v1906                                 |
|   \\  /    A nd           | Web:      www.OpenFOAM.com                      |
|    \\/     M anipulation  |                                                 |
\*---------------------------------------------------------------------------*/
FoamFile
{
    version     2.0;
    format      ascii;
    class       volVectorField;
    location    "1.9";
    object      U;
}
// * * * * * * * * * * * * * * * * * * * * * * * * * * * * * * * * * * * * * //

dimensions      [0 1 -1 0 0 0 0];


internalField   nonuniform List<vector> 
19631
(
(4.982323677691592 0.01785838361197238 -0.01402671923588054)
(5.504478590698331 2.878017056264331 5.0341090088185)
(4.678677841116519 -0.2773757778223083 -0.2101079192496957)
(3.451014130017371 -0.2678858516665797 0.2332443478726217)
(4.980362549865569 0.005736892630022096 0.004215181358749103)
(5.099154245290031 -0.07951429358106146 -0.0363076704675579)
(5.042144059983719 0.01140677248267816 -0.01526758873875491)
(4.774963182491174 -0.07247286691851076 -0.2587977576176788)
(5.006417592248346 0.1850055991390705 -0.102922172609761)
(5.040018907210868 -0.05268289852751016 -0.03333405174348516)
(4.939952808330522 -0.05170229051951495 -0.05297618652807922)
(5.061517321701558 0.01259656126880123 0.05207419740012427)
(2.072118727166238 0.007568430887905236 -0.1069098965598571)
(5.029023030151662 0.01724858459468892 -0.02800250218370191)
(5.024387683341233 -0.0187191141052193 0.008418540258824594)
(5.033176142682028 -0.004966229349664924 -0.03217236926282574)
(4.868869718158813 -0.2627577526871531 -0.1028084958757414)
(5.024592088898735 -0.01279605847057727 0.006276677246059265)
(4.973263105938711 -0.02325184417685002 -0.001449285761011542)
(6.075148568215729 1.377808849243675 0.5129107660231702)
(4.966695677730219 -0.03481257834381157 0.04620322172258002)
(5.0987061695245 0.1126375946338925 0.1547068358975532)
(4.8911658057716 -0.05388543785775352 0.006625145174944646)
(4.844789128446495 -0.3193218947523915 0.05472885475292089)
(5.030041567249834 -0.01698443923513793 -0.01119120848727042)
(5.01094456254059 -0.01307035231318946 -0.00376612485270997)
(5.062675737301327 -0.01620916292752652 0.003980287625792681)
(5.970997830772733 0.7468126172444802 -0.2442855219774843)
(4.080509650964845 -0.3480854566194548 0.1066395907614444)
(5.028801254384062 0.04013334453190359 -0.01696367056536904)
(5.017757705627391 -0.02595423004090177 0.0007173401461277023)
(4.948615810323558 -0.2237791474497289 0.1110463108538881)
(1.440736143758921 -7.343151968922205 -2.786089254321781)
(5.028631482096045 0.01733323320871116 -0.02864591816327551)
(4.987319795414459 -0.118942308251181 -0.03995706877219043)
(5.038909759319521 -0.006081428377074557 0.01684204915973402)
(5.043927589044173 -0.07363974233326445 -0.0137706521901977)
(4.972349724363854 -0.1110070380272725 0.03248680149310303)
(5.047421371755679 -0.02734521420643042 0.1250307102005031)
(5.083087614791518 -0.04664896335630059 -0.08258216770697242)
(4.819405365691352 -0.0786916219110486 -0.007152933641792553)
(4.209040490357763 -0.1989350849839769 -0.1930777335334147)
(5.088191236209374 -0.04879664941064683 -0.009834239843996461)
(3.609883532183119 0.01179563545600832 -0.09643347421633035)
(4.812387572773725 0.06302369539119183 0.1725738249069901)
(3.41069345499779 0.142946558274469 -0.2410678928129604)
(4.403079654689281 0.1211137374804381 0.289153447653778)
(4.917482964851545 0.3267651601369445 -0.3935607997012807)
(5.084181849870065 -0.05051463191255859 0.004712342314386921)
(5.035479271747567 0.03384460409924558 0.07548791000854742)
(4.940183421122867 -0.009368037590005302 -0.01351211932340741)
(5.057292634480405 0.04571341624837969 -0.03393673520828172)
(4.074541518997432 0.1750684194366255 -0.09801073364891896)
(5.022876845359595 -0.02109574748428936 -0.05569570155252826)
(4.970976022771663 -0.07322712101134674 0.05907517154952051)
(4.945953818561101 -0.07831012497887549 -0.07088930942650887)
(5.113772327679865 -0.1043164550729521 0.06438329974377666)
(5.037197195582023 0.007167573207026059 0.01995032973287765)
(4.990473880883535 -0.006363148201201242 -0.12403413380708)
(3.705241921758619 -0.05106291581631206 0.1911446937218443)
(3.898104454067559 0.451935200378015 -0.07335208700234165)
(5.127806085211367 -0.1879930064056855 0.208964961391607)
(4.914289378582754 -0.02753040740876437 0.1352885019219239)
(5.104659691848151 -0.08245036220930929 0.00490266980474218)
(3.97270918677425 -0.4102625736986402 -0.2798024738607334)
(4.990613892935908 -0.003385305888935725 -0.3591976824199822)
(5.040602888598692 0.03130260009130167 -0.012918096819778)
(4.950464207419024 -0.01986188402695279 0.02022696434111735)
(3.381600950860264 0.1125623138907032 -0.1964686136131862)
(5.025204901119769 -0.01481977387724689 0.08176538359607702)
(3.663768228158401 -0.2200703521369579 -0.2158945695796447)
(5.1083457115365 -0.002847552259396159 -0.03844704360740414)
(5.117313529042645 -0.05040057497628719 -0.02283556520611489)
(4.868416325342404 0.04816035576199167 0.0112118651743158)
(5.027933849916124 -0.006772379714764014 -0.1624664390554578)
(3.585386301914905 -0.1764181580775063 -0.09924413873597929)
(5.080524364695953 -0.06294534222021873 0.004343734217895494)
(4.653466455138592 -0.07719698006287194 0.3113069929309962)
(2.361145327138209 -0.107794396431625 0.2846935424828424)
(5.047871676123113 0.01484091386421861 0.0009061457772409588)
(1.927687411406384 -0.5663583032445653 -0.01452157391411641)
(4.721178442959464 0.8505024388818194 -0.2014647355143724)
(4.15077785927225 -0.03880523986854761 -0.1044573938726084)
(2.888959098220524 0.1514617666741425 -0.1121276298181762)
(5.123755524324204 -0.02470975063070641 -0.0653692449917745)
(5.103021761013956 -0.03906062617759114 -0.06649631385262096)
(5.082435761604282 -0.1495110800320174 -0.1436400723506293)
(3.264887654877995 0.543326216749229 -0.1051000797014179)
(3.482956216550984 -0.300335348127718 0.2862288306481289)
(4.439526485568801 -0.09534025780064062 0.2453187520392478)
(5.014841053653804 -0.04028651483122286 -0.06637320644273785)
(4.066005954821952 -0.1378849716421028 0.1906035262903026)
(5.413811995597077 -0.441215565970635 -0.9002956578373874)
(5.075238837443774 -0.04600514813763044 0.08183330860313859)
(5.079452542959149 0.0781694922602625 -0.3381903415030666)
(4.990308846507068 0.01733630402018965 -0.03352223346699636)
(3.523104375114877 0.1171965685220012 0.2042081838077654)
(4.980207594516494 0.01093688463473732 -0.1761169008371747)
(5.105038145927963 -0.09721944437728432 0.03373499087667777)
(5.088953007779631 -0.05365024448961169 0.04153198265204924)
(5.019830360101773 -0.07257286143563015 0.03620723325649985)
(3.123636121692926 0.1033919101541967 0.2403490776706481)
(5.029222994199972 0.02715291567536732 0.0620361924943433)
(1.467808111912171 -0.1132645621263742 -0.08354630373478435)
(4.696820776620894 -0.03596954676737361 0.3656684764257505)
(4.847178144372946 -0.1140048518424283 -0.07618337219647117)
(5.057260721748915 -0.00586761427726807 -0.003871199177671684)
(4.055873963654115 -0.01463038909948451 -0.1646004140310288)
(5.043173086968946 -0.03488270108145756 -4.895180213236182e-05)
(4.957627143082761 -0.02450680554091995 -0.003621917099159096)
(4.956509634144761 -0.005840991143787947 -0.009887337594086358)
(4.337717323596222 -0.05321733076069422 0.2340472370765938)
(5.017921599012643 -0.00538005018419571 -0.02154645133918148)
(2.530760302726561 0.03403549050682297 0.003564485883554541)
(2.989413451487446 0.03875163727968003 -0.05168402274280805)
(5.051497940964119 -0.08309125749786792 0.09487703721828981)
(4.742843376449726 -0.1534633195185191 -0.2486473724695693)
(5.043623961130632 0.001910229451923199 -0.0890532936740337)
(2.7219178020682 -0.5324302204126129 0.3137232505495141)
(4.992026109640885 0.04080763515819974 -0.01116575748151338)
(5.067093044706119 -0.2256148173889773 0.2389962379325916)
(5.018100192226473 0.006575496143610556 0.08837833152750783)
(5.03258512513546 -0.01541537366838633 0.002973747029548094)
(4.890382548175473 -0.07898507128917942 -0.03947822378468741)
(13.76514559315887 -0.6933317540425056 -3.774638147096236)
(5.015274464930062 0.008142317124879953 0.01781127481513269)
(4.333128105737724 -0.1310963942567998 0.2761617528522278)
(5.022907862925697 -0.01887845893283467 0.0110166855896181)
(5.020625505315268 -0.0430122937739912 0.01821282438057568)
(5.049507005453909 0.01273806973317984 0.01676003015634658)
(5.343490411378159 -0.534732117807009 0.5010679469250975)
(4.077752122618307 -0.3151588841474336 -0.1707465687765063)
(3.199796062622759 -0.117275897395641 -0.19555396317089)
(3.115206667421599 0.2325195418153345 -0.03275183293816966)
(5.045245339821879 0.001231140993451011 -0.05303671719105989)
(5.056516992809566 0.02831591860536705 0.01847058231198666)
(5.05515220872582 -0.05214908500631429 -0.02769481753998066)
(4.456679565898083 0.06433537654143949 0.09528078439037198)
(4.999408451206845 -0.127109092613211 -0.1069043767103798)
(5.058754867150938 0.004411786558275684 -0.0003662225894446038)
(4.813000729591602 -0.04625613249258392 0.03763679589796887)
(20.73225902833781 9.763134055783528 0.07938467363397816)
(4.971560536280285 -0.001521810831838979 -0.3096613092206157)
(5.129317411869817 -0.07967351951435743 -0.06287209031494304)
(5.060857053248801 -0.02450475177648369 0.07803491046298978)
(5.059544325154574 -0.01667333397709506 -0.07350979088406967)
(5.030928186351333 -0.005626413673154029 -0.06447420307474754)
(5.014476403712075 -0.009910433096223324 0.02625240755486645)
(4.862317295234117 -0.1803744274192771 0.3521056906113363)
(4.293197265660361 -0.1894914276286455 -0.01012591297914774)
(5.011075960565054 0.008954817684827997 -0.002599958171341928)
(5.045139499077131 -0.01570798473445403 -0.02859039347446224)
(5.060978594753312 -0.00925910494462783 0.02469588659934046)
(5.065461542399753 -0.04016882451318672 -0.001482556802856065)
(5.00478374191869 -0.004335413687177781 0.01998881177467752)
(5.03983434581613 -0.009613565123874127 -0.06376396156778312)
(3.034784006916076 0.05321892831459475 0.4303561631472336)
(5.065831584648357 0.001471074824341142 -0.07205042404068002)
(5.104434849912738 -0.06405659149794121 -0.05926962355562855)
(5.048396297298204 -0.02117491707622865 -0.01488810336552019)
(5.015947522300564 -0.006435583776406386 -0.02323519804308729)
(4.968436506790528 0.07461376363569791 -0.04816632776478014)
(3.92952393893464 -0.2177408115780619 0.001199731020003694)
(4.919848156301054 -0.1242113237739459 -0.5466028737941389)
(5.036240556992661 -0.007481382289829739 0.01295854939430245)
(5.031248875488849 -0.004353444581040375 0.01001549546495234)
(5.025137985549674 -0.008384095199038381 0.002056989211654107)
(5.027508800133502 -0.009051654927752171 0.003936828857040584)
(5.218445364811366 -0.06773783044857276 0.03276471078881078)
(4.137738307046888 -0.08090489742154658 0.1537381410960404)
(4.947044290570315 0.03770121814382909 -0.03034466878373343)
(4.816940893756312 -0.1121422998742768 -0.06355503702525611)
(4.931109580110978 -0.09394447193161462 -0.1302533885416727)
(5.885369358631306 0.3553524576045609 -0.476175381649038)
(4.877837139869689 -0.08536801768649137 -0.1960143373608356)
(4.537813949987044 0.7263794380826271 0.1896057592471512)
(5.062181705605359 -0.02500167000484146 0.06643920035853036)
(3.576481168358967 -0.005793374710868919 -0.1779213226735276)
(5.04800727400572 -0.01171428309981955 -0.01072329220937365)
(4.587265938937006 0.5795688992591689 -2.49352612291103)
(5.082838406438369 0.03423507402301432 0.1229219944621001)
(4.979437271918549 -0.02876753490464857 -0.05052215793178864)
(4.775303994271822 -0.01833628160666268 0.05152163755374576)
(5.096794895911301 -0.008077972637860951 0.007033628693790197)
(3.337232763601308 -0.3524752432622957 -0.3515664635422093)
(2.008213800765274 -0.1777129066492528 0.07698858283619585)
(3.936716908166128 0.1905229636268583 -0.1754672639933286)
(4.99175744761371 0.005336924012507423 -0.007117183122236068)
(4.840020764323641 -0.5614151797658695 0.3853657692207763)
(5.043664687264362 -0.02172190718324151 0.00529412485844233)
(2.502176695442658 -0.1031809607679179 -0.02270975229753487)
(5.055532587643066 -0.02880997912175603 -0.004584654340737133)
(4.843450848897493 0.01589227971511215 -0.1918018444280728)
(5.002749462930201 -0.003229281504151791 -0.09369975712530512)
(3.685791371271828 -0.0694350340501327 -0.1361681747964899)
(5.083011776493736 -0.119951539845037 -0.196007782212678)
(5.002765639195319 -0.04196387651010727 0.03380617068918343)
(4.659199027538305 -0.05433421231764265 0.1306035667570476)
(1.867326302025852 0.2556441804113155 -0.1506898813065392)
(5.011141227792516 -0.2881730744812947 0.2767893185652129)
(0.2735940355004379 0.1923177616988667 4.886966991864801)
(5.024132170794002 0.1811733705645942 0.175064675582282)
(2.335482259767934 0.3180838284167624 0.1834628798563768)
(4.322492016606809 -0.1590467589578092 0.04827045656110937)
(5.053969074325002 0.02070718246154326 -0.01551199130284382)
(5.009429317610686 -0.01022493533969006 -0.01750415883010792)
(4.943697036848511 0.0046795713265615 -0.003438341324100432)
(3.502170813083528 0.1456199007639371 0.1170294284581214)
(4.665086312010869 -0.9299062858890199 -0.03698281098865109)
(5.054736698898433 -0.07584579854116086 0.05199526639583145)
(5.074483886192376 -0.02868237592581067 0.04219352436795367)
(4.893752665146861 0.1146750262301171 -0.08027777895928487)
(5.078175007110148 -0.01037014659192609 -0.04720231892482999)
(4.973337272287268 -0.02226808134604463 0.001858004481705588)
(5.056035948200274 0.008900259179587346 -0.0363169524337888)
(4.260869873674176 0.04552061930155638 -0.2577009603792059)
(4.57415966915428 0.5414948847825819 -0.1056832220799999)
(4.817020663796629 -0.09659484103557064 -0.1219792726107677)
(5.106468155972166 0.07399794590151045 0.02356888960030846)
(4.773274338496965 -0.06581688208586568 -0.0401241833769329)
(5.003562978413489 -0.002886564136964835 -0.01712309633525654)
(4.883739693671654 -0.03052193732033073 -0.05025536230370694)
(5.125133513352843 0.3454879504389345 -0.08563387383488663)
(4.931868248338352 0.08846937230830301 0.2654305644163635)
(4.885464092881124 -0.02818057951262927 0.3424481880341397)
(2.729320651211347 0.2475970240888407 0.04890956388082998)
(5.071007418544194 -0.06881791754713347 -0.004282172309859259)
(5.080874479950327 -0.02000302230440775 -0.01475543581229161)
(4.622081154908169 -0.06127627662126493 -0.05542813785924784)
(4.634127451669602 0.003585322719827389 0.02977838219322958)
(4.921967651030798 -0.1070420808594274 0.1165773000813615)
(4.658158067298896 -0.1384636267808407 0.1612698879764008)
(2.53578352736388 -0.5146585969340006 -0.1068574672638986)
(1.758137867787104 -0.1794404971410545 0.0444085330225123)
(4.912352191345015 0.008240198460024656 0.02019027995232358)
(5.069762545065007 -0.06222851686723126 0.1088980303940075)
(5.043377614571794 -0.02629531765211428 0.187455880858607)
(5.112855040757135 -0.1025370967896131 -0.03277947061345712)
(4.021874612480869 -0.03590701171922867 0.2682890624589775)
(5.122188280087831 -0.05866068848720811 0.02570974502476007)
(5.051822581131725 0.0160907477840859 0.04803556886800021)
(5.119692371572461 -0.0345476279285294 -0.006369080218577034)
(6.072680673893434 -0.151299254945244 -0.07228089680517449)
(5.007074966667551 0.0004566449522259876 -0.004725507016612354)
(2.893697672560211 0.03157170503366106 -0.02286162621278691)
(2.599454337695153 -0.06501189586295796 0.01838173877652469)
(4.985261469298443 -0.05503004546215062 -0.05088765960056071)
(5.141114828082889 -0.09614253192603502 -0.01607094662896448)
(4.226297518605361 0.1484763340395077 -0.03379739712372497)
(4.412656109519899 1.512274805720205 1.190746925710002)
(2.435658431893705 0.1184787168248674 -0.06154542016748936)
(2.899230638409513 0.05351702915009766 -0.03454940992218346)
(5.172979233993519 0.08973979210138529 0.1780102022734769)
(4.931007850234795 -0.1088359145622034 0.007344026446184862)
(2.300267177475654 0.154075299209807 -0.1130446754030352)
(5.032373654809883 0.4003435705880801 -0.3716544329324222)
(5.065999475533118 -0.01011165316657695 0.07659349125573996)
(4.343384163157447 0.001382677854977608 0.02282523458485068)
(5.105841981592231 0.09521069174573779 0.1080917734923632)
(3.948287209392768 0.08326085178404176 -0.2078574135671497)
(3.960400317492058 0.07546089847953955 -0.1161688968173586)
(5.055698072399298 -0.06281971052489829 -0.06471324321815179)
(5.085418668273993 -0.08917724177449503 0.1709707396906107)
(5.618158081463983 0.4970077518069889 1.362793862800321)
(5.27348279290687 0.2003982107046342 0.2446310887740459)
(3.961427311374736 -0.1376013053210433 -0.06815903679416087)
(4.39902784239302 0.03459688273715815 0.1101628082118383)
(2.728548833652578 -0.4109291899460549 0.09646407380015033)
(3.614243051489474 0.1541399606002493 -0.1706800971681615)
(5.157598617925014 -0.1822582033525096 0.06370032376279296)
(3.643240010810056 0.1810053680561951 -0.1196733577765766)
(4.82556214634114 -0.1263079125377408 -0.1188595162824891)
(3.482704452026948 -0.1205364711539827 0.03029300214219557)
(4.993297753265919 -0.2602391761156063 -0.09800660444800237)
(5.108372585880107 -0.07803846185475456 0.03887503110319382)
(5.138091811997686 0.00266867535825773 0.03246281705293184)
(3.813298372214778 -0.04985366517636317 0.06328881332841882)
(3.402861296263436 -0.3105111630054807 -0.01951071954889526)
(5.072740399691412 -0.06324501324113255 0.09279304637918387)
(4.98843182495049 0.1842473028672395 -0.1217725595272386)
(4.45797197377499 -0.01742979243127518 -0.04926803931971932)
(2.695701852729528 -0.2699054580864533 -0.2164053948096822)
(5.066542612658028 -0.07135250610544018 -0.04407374279787191)
(5.036977419819224 -0.01225964199542145 0.0534550462489909)
(4.558768775369352 -0.2063533279855768 -0.02972847360744378)
(5.03873669509892 -0.1044723993071063 0.0008161414803607247)
(5.007965394882206 -0.0003983562137373921 -0.02551158598179819)
(5.143608513759568 -0.05235123636125614 0.05858315587371373)
(4.955774295004341 0.06512193086167935 -0.1244480025879335)
(5.088016108325681 -0.01572964000884804 -0.1035325407966424)
(4.800631407493025 0.06564859480921065 -0.2797905960506912)
(4.534601896497859 -0.03396263852664166 0.08036379107238831)
(4.996580854090968 0.1048284155200742 0.05540197585496195)
(5.042186007151606 -0.0008219000682704665 0.00461394586917675)
(5.005806177813163 -0.006379156739188407 -0.0002640864151287145)
(5.031464910308912 -0.1318456876412416 0.434930400828649)
(4.687804100172428 -0.1845927587639089 0.08835836661786822)
(3.975774817553769 -0.1017128885110238 0.08577209906328166)
(4.451882293359486 -0.1169127035996138 0.08011671197261891)
(2.953405096119179 -0.1804087889485416 -0.3471864871806783)
(3.781039374509648 -0.3031314054776458 -0.03634661208119736)
(4.877434477769786 0.4383870450585747 0.2444132238715074)
(4.927836972206531 0.03001661158438156 -0.01242467388986238)
(4.746050092494659 -0.1201120898056523 0.07887888095588255)
(4.42260886387597 -0.3716088997556395 -0.1685290602743589)
(5.056483087423828 -0.01916499636382771 0.04449591431686279)
(2.21219655850925 0.2319639963698792 -0.006914231609677996)
(5.005540477930866 0.01141171559146741 -0.04049031406182968)
(4.953867555365443 -0.009998337709392494 -0.04350484558679867)
(5.036630368063491 0.03097896726751554 -0.0572975337879536)
(5.030273757999983 0.006352092357534766 0.0004363680499972691)
(2.547913502339297 -0.3431357933508485 0.02197613159692611)
(4.873275437770508 -0.01768695240527229 0.09212719924375824)
(5.088364133643797 -0.03142616115510833 0.06224294555236119)
(5.039913682656298 0.006482158292632509 0.01952672462682308)
(5.027875543915844 -0.07626268660793685 0.07755325908265338)
(4.977406956220255 -0.01594719642509164 -0.01774015719622302)
(4.983008918309036 -0.01659221505354848 -0.0005333552602813839)
(3.627670694753028 -0.1344453448217144 -0.0848929262012459)
(4.99976768588107 -0.0100619240441431 0.02155920520118954)
(4.766573099860252 -0.1211315874503831 0.01271671489603674)
(1.221990966951409 -0.1759059176134008 0.005094562979047102)
(4.955497228860286 -0.09195993416934803 -0.1515610673225185)
(4.548863243060094 0.1338521597908379 -0.06505593377482528)
(3.857750505092364 0.09961006789827014 -0.2039374355762449)
(3.665277584487753 -0.2491442268585667 -0.008368075926886577)
(4.956749507783762 -0.0836352487223509 0.0748542519886253)
(4.209548863569335 0.07442004954880901 -0.3435849081718759)
(5.156593534432712 0.1226023184818901 0.0757120032467252)
(4.730608566634171 0.21175972309321 -0.1914598811170662)
(4.988472961623493 0.1113892800469174 0.2178905920569587)
(5.048056813410092 0.03558103065142881 -0.04750354384172528)
(5.019348900305438 0.08654602476015757 0.09817327773434391)
(5.005918147231469 0.0977643291361311 0.07944036228548511)
(3.931858413037092 -0.01658696709843302 -0.1510755160914441)
(5.015897195894982 0.006686808138103888 -0.08392467117148171)
(3.474453154201949 0.01900224669935972 -0.05365067046013244)
(3.977030004635351 -0.05526342745615503 -0.2714526458713311)
(4.975390318047894 -0.0444045470413619 -0.07690251126544224)
(5.084780681104252 -0.02660020751237056 0.03629131736107936)
(5.047009941651244 -0.005338787856516201 0.025669530066613)
(4.603707843670867 -0.1124195282869314 -0.01923588241223163)
(5.074731337414795 -0.04349897835647509 -0.005031732412591792)
(2.535954606418279 -0.1364211548004691 -0.1339443547332486)
(4.523415172255338 0.01358728293695475 -0.1572816683474598)
(3.951635624318878 0.1374876270465427 -0.04424322658423784)
(5.008700524498377 -0.06137080222006359 0.04388467265747654)
(4.980113329566117 0.129225366333323 0.2974345143248864)
(5.088054936504159 -0.0586057881718208 0.03665456702396758)
(5.080141206748769 -0.1214427218365849 -0.1404884631813201)
(5.104140183072438 -0.05564869319868191 -0.01025258147832262)
(4.696220877715891 -0.07944684626570142 -0.01501385829731491)
(3.290972384735057 -0.002031236518138383 -0.388751438017342)
(3.627958566564011 0.04990228856163167 -0.2523332286151079)
(5.093644475420485 -0.09148333860000767 0.05828169566977353)
(3.595871360133174 -0.1807433974422922 0.05379206388297832)
(5.064788132759458 -0.006511369006392176 0.08058212367048448)
(4.305050244295624 -0.252552997922421 0.0560484081993828)
(5.136017733087426 -0.1417349523008799 0.125529605720214)
(4.839193238639806 -0.1218508045772907 -0.1876202971693156)
(5.100430265758665 -0.0369412383944924 0.01724172509468143)
(2.492466710208455 -0.4019371057656003 0.3925506545097041)
(5.000383963226534 0.1366023880291005 -0.2005053136700096)
(5.132063958493824 5.226620677754293e-05 -0.05081140489614969)
(4.966369245808226 0.1365908449091282 0.1031798901696574)
(5.065509134100289 -0.03051226624202614 0.02860150023862932)
(3.10016979878495 -0.08276057908426529 -0.05077138585241215)
(4.865385504746341 -0.2394457735870775 -0.2729091599721495)
(5.060779430393351 -0.05317563454368389 0.01165722096759249)
(4.915613528494179 -0.2410890488131098 -0.08459339444418333)
(4.968499081279709 -0.01118630695397283 0.08511065001863515)
(4.936985897770949 0.01111432104572782 0.1049473486324601)
(5.026873175468404 -0.05447992344137895 -0.02959496943419193)
(5.020218806342339 0.04850782355545099 0.1236228133689044)
(5.104335597577064 0.03070287820881603 -0.1008026993551724)
(5.004379305012571 0.003615884293416474 0.0006924162511380891)
(5.005004660120916 2.229729404848666 -0.6551796944876302)
(5.031380943256902 0.01102506825817733 0.01294314714318102)
(5.086313433138745 -0.002749790451343378 0.001085342413630515)
(5.032767578205579 -0.06627683898765555 0.005636206253016809)
(3.476731499789648 -0.04406479726126025 0.04613836759458255)
(5.029338915968805 0.002118054272561664 0.007472144941127932)
(5.00731199873493 -0.0445824677869765 0.04401489536467432)
(4.997866204330632 -0.08615644930518482 0.01894912461783008)
(4.394454542561488 -0.4481214986011447 0.397588273812763)
(5.008501824410266 -0.2222802586864546 0.2499464025489803)
(5.18355507749077 -0.03038807427715476 0.225386250023672)
(5.096359324956125 -0.06083972122134901 -0.0208428502406663)
(5.129307739160987 -0.07602986244572646 0.1643110299981773)
(4.514299881002317 0.1343771064675324 0.09680199149504173)
(4.625213064364861 0.159227127536135 0.06102498012343691)
(4.980346970750715 -0.03404974753433323 0.004779309686614723)
(2.2180491363449 -0.07744763386434363 -0.05264222670663943)
(2.415335172123899 -0.367460137770647 -0.008631099198888537)
(5.07797990595791 -0.07957971789512468 0.1062080899491339)
(5.003003296958672 -0.002410341375713093 -0.01468719940212069)
(4.99746416905694 0.01267112320406179 0.003257170227906148)
(4.705206746350499 -0.1529584588112667 0.0142808959781857)
(4.590057342720381 0.4085482555565966 1.130448554159227)
(4.975643147649658 -0.1465329622301974 0.2125925331656015)
(1.66627024445384 0.09154410915500136 -0.09220622603745943)
(4.898372625003138 -0.1367262600523417 -0.1087949720374003)
(5.129725694870989 -0.2261355359441607 0.09158968314267112)
(2.118141507589488 -0.5962092667629972 -0.1355311594556715)
(3.742435913133807 -0.05398905281615279 -0.1141919132462342)
(1.523541448766246 -0.5369010429186977 -0.2315106708273051)
(4.267640938714854 0.1977246078825589 0.110558612928225)
(4.85192422321341 -0.02404489039748861 -0.009024477144560767)
(2.210861463256886 -0.5415216287155113 -0.3257324131479525)
(5.032414711527156 -0.06231611855714034 -0.2421167526905405)
(1.732045773815447 -0.01666085883534484 -0.08051492329455646)
(4.546660681700576 0.0312535464990021 0.1897717493887963)
(5.020475198627565 0.07546818767828302 -0.002836204500411229)
(5.110762179693182 -0.1698248771127984 -0.07235623001041992)
(5.122804892130016 -0.06227935664368864 -0.0543317981007714)
(5.076770911235856 -0.1049863872542205 0.09633014932847501)
(4.130051173067571 -0.1629490351813274 -0.1757742913025623)
(5.083810710860616 -0.0384567216566954 0.1149750140979911)
(4.094930870688233 -0.05833765106907753 -0.5977536664247215)
(4.035287111731333 -0.2212548172777953 -0.06274975106467245)
(5.037379397790221 0.01082860597814761 -0.1294519934025546)
(5.025360840823844 -0.02600056508016861 0.01646319510925765)
(4.876983055629498 0.2453081852826554 0.008119842807930674)
(4.776806826876532 -0.2163151276895918 0.4829305948890689)
(4.988363999050975 0.1171846902699428 0.1635231121614416)
(5.091681033644112 -0.01045069262767277 -0.04334987047441216)
(5.082671781653903 -0.04254396440122392 0.07841369337615123)
(4.73325464999223 0.1205632925153629 -0.1560043830489484)
(4.96486946706005 -0.05617533524589869 -0.096085158827961)
(5.057276110759208 -0.02322628667383986 -0.001646353570425051)
(4.959933638295404 -0.05260405999874851 0.09459059049457857)
(3.459510025297509 -0.06376697871616355 0.4067221528509975)
(3.647811622230944 -0.3508712388453572 0.3164972881655893)
(5.018238395468608 0.05665252108415548 -0.0619493936599432)
(5.072829962656258 -0.2467165525239772 -0.301466164827639)
(1.920792528512242 0.3442746388884317 -0.3728840382288129)
(5.00378337869456 -0.005636020973206876 0.01222163216058501)
(2.502798222157395 0.2526498151157104 0.2879285860891322)
(3.609784246314531 -0.02404120954150675 0.1915371631666954)
(2.910368123830918 0.0697648937640198 -0.3638805233638061)
(5.002646620937358 0.01135422598100341 0.005056847394386794)
(5.079674033980879 -0.1114213040668923 -0.1820810072827871)
(4.71415988249821 -0.2797160023627712 0.1977620970364251)
(5.119739381805566 -0.2035057433119643 0.1832751120667791)
(5.013119198353034 0.006085054604707889 0.0006396500192008123)
(2.588790983640852 0.1982414738560937 0.03409307718390228)
(4.983551398309452 -0.000880496398244368 0.01535436599256325)
(2.400577686485108 0.09145953751702227 -0.2603493359621457)
(2.234981077667146 0.1171423839249716 -0.1317124470266466)
(5.072473852622889 -0.04418724509415553 0.03046857459231589)
(5.03637452975045 -0.1325869550960628 0.1693007962010168)
(4.836639625999775 -0.0436975349140275 -0.006668618069770353)
(2.047601077533863 -0.1008363956249847 -0.07362723263312029)
(2.865380898037146 0.07628178797689192 -0.1231155797171398)
(4.992761613484282 -0.009551179773474947 0.006454039357509347)
(4.994037569090128 -0.009677738021831141 0.004122811810946377)
(5.026889149852931 0.01496067326799514 -0.02438390028379648)
(4.959576864031915 -0.09719395266317531 -0.0008166200628049857)
(5.08879054901226 0.001289875602190074 0.04788967152457862)
(5.346239104698694 -0.2791542767064569 0.2060190418904426)
(4.735335196124454 -0.003282358277990518 0.1243999920677313)
(4.941848259286774 -0.01924285503615268 0.1371335021583796)
(5.032841634789351 -0.5691960933163562 -1.850813033427416)
(5.02612072291588 -0.04782321442091388 -0.03982318824022534)
(4.647315233605737 0.2595024200317179 -0.1937101737578539)
(5.07718995308241 -0.0194681909279843 0.001584762047343364)
(4.510147030668571 -0.2787106531715698 -0.1049039229147053)
(4.648560774801974 -0.2830502642389348 0.313933265770874)
(4.902620104293453 -0.007083403826480541 -0.01312376107908384)
(3.692708605258293 0.1115358284804411 0.03443458298649929)
(3.80366686918614 0.01009839262261744 0.02167659388200679)
(4.937660801402384 -0.05635694940789395 -0.271274311039335)
(4.995666827670054 -0.05077857875397366 0.02921742965219665)
(5.017093305485324 0.001120593042048161 0.003985355710286127)
(3.085703315211617 0.2219268942841219 -0.04129072764865374)
(5.118459168149793 -0.05235366942230565 -0.01953372317020219)
(5.060547516553588 -0.09773377482050125 -0.04798384030552852)
(3.796643859701956 -0.02121946609781978 -0.05772562185488619)
(3.182688628369694 -0.1170043874315822 -0.05345666756253463)
(4.696348982465042 0.07060173466163107 -0.04429058508639312)
(4.481076729311092 -0.04871449819804154 -0.12012255066392)
(4.405993124376515 -0.03954447987842133 0.03366247654872825)