/*--------------------------------*- C++ -*----------------------------------*\
| =========                 |                                                 |
| \\      /  F ield         | OpenFOAM: The Open Source CFD Toolbox           |
|  \\    /   O peration     | Version:  v1906                                 |
|   \\  /    A nd           | Web:      www.OpenFOAM.com                      |
|    \\/     M anipulation  |                                                 |
\*---------------------------------------------------------------------------*/
FoamFile
{
    version     2.0;
    format      ascii;
    class       volScalarField;
    location    "2.2";
    object      p;
}
// * * * * * * * * * * * * * * * * * * * * * * * * * * * * * * * * * * * * * //

dimensions      [0 2 -2 0 0 0 0];


internalField   nonuniform List<scalar> 
19632
(
1.143026558135161
1.171145002049922
0.1372242852478257
0.3931020364071862
2.179917947901205
1.597498252910384
3.534505431010335
0.7317416035437074
2.018404243434533
0.9398938634096323
1.007897927426783
2.091908389816317
1.193900870813268
1.728382747738235
1.670004274286452
1.697415075530993
2.917585568130765
-20.49142878264507
0.5656771325909074
0.6555066087953271
1.164620243149879
-0.2669028515802587
0.8884071956968869
0.569943795244743
0.6644355240549568
0.56094937778406
0.9065564682807081
0.008196430611458515
1.784634563691418
1.179097276925551
1.47723378748283
0.1595132704943822
1.14218283647538
0.2044490808731341
-1.447165473792907
1.076636186519633
0.4812892938903882
1.215152085925528
0.92540245321412
0.5864170575970359
0.5702460051411
4.154712711304228
1.175544832912996
10.89604535967331
0.5317301945995896
0.5687736171956262
0.6787349339757439
0.6958645639202491
1.634486928292268
6.333083538866746
1.458887561281798
1.088093511885812
0.3853823182347039
1.261807796627967
1.772976018775368
0.9520020866068603
-6.455836981965423
0.9092525638115427
0.6402407674366105
0.7371631090935742
0.9002564385945713
0.8050950426698041
-0.03781766340309285
-0.5079285883167124
0.6650611681382723
-0.0183260499791891
-0.348510629884577
0.9134745149645939
-1.543891174184347
3.797630565788486
1.014777801977087
0.6995237435139879
0.5285284888461846
0.7001484196087557
0.820007115621289
0.6534138672218879
0.5768364739474511
-2.420583345746257
7.04193311038739
0.6025615753233986
-17762.360558029
1.376704537388018
1.854962402046899
1.220108701235203
0.3938681941299716
-170.7639588613167
0.5702503888278857
1.149242194769219
-9.181671708918032
1.969306676364874
1.170230757596552
0.7918205080000286
3.572235388169076
0.6977456914196799
1.453404004381005
-0.5774686346816026
1.401787608186583
1.29375754283137
0.7251709637640305
0.9015758585353792
2.330894123638465
0.4636105841145847
0.5803815332014018
0.7762506810950484
0.6496111518998595
1.0596833140728
1.124997637724541
1.227003692616312
0.769353762890875
0.9556017581982899
1.416449534016214
0.4134064746405651
-2.309362768394939
-0.5391993623520572
0.7469634104101551
0.6706193858317692
-0.6247624809587998
1.046844156297297
2.274317568716926
0.6804861179695719
0.642408406956688
0.7379818414063739
1.113559158710831
0.7748477752804791
-0.1712877829808678
1.156822479981068
0.5038836671625908
0.8272593777220014
1.358846630069316
0.2362750780846543
1.074090528009843
0.9836934061570825
1.258601064443056
0.5909039631007944
-0.6091699312737991
1.505323838453472
-0.07006175427261235
0.5266465881697134
0.6352550175413402
0.2004087226320437
-1.869243531555414
-2.674336643545077
-0.4536518996220802
-0.6088406219156144
-1.677987198140883
0.6144302275384734
1.288355862253565
20.96132442120339
1.084540378558769
0.5270444803944977
6.031623994131495
6.652301751160918
4.622964547213839
0.746941512537304
3.159510131464301
4.953518089120603
0.674098694555713
1.875852488965878
5.312807365741788
-0.3737189160149925
-1.718786021613982
-0.7809903369002619
-2.610478041590563
-0.1152073433056892
4.518913331975224
0.4650849328701491
1.426566196078073
0.9760742347815293
-0.1701870154366489
-0.2542102422877044
0.9816005834361669
1.221759131926858
26.84210486521406
0.9416033107472497
0.9697637229575972
-9.437699408983896
0.754925467033661
1.117857424116093
0.7590606830273245
0.7310563295467054
0.4109107395953843
0.7466297207659389
0.672867300321101
1.177383281137103
1.376437981527829
0.9377284725978188
1.386767506483117
0.4737987834373003
0.648243286503
0.7537835982724788
1.135073660600963
1.209201375569443
1.42962345548717
5.484450725874281
0.5328211621884826
0.2813222352934042
0.9025087796599039
1.195039895169814
3.476849972803093
-10.74733928182813
1.044510697356476
1.065570650621044
0.8268793682952484
2.8146242645727
0.8862180399628771
4.510596006547711
0.566772606764313
2.212293219381539
2.040375448305203
0.8059227855852873
1.688911867659693
0.6146258916173856
1.10303456536385
-0.4116960876203216
1.478110772146576
0.6172558984714113
-0.9991382365215715
0.5859888585338314
2.059761919079769
2.083744568513276
0.5757139160749617
1.2899319701112
0.9078071857726315
0.6724867523057033
1.85550686092691
0.3948945736321712
1.334721832104745
2.462046273259883
-0.1922152019938613
1.726533617188126
0.4790049205827618
1.558460855010652
2.052463950620652
1.5772886506339
2.606812471046166
0.4888550137627448
0.8108891058815753
0.3891649800617142
1.671963838292933
1.013468369770929
0.5482831206457235
1506.306436135487
0.4435295166390812
1.091060311930564
0.8195550919083099
1.792829213198247
1.167878636112766
0.5144604213237776
0.7311320220130763
1.117364619333842
0.6220027886356373
0.8523780887737676
0.5847306153459615
1.258992793240603
3.024505749415312
4.017742760761719
0.7488164418510885
0.910477523195682
1.377973139602569
5.819552103510295
1.826910339346733
-3.661460519262861
0.479987858235414
1.253734568992241
0.858620595878447
1.16454312981964
1.316618760216087
-22.82768329746928
1.174694024897345
0.5573943563443492
1.362115741078555
0.8336464932604902
1.132949775631632
0.7331708133512895
1.41723231348693
1.141966216382748
-0.3316279548116405
-0.5401018854557107
0.8383485141215373
39.07777235186346
0.6552070176760724
3.142167582133911
1.679918188100372
0.6437694088286134
0.7052372893113129
11.5354806096467
-2.257835574294948
4.861926974410087
9.526653257078806
2.73380524078214
0.7920683847761776
3.29910128267349
0.8388420981598336
0.540001251352686
0.6173835062227652
0.5416587413393689
0.5926234519469774
3.927101546814665
1.196337379070306
1.279483959579194
1.401857777181899
0.7670446537963012
1.31753617557287
0.6781051326658926
-0.04912064061295877
3.917289923589725
1.517629181221905
0.7212161584744499
1.137935230283854
0.701289816532235
0.1345190052304628
0.2105281113594443
0.6424722721856456
0.9840004786295762
-0.451809140781009
-0.9250277362133408
-0.1525426541148898
0.5378883202128795
-0.6620704244119506
-3.54720820978942
0.7577490412502851
0.7268556584756364
-41.16384377893253
-0.3682051304354091
0.8745389705822038
0.9311527694727116
1.029406891280407
0.2949378845171725
-1.29266521465038
1.79478564231273
0.565643896482413
0.9403043087789188
1.380288107468181
-0.4293627432891157
1.29846995455663
-13.50028915458925
1.347844643787028
-1.776121654604106
1.399324583878661
-2.6901522045773
2.615880278495933
-0.5746374866966213
-1.353296616370101
0.5996976995843833
-0.3247959781555285
1.396804725082939
5.125566198250733
2.159598603537769
-2190.274801008714
-0.7571176936605071
1.930320822613784
0.9119893390436118
8.632748920464145
-0.212822608681219
0.684600152626995
0.7000119026036073
0.5343229785270589
1.220994944828821
1.551918085502423
1.201220214608724
0.9964805681827248
0.3906986975698888
1.499823458699116
-0.2081410241157253
1.22475398866267
-6.64057306672857
2.452324451976228
1.442942242934935
0.996773105403711
-10.50184975791867
1.431368614771798
1.444824236391115
3.499745030175719
2.465226273572456
2.515514039573095
0.6887724247140325
-0.66812192719903
0.8001246081924197
0.6896108780938149
2.666616828129514
1.068698828583586
1.016683809732397
-0.6957850783530578
0.694738309393457
1.143116463054219
0.9589427966743037
0.6039961607114299
3.459353926817932
1.264808218474262
1.015041250212078
0.9167237636585541
2.289983223876169
1.695096132271597
0.9512589147063414
1.477516376302726
1.556487029083889
1.631773260538284
1.600103673483523
0.5438635392235066
1.116856136412345
-1.199625647115179
0.1815680629153758
3.552267660785641
-0.60521300877652
1.680035704962358
1.128739419241562
0.5097884292568273
8.77323739943086
6.228100596929563
1.00182776643183
1.130990929296656
0.5612661625045458
0.5951561464037648
0.002428889186989138
1.784733393342925
1.583849539350742
0.8680152548248166
1.008637002154006
1.258277792244669
7.662477239924843
0.8109394794793824
1.691676659961441
0.6553565616323551
17.99328729503871
0.9535165688438584
0.5533710104750608
1.04922686836189
1.000031659470586
0.9031671583263791
0.5670444538055401
1.083439700539659
1.058977604674198
1.094134235741771
1.006673352870373
0.6693897549860447
0.5444507521526933
1.064676608002789
1.289434535061073
1.302877687694205
1.202074391719377
3.544738010883369
3.960488682928433
2.987701599026886
3.370084913769673
1.451630792413124
3.035398012290373
0.4616238430486755
3.532515475366967
1.473986701172625
1.584561849594038
3.715358697189105
1.975439355975913
0.6452315213607043
2.227253030047077
1.734367379930665
0.5498886992894504
0.7281833935871818
0.6508540805516387
0.8010492884791669
1.057585174572957
4.243702484089535
1.181460318322765
2.940207985758331
0.6611775508733309
0.8010539920573015
0.5939381105651342
0.7143436692208983
1.108186519034146
0.4329294756979539
0.319425936258212
0.8315738844976643
0.9473963945342085
0.4194119793573353
1.090121872984637
0.9554697337002492
2.349484802952726
0.855788855961978
0.7324044566987312
0.5718706598089496
0.669408982124461
0.3369690271827476
9.157943537325611
0.903444991774694
0.5092160117264511
2.005701850042559
0.5387579659962103
1.362091468352793
0.4522806421527889
0.9148375636531136
0.7343680285891906
0.891883426028939
-4.155892067953584
0.3637969038077927
0.3078473797838929
2.733308620964046
0.2202766043322467
1.245805550132786
1.665847967934996
-1.378517528194674
-328.4198167330655
-3.521913547641288
-5.788248491580736
0.390230884144251
0.9951678658923531
-3.958115332347559
-4.061827727649031
-6.150524739367232
-3.13697602371251
-7.311303199896918
4.566349565806888
-4.275892097268684
0.8883586353754842
0.468929126521817
1.144638630354078
3.035162317195955
0.7497957929536611
1.481684078996421
0.8904288472005965
1.73015067660806
0.8321551976073512
0.6820505724537789
0.1861533258612765
0.7111029776171867
-0.01995120859623745
-34.49297086521042
-48.64270881574321
-9.914321693477747
-44.78700068513761
1.08251755614226
1.728937000277777
-2.144440298776492
0.7249041512855966
0.4683859724890678
0.3847267850965514
1.0085413550649
-0.7488554469672831
0.8876762296791529
5.034448014614756
-1.059130433851194
3.236359987730852
3.044020191190715
0.4845978667998512
0.4103680258002084
0.422246207145235
0.6791227506492169
-0.2941260727703545
1.188690968808683
0.8807838317349688
0.9460197913700142
0.4893529587229363
1.245811366180562
0.7964096606561869
0.6473779674367647
0.6388396213069958
-0.9315447653746767
0.4022232054749866
-1.483594395538758
0.6310434377290903
0.3551689858933217
0.6945939031233948
0.3246320248183435
1.819719274684606
1.416839439642114
0.8768620073651922
2.493483646914087
2896.412136728582
0.1160552450024688
0.849964714095183
1.183845478794867
0.7307345228270009
0.1447941824315676
1.160277845689828
6.955096488145897
1.896018584735434
0.6439636331795854
0.8560386406292948
-0.3174551925711841
0.6151561084840338
7.292889393792829
0.8705014423719165
-0.756174891170273
1.233703680671371
1.126449885494262
1.118360096437815
0.3239425056180533
0.9611354718645535
1.103159295725904
5.371159576557777
1.082692038260347
0.3543976564860346
0.6089976084597611
1.022666590291801
0.5804409820790899
0.6320027548209053
0.7211577429384088
-6.185798806308527
1.202368965129138
0.8849223585634542
0.6816447654113076
1.742176495196563
2.86115254287414
1.23283463635899
1.096097495084396
1.027611475928731
2.489317087843646
0.6632908122912178
0.9600919504705628
1.389723655589669
0.5537186664641895
2.387635170396099
0.6962808698571631
0.6174286246384043
0.614208767992204
-0.4297490499143517
0.9414645535228641
0.7298855198931555
0.9113868467306068
0.844356026855242
0.4153638400606811
0.8903677580402939
1.200489808280117
0.9504737637289006
0.8434042212174424
0.7063271210665354
0.7053860050767862
0.6294522073602806
0.8168468264680352
0.8475612917700461
1.075977923921561
1.090902292241329
0.8476059412943747
0.6331643918749477
2.646917743404158
1.11439230839002
1.005557807851745
0.8276394650178986
1.133662449968754
0.764067598822316
1.542155206592899
0.6544583751432195
1.023993617743423
0.7972543509788692
2.500361979123191
-0.649437055139039
0.8409844624486552
-5.346468851585161
0.9334727959205905
-1.764663058574584
0.4518609980836197
0.8621640413223883
0.7335139468992299
0.8671355725022273
0.9220385098302978
0.913280172517783
1.334745699890651
0.4295326279893721
0.9625557077280906
0.9267340645256926
1.082489104530603
0.6655120610285467
0.6283511179675186
-18.71845109901852
0.6354917441957249
0.7961257372644347
1.129863909421428
0.6209822194507664
0.5858840733360828
0.8145241841733889
0.3834925012207596
0.9655945377453323
2.398656853663926
0.8838532175708912
2.343542971238496
2.184468406355844
0.9081369033452308
0.6791666655545595
0.8114426202079451
0.8773369974431973
0.712938557459567
1.463780467916383
1.05093513947271
0.7650974986616836
1.288161218653789
0.9619572412012061
1.364230768483645
0.8583932973657191
2.414769678470311
1.001632165374836
0.7302710429903686
0.2237741200084559
0.712726075533946
1.151865103468902
0.7388637093086261
0.7253864864570272
0.5024965216637233
1.268008831510546
-0.6029015118969228
0.5675471615825132
0.5546142430275517
0.6867274452385651
2.127235668785048
3.353669575620404
0.7635301496820442
0.6709391299225518
3.583979332463893
1.795902364360149
2.742201518224851
0.6867059774619555
0.9398660268634376
2.468183484704879
0.5095242365209299
2.671361990662482
1.138765501740103
0.46357606411629
0.8602961263748747
0.4788566166523
0.807769030999384
0.739477224871071
1.084919184641313
0.8492173325744664
1.280959969316181
0.2135731876179566
1.79835733982292
1.352517764988183
2.441420741665379
2.570295308784365
1.193284145688556
1.276281015952454
1.172499024683326
-0.2101521750635994
-0.08337970915847941
-14.79200961517621
0.3027618549669256
0.385987046788553
-1.11743107537459
0.7906557679809763
0.5027109939064431
-7.266661783553245
0.6651560055066555
0.01490300056787765
6.020374975526427
0.7720402904100393
-4.520224714939327
0.2185834120597052
-1.112332603380903
0.7110743366659839
-1265.145864461942
-1.520521960194667
-1.14003960493794
1.681712189521197
-551.2975731802543
-1.066767768914849
535.692690111925
302.078429981563
1.01069591832054
-1272.966136517262
-298.2241090990161
0.6938786663225663
0.717163386010313
-1.932511390990012
0.7500410874417831
0.7074324870985936
0.5633758599417142
0.4947996473331578
0.4946671845479099
1.736909752005506
0.7921365236035847
0.4900000432439006
0.5091224544780225
0.5513313015049279
0.7148745580047449
0.7342289449727099
0.07565353045595902
0.6639970016646816
-0.2780866870727663
0.7410146970165991
0.8488521640047952
0.8607502649421607
0.8964278053063753
0.9154787490561701
0.1934334979028287
0.9408288821941537
1.462475190516309
-4.070481938901612
0.6218893715906589
0.5307013155814716
-2.807124432183302
0.856167369828309
0.7751096553516684
0.7200059263861706
0.7030885578743409
3.78266734876381
-0.468271941781699
0.3465389914477392
1.549911490348542
1.210838674821167
0.9697742168566381
0.9031362258210023
1.5411362763929
3.833058316886305
0.7834810693502008
0.961678864332187
1.215120870314712
3.2722136159571
0.5988894529095133
0.9240249567730839
1.321804837773352
3.735277784014996
1.043965242683377
0.3094170250312024
3.682301404206682
1.930161445691232
1.203684799921615
2.023663961793154
1.444889688394683
3.206445777206008
2.313548533370841
0.4327527363472741
1.677645160563807
3.948051040138322
0.5959634328383536
0.6882134106643749
0.3245353252510003
0.2055598305393256
0.1951512693564518
0.1447227165822194
0.1694224922253811
0.4842667700328673
2.02686015091351
2.598822246494055
2.817941290076028
0.3627436702314615
3.311511256069973
4.301203060655642
0.9522134892510628
-3.676952761153841
1.288459746713112
-1.537696477833465
5.177363360643697
-18.00453741120439
0.9720495095306377
0.6700143748347317
0.7106770071931856
0.03696131021830366
-0.03742497958854698
0.8212333174243394
-5.367391835789158
2.820773508838148
0.8918863957686155
0.8373345524675971
0.7243964215089015
0.7670397645722834
3.078284379091976
0.7159627227171725
1.529085999193817
1.714897925903067
3.243344787367056
2.837217088768881
1.217687336503349
3.196378292816534
1.302869712460464
2.934825112733132
2.737263913648893
2.887491865017778
1.355245111103146
3.308839342742583
3.105574461430585
2.953823683389159
2.117039718598551
1.844915741977219
1.512688966304026
1.454644602523881
-0.09188101570398877
1.278880965174644
2.267728904828093
0.5370249469028298
0.6630850838409983
1.751219877966284
-0.6907968746716725
-6.887401098874409
-6.80850389857262
1.649004236536824
-2.687961499775116
0.09097680465688661
-7.766734083709155
-18.27305864808651
-4.982788747870299
0.8626621079354185
1.041744632952284
2.625740232758434
1.10686430179271
1.106865462056529
0.773104772446861
-0.410407809399328
0.6782405564261825
0.4928332327520606
1.845654130827053
1.002439441619359
-3.964957153825928
1.237956619035602
1.326100505281252
0.7657166260121667
1.827718344796175
3.425716048496442
1.329181311936894
1.184463146141998
3.562895451251512
2.108986735331389
0.6763518855924134
1.702766681545463
1.068533121778826
0.5920915555633738
1.391147237251245
1.191005389254457
0.6589405544903923
1.146462939500845
3.182291919030801
2.932877774940664
0.7548856117328908
3.452956278182908
3.144822961388833
2.803001300244802
3.529530276670017
2.053491890804533
0.3428451107536485
1.186087743116549
0.8108005970074565
1.141313042143255
0.6431027115500121
1.225898070036313
0.6476050520648924
0.7497451565618758
0.6803078875596797
1.358956601587314
0.6923144357367971
1.176500227163492
0.7444247799795733
0.7333230026133924
0.7136831769432284
0.6498290433899382
1.322883872243675
-1.673080984451033
0.5920445818392229
0.2000794088628186
-1.098311307232255
-0.8394201349341421
-0.5714366541514146
-1.204797410842532
0.2004604078247505
0.6500398003181248
2.682587151898924
0.8277365645166074
0.453827699567246
-22.09512657501571
0.6220521290991151
-1.232157127965816
2.454841883694999
0.7261184275624719
1.620156616514131
1.816242236233368
2.488526429124139
2.086012891337373
2.709712251265714
0.7017598294418295
0.6366365060242782
0.6944273133037223
3.58265778227872
3.41896461517354
0.6640831050003861
0.688864173752438
0.5735783992698755
1.066124625180253
3.365621959525814
1.039875551841784
0.6354654008577325
0.2710574894116581
1.01885000338731
0.6003723773610767
5.382685847751698
0.5414608478043059
0.5846902564795163
0.5916084693052375
0.565001604797819
0.642211271741865
0.9757974473317296
0.800537423927433
0.5692628096226335
1.401416623815471
26.82005676666341
0.3726675752535
0.6356967264254954
-0.3586061660192468
-0.8357100357641986
0.8849950456103527
0.2166359579453558
1.068591933998895
1.865770506937858
0.2946611834333733
1.203543953598257
1.434281944513896
-0.6123643188619184
0.2305253037763094
0.005427741176588794
-0.009990417256925618
-0.4113539696659692
0.3763063160399131
0.5397503560792594
0.199668049998758
1.380916180230392
0.6666615616192606
1.706500651315707
0.2610563962114961
0.008158408345275907
-0.02878944019908985
1.064096327835742
1.396632970200446
1.047795807298247
0.9422971016503918
0.5584502129737786
0.6562734805228556
-3.607960269655139
0.9757020476179844
-0.09611558866369364
0.698894169947764
1.480524925052765
-80.93980122476312
0.3673100872737401
1.157926585241084
1.450456196577743
1.447539637789087
1.00283611093549
0.874889045629916
0.7552298077505634
0.8711453927429167
0.6498764366892296
1.247293465447011
1.448770758524528
0.5822566946654116
0.6395448732904662
0.8904652677297502
0.8427143587636713
1.178825788736471
0.4499042494022681
0.3208028042651642
-0.5290012290202148
0.6848377140969434
0.6787371171323612
0.8597559919512627
1.278551595739191
0.5022282537425998
2.053174507239633
0.3016808033898409
1.351178037143423
1.209648816886102
1.299931855830858
1.390592436010085
0.4884181338628276
0.7885951956581966
1.286929629138541
0.739420981652853
0.8374213994286738
2.05301519585595
1.399122663517671
0.7172543203416025
0.9782997608635092
1.418620724002623
0.1366659907522679
0.6155035175280268
0.6476983667058128
0.6531820515190125
0.6655529837089298
0.6181250875749726
2.565869985262493
0.7612337165516904
0.7673135838532827
1.31842509398848
-0.4283747069410395
0.6514743695351632
0.8628751468045037
0.4070842192769112
0.9107897841814335
0.4371513232618862
0.1672622624909984
0.9391178957539487
1.164385827154936
0.5195380978039494
1.059856537200145
1.069910332373803
1.563235468411431
0.8854934710104889
0.8999394840459836
0.2151298101425533
0.8352756612419932
-3.926133983717855
0.8733172919172303
2.977737732269195
2.361645691490575
1.689697259497538
1.422445120334702
0.7107811372556196
0.8605276344593606
0.6005954062542632
19.48589993797211
-4.62334441335776
3.359284022828435
2.353931996966272
1.261188766244021
0.8642146143141245
2.630672140070111
2.859848799071086
0.7228175377374992
2.308306369386944
1.681225342809578
1.65999001254558
1.57421845653585
1.115009438589732
2.061158451696548
1.103915456165097
1.000770797830059
0.6400109870257361
0.2742506888446747
8.093827490440011
2.193054949738599
1.650490410733242
1.15971344623561
1.001276053159335
1.221101570337434
1.580828420162288
1.253478466801067
1.826134043684491
2.17693276031686
3.681203321636671
0.6880597044009595
2.108453032279568
1.143375398859542
1.322414175221299
0.6063033480634664
1.721248036389904
-4.116581362462304
-2.809712358029312
-4.382600733085121
-3.159592031766686
-1.561524918601765
-4.067052868075286
-3.349057751137333
-4.91014090624903
1.401632119821369
-3.893392055878045
0.05508414686330378
-0.8567219714598556
0.5314938087623612
-1.127713471379422
0.801471435262347
-0.6910766974326735
0.5594695087185186
0.3572820067216486
0.3276916212366755
0.3881384098955016
0.4727154886225951
0.3665047917795431
0.4548416151473635
2.645366786589572
2.618289932129349
2.784992269534381
2.93618441741449
0.9322809674715642
0.9485659255817946
1.164614486290118
1.300718379663964
1.143974672292196
3.077011370890775
-0.1667242431214316
3.01030070212874
1.059648626917319
3.148658113343379
-2.454114391088724
-3.827741715677052
-15.93786014392205
1.370246449715699
0.5876739096192097
1.312690766358932
-2.045895942144498
-5.200744000961468
0.5654663644698872
-0.1232038428205284
-4.984770062438453
-6.566609251506907
0.9901113673155385
-3.88897416744124
-4.362229530718393
-6.819152623496986
1.520579894973923
1.416017381523207
0.8428583033238491
1.308831731540417
1.126489452892208
0.4980148624066224
-0.8610318463237489
0.6809180802806855
1.107467586296413
0.6367077654638656
1.026944325723755
1.544151034408439
0.6386491670294999
0.7997562790930391
1.588386152026439
-1.65906345007399
0.609795445459118
1.160584924687269
-0.515858226448962
-0.3546553330530538
0.8466524018057047
-0.5527870130766988
-0.07779699307195447
0.2926465123575691
0.5866267962869344
0.02646285127941096
-0.1018366890645414
-0.6599704305025604
0.333828159325399
-1.287091313086316
-0.1554316287316655
-0.1743770496321262
1.965887019664954
1.427415328165589
1.841753520340181
0.8826804517851096
2.083926700657893
17.44531981577117
4.761150860093541
2.280405914284405
7.931970757095669
1.714936410483576
0.3884674536920791
1.654112161748166
1.011891658843167
1.464666427992519
2.651791697178713
0.8605463388905777
0.5574527142564387
1.685893843495989
0.151447163475111
1.035209785786801
0.6688516349465834
0.5524230622206835
-0.333324442909527
0.3161538009155119
-1.4299014093958
0.1341063556375011
0.6124799739706868
-6.052679904069332
1.431512337186455
-13.87093887936454
-0.4702657195753581
0.5687302126491154
-23.91138553160055
0.04384796903958128
0.6185663612992574
0.3950386083326871
0.4120012406113965
0.2467750484327366
1.152097152094215
1.26587669520537
0.7504072271979066
0.4351808888656902
1.453828640182664
1.536528401259638
1.339822128982775
1.200440229860088
1.887906165785589
0.6644058987265798
0.6614921614834519
0.9133228782854814
0.6044289332139037
0.8832366498195522
0.8452235437479528
0.664531306636828
0.4985474505292721
0.8595763150602462
0.7381312232354107
1.465766426826118
0.7625570923725923
0.751386571104385
0.7076082920577901
0.8415951767926597
-1.374158541862019
0.08350195685916559
1.185747998310934
0.8422037864473265
1.089422058810831
0.5981827722471268
-18.63112084817149
1.271013476545228
0.8189612722440067
1.097817176289061
1.602909243992295
0.7558290947687298
1.178569722256547
0.7813385199598692
0.1755983650424333
0.7340698783135916
0.6802663197881743
5.752020559494389
2.410234400855534
1.000303824534708
3.215031244825952
0.7497432466295642
1.22039858455502
0.4652073212094008
0.7852202516982298
1.770457137091849
0.455174584028093
1.316130286655357
0.2428619128183509
2.199921391837287
-0.6666037814311883
-1.091527198586675
-3.784755058755811
2.580409325191101
2.106468622860793
2.154503924168383
1.580993465246943
0.7936882900433754
1.804535547463066
-5.261695435405037
-0.7318384456681558
1.139182613284265
-2.001400181121495
1.130174580358729
0.6488545163102077
1.053763599031975
0.6496463003606978
-0.4549234972802401
1.072868172264917
1.370270868308752
0.7019976405616187
0.6784705569543242
0.6010053062545119
0.7317546565844328
1.166210965924891
1.349310883312458
0.9974409851123078
0.2975645719985534
1.434545951153076
1.195774912549327
1.796037831217413
3.281112738523363
2.063791336373654
1.58203495627801
1.689984449397245
1.461196076104242
1.195083734325046
1.528167869664123
0.6462023108175469
1.420579087184542
-0.005474504489011481
0.2474500608341825
0.7102687316732657
1.281125125134091
0.1961444171404409
1.408072149801498
0.6470985231890533
0.7253550516083012
0.8632871981120692
0.589591125035704
0.6069473874464104
0.5213980052856491
0.4855815674331238
1.016506943816451
1.126544396427997
0.8354438970061734
-0.2513924883261714
1.76985789971485
2.271815736015035
1.312719362902239
0.7640022999100117
0.625559566642653
1.432247476940197
0.679172433071462
1.034963995093013
0.8395214967707176
0.3875001532306124
0.9560401067566019
3.365549386859346
0.8339133755319832
0.6421625396535389
1.985597963063773
1.000823985997911
1.21487884751938
0.7311497421039982
0.6886978756651316
2.261659987443135
0.2821497087863649
1.057594983418859
0.5027646598293316
1.312211194156069
1.165737179612974
1.071282875669901
1.255152645090482
0.8353380602341498
1.007929480773358
0.53152648722131
1.010054398625235
1.773725367190571
1.403635477754136
0.8207358598867338
0.9005882791653814
0.9731197422840362
0.8171154570907163
1.46347488398835
-0.4008002732595712
0.4018501773614419
1.791310520333192
1.089822944495614
1.559932115285646
1.944342587594248
0.4386369642033486
0.9750292404555065
1.236073464662419
1.761987615019829
1.773990175622346
1.904571622411138
0.8071049093245983
0.7384854215340324
0.2709617027504202
1.271660568496048
0.6605632638074355
1.419602141906738
1.09343871251244
1.728100110212024
1.56815657158735
0.1618077868150314
2.806656967327078
0.6787682041435392
0.9482933554931734
1.964603826853556
1.212922073245982
1.17308790291334
0.8837213310270818
1.349088759953489
0.3291397731110168
0.8723050118668583
1.529534747541502
1.518898637201234
1.200880112489098
0.9779558775769499
0.5607888508467581
0.6697459061979842
1.191576270426197
1.017759564263926
0.9250891388370719
0.5985785778609966
0.530858570517161
1.156110030182631
1.144865394554747
0.6969608549582866
0.6286677816604798
0.5563081757221641
1.693019246313752
0.3648798530439738
1.319325858918938
0.8077534027656504
0.8935665947597825
0.7086382882464206
0.02892303100718818
1.678981381310085
0.06536251832849423
0.6046825272360815
1.047732533566486
1.336534823291702
1.077829319535432
-0.5833813066930811
1.221518698081162
1.215899598949798
1.430380155296458
-3674.299969321985
2.733674368439056
1.449957191775861
-5.48405313924493
0.8344942808654487
0.8506835390449839
0.9944951466373181
0.8535252272378654
1.013451102875618
0.6812725941443081
0.152063763026714
0.7357280814948446
1.935156450106181
0.6576318314672378
1.078699007299608
0.711878159698519
-0.6714996145107738
0.001758147522200019
0.5816223873006706
1.845634218092917
0.9150183505167584
1.501463679828231
1.061897380513679
0.8795177256441156
1.960714011687066
0.9600656036139367
1.68409048542514
1.205315441731996
1.592979001597674
1.501536876652845
1.462241157335981
1.146714165847481
1.552597876807219
1.031648948747884
0.719530511029101
0.170767332707688
0.7821543664278021
0.778756401392211
0.7715705525022242
0.763422077460725
1.113746062978458
1.318006773448636
0.9018090085858063
2.052112765183117
0.8494127017328753
3.117159664868776
1.720518337244663
1.427327926977831
1.676334809807502
1.399114346686441
0.8962141273648668
1.255903409893451
1.017190598772057
0.696146966617421
1.758769971131625
1.197144812288235
1.266717703540435
1.513712067901193
0.8528466865349159
1.299416896539688
0.8931136842081429
0.8704829715796244
1.13932420281758
1.140973583735645
0.8162492977613872
0.8782924280610582
0.6228702594557659
1.151799276033219
1.204584713405584
1.160826337744426
0.444822733032493
0.8637922301159099
0.4302331506772295
0.5979869968629414
1.056783762623714
2.021806960560559
1.138488433426207
1.277687223379069
0.9906650827537291
-31.91329065874257
4.931450836118839
2.818004734441738
0.7659637657061077
0.6667808935915186
0.808968157394574
0.9848798204226709
0.9817501528453867
1.405908488454911
1.574347478643969
0.8094972806243221
0.3003914022143849
0.5669792808654177
1.027809110434962
1.862722702339736
0.682030905930183
1.204994050311926
0.9991164920244778