/*--------------------------------*- C++ -*----------------------------------*\
| =========                 |                                                 |
| \\      /  F ield         | OpenFOAM: The Open Source CFD Toolbox           |
|  \\    /   O peration     | Version:  v1906                                 |
|   \\  /    A nd           | Web:      www.OpenFOAM.com                      |
|    \\/     M anipulation  |                                                 |
\*---------------------------------------------------------------------------*/
FoamFile
{
    version     2.0;
    format      ascii;
    class       surfaceScalarField;
    location    "2.2";
    object      phi;
}
// * * * * * * * * * * * * * * * * * * * * * * * * * * * * * * * * * * * * * //

dimensions      [0 3 -1 0 0 0 0];
oriented        oriented;


internalField   nonuniform List<scalar> 
37377
(
0.02507891778946432
-0.8117042403943202
-1.444134632356271
2.230759956117627
20.63934467913282
-4.709420511538618
-15.95075261095639
-16.66270341575016
8.291468012720474
-13.20100559703893
21.57224099989389
0.2253134680035632
-0.007383451045301132
-0.04150551340449805
-0.1764245048465493
-13.85359751514702
-12.16765866042814
25.98101805168137
-15.03321498605942
-30.31856699350771
29.09850674232932
16.25327523752556
-7.888666299013393
-28.09662123681215
23.99087314726286
11.99441439168073
22.72086747362629
-22.14946225933265
0.4838909436284533
-1.055296157129524
-11.16872973213647
-5.873085113304563
16.97140828864444
0.1593418124531969
-0.488649706497007
0.3960669575564688
-0.06675906826840648
-0.6959935158635592
0.5576855402078515
-0.6244068623056399
0.7627148341929891
26.50614021234584
-23.96994339239732
8.908140343416948
-11.44433715884376
1.519231108149556
-14.75648144910446
-14.19746897790328
27.43471932054916
-10.17110984792767
3.627347966740463
-11.67616176296672
18.21992364675767
-1.423970594540608
-0.6519650785787408
2.207032480717923
-3.693192932755252
-10.00450562888638
-4.123891001166005
-16.80695353510694
14.60864333560375
-25.65232982103131
27.85064002204627
-21.26419277050522
38.21458798836161
-16.63031494239357
5.30889260314177
-18.76123532664777
-5.07116734305956
18.52351006723757
-19.59271509828421
18.71829039692792
0.8624706317564422
-0.8242711800780265
0.3015794780894717
1.126550213528324
-0.60385851537976
-0.236260533983889
0.163547854023749
0.2081523762348671
-0.1354396977196478
-17.34884582396858
21.85169404172727
-2.912996989595883
-1.589851221314627
-21.65886668899173
-14.95139890604677
17.01755049683748
-4.711719657837453
15.83576736574004
-23.87394900929391
12.74990130160068
14.86213313967536
-11.59024990914743
-0.4001671505317616
-2.871716079892376
-17.03353530012084
-8.980890460881664
14.54329618742711
11.47112957389164
-0.02781688771304096
0.01686982152508728
9.701218855316165
-19.91288353101324
-8.532107294895523
-8.406522475489011
32.63956825048546
-27.44138197295599
3.208336198638879
39.63219291875811
-16.78089714289132
0.9458637634020156
-23.7971595388708
23.45971991220165
-16.07694734305024
4.199337112736615
-11.58210968101883
0.1585292443486571
-0.2654647889099754
-0.4796564438956076
0.5865919848086856
-0.1207184703204271
0.09125656493465446
0.01725551104807488
0.01220639321595267
-10.18557027796512
3.605783537445931
-11.93111388173023
18.51090063507865
-30.56666666967018
25.62354000287354
1.56525327140457
3.377873396697666
16.64055079683794
-18.99163486783889
-17.94887747351873
20.29996154454311
-26.48996080650161
-1.146090928033128
4.128181598274119
23.50787013641065
-3.486113565204402
4.981337451178486
18.16452125998685
-19.65974514563617
-0.9406524837833803
-1.514848217229742
1.345144146177985
1.110356555039835
-11.18810362650892
1.957989519174219
24.99947861163128
-15.76936450429358
14.47306998517726
6.861313161543101
-5.917695206747084
-15.41668793152691
7.386204598829132
20.02585894422448
-43.18143334405405
15.76936980120501
-0.905373728651263
-16.10043086724355
-3.742271240164829
-12.75947478683091
-10.81671422989666
-15.58936022460137
39.16554924132674
-18.90055027454317
28.58802900116484
-5.766765972129104
-3.920712754019761
27.2690509356575
-27.18759972977195
-3.778717192973183
3.697265987464541
-21.63304797222152
-16.46047551481091
10.15404180735353
27.93948167906047
18.35413746344347
13.69912300520625
3.467979127107577
-35.52123959536068
-19.33149109111107
-5.769893725928837
27.31681791728834
-2.215433093469818
11.15602517329837
-20.4715750295954
9.405021422405197
-0.08947156622947551
14.43782212555331
-17.41047441457779
2.949277103203222
-23.31063169263384
11.29233524801724
11.06817384763761
0.9501225970420548
21.32133389909775
5.139623891527053
-1.996714636074243
-24.46424315666763
31.23702866630414
-9.401210208888333
-1.105677659253952
-20.73014079648961
-3.016351841308671
17.43193769878006
11.32630146416581
6.381030852412128
-18.68284206868867
0.9755097607775511
-17.46680729428922
-3.56146795575353
21.01173785719147
10.34008819530759
-4.110647947248308
6.411709870132275
-12.64115011775307
-0.4854123272006285
0.06300167721564448
-0.8908097818261372
1.313220426678809
-14.70655375965236
-2.105580449238268
16.78832391372979
36.54534839430822
-9.053744515456573
-16.76558055655967
-10.72602332195524
0.0214760565933961
-0.09634189407328961
-0.04585263340177266
0.05290799009797133
0.113321849304883
-0.07497327549762706
29.17251968276731
-20.0767383277837
18.52034199474059
-27.61612335051588
0.133603625268614
-0.1180866462249211
0.001738531119770889
0.2101079945814988
-0.08733418085528119
0.04077403968862274
-19.85680379384828
-0.07276691013242499
19.91120094569721
-23.76283114550734
23.88641539546303
5.957897463916488
-6.081481714593904
-1.578156053384976
26.5774235235975
-10.83238044351862
-14.16688701571047
2.284635342538987
-2.220408633833053
-3.659557466700519
3.595330752506612
-0.05467214626263887
-17.32775601454108
2.492274682956793
14.89015347628841
5.825616728946946
-27.33685729651469
-2.386588982489923
23.89782955022273
0.05405511981244208
-19.9251207164045
35.23854740046213
-9.147291320139098
-46.43198257024049
20.34072649043608
-7.196676263596307
-4.364782913744761
32.34116277519054
-20.77970359784329
-23.02379666716748
14.89022577088101
6.084637447544954
2.048933448486644
-18.8247359201283
8.447581520484521
-8.70832825602294
-17.40312734480665
-0.59059988485238
18.24611462002596
-0.252387384797376
0.8083302451076432
-0.5509142692105209
0.2054642094731173
-0.4628801863352961
-567.3695464391824
409.9807273305825
382.1375611966585
0.0698013411118292
-0.117786503195797
0.03026238339052093
0.01772277731927836
5.490375743584293
23.55842965238493
-7.577651263735956
0.06729855639543814
-28.61108683000903
25.77566032324198
2.768127951911494
2.397323848424709
-0.4158805891494657
12.59602476711162
-14.57746802632926
27.30737372531792
1.745618038180496
-5.115026184912772
-23.93796557623111
-15.83970853287005
-0.1916335132263009
-5.627524642621103
16.45802486424473
-18.3512101690265
-24.59677550161766
11.73044918368688
1.87084623510058
-14.86103241072166
1.259736996057126
-25.152846257442
-0.9426231238465232
1.43091422274544
24.66455515874781
0.8934862090152342
-0.9410906805143412
-0.3279213896995526
0.3755258589435047
-13.14952822957367
0.249653195971329
12.88380243400734
-18.34595395123148
17.25689524913184
-16.66994191708393
17.75900062770065
-1.719053011672874
0.2506187309688782
1.446928795775346
0.02150548637237452
-6.355588665896615
22.77452952862762
12.91360258758196
-24.71750394562377
25.1128490465045
-13.30894769893632
15.71994728478113
-19.36782068652324
10.95374767112842
-7.305874269069568
27.79130801005852
-13.36847359518665
3.74106728992265
-18.16390169968312
17.68667124201492
21.81611185302472
-22.24616700860511
-17.2566160859142
16.70646017422703
0.9595664404089439
0.1520799283029577
-0.002252742464275124
-0.08437812370760957
-0.0654490635397339
1.825734535119096
14.14759674120813
-10.88860540496461
-5.084725871268482
2.79179053360292
1.378279340085201
-1.4312011768662
-2.738868705239418
-11.57375670233727
-6.001625812745377
-2.66304399504515
20.23842651071559
0.008189423431188142
-0.1235814248090819
0.0325348946700556
0.08285710565829926
0.348048708828284
0.07161989647222572
-0.414172120800452
-0.005496485910236828
0.01601521573547837
0.5932324762582543
-0.6116139289203031
0.002366235178411956
-0.7642251965941758
0.6881670370096789
-0.598023144289621
0.674081297268214
-26.03591157268043
14.36757850471203
28.37479324268774
-13.83658148315203
-3.599921344832348
-0.02647012263228084
0.153298970581025
-0.1265409844911972
-0.0002878644608092956
24.23193072015798
-23.69990986512061
-3.548372696239753
7.976567303249576
-13.42146186244839
23.5936938697959
-18.14879929693684
0.01835333110382798
-0.04404015579919948
0.235794818472099
4.284958038276771
-21.76850407636067
-0.3066751708320453
-0.2456440382619793
0.415499728810979
0.1368194776299397
0.01760579498507981
0.1689058198817207
0.08417525967680939
-0.1268801240378809
0.0502479955840375
-0.007543132729267739
-17.83896028450994
17.58291526765002
4.221676446993258
-3.965631430968276
-15.79355642188673
23.31322701251854
-3.543715787537065
-19.77977109145148
4.815323426209281
-19.89678389828205
1.993875244627256
13.08758520901352
-27.28538538972204
-0.8018215641006157
31.70927331340071
-3.622066358584696
-6.530438816605239
-23.88510031689836
23.80608820176374
6.609450932577392
0.1053465286950133
-0.07955383565557882
-0.0008859543175751633
-0.02490674007855561
0.5079143046277973
-0.7243313604949448
-0.006815644751939721
0.2232326970583234
14.86723238949557
-0.1740575504098369
7.232385402098419
-21.92556024098155
-0.4643756173340473
1.11467683733744
-9.342628372330115
8.692327155299926
-9.648867655433799
-16.90477667251968
19.83621177247741
6.71743255685983
15.52014464257679
0.1929861523545349
-15.61289563353766
-0.1002351613064366
19.91863298654652
-24.2967741741341
-8.440048931263783
12.81819011863762
13.13926409037862
18.18798755420336
-7.763629529454146
-23.56362211499472
-0.2090495080776245
-0.5407121437759429
0.3484106824348313
0.4013509680698922
-7.329557714844706
11.07046609224907
11.62929095307556
0.6901907820852526
23.33911767508411
-16.34114998097493
-7.688158476441324
-0.09337710740238385
1.42726960380712
-1.324177116305586
2.380768357174903
6.038627909655506
-9.672935168834213
1.253538898247518
-24.61203752742284
14.11386842103365
31.81950300103437
19.05271690076991
-8.161581189924988
3.976096678782741
-6.772392698164556
-1.370260824320926
9.476271613668159
-1.333618098612379
0.1061290667538242
-0.118447841011053
0.01231877345466418
0.06640894644526973
-0.1481465839677955
0.08849025660108602
-0.006752619744149002
0.09082588268332151
0.09666725579773709
-0.1311756451161116
-0.0563174941332658
-0.07404297517056317
0.1111136308137958
-0.01559459981655527
0.1237348614808834
2.887941410017279
30.3813209147811
-25.16993652530637
-8.099325799657324
-5.924147744547596
2.801075753070247
-19.45355669835208
17.65308720893372
-0.8253001511773987
-6.054286349783144
-10.7735007073396
-1.760092590442053
1.874739327230086
4.441283119257165
-4.55592986942739
16.01187850983075
14.20627941264856
-17.1055309263784
-13.11262699581713
23.09500853473578
-8.386715301242955
-0.6991261319927347
-14.00916709722407
14.73778718638951
8.358263785510207
-0.001042433748914121
-14.26565234332422
2.745081872776207
-4.804879272410434
16.32544974777819
-16.93327272439287
20.52513193718879
-16.3513339995542
1.827147803736612
-10.62787530137796
-9.162850039467784
15.3246310515239
-17.90270263315394
11.74092162418662
2.717882853049364
23.10765339930752
1.214549026033694
-20.36507913685944
-2.458509036303698
22.78374576383274
-17.06133793147882
-13.38131413126825
6.436496069181802
24.00615600141362
0.006550106605977725
-0.1112019554897482
-0.01343479798222731
-0.1364149558438691
-0.002915795147653401
0.1576840814087433
-0.1418533670908335
0.07184735739702959
-0.07662037990371462
0.01929967808497787
-0.2436126593011435
0.01442511097121037
-13.95955864790754
21.18597835554049
3.200537365909626
-10.42695707103968
10.55550833583401
9.239667793238787
-8.612662373237129
-11.18251375578772
-12.60493030023479
15.02159051578985
-19.02920447908027
16.61254426368236
22.00696369296171
-22.43902079496832
0.430208369981263
0.001848733541131589
-0.139035475754221
-0.007909928111023926
-26.98718312679412
16.28378662495865
2.012642340345055
8.690754166430116
2.271361063659516
-26.37840967245616
3.182668370928704
20.92438023793325
6.145379779612601
-0.9954095311828475
0.3325057316060978
-5.482475991635104
7.069744319802721
19.56629431418451
-14.82615159642648
-11.80988703751948
35.47433157628625
-13.24535338917923
3.221418205144365
-25.45039639144382
2.398962069184288
19.70443885347561
3.489559051246508
-25.59295997309071
-11.85766445834178
-4.331858407550092
-3.437252595514854
5.642499639529952
-3.073334743345843
24.1594270981456
0.5215304636395998
2.390220981591099
0.2149062908348848
-3.126657747184619
-20.69610377772993
23.99559389414122
2.343009523316594
-1.059296714070884
-19.96997537318353
-0.1191217120167846
21.14839379911578
2.40937275494111
-13.07976598075946
6.682411759619445
3.987981466451826
-28.48383594700073
28.46434814574665
-1.039808913095252
2.53069807236099
-30.34122632408034
7.84055287842237
-16.63744925354726
1.055789780639886
15.55626392659738
-2.324073632205577
-19.17950026932386
21.47356546235331
8.104788641017494
-7.878868532387899
22.03760808821587
-22.26352819634996
6.173847157470769
-12.17317724225416
-17.23229292191333
-11.55066633971789
12.07834994116645
-5.443068946523603
4.91538534527404
15.53130293400462
25.17634463501604
-44.87442290766742
4.166775339472359
-21.63659139726651
22.64926500900445
-29.49650955926965
-5.536012159853212
5.59814992881332
32.44296590114723
-32.50510366919173
-0.7127840223922902
-1.129740610966656
0.03062947163950569
1.811895158978371
0.3751603479337812
0.5881238055091159
-0.7153827370389306
-11.30533274321891
-11.15121720174267
22.3089729308796
-2.735672488163146
8.180825921611071
6.667543644948768
-17.17840218835599
10.63685502984709
28.38822398088033
-21.84667682383361
0.572277250301504
6.629559352293597
-7.666212209949723
-0.262790859044241
-0.1538246138350075
0.1895727839135732
0.2270426865871692
15.01193483322589
-8.184170436585735
-14.96015201559774
8.132387619768034
20.88274453585167
-26.09929260883385
-18.29091376327296
23.50746183882532
-4.173238203222051
18.68055470982792
-14.53282542431867
-1.876196949878465
1.66285542220956
-1.302148941836281
1.515490464912548
0.5054663938243992
-20.26988158932854
1.334226838326128
18.43018835765302
-3.249274948063364
-20.53490966131202
23.47686313756389
0.3073214715077989
7.802673275865542
13.7183424676235
-10.0634408200788
-11.45757492336578
-22.63622836952191
11.20663450826571
6.81164370526694
-21.1773824716317
14.19168121605169
1.55739981815209
22.04278818770206
2.326925230872074
-25.92711323617742
13.03419201859324
-33.53642843373905
17.83791223655015
2.664324178820029
-34.73722160122931
-2.082692505644638
22.55949470465312
14.26041940113888
13.31921435471911
-12.63616798335175
5.328567098452499
-6.011613481341954
23.7202377981082
-20.52892311837157
-7.257595961902994
4.066281283419027
30.25282955679337
3.373117764162085
-8.72323109459969
-24.90271622583613
-34.90065533682049
24.64129841073836
18.35921533996219
-8.09985842043012
-16.01864737190897
24.44782878964918
-8.47910247014682
20.75789455062024
5.962909733446837
-19.48841888190221
1.159207794480647
-7.129332755055058
-4.707274836713726
10.67739977833345
14.75018327240009
3.200426026765593
-15.52482309423411
-2.425786204702809
25.94522057850318
-3.505981720794906
-28.80221319034659
6.362974332887554
-28.83303786753665
19.40202980460025
4.162794281770393
5.268213784457082
-3.332910588646662
-20.41683064189071
3.343735946617104
12.38928790714495
-8.001919256410542
9.569078539311255
-13.95644718935668
-12.19472561132572
12.13920224906006
1.610755649497112
-1.555232286147474
21.41072704878388
-4.282134033187654
-18.42336071657186
1.294767701222802
-0.5177403426137156
-2.209393783615714
-16.76350385326447
15.07636692303522
4.821763160842127
1.301973660928551
-21.20010374459256
-17.4994708822057
11.46900118868383
6.517774709267003
-0.4873050158012876
14.80757901470566
-20.9900352793036
-10.68822363611688
16.8706799025622
29.24933194081312
-8.809314220134386
1.413668486738571
-21.85368620075507
-22.15051704200832
-14.92048384851823
10.71742758170388
26.35357331089121
20.28235731353455
-5.409855852302647
0.2038654619174947
7.650616478539523
16.30343676927025
-30.18049261674177
6.131052164607963
14.05538191183742
9.994058540510926
-11.10207081383464
26.36375595482148
-0.3857012598104826
-14.87598387581103
12.56323535307169
0.8098972652622306
-17.73458989269685
4.361457259821141
30.75252317071639
-7.216150612048112
-21.04139934465802
-2.494973213935266
12.65105534883139
8.481401528999994
-0.5605591750119879
-20.57189770292617
-3.851839584495528
-1.416819436814852
-15.9403212731665
0.8179679691938201
-5.155713393058248
-1.421655375013581
5.759400776299992
-1.175741966710154
-22.15547321188155
22.88938687992683
0.4418283000827857
-21.65859491484435
-3.443839732144876
3.667721832502473
21.43471281465337
-31.43526221289647
-20.23156400993802
-10.76492039935427
-2.440236791771056
0.05986315852675875
0.03164990689172874
2.348723707230243
-15.41184865503014
12.06266494411771
-11.83426633833039
15.18345004958717
20.07747760651595
-18.49029805330401
22.68214660826153
-24.26932615963342
32.72944392834613
-12.81873228785927
11.32631702672063
-0.2016942850180299
17.61437154935053
-17.43781029811089
1.914828275567246
1.719873492616216
-1.806848992697148
-1.82785278571929
4.270159976156583
-3.501361527272821
25.97697097370203
-26.74576942199644
22.63909079298152
-23.34070861631997
-4.894717613980211
5.596335437971502
20.60748563123985
5.613392094976865
-7.025616952303172
-19.19526077308815
-14.02508554861301
9.089868424539075
14.13959190583763
-9.204374781588383
18.90582416358052
-11.08577464146748
15.00304856430327
-22.82309808607177
4.238712927121069
1.250386018412299
0.6562808212785211
6.464598475686819
4.689667520890731
5.91868322616441
-17.07294922359996
-3.33804802218243
-8.977105279672376
-6.837250639058386
-20.48960714750781
-15.2033916093274
50.06057726198987
0.01731801314355044
0.276619417620903
0.3086251248349073
-0.6025625611604144
0.6273046291642665
-1.34603414248543
0.4454304466066323
0.2732990632535432
19.20589558891025
-26.2940050339415
-10.44190643371685
17.53001587983184
6.668119977351315
-4.753067834963487
2.432256902415817
-4.347309038738556
12.83377824838851
4.340382664412099
6.455604498554612
-23.62976541290019
14.98680011308366
15.69176378966364
-15.73454635185721
-12.84996466527348
12.25538434107349
12.77226064818467
-12.17768032395364
-23.25676722217577
10.51895691094544
12.71881528633004
-21.94500007441181
10.03947020434761
-0.9444347953671315
-8.878547178100352
-2.648353047799477
23.78228456856744
-23.18731849979859
-1.276676761028786
-0.4879149524402238
24.95191021834842
24.42585514005951
-5.483179955265369
7.036814859235066
-25.97949004351238
5.857759664624991
15.26164400276008
-21.27865665146009
0.1592529844054659
-11.36139217064535
13.22310742437143
-19.85174753168012
17.9900322782177
15.6452161971453
29.44921471181423
-46.36170362187501
1.26727271320426
20.43803485457081
19.62088915705714
-32.67271941265277
-16.73208580566494
-0.2967339540758324
21.29897973625291
-11.05379980056994
-21.121069567983
25.64861837619463
6.526250994161584
20.04916626650222
-1.37902765010399
-18.70128931744045
15.72600408624486
-0.7244087169381874
1.601805926639331
-16.60340130404717
-5.978952731239863
32.03934929169111
-22.27078780292029
26.47512878038758
-15.54194647814483
4.545360858890782
-15.47854316006918
26.61951011153257
15.02451617374234
-46.06742324586629
4.423396967370776
5.988398000650514
9.469421597742311
8.424145933712211
-23.88196553181728
22.49755036790922
-20.68084423619454
-1.873764110825347
14.78593716559818
9.123929217195949
-10.4809327111558
-13.42893366904197
20.51271888906883
1.836005226173794
-22.25527915896035
-0.09344495652767161
-0.03204681167081894
0.06983638278184781
0.1330183621224179
-0.1708079349388859
-15.65556509096159
10.46498388663386
4.974615094444735
26.26419025927171
-10.39234983268194
-1.849600377634571
-14.0222400488001
-9.903299395423748
-9.608685034717675
19.3688045559917
3.542689236777437
10.28648587474706
-16.93793001515164
3.108754905236736
-23.37972177796427
19.6937075570431
-14.80160966670959
18.48762389489409
-0.3318905895852108
-31.4864140664141
7.836176076952095
23.98212858083347
-16.17372315526011
-12.4214966367641
-8.643356459146128
37.23857625069279
-9.172037483755785
-32.44255982224126
10.64740147023976
30.96719583609665
-2.983179629708006
19.65010327937856
-17.6527046839326
0.9857810341466717
11.97679169652364
-13.88353801316663
12.41229414914192
-10.50554783233789
19.5739019536912
0.2271624754773938
-19.81158036959526
6.069427873956628
-6.217232612717159
-4.711920445723877
4.859725184587015
-4.06331497989209
-18.91980076146054
3.900391885577492
-8.560788032158275
10.46634851739159
17.47942610543274
-19.38498659111971
-2.747888311241936
20.34921617835089
-28.37375245310911
10.7724245860596
0.05963389973356656
0.8555408525686837
-0.2878701266200085
7.667951253765671
-7.656300068925731
-12.31744631867172
12.30579513386228
17.71296462773336
-5.802622191377725
16.94030753212824
-28.85064996857945
-1.62208434990983
14.40022172739602
6.677753909852218
-19.45589128680071
-0.01273214609385853
-0.1541202179061657
-17.49679132947626
30.39170526049749
-8.782977243211077
-21.7880116630501
12.07228145049759
18.49870745706478
-26.86625050170064
-2.844931763119142
12.97909645940587
5.737303499809839
5.798246019413011
-20.48287285230505
8.947323333216158
-24.16333253264253
-12.81640883340305
10.11349086468889
0.08912779247604695
-0.07225797127962084
0.1028865374001038
-0.0137587453057551
-0.0648210061338261
-0.2367912282685061
0.1287752465393191
0.1728369844414818
-7.137291073710467
6.444227196016811
-0.08423117486014144
0.7772950427772498
-0.02840859890788149
0.1925208186831212
-0.09277087053200943
-0.01912686430262117
0.07447793835574019
-21.52731224652797
-16.49724020562788
42.16078184142398
-4.13622938913029
0.1412483585852901
-0.1050611244366481
-0.02386846139914913
0.08557446101693876
-11.42771088701295
15.47830588954711
13.38286447965825
-17.43345948181146
10.14517176728536
-10.246915857686
11.62207195595879
-11.52032786546475
-3.524967310988969
2.493802253177632
0.002352575952480304
-0.07897295659526804
25.04015907897361
-22.55319065683029
-6.267453123259739
3.780484701466408
15.52309975223074
-13.15234154005923
-5.607053725191665
3.236295492379555
9.740306666185644
15.5368057127654
-40.6889610337392
-0.1415552155793482
0.02308921219601994
-0.02695785229355919
-0.0924732547944833
-5.706062265043657
0.8960468954463081
-15.46022239648008
4.436924589162918
-16.71627747732916
12.71470075621096
-0.4353478695083832
-8.698308249434891
1.510653202718148
-10.33901834360987
17.52667339034144
-8.291251452839417
-12.70240205379424
-16.4477262798334
37.4413797870513
3.403168425709743
-6.636453753128997
16.44387426079302
-13.21058894003162
-22.52344179698223
29.76736410651434
-7.267943736664148
-8.999783514333911
10.95084119841479
34.93411819020189
-36.88517587095279
23.94622726026702
-17.52371617461971
-9.619198097054872
3.196687012689306
0.007196409515070678
-0.09530915329865357
-12.06216774215654
-5.272800621636815
-5.151366883244453
-14.3017603942264
24.14739457147861
-17.42587890646725
7.580244727216698
-0.03642484701175203
-0.03761812861333564
-0.06338269956457272
-6.045609862490956
-0.08519588640028912
5.378920044149149
0.7518857031571297
0.0113533696566671
-0.02688093427797688
0.1288494131217787
8.423494361838642
-12.78542319978453
7.84256226541896
-3.480633429148792
-1.027033712901592
-13.68170965443024
-4.813945193811793
10.68064874799631
-4.289424428619445
-13.57159202840443
7.180367701011978
-39.14525327819506
-105.0447492798233
191.3085244146415
-47.11852185608873
0.03614035480134047
1.245344235920039
25.21287701869703
-22.52052121943068
-3.93770002764883
-24.54383799524305
6.494920495520105
0.1719424758235835
17.87697502424487
0.551671308009435
23.34735694432839
-24.14908965621378
0.1092745344095633
0.155708685088405
-8.350704867185909
11.53133725455825
20.13259462524509
-0.6623969579357066
13.28774455165441
-24.56403511605149
11.93868752282955
10.29702070700717
-0.6995813119356825
-2.029812690004088
-7.567626704847325
-20.52554316936488
7.629823663338767
4.334931473389612
-2.829307660356523
-0.8956207907704101
20.95686299502013
-17.23193454234281
11.91478611949072
6.194288466205723
-18.14647797013578
-0.4694454171541041
0.006966639714139534
0.508615947658366
-0.04613717333260518
15.23148039733804
-9.356285294611764
9.644949539935137
0.9716998092497021
0.1478650098848104
-0.01119078401765389
-1.108374055109125
1.081561695829967
27.35803417331782
0.8097360793810545
3.978805176235822
-1.252236893897288
9.830762070128653
-12.55733034986853
-6.987079301576297
-4.126462866884047
-2.119846253055163
1.081367298563021
5.266855107602995
14.00711038544806
-20.35533279063765
-0.4291916039283262
1.449383950619777
0.9412348194665487
-1.961427177168777
17.73153287741527
4.565687130493162
8.359420798780404
32.3681367355999
-7.609540865582131
-33.11801666893607
-3.682338657091466
-0.3668848998747195
3.305307034942807
0.7439165215952254
-1.537755533922919
-14.93073851421015
16.43544310011487
1.068972763659671
-10.92421933553331
-7.41391384857744
-0.6477844802297856
-7.683142605532606
12.48245098350273
-4.151523896370287
14.40836360829709
-9.710241780686921
-5.345906306828721
4.955621066069249
0.189290913103691
-7.473754590283672
2.328842609397056
-0.07200026129136501
-0.005814731212697449
0.03190294548128804
0.04591204626827843
-15.85027585978105
-3.031802066223282
18.19509792654488
0.6869799999974024
21.13078297775785
-22.20122227166964
2.360774303509981
-1.290335008882644
10.97789421166647
-6.808872122899948
10.23934151949334
-0.4920311761645348
0.4016432120138825
0.06122823041876203
0.02915972589283778
24.17634617583484
-5.737841152305392
-0.9729124641308652
-17.46559255830821
4.99833780352588
19.00646593256644
-0.7689138322386674
-23.23588989827966
21.92536604989183
-12.26896322767433
-0.9045828602922911
-8.751819960913689
1.248420335197568
-0.1920909912278591
-0.979318414008355
-0.07701093384476658
20.89339943351451
-13.35504644366484
4.231680167666425
-11.77003315626211
22.84670612991367
4.195108425881692
-9.30084093713989
-17.74097361819201
-16.74825933048257
-15.58303356628484
30.16665539453535
2.16463750053351
0.3241423678771959
-1.005142421897139
0.5481675651312726
0.1328324840117822
13.61142496339173
31.45832064668074
21.79410463198938
-3.379988655903137
-12.94886311047569
-5.465252864353941
0.4259042483093056
16.31910926439867
-18.44490280564587
1.699889297056111
-31.37051862162121
15.38858272815593
8.381658990097298
7.600276906877953
-20.29730039499355
-25.0453060394852
25.88102511564147
19.46158131878511
-2.417389677132547
-8.03819712978086
19.51148244456735
-9.055895637525632
25.15306994755161
-12.28325125686961
-15.28720836706811
17.59338932492781
-0.4869553963027252
8.046636019904271
-2.541731934982549
6.725946737908303
13.40917452343272
30.52965197333698
-39.16009341133707
-14.39335522937293
-26.3452839829927
-7.578469536357295
29.6352037704198
4.288549749805841
-13.43785197730103
16.81591251138818
21.26635313042187
-24.64441366000592
29.00809581540984
-34.56226690367821
20.32629781226339
-14.77212672005302
-18.54416322810912
-8.307328009313004
22.89570567689625
3.955785573786199
11.35036495070792
-29.59889632862507
4.810679410380376
6.392745384917301
-10.83033539063496
7.018177677963882
-2.580587692292673
32.85186858535873
9.663070234962094
-1.745820599946494
36.38124118799472
-13.25588901260544
-21.37953157366508
23.60321661736237
-12.61809426529321
-11.15203309234344
-24.77701141582345
19.08191385835402
-3.005147732679648
-16.10066315134354
-1.055917324735207
0.5599208595266045
-0.2656538742376879
0.7616503419180708
-11.01795171185051
-18.66088909382431
6.226626555721688
23.45221424698565
0.1614074261894746
-0.1752627072483153
26.08264153248931
-8.879400208248761
-3.98195260873242
-13.22128871671892
12.77082214196223
9.095676090547601
-10.71047305931096
-11.1644378894621
15.86581796893813
-21.6318807162752
16.93050064442202
5.208690527266944
3.100605097339885
19.11012081509646
-27.41941643800252
0.3001972882882679
-0.3981906602200444
0.3165812117825965
-0.2185878455954598
22.07909191331816
8.937905876300681
-25.80830725649482
21.56565944314634
-16.96084788292001
12.20212709225038
-16.80693865185021
32.24270713615582
1.180956018686904
-9.363894246723399
-24.059768909763
2.228912748337041
-27.67244868542077
26.68736274059856
-1.243826800551993
-12.18700984157112
24.3588178021468
-18.88353186427027
6.711723903060388
-14.11962115520504
13.51905107650651
-0.2247300702950503
12.78019720754861
-30.75970779546683
22.66308910415009
-4.683578516868561
4.502058039304369
-5.233503268194772
-21.1941150119928
-32.87282044054859
26.66714624887529
-3.547380521038312
9.753054713405833
-4.501489285481874
-22.29974363517719
13.57792640483121
13.22330651601006
14.25600354887952
-11.85416008190034
-5.858680668532821
3.456837201670177
-0.296604884601166
-0.7208972380116146
0.5751072745060626
-23.90016282266933
26.09406267108932
-35.06672028793007
21.66184647007044
-2.147188348327211
7.152488127723176
-2.931885690393698
28.03541310165245
-2.664761430571086
-22.43876597980395
-21.99249847025012
24.54496690860586
5.443367448599592
-7.995835885725729
17.21120182306225
22.24301924898932
-28.9651618907069
-10.48905918253941
32.29276289460888
-30.1991096367961
3.57005110285629
-5.663704362429998
24.32419830082982
-14.45416595339868
-14.08839856462423
4.218366217976563
-34.39785715008193
12.30953482196014
32.88986461579474
-10.80154228560303
-24.34710594726874
12.32466264160615
-22.37541384289569
26.87325654349598
-13.04449061272753
0.5421448362701298
20.0009268972811
1.578640641820756
-22.12171237558365