/*--------------------------------*- C++ -*----------------------------------*\
| =========                 |                                                 |
| \\      /  F ield         | OpenFOAM: The Open Source CFD Toolbox           |
|  \\    /   O peration     | Version:  v1906                                 |
|   \\  /    A nd           | Web:      www.OpenFOAM.com                      |
|    \\/     M anipulation  |                                                 |
\*---------------------------------------------------------------------------*/
FoamFile
{
    version     2.0;
    format      ascii;
    class       volVectorField;
    location    "2.2";
    object      vorticity;
}
// * * * * * * * * * * * * * * * * * * * * * * * * * * * * * * * * * * * * * //

dimensions      [0 0 -1 0 0 0 0];


internalField   nonuniform List<vector> 
19632
(
(0.005227885519403435 -0.00273420029458311 -0.009316910218601544)
(0.05765718297190938 -0.01540306004815392 -0.02875581343766255)
(-0.0008578648283045794 -0.00203218002224633 -0.002221463163427694)
(-1.728243354197684 -1.534080011776724 -1.684000684899607)
(0.02498883718359881 -0.1236552941822431 -0.01652750314390621)
(-0.02977665840991123 -0.01674247792471299 0.01569409921723212)
(-0.3038611566008236 -0.5288554784218651 -0.1527811821408804)
(0.03880539195782514 -0.001424623505423587 0.00744770822421856)
(0.08664433681645023 -0.05614417763869814 0.001369108999013702)
(0.02603598765398724 -0.01501399820981377 0.0383132732205505)
(0.05447534975310425 -0.04566794236971929 0.005070986023783329)
(0.06018373474185799 0.02021710577298279 -0.002944539814075248)
(0.001856163657995012 0.001766491148247575 0.001244682309925871)
(0.001350142564470818 0.001015822757062583 -0.0007717708549230895)
(-0.02130172860248776 0.004682506671830964 -0.01573207216279333)
(-0.2051342650095691 -0.05234384707045446 -1.357394706456189)
(0.01238320605404971 -0.006211957587361283 -0.01181362494328855)
(-0.1885132884622182 0.7829842562155743 0.08769437922143714)
(-0.004956428425894111 0.002346268463993076 0.002620238319306498)
(-0.05019212227961724 -0.004112255706424164 -0.01501065817498041)
(0.0001665282338763214 -0.008724111062828905 0.002158009697476803)
(0.08390207964674706 -1.397214624884536 -0.8668855308842953)
(-1.415373037880444 -1.070329158181859 0.3626084694629118)
(0.009596164266096614 0.01238532467946014 -0.01777596281433556)
(-0.003177491419389641 -0.00418472579385131 -0.001178857108383741)
(-0.001125834232450286 -0.002077597318753345 -0.01194505038925301)
(0.01884958388294952 -0.0158302561978503 0.02463368189352883)
(0.4010922695966873 -3.240178407693828 -2.67280072019459)
(-0.0427923330663265 0.3614200250698126 -0.2329091883078696)
(0.002462418834338829 -0.0008481329689078898 0.001811987374466613)
(-0.007187959729652185 -0.005044241726135532 0.002447648961745036)
(-0.001098702477273493 0.005900018574591804 -0.002258334625333488)
(0.1307856217157016 -0.1478640664501525 -0.05952576710563966)
(-2.900411596367626 3.080239702906362 -4.239124570087398)
(0.001646525508763802 0.008893735597203984 -0.004653013623169493)
(0.001633316664208423 0.002501560723326394 -0.0002540921075698865)
(-0.003224553125833059 0.02615808369588391 0.02503584728570529)
(-0.004138074427278959 0.003538114804481947 -0.006338470549930234)
(-0.006421193153095146 0.0009436073700503887 -0.007188982620082452)
(-0.002529672797146992 -0.00751368124119807 0.005893146470359869)
(-0.01437009839561442 0.003066225780815079 -0.005686372157652667)
(-0.009468528023532397 0.0002947043215631778 0.004685113223356259)
(0.005385400861843148 0.01983440003558632 0.01845590047963958)
(9.855430251428704 -3.144195496386863 2.929303631885464)
(0.005340185497885121 -0.001489367402849771 -0.01330999462604546)
(-0.01262827898324898 0.006006685445016319 0.005078695376323456)
(0.003095621208116298 -0.0007413831552235075 0.000555959588429768)
(-0.0004777028729645575 0.003437874349824916 -0.00155667630023176)
(-0.4433120771161281 0.002756986955858437 -0.27939643672944)
(-0.0477691526799072 0.04701391784986615 -0.04048562040339575)
(0.07050690840584817 0.01639884080183952 0.01232596693251528)
(-0.1235870809916532 -0.006981897337077728 0.04966305303171094)
(0.158147805313372 0.05715446080131965 -0.07269684252286537)
(0.01209948606444145 -0.02462077644270052 -0.003736766054920257)
(-0.00925106413113509 0.02194171201015161 -0.008053291639197284)
(0.04604136336964076 -0.005445674337067842 -0.02268487995513013)
(-0.0009524064579174625 0.0007285468190072136 0.006679721153879681)
(-0.00319195181297382 0.003082883249479998 0.02412794876603124)
(-0.002411576837611777 0.0358631619042042 0.01293664722104413)
(0.04636920654360702 -0.003238597389812262 0.008728020558738562)
(-0.05063822673534655 0.001374511114774135 -0.001430648107293968)
(-0.001253017433927606 0.001841607662713909 0.0002537532578561921)
(2.105631282325179 6.369891120256082 -3.813420199918278)
(-4.942143833787321 -0.9898314685455827 -15.46093661090589)
(0.0001301041561421784 0.0008605578161170895 0.0009036900325142386)
(-0.577373272962149 1.743417709348956 -2.510707045146671)
(0.6088148149448303 -1.197923688530487 -1.212247320214776)
(-0.09093492397814318 0.00249183862873377 0.03509706023483769)
(-0.006885457255390463 0.005835925165303579 -0.003350032194162445)
(-0.001168520933514556 -0.002606245680325363 -0.019730807168664)
(-0.004051700361683425 0.01116049480544067 -0.01455799563289241)
(-0.003399552869837836 0.002794167693670598 0.002226354307138285)
(0.0001355356902570555 0.005870113687946649 -0.007557128248243351)
(0.04488278369677857 0.002847605697923576 0.0423126457562561)
(0.0004904909950816248 0.0003756567208605009 -0.001511869747658492)
(-0.0004363804114232508 -0.0003418330900590068 0.002506624715757316)
(-0.0007750074160435452 -8.116597176808245e-05 0.0005012489025639212)
(1.656892776120562 -0.7740016939642477 1.811288183750657)
(-3.234950406059678 7.83896120758773 -2.438985031233103)
(-0.03534077859062765 3.083843035930206e-06 0.0129106722693971)
(280.7892296236151 56.75712813484847 -321.0459151023922)
(-1.684833602698477 -0.6831683193520183 -0.175334847744608)
(0.001610150855287983 0.00496120987326982 -0.00260804685014579)
(0.00129458688941276 -0.003031063045900259 -0.001052049487249767)
(-0.002444763093733393 -0.01235506298978604 0.001923535200409971)
(-0.09350699791622014 -1.166294031265539 -0.6427326135921858)
(-0.005843951234298642 -0.005425476176656882 0.001928767925690673)
(0.01246137511043147 -0.003029151941610832 0.0319283594012427)
(0.004646048153539176 -0.003636882499671175 -0.001214350600354135)
(-0.1309867567667126 0.02632442866180813 -0.2134052671875165)
(-0.01155040121996763 0.005632984937490629 0.009345155131524674)
(-0.05666583451965554 -0.0162911691630231 0.04830330271906489)
(-0.0235327934831839 -0.03451857439345222 0.01070160787587165)
(-0.0428536349524133 -0.03784540740506772 -0.01440445873175232)
(0.05106815731224593 -0.01003229731896299 -0.01937323147525153)
(0.001664622155913319 0.004063998782228999 -0.007553037906674817)
(-0.009560623678021688 -0.01396279968059743 0.03190343783974767)
(0.0003259634978677679 0.0003675399858444448 -0.001038667319177225)
(0.01379434118778741 0.004885867698354265 -0.027431105355262)
(-0.03970598976162649 0.002987434254648844 0.001485181304492003)
(1.216299730420315 14.23636582516418 -4.54453260239287)
(-0.01271418173855734 0.004373536406909817 -0.008016536353753717)
(-0.01102201638409673 -0.003205783958162828 0.01414072837578998)
(-0.01881488126424809 -0.005427643107234883 0.006886896952231211)
(0.1682912747510669 -0.4872707804665988 0.04487295352713166)
(0.04343163914786838 0.04975269120813057 0.05898945216858764)
(0.0007224482516859573 0.0413209008403626 0.009291024948860596)
(0.01646080290532121 -0.01970613370236976 -0.03462831371864638)
(-0.03295892986896098 0.0008174760512398775 -0.04162807506235822)
(0.02752987369241455 0.004530350907019348 0.04450896972553751)
(-0.9601973223868066 -0.02128234974326382 0.6340604127462006)
(0.04569419689155593 -0.01301901996295357 0.004351868986805802)
(-0.0009390181967751425 0.008280591932011602 -0.01234040548058128)
(0.2167833395900294 -2.34211366360441 -0.08975348061089933)
(-0.03993928802597196 -0.009612583370417618 0.04877815655586818)
(-0.04085263730685437 0.02782495460542788 -0.01936800668199452)
(-12.98665241277422 13.77705900914357 -6.090489801040796)
(0.648674734478797 0.459075487970844 -0.237877452656318)
(0.01133997461970917 0.03674840396895628 -0.113343165562582)
(-0.01039013062235765 0.005247271126168222 -0.00506055660085376)
(0.01687931947096461 -0.01692392660199188 -0.01673800657536675)
(-0.01006090138940465 0.003139683979957054 0.001244130495939039)
(-0.002707081442569355 -0.0005395300221613115 -0.004216354440911353)
(-0.00341843185213199 -0.00256457141506331 -0.001945120624544304)
(-0.6123502630672957 0.899685497689229 -0.2869386076223233)
(0.01954059040741181 -0.01558491270469687 -0.001600037223538166)
(-0.01228795214369438 0.009901142464424549 0.0006254751960176018)
(-0.003387385621333007 -0.003077598738144575 0.0003809749190414394)
(0.02220979178602835 -0.1124047242165269 0.1686621516221655)
(-0.03757403337763848 0.004564488693010929 0.002028263053719401)
(-0.001140975937505175 0.005785882781167601 0.00342620600346775)
(-0.001095342019027315 0.008345084032395603 0.0007044998991690519)
(-0.0186688263190322 0.04108295466852793 0.0270259187277126)
(0.002001111066601193 0.0007844794659580714 0.001358272344505024)
(-0.01016318309221323 -0.1380832736056043 -0.1777828686637749)
(-0.005722468642778137 -0.009090679675789047 -0.01436831160783565)
(0.003666524104305495 0.001864141324010416 0.005316182164332436)
(0.000278838087252424 -0.001500395117444657 0.001231974516085609)
(0.01215139879458953 -0.003359845902043038 0.001225186341984785)
(0.007211066778462991 0.001772236519161338 0.005015719573196569)
(12.77782472474984 -18.30224353954591 -51.07340189177535)
(-2.704210241146559 1.272474622024609 -8.146169597435147)
(-2.441366796125982 -5.462219965298576 -1.825210583831817)
(1.100783905199311 10.64862998553084 -1.367787050306528)
(-3.510812957223004 7.923851790935325 -40.06590132916897)
(-0.0008770382178444461 -0.0004440430065182559 -0.001562664989010185)
(0.0209427326738128 -0.119993384408505 0.006975041426826702)
(0.2393801189772249 0.2463423169689201 -17.30609026204142)
(-0.003089730949797157 -0.01239249107205187 -0.01426020340355454)
(-0.0004210198866418487 -0.001490574193626299 -4.74975350078223e-05)
(0.01489949718502554 -0.006250500819163335 0.01514063987318965)
(0.04509461299831512 -0.003367342818257607 -0.004827340309784468)
(0.02419236043763963 0.01595447431601332 -0.02398920216198892)
(-0.01191851540346345 -0.002666561905874243 -0.03935599221614637)
(-0.01474959876326628 0.4763207272808104 -0.04186591985061496)
(-0.04572608033869591 -0.015510791207234 0.009011157400821066)
(0.00157072227636286 -0.001527973698065801 0.0007545945230242973)
(0.01040361091215151 -0.004276749255987 0.05877735936766778)
(-0.03271835958955914 -0.03686990915502429 -0.04359977932321599)
(1.383576049874646 9.874478870270575 -3.353777015028348)
(2.556041995238033 -3.936175563000294 -3.251816250194006)
(-3.923729580770658 -2.656238218360408 -3.02666668976204)
(5.286857986944178 -6.042583838471369 -8.393461698766652)
(0.02650726030125872 -2.434225637253633 -1.102203086388741)
(-0.009604988818364989 -0.01703728860387201 0.01285057884378047)
(-0.1211303358173217 0.1260452905245602 -0.183262606912279)
(-0.006333989174448554 -0.012344023820731 0.06069001912598273)
(0.04582793424412424 0.001230159730772441 -0.1241360982660958)
(0.9933585135169436 0.1113503080641174 -1.028890763911851)
(0.001388987096989966 0.003979641348800632 -0.004252477130626125)
(-0.004343045099001235 -0.01476714831547563 0.002221804321208446)
(-0.006589004172256933 -0.00905664578679077 0.004460989466269624)
(1.888239436330118 -1.354440678931162 0.6795741763309504)
(-0.0006042273888579766 -0.002244252713624075 -0.0008765446825220722)
(0.007682016569200771 -0.0007247742600122376 0.00158250319826014)
(-0.01564240231975844 -0.5957528325115304 0.9960722469195872)
(0.03155117675880381 -0.02680967203191994 0.008810593097843373)
(-0.005373016729513571 0.0007291701500175497 0.002517125707541908)
(-0.00135539036050229 0.001510073669016481 0.000927417736519747)
(0.004060896278854498 0.004078981977871484 -0.0006613320285943931)
(0.00256675550209077 0.005918664480840457 0.005323461379519367)
(0.001598075611160026 0.0008646326934748349 -0.0001165052942013966)
(-0.0008428420450600782 0.001730877099164778 -0.0006997329411101957)
(-0.06156065642475057 -0.06540526281021986 0.01984186570073367)
(-0.00264735149246957 -0.007461824833584079 0.04731979537660284)
(0.0005246733467669629 1.572333319744255e-05 -6.970392284958533e-05)
(-0.001551092871482148 0.1340566461733825 0.03912769596247204)
(0.004676191610476724 0.001126930677544321 -0.002276279493825093)
(-0.002222815865138467 -0.008501325798412833 -0.003374057496336349)
(0.0003380606651771166 0.00276725035190652 -0.001654614164769236)
(-0.01015496982078979 -0.002003128416531516 -0.001294665903673402)
(-0.008574135454071284 0.008666315267918532 0.01346317100364651)
(-0.0004049066714133297 0.009575752481094456 -0.01446629116525135)
(-0.3321598216880267 -0.07623610022193951 -0.0120979678172504)
(0.001481473622782907 -0.003942846460515715 0.009332625103962721)
(-0.001204957606513423 0.0005742079547287184 -0.0009680997140472047)
(0.0008064467071520361 0.003808601418965253 0.002742436646229365)
(-0.4569237064934103 0.05936217686637474 -1.426239998835616)
(-0.03071263158845376 -0.01953543933426174 -0.0159038995296418)
(-0.5541292539003704 -0.09784641968483308 0.06994380179286275)
(-0.02742190318243455 0.007087916797477741 -0.03427427175529651)
(0.004180044181667164 0.0116337585682828 0.002415200359682247)
(0.002488574773090497 -0.001062973609621432 -0.000783941700497531)
(-0.05480443135739956 0.05094830582553736 0.03840464999703681)
(-0.726417046180424 0.7915453710578614 -0.6224894700575818)
(0.2237042638479697 0.0948222214950834 0.006750347833616482)
(-0.002687843582411742 0.004018557097793697 -0.000403838330761487)
(0.07199691933135166 0.06847981965903689 -0.01698021029922162)
(0.0168355323875269 0.003157007677842777 -0.03298087662518205)
(0.001560454529371368 -0.000151762312081377 -0.000402859621210787)
(0.0006138527267718894 -0.002578171907004379 0.0005167173794958209)
(0.005094143170622901 -0.002107872301267611 0.003202037293503792)
(-0.0004982241890415695 0.0006348556635112474 0.000390943000270262)
(0.002085976819204467 -0.009583218981499515 0.007809138333824109)
(-0.08027876248814744 -0.02393988336635539 0.004918885665092961)
(0.001388306118310083 -0.03983714244324272 -0.0003495646651198682)
(-0.008635004857850195 -0.002262741473277432 -0.0004062113460563974)
(0.01024586903456246 -0.009185923532000703 -0.003922364570278925)
(0.04756015075830728 -0.03503748539024711 -0.01531099689698516)
(-0.07847899322289027 0.06783951480253669 0.05683313563633237)
(-0.008765549852768041 -0.08253679787480836 -0.04534928328281321)
(-0.03250118708216503 -0.06373560145718953 -0.02277096495498847)
(0.0005504733092250706 0.001325608489324637 0.002578646483164916)
(-0.002654925761451948 0.001961263445705923 -0.001809000868795031)
(0.2878546242624422 0.8363822358346064 0.01906645638691265)
(0.01683775461905567 -0.01210875654894827 -0.00737613544049572)
(-0.06310852798346454 0.02140322753337591 0.01159984335891993)
(0.0374096250796126 0.05514444621922913 -0.02992340457669323)
(0.001350595391624985 0.002646528626015986 0.001036913478990022)
(-0.003366797769539446 -0.003824314721935789 -0.004781745382233882)
(-0.01537310279613789 0.003411175368232903 0.001846930194452329)
(0.005628307935933537 0.001744832149915349 -0.001905695249359935)
(0.01312698277929121 -0.01869313846479016 -0.0277556458339288)
(-0.00157935460213063 0.002600363291993933 0.002426515777585476)
(0.001145289378413376 -0.001146624766385517 0.004472744987599038)
(-0.002261664538519614 0.003086502728438323 -0.006999379898001771)
(0.0004777469315314048 0.001706969212467151 -0.001110756158011396)
(-0.008048542464160591 0.1742319557045456 0.421087891651427)
(-0.01032941768387289 0.001504790988075224 0.01562427904370833)
(-0.04134826680080375 -0.02388509372572468 0.000949827839820774)
(-0.01262854451657422 -0.001578693390912423 -0.00972548517308524)
(139.8372603083028 -5.701609991781524 -25.7544617861975)
(0.01144011408416317 -0.001903042738786293 -0.004349531048606324)
(-0.1058767374927635 -0.0903468383430505 -0.2049609522150047)
(-0.001084149832305555 -0.002410105174136385 -0.0001875758877261719)
(-0.05487489350644051 -0.02125773072458689 0.01290946013976163)
(0.01211247615526886 0.006826179770919589 -0.04419656649944577)
(-0.007349530307295653 0.00828315951233681 -0.01808050581225246)
(3.32796398845878e-05 -0.001245295674404914 0.001364799169924994)
(0.005727456418973638 0.00126549086510704 -0.0009795128733349778)
(-0.001559130019756932 -8.768821965228604e-05 -0.001310977645301373)
(0.0009058287363118239 -0.001720374829984199 0.0001683122426800658)
(-0.009918952158045266 -0.06855926675752405 -0.02037299801037029)
(0.002186893604299286 -0.001482638600359528 0.00364825134580581)
(0.03659013314830104 -0.02814069252958495 -0.03208362973069723)
(0.02290599009009123 -0.1760182960886983 -0.3748750862812645)
(0.0007616106534212553 0.0006422855204070019 -0.006423254730005122)
(-0.02322125250863741 0.0378728595338647 -0.003247041595797698)
(0.005939055501024124 0.02521526855110907 -0.07535773362920815)
(0.4007612457178107 -0.08118498370553121 -0.332633886460246)
(0.009009532437105706 8.93979138526348e-05 0.03157532257263986)
(-0.01268248818860313 -0.0004836786227005651 0.007693457104992542)
(0.02803207391990862 0.002338094921007493 0.03497547238686479)
(0.000727978418025285 -0.0002935961637800277 -0.000709656474405574)
(-0.09662161627805292 0.07526393832748188 0.06929407409853516)
(-0.001684209248114687 0.0008631376201356069 0.000724144983161953)
(-0.0007452166667776326 -0.0006113190227931691 -0.002583656157371256)
(-0.00828693540247356 -0.01370188355838322 0.009514308567335022)
(0.0005315765153509946 -0.002322001926302933 -0.0001708762106887016)
(-0.005082653656890371 -0.001784473187170763 0.001047209442008709)
(0.006736307772507486 -0.002080522837652632 0.001626763089323491)
(-0.003306936490433445 -0.003214239395246066 -0.006166016431822115)
(-0.01338659111388524 -0.06893266653618875 -0.04251297748650992)
(-0.002046231709365247 0.001100958549884776 -0.003141013368606911)
(0.03521292954676811 0.2370961024896064 -0.01423893988341307)
(-0.07081004922636178 -0.007638936387289554 0.1124092555001919)
(-0.00167999350076901 -0.003975796231328534 -0.005303038556346845)
(0.01518144282316198 -0.005590052370152251 0.0009892789631073132)
(0.0008836413693989162 -0.0006094682720868249 -0.000473050769087206)
(1.643868068088066 1.594874735421794 -2.641461409010538)
(0.0407372267225312 -0.03527814540374953 0.02496039802100061)
(0.09583764041347456 0.09559537734964224 -0.01308780082399206)
(0.02746215560641814 0.001855049778847925 -0.009390153628507127)
(-0.00374692966778237 0.0002461139428623611 0.001911625755485795)
(4.414673944960578 8.497003625756394 3.693356295125004)
(-0.05075709851280258 -0.2238898740378164 -0.07998962842363302)
(-0.004849972366811344 -0.0108534773821743 -0.03641768623279854)
(0.3893959345430656 -0.1767504673666358 0.0347636549829386)
(0.3063056613656011 0.03214140938859555 0.02082619330568167)
(0.009531813985704216 0.002214576731813956 -0.003869942588686102)
(0.005146771816584565 -0.0002826249627583922 0.001355368220456121)
(0.003041871865333766 -0.01834714665905977 0.02136724645131272)
(0.0461610290250816 0.02202929777103158 0.005751146900851673)
(0.005916038889022267 -0.0008965252257585594 -0.003137878123335734)
(0.01087252443936206 0.003246269528437728 0.01581070251142296)
(-0.03507664621479733 -0.009380252545664663 -0.004268678126699522)
(-0.05075624632558536 0.07706217155896018 0.0882800891168771)
(0.8371238852182057 -0.7419093567370094 0.4885405516427521)
(0.009609117011243177 -0.006279248769315661 0.00577553600296833)
(0.02901363390863651 0.08259001517936704 0.1107510000980144)
(-0.02419715206762123 0.01401607486317876 -0.0160330454654606)
(-0.1273454094776642 -0.03973181622244755 0.05986388911541007)
(0.004764835961886569 0.005930358611272729 -0.0008258863647889626)
(-2.898309153394872e-05 -0.001269842965706759 0.0006488170975366917)
(-1.409301057567609 -1.948730049908194 -0.5694745389899294)
(-0.008816677357591026 0.003008650552406208 0.002577697741549922)
(-0.008403137286513578 0.005640433312024039 0.006040819056190539)
(-0.0009568599537522765 -0.0002587829471545072 0.00496311327317717)
(0.0002727226011308773 0.003018865553428702 0.001665654910566436)
(0.0007162120363626026 -0.002557485610211049 -0.0002646135724396992)
(0.8977272193013297 -60.87017182075669 -3.883296396314919)
(2.353102001967732 -55.58456184432046 -1.901918783244469)
(0.05129783737338482 0.02136252840801191 0.05895916084559286)
(0.004059076993788325 -0.004241389135493935 -0.01785680646994602)
(3.367795682908708 -2.196432033438371 -6.5346867645653)
(-1.950978726126605 -1.528063551121064 -8.592970685183129)
(3.99713728591584 -55.06876580114995 -7.957027615709094)
(-0.01281716846349033 -0.006712539866739773 -0.007238912845464195)
(6.881737306690287 -10.15887011070546 -5.200104740692865)
(2.492991141229359 -5.565854159388013 -67.43493846786826)
(-0.03034246511658845 0.008248774273668892 -0.05914549632472043)
(0.06995559506199878 0.0317582142896024 0.1244277030267036)
(2.386260316070667 6.644445311795808 4.056674588041121)
(-9.471285397539859 -3.527392537846242 -54.87486364633664)
(0.001694516157107966 -0.001241338624974166 -0.0009688627575624295)
(-0.0006201508108801162 -0.003979670672424068 0.006384365207200796)
(-0.01305120320222925 0.01421679625527508 0.01156637356229079)
(2.193889249220214 -11.76807766970906 -9.409537435215938)
(-4.917355238404854 5.477689248150479 -4.492103013915125)
(0.01460847877286857 -0.04354588233508197 0.1573812060798473)
(0.006628777285335084 0.002458640687790871 -0.006516564559359292)
(-0.0004064485758890096 0.00277729135840483 0.002916706960261807)
(-0.002501000069871713 -0.0002174492101326012 -0.001375750878513487)
(-0.01439289132511794 -0.008653360720061325 0.004583118812521944)
(0.05994462049973145 -0.04276178742760252 -0.004659431552517469)
(-0.1464055722202116 -0.02757685942492581 -0.01241750561628885)
(-0.0129740496243836 -0.0007824205707542969 -0.1612579173481278)
(2.732532511393391 10.1332941244404 -4.38107268609636)
(0.005827125647031717 -0.1015465247375078 -0.03842021176918275)
(-4.62635420195032 6.314105564040573 -56.11601467025908)
(0.001605419855639569 -0.002058967784980676 -0.003135114665336097)
(-5.119606034528534 60.07636767574336 0.3688680692670334)
(-4.192664712178455 78.86615577965505 -10.84955279759516)
(0.004428462952728062 0.000248423010977485 0.001506751813796935)
(1.254768529285477 5.5351432600092 -5.043312271056256)
(-0.0002209249478250104 0.001113583247599455 0.00206076461534563)
(-0.06232410345320694 0.1283076362700552 -0.1817589425748129)
(-0.0003002646982787549 -0.004101302904242561 -0.004441619702451355)
(-74.6259938907988 -20.55383406892216 73.73953308564752)
(-6.235292549823599 44.4075507397871 0.1112399556736932)
(0.06619013673456429 -0.08094717295555678 -0.1378682969614345)
(0.004048040288249624 -0.001854246341359921 -0.006749360493524146)
(-0.2108795826743189 -0.04244247882140706 -0.01543271729692217)
(4.477838012457035 -5.174041329207007 -2.732193469268061)
(-0.02697639909902791 0.08454602100214373 0.0415301651143547)
(0.006360503192313335 0.0009500202279837067 0.001394454178548755)
(0.001991523182656349 0.001137232396581458 0.001654648540480728)
(-0.006635510685034438 0.0064757944295162 -0.01252994177963228)
(-0.009919188584113376 0.001908810182792797 0.003802609386459774)
(0.09239976387433432 0.04436220930366643 -0.01276031130926467)
(0.02076117582036536 0.05196482323616575 -0.04457286028614463)
(-0.007843905469070118 -0.00573205147678641 0.00533293222163304)
(-0.03783969464774274 0.01344719770982901 0.01559997218250957)
(0.0005647254013958021 0.002794105927586165 -0.003682633398181645)
(-0.3722847208377497 -0.02208718730455887 -1.431432646563953)
(0.5743362063395161 -0.1996796474191652 -1.598992832827775)
(-0.006771468591111083 0.003443575560761848 0.0004073152808398888)
(0.02261120423270504 -0.00489561571758548 -0.0172535834575526)
(-0.05746138582786021 -0.03622281609718176 0.0641447304525576)
(4.524775219641573 4.297215842852133 -4.372470154579142)
(0.0006797033305056899 -0.001414094992165277 -0.01151831576356948)
(0.02950477858951762 -0.05202432684396363 -0.008897625083011562)
(-1.444355740263397 1.381327944159543 -3.62682949073829)
(0.004455418666356346 0.002814028128620764 0.004338943723621667)
(0.005520373059785391 0.001413497182641273 0.00528287102183777)
(-3.150620336950087e-05 -0.001243456325077381 -0.004026079140971906)
(1.383668092094773 19.47734080330859 -8.460368132620733)
(-0.001060974309750107 2.32915230949281e-05 -0.002218291760757218)
(-0.003342607113162751 -0.001272883095316616 0.0008316504464229799)
(0.01345108159338657 0.0007116520444010841 -0.005937608427181792)
(-0.3732369670659988 0.3515014953473117 0.01541446979324546)
(0.001420496918686453 -0.001691765796334168 0.003634604102336366)
(-0.006683913469139186 -0.003946019944550588 0.00315301368658708)
(0.002545365956850816 -0.001340702777226238 -0.001562531237008535)
(-0.004986078758785706 -0.01078014618118315 -0.01555723896891158)
(-0.004817109196077834 -0.0001224684608879989 -0.001149010047241884)
(-0.0004908102852212866 -0.003026439276111674 -0.001823243502467395)
(0.01499006364318919 0.006161930031842063 0.03665668294200339)
(0.05610627661465152 0.04481184755030412 -0.0009155802600932447)
(0.002543678900591627 0.00220695496048738 -0.001245898351877191)
(-0.000377367832086433 -0.0007233463985616686 -0.001776168272435887)
(0.06693502498172724 0.07147895603841864 0.09141369659154752)
(-0.0006439714980120493 -0.002909274213594886 -0.003203769986589361)
(-0.0004982616400695974 0.0007421330992659536 -0.0009199075834509405)
(0.001168845477081335 0.0009733361135651562 -2.07671794432634e-05)
(5.159838788365102e-05 0.002883446039371619 -0.001080552966441166)
(-0.006714171763752835 -0.004006340809747534 0.004168770061110529)
(0.003119178298646553 0.000698020157556632 -0.003272679730835999)
(-0.0008843221614162793 -0.002099350008445672 0.001039570618994414)
(-0.002259936301111837 0.001697984414444883 -0.002803508797507504)
(9.921283490130391e-05 -0.002852353083128644 0.00754708449175312)
(0.007918382938776523 -0.004378616964948153 -0.009272673447806471)
(-0.3103866800092636 -0.01933786750834986 0.07497572919974496)
(0.01571468051243551 -0.001452303790856006 0.003693111809739531)
(-0.001234503677809859 0.001570197653499067 -0.001952432091311574)
(-0.001277263502178198 -0.003878524480915862 -0.000909596819298451)
(0.002406635668482908 0.001585144681115521 -0.001196843142951089)
(-0.08727590180546235 0.03479659887434883 -0.08589133852869553)
(7.817715979857764 -1.557152302937784 4.622746596706638)
(-0.0629436512683369 -0.01072051735620873 -0.006557787020010234)
(0.03856425858426711 0.004446333696948834 0.04088055027023468)
(-0.00163774341113597 0.0009500115738044382 -9.268086885133478e-05)
(0.0422738572728473 -0.03258913194592462 0.03677560691011358)
(-0.001656610719547504 0.005589827993654794 0.004150279727748199)
(0.1763631152746367 -0.03020631215795928 -0.04070112073984437)
(-0.01276947674756603 0.01388903832567487 -0.01315761244307141)
(-0.006493696203803204 -0.001706544121449055 -0.001461461468326278)
(0.4310596073374712 0.1306200091732268 -0.08663870862178465)
(0.00313700378460993 0.006744814151855092 0.003399646470481681)
(0.1166706268325094 0.1110210725847532 0.06043817829641787)
(0.003065598467998755 -0.00139565210021917 5.13837844935269e-05)
(-0.0002411768867597724 -0.005482011311370561 0.005142813848560543)
(0.001513780835064691 0.002203310150296502 -0.001815025753365958)
(-1.090856877688935 -3.031751151377965 -0.116713946866251)
(0.01666702343824684 -0.0124442953299991 0.01992743035154695)
(-0.003290476933745158 -0.01089368719841294 -0.006732897994995937)
(-0.001515222012686257 0.0004839293005280045 0.001262945936643445)
(-0.002317051624418378 -0.007904769735587708 -0.006605815584029923)
(0.01341684933551685 -0.01798961955010116 0.0233276819823909)
(0.08666211979913972 0.1632874921862041 0.2438384069898138)
(0.0004598754572359932 0.0015380995936257 -0.001634069683988439)
(0.0002604692897604232 0.0008281272035321956 -5.575942551967793e-05)
(-0.0006401822860583145 -0.0004508976902625159 -0.001648243902468032)
(0.0001284585293081119 0.0003450958048829605 0.0002806354618013567)
(-0.004046340840680476 0.0003874038156179903 -0.0007980034996624881)
(0.00062903360346835 -0.001829244428266153 -0.001764151024458656)
(0.001641565877101387 -0.001029962317456585 -0.001467466983805978)
(-0.003733665935059425 -0.002853320168262739 0.000396899527341818)
(-0.001499046268655304 0.002168518259601297 -0.001939632348480468)
(-0.003183266337304041 -0.002297187590796653 0.001139972304972843)
(-0.008235446352252207 0.03710959391680987 -0.001776790196462588)
(-0.1134886850809475 0.112887421607295 0.1692295141216305)
(0.01340307459034554 -0.00726676609223624 0.01387937459553511)
(-0.01126518344173675 0.02996155348091716 -0.01035630714172157)
(-0.2189914104042087 0.1119580552869685 0.1966522511720115)
(0.01869467266408181 0.004843470225414123 0.01008667374665197)
(-0.001434419520111194 -0.001845162630782444 -0.007738107690732502)
(-0.00311492007793533 0.01072972487526077 -0.006729875733243938)
(0.005441213527029969 -0.0002386848306057285 -0.001592903046486432)
(0.007325625253816944 0.006368980235507153 -0.01107566651164737)
(-0.02155738624210028 0.002725945708526458 0.01159663439332001)
(0.02550371989322654 -0.00276094306157469 -0.007494048649778465)
(0.002754309739477208 -0.00108834481593599 0.002817676255856841)
(-0.002419757124102445 0.004878486011219991 -0.003922085592823265)