/*--------------------------------*- C++ -*----------------------------------*\
| =========                 |                                                 |
| \\      /  F ield         | OpenFOAM: The Open Source CFD Toolbox           |
|  \\    /   O peration     | Version:  v1906                                 |
|   \\  /    A nd           | Web:      www.OpenFOAM.com                      |
|    \\/     M anipulation  |                                                 |
\*---------------------------------------------------------------------------*/
FoamFile
{
    version     2.0;
    format      ascii;
    class       volScalarField;
    location    "1.3";
    object      p;
}
// * * * * * * * * * * * * * * * * * * * * * * * * * * * * * * * * * * * * * //

dimensions      [0 2 -2 0 0 0 0];


internalField   nonuniform List<scalar> 
19632
(
0.0283023769417895
0.03172707397797548
0.026107954613517
0.008253147595014115
0.01970077271733373
0.05565828311234709
0.05329940358963867
0.06077049759876743
0.05938323092677129
0.03868620162938292
0.03105027313802453
0.06373523794938769
0.0663527748020158
0.01600652085949664
0.02112329658885363
0.04522457850454581
0.02083336257169803
0.02047046255245179
0.01958269959090379
0.08747781186817589
0.05240706254301838
0.1091330801660437
0.0004432942585729209
0.02043950149700705
0.03962411366522393
0.05596475635059118
0.05213938298203389
0.01708440102603738
0.02287352444950603
0.01474977768085737
0.004451472439270759
0.01647874492231632
0.02929801040124995
0.03046392626247111
0.019965118160781
0.03614200596394213
0.08157006480624664
0.02482480334724331
0.06670716103263447
0.02563636302830794
0.04487952071677606
0.06143443512922975
0.06801052799166239
0.03920938076489926
0.01794528892474405
0.04127712832961072
0.033541577053218
0.08513174956757312
0.01176154500846
0.02284107032634184
0.0786597058192287
0.06138833277432568
0.03293430885581256
0.05316876811908628
0.07051963886159796
-0.002978026435110427
0.04111216240817206
0.02261390135138601
0.06200821886583317
0.02541389263511539
0.0198520521126723
0.01939417088207364
0.02138614249758152
0.03506371567271912
0.0905404934854053
0.01047095011216334
0.04045160205666213
0.02020154138001905
0.05707210213302879
0.06822160268834684
0.02984093277340241
0.09599265800142717
0.1377135603447927
0.0639917001120274
0.01963416585931773
0.04302242022437056
0.02772489877084377
0.0552259695516471
0.04546248156528303
0.04658550421387207
0.03920109700161467
0.00998208023880098
0.1164795312738605
0.03044907163839919
0.05604615003376606
0.06437107187708357
0.02685015087990911
0.0444405288260687
0.06930717264407088
0.02431525352784325
0.04033290795305382
0.06433859605970606
0.03594961747083927
0.01529204558674719
0.05982119234898211
0.06693772239421958
0.03861053104596004
0.01511072633505697
-0.0009016103100726571
0.03967922807582019
0.02072974533246601
0.01126670996740776
0.01228844730063384
0.01477005049759099
0.1255366777887449
0.03135642564218326
0.02462572140346091
0.05756126180996762
0.08713352630686173
0.02440365158663355
0.07854772628086666
0.0003293823681910512
0.03045332756837152
0.01813586914208467
-0.0160995243100761
0.1168371453241171
0.02465473298366697
0.02028923230845558
0.04693393850589164
0.08809800342239316
0.1046938892547176
0.06908814236986933
0.01891993365761694
-0.01801765263156918
-0.01184688926529606
0.03381576188796963
0.105286211162212
0.03011974962611818
0.01598790498643469
0.04410792059342714
0.06228734718546066
0.0213232794766089
0.0296914511821751
0.03667844111864823
0.015673670346503
0.00697331460462623
-0.02104104078680825
0.01811213793264562
0.0294184548147957
0.02283735206582164
0.009695057831969082
0.1514006949711077
0.01587429918657062
-0.079222968260496
0.01255902759806666
0.1174945339707958
0.01193993724911653
0.1128415017979953
0.02303403296850929
0.02682361485668637
0.02625585977222489
0.05131900820658151
0.05633090501239664
0.01312415801456609
-0.01800168519063224
0.03215799434970633
0.09021771991938571
0.05840978757368408
0.1401864550975425
0.01623325158339189
0.002817903242110703
0.05619761878675714
0.05864824440950656
0.08200405112315096
0.04474076843779271
0.07030640307580276
0.01455662436164521
0.07452215478354512
0.01523366821327032
0.097873028459914
0.02839986632592284
0.08166001465270643
0.0216584267211286
0.02159500011354769
0.02065790963903572
0.04998570139833199
0.02234025574530468
0.01039554871903396
0.1287141793280274
0.01848786477638275
0.009683364948065515
0.01173033212417972
0.03490328949704641
0.05561109179833305
0.0429216497654237
0.01045760717613133
0.01190825081583384
0.02202815839933386
0.07080075595274994
0.02037083830823295
0.1532018115756605
0.0415300517389546
0.03683003282981624
0.02943414380921226
0.01550496689492419
0.02139048774513546
0.01218416219886226
0.02634751528812363
0.01533238084620072
0.01748389372178984
0.009640928793725989
0.02105441761569098
0.0139702139943321
0.0496022301003486
0.01293130216549367
0.01821153763132964
0.7381601746252526
0.03354412660781483
0.100292705548977
0.01459625308170743
0.06440123896627201
0.03994593794789903
0.01462420740736784
0.02871878986060087
0.02786813348328978
0.01905877295675038
0.02555721167576845
0.022571609915154
0.0734508412833509
0.04519192585734703
0.02066449318900622
0.04620690600523699
0.0225779240530325
0.007978310751199322
0.01729511538671957
0.01381393292724767
-0.007762412687333803
0.02745989053905107
-0.02401695004709117
0.02933675395206806
0.03676114259446241
0.01927468097121808
0.01719432902495914
0.04844467132968155
0.02137440134803274
0.04533505850138855
0.05943215305554694
0.04686980824898487
0.0231894180790138
0.02242904856581946
0.0175498738707548
0.02106340517289765
0.9282642830501011
0.02382100097454554
0.02365031855531602
0.02775887962793351
0.02506036048645358
0.02318644330240801
0.05593803645808312
0.1038468008397049
0.01573138954590416
0.2146819157900013
0.02296451494470474
0.02228758638689229
0.0333909026173859
0.02111954378448803
0.02267723611918636
0.03110413192465748
0.07731793298011054
0.02474234579855481
0.02348348267097026
0.1676700840262344
0.05475753469674271
0.06770244637766711
0.04348430367463148
0.05425760288175255
0.04907399620566365
0.0141459456631715
0.02192214641809708
0.01652165766522866
0.04869641801693595
0.04588512729932016
0.02737916512256711
0.03726879197083834
0.1415295185117167
0.06937104785845001
0.01917705981605586
0.01914151078789154
0.06877027656720253
0.08571584233387461
0.08738034852372788
0.05853712881814772
0.032645123731558
0.03102194446747152
0.01118790090807963
0.01316032305361971
0.03475861699829518
0.01931944259140087
0.01827597331956684
0.02447616296594842
0.01938058407453904
0.01592849948133855
0.09703328394907923
0.02125076740758342
0.01183558573303493
0.05040103538415813
0.008834748065625401
0.1785781923414543
0.08204851275644842
0.009107931140633959
0.06013591877746706
0.2698209816422734
0.009953112722587074
0.01549079054597581
0.02577574973908538
0.07110127502189177
0.009440552886834487
0.03855096663729579
0.05429352598430363
0.066301031751669
0.04678374355292694
0.1328410432855366
0.02397470696402184
0.07531671401634052
0.03836569312254193
0.01590153558293925
0.1182560948584493
0.0002455074216277359
0.1017027820435667
0.0413806932081705
0.002807859729654967
0.03430789885293065
0.0234429942713951
0.01899882799693563
0.03219524504122817
0.02674178408201267
0.03292203059020406
0.02525416775072835
0.02093646408957475
0.04097896840674192
0.01405055919426423
0.04636750045933021
0.07718207122023307
0.0415339532727753
0.01676049627816555
0.07791223144044351
0.01753112904584665
0.0714215983571958
0.01520341294295443
0.0268962030530654
0.07679322537919016
0.02019140604527769
0.02559794724382432
0.07014142548471576
0.07580992349084224
0.09915497848796151
0.01797270584562337
0.05555096181742408
0.01784168803317749
0.0184830019592281
0.02151795170925627
0.03040453550878363
0.01046412949884648
0.01591628638870878
0.03227136934208042
0.02187396757834399
0.01487799264818785
0.02202539745468787
0.06062170139475124
0.006777334391578089
0.02126169176965286
0.01913123587748582
0.02699276620408099
0.03177130295162225
0.00696705301781727
0.02157069294097943
0.02131276876541253
0.04019171586960747
0.04363503894914794
0.02088058555801077
0.02093661792581993
0.01835408767360787
0.02065709089368335
0.0176796877898376
0.01836487639622055
0.02438409140881028
0.01388300045649779
0.02071246092683941
0.01810985056390891
0.01374804475047604
0.06644176101610412
0.02596339868682468
0.01061567467541458
0.02859434409829478
0.03050236068069684
0.03155902213543556
0.02196451811199203
0.02603446942869731
0.1899181679725565
0.09629926823521173
0.01808035848285408
0.01487633566182809
0.05462350005448222
0.02374012024989767
0.02844758511434173
0.008358803861704192
0.02953600533292593
0.1399298337614127
0.02863515592539067
0.03469811238650272
0.03252648555289374
0.01527799893904506
0.01643392898543748
0.02272914408315283
0.01427172568894428
0.01669081871114573
0.04588411242292042
0.01997273650757702
0.02230074492419476
0.05679346835147955
0.05852340411418898
0.01321342635051619
0.02168299941516452
0.03511921035510692
0.01323009233973089
0.0406749553069635
0.04003776682237421
0.01845097461115433
0.04016454928904364
0.01799651417374052
0.01197686376496239
0.03468731344187215
0.01213846881048241
0.04048763857901064
0.0123362365791917
0.01878944249926634
0.08954814402575764
0.03876948473861046
0.03340835635322082
0.02497274949418331
0.05181186538771397
0.03579074022306775
0.03651223852306471
0.06405401440926091
0.005617583220183285
0.07073528263598639
0.001718131214761231
0.04031780260925834
0.01092946758185657
0.03214069454577267
0.02298030921493171
0.03838024900834212
0.01798393777122858
0.03118979441990348
0.03067909094209643
0.009151030170566683
0.03308812558771867
0.01628848217482141
0.01951426964294751
0.02199668027895698
0.01184480885312473
0.02781271418602992
0.04477668390543744
0.01938288634176131
0.03307097500618383
0.03262912684547021
0.04974214859668164
0.011225803777391
0.01394617268314667
0.02192782273727351
0.1380777885846835
0.02192595272490908
0.04371144706360948
0.03825854823698196
0.05112695853669211
0.005126519164436323
0.01779790272371243
0.03849865696132566
0.03250839690730564
0.07083542138061483
0.03008641272888705
0.06320549695514727
0.07591857876817068
0.02816127530510869
0.03088348336026404
0.03551494810101383
0.03400990483878068
0.06710743637918594
0.01071435457112419
0.02201175404311383
0.03085912262083781
0.02811121864101418
0.0467857145049213
0.01924874464610476
0.01864204111248816
0.008216174903934542
0.03807456676325675
0.0602816353107082
0.05476213961163996
0.02229077399826645
0.01955219346022729
0.03360187655078622
0.08500899394246982
0.08940845885152526
0.01881346979084163
0.08465784941201497
0.0248345764650468
0.02226343994143138
0.02108043351612427
0.08436316163903895
0.1367977380609909
0.02285100121348148
0.05275320013135126
0.04658173844230004
0.006646868610540954
-0.09613005142451007
0.01698611726052571
0.05195953381529073
0.02337147736755956
0.04944564672840698
0.0458791009957045
0.04244514716417266
0.0233564183551774
0.03018321252215157
0.01473235270808934
0.0755543033519061
0.02260030557688357
0.0452624648364432
0.05038574417658034
0.02167522017717429
0.01746947416150756
0.02346814965953991
0.03549583979029191
0.04143243503673079
0.02644524996104202
0.02117158755456089
0.03523567515848264
-0.09399583607837787
0.03648329911254333
0.02149694760044924
0.120111303738347
0.02406826160675955
0.02464090826819382
0.06260259587393815
-0.01735646142094756
0.02391740758776032
0.05085734991240262
0.057223331781982
0.2622682082437083
0.05998425362135885
0.05526895215294376
0.02536203374949923
0.03785876795267223
0.04621051267729615
0.02442172966764698
0.05612504206123154
0.05502261590778054
0.08158852654505537
0.08089690845823951
0.05161649926204389
0.05920291485451221
0.04020889870010274
0.04662179430054234
0.05340325723712548
0.05173799619727826
0.02703824346092308
0.02488849778909231
0.06504455208313314
0.06739031906680604
0.06409022953846595
0.06675286455584602
0.009449806741644324
0.02756013330632334
0.02649407908476848
0.0261342587033348
-0.002186490595064667
0.03548935446304451
0.02678345086922058
0.0259181927717797
0.02783599885964299
0.02865601495553878
0.03563651777945845
0.02888832995320468
0.02491319077287352
0.03240795874650946
0.01358024222316332
0.03486634721938144
0.03281452628766018
0.03314950434602041
0.03342968759758307
0.02068819573961891
-0.03024647462874147
0.0271862854336235
0.03710522154625381
0.04388767588818873
0.00950351356365977
0.01419735195173133
0.02997366952636393
0.04562088995436926
0.04742006346092975
0.03045175581098315
0.04464289986255638
0.02653927504616261
0.02767056112903007
0.02948188768405205
0.005284252950338156
0.04611191857077636
0.1614375310692273
0.03028238736362646
0.03053312477951016
0.02952877035793129
0.02925587856364281
0.02833954948638079
0.03041425699562307
0.1148595288940954
0.02146303084204823
0.01239774362474069
0.05700843338046227
0.02062025301284273
0.09866012657201767
0.02250077099619235
0.2503612899531394
0.06477400814156982
0.02196411247633168
0.05846826925024958
0.01210881350989187
0.02298601436033235
0.0188745629526558
0.02413817984976959
0.01642847895241468
0.02455346004050761
0.02027640045341656
0.02005107568624039
0.02066974536501166
0.02087716299210081
0.0914094727917231
0.0145349460478312
0.0139884296967261
0.02008885477918614
0.03049997673189097
0.02840758662656944
0.02750958600285931
0.03075573141238702
0.02028523462169768
0.02029543152153244
0.02772096179280228
0.01765506207802289
0.05461654188261809
0.1508075314505508
0.1383073002826703
0.02729936812312649
0.01986217503385162
-0.03626918386664855
0.02051299472701838
0.04328170544387444
0.02013994102148639
0.01953200877426898
0.02040427137506628
0.02081287852430483
0.02095952145147807
0.07483979923458281
0.01994759095381199
0.0200013116007599
0.05611866445735047
0.03839425489004248
0.02057107248009695
0.02111104075007925
0.02522163026281062
0.02206045290173404
0.02198010621151559
0.02138344790557729
0.02110175883589006
0.02252622762286226
0.03825499852092875
0.02076379913669283
0.1175807728960238
0.02341256037483399
0.01956593464602432
0.02824316057104807
0.02025727951097479
0.01690018149308665
0.0171750784653844
0.06738877245328946
0.02147366149049326
0.07625287843819399
0.02251189151312964
0.02311301279523875
0.02317667436202534
0.03609728465392052
0.02946397494014872
0.01777716660080902
0.0223783064127708
0.09064507797043676
0.0033804527141928
0.03022507863231718
0.01927367207120623
0.03015943932899278
0.02116425753882854
0.02118679495608735
0.02656918620229756
0.02891980781472984
0.04246384008049241
0.0237635673686067
0.01460604797449422
0.0282570106279431
0.03168047473526996
0.01867644856259936
0.02439600482018544
0.03157975710396792
0.03265673583735787
0.0361275027163822
0.05631845429913246
0.02184083043606963
0.03371284244417747
0.03357986385586841
0.03056097060687569
0.03065041001140396
0.02192675525617576
0.08145007644530375
0.0995785221857638
0.03087982793135487
0.05929245769378351
0.02090341989875721
0.01738653591167089
0.02117081742974387
0.003001025846278689
0.07589501998572969
0.03108278381111562
0.09280609093738262
0.02588587109638687
0.05918499892852498
0.04124163421506556
0.01982404470088776
-0.002252452366114454
0.0426569173536135
0.06014767255412756
0.0365656379584134
0.05667731594170521
0.03986266158190618
0.09283040772670385
0.01062954537587366
0.02011673101660679
0.03784471381074007
0.007909695077264911
0.02850676320283892
0.009836717343182897
0.03882757084336862
0.0239215746501509
0.02724877835016396
0.01827054020441277
0.04705907477635813
0.01391545105454952
0.01725797255572031
0.04148476831603672
0.04047189545628215
0.01957675310704285
0.02499186937033476
0.02391445275623097
0.02245851398764227
0.019754395252327
0.02521332804898785
0.02022706533168333
0.0142237872669553
0.02196242784173308
0.02224266098198754
0.02320315845553917
0.02603902499294665
0.01943430602697325
0.02949902810742438
0.1726766929223786
0.02458546957046521
0.02774077842767085
0.01909925630105319
0.07488180534837856
0.02566306653773874
0.02587393080369198
0.07613095508496802
0.02185399691873918
0.01816514086154353
0.03158206758374843
0.05608138923852198
0.05708354876161089
0.01681676386422813
0.01665081158071995
0.01579540609044087
0.02066167833960316
0.01769464258516077
0.01417879525843323
0.0158337554309988
0.01590582835701841
0.09507716015093061
0.01343204200256643
0.01389303064379454
0.006153040252522716
0.1171636819707066
0.04339850440964411
0.06571150588314716
0.01606790991380462
0.06438804076361478
0.05021593997660818
0.01931201419884529
0.1410228845068923
0.07377802538457669
0.07896239728054542
0.1057759445880629
0.008821105204786789
0.01603506292879567
0.02232879065508055
0.068233995130156
0.1304908696063913
0.0700934640759807
0.1105873400738118
0.1276141046988045
0.02990820660802799
0.02045597435480339
0.03037647632771855
0.02311652547518155
0.02918156728137178
0.0352833208479793
0.02343123775700917
0.03178767733281086
0.02232534908363695
0.07100714153833446
0.02301189418756868
-0.007750047761873614
0.02579229164501502
0.002144456093480666
0.02398657997340944
0.02474679560619817
0.0646604373278049
0.04340847522779063
0.02744805540539101
-0.0262736095675075
-0.004800144680926218
0.0179674571911857
-0.05905672733104116
0.006529366942388422
0.02209182923146349
0.1569141818869948
0.08725707049800818
0.1046099751744797
0.01554209835797694
0.08190370734675415
0.1456679581797332
0.0163931708777726
0.02232907337724281
0.007737937810687903
0.104917501432242
0.02664981781022622
0.0368310181739893
0.02199693852348478
0.09179307367596089
-0.01776416641666192
0.03710719076279853
0.01341435122282989
0.01161086715680682
0.02000016505443676
0.01296429889341537
0.01188830328906912
0.09586414402337338
0.01947357235750546
0.01420784252472341
0.0166259463240149
0.01381389114578591
0.01450829878254199
0.02405955437303763
0.02714110173594637
0.0279286969950508
0.0298417227191053
0.08460161227587
0.02794762271884873
0.1497213082306291
0.09622564782605331
-0.08507238860947977
0.1243082160438875
0.02432790152630136
0.005992633404976225
0.01876656002749194
0.03355076293427746
0.0346299568615531
0.0130183055094645
0.03421131413832763
0.07233134351044798
0.06404550925228511
0.06417374329797489
0.05787444754415975
0.02439607655612649
0.05112731765029032
0.05239175735544261
0.06772721558571981
0.05966992451474036
0.03585849358544674
0.1325508181258423
0.03376749842876682
0.0278348408087517
-0.0004173711913989732
0.06128818350356379
0.1018572196535057
0.01022815993320111
0.04898361702761894
-0.07069321267099592
0.01944656921744997
0.1336365074483053
0.07447623753110459
0.03086278917823728
0.01214996211863697
0.0250246544575318
0.008874422106550267
0.009499855096595422
0.01573472425243256
0.01590631580601001
0.01685504985692117
0.01643144070315568
0.001728972331568364
0.02791491633134976
0.004588369232169832
0.02174505959687833
0.1188890889506367
0.09928916381897604
0.07819261853100568
0.09095881229114197
0.01957331793163682
-0.04045369694960081
0.04508077356748206
0.01945089691857929
0.05461466090111795
0.02783446758529242
0.02902334204081388
0.0232646704652677
0.03694942514812825
0.03519829575723077
0.03329886363579058
0.02300691330015417
0.03153877409605845
-0.03220321946540829
0.02404502094092752
0.05254697948973257
0.09972023197985155
0.01424793696152446
0.3431022315650278
0.08847937005950832
0.02463046995734816
0.01001034613126923
0.02192929457593283
0.02166943623640033
0.01946199244445812
0.0209878186003198
0.02652469113915315
0.02047646308275801
0.01946125970357548
0.0169304867981053
0.01239813277690685
0.008048692041004307
0.01620337672325355
-0.005450352844463195
0.06265486922076348
0.01882833753122258
0.02394048075407605
0.03839121414061238
0.0175256994433134
-0.1598192120127217
0.05748413999066014
0.02276494343112829
0.01620638882191765
0.01410586308088707
0.01592284356848794
0.02210051525915778
-0.01677001580754061
0.02286719942901056
0.02128301710612048
0.02508206359315907
0.01878595360159314
0.02439605294868556
0.07663247223956798
0.02109274768075731
-0.001732299301260262
0.05720199688649445
0.02076668603136128
0.02252132215963896
0.02186937941696516
0.1284771456199556
0.01898157552582486
0.02166278238477035
0.02114242781664815
0.05910534751391604
0.06138761598562865
0.02965331798894199
0.06744864459405844
0.02128284340010219
0.05274314597540231
0.02173681825938386
0.0519989107880187
0.006877201349563256
0.06940492699187509
0.05612722996907606
0.05316945474840277
0.4435516662679136
0.05386543349830412
0.07379607317035662
0.0431669146372118
0.08375452892904303
0.01207548390103087
0.007477117110500329
0.01275881932213133
0.01185881465270879
0.01275030181986526
0.0114021729711816
0.01331187139164435
0.01705634957871572
0.0245214820668855
0.02988681567619102
0.02193408277365492
0.02071941220732515
0.00892847838176501
0.01371933717683437
0.01637479749645523
0.03461285002377064
0.02123058867751717
0.02839592665145821
0.01734347864271875
0.02362499393618106
0.03768579450087989
0.07583924534190827
0.03472332005879936
0.01942090513171867
0.04493660746437628
0.02319589683817733
0.05494023564304441
0.07743846439030581
-0.0216147360738097
0.02221922402939499
0.01009155271250326
0.03621346810574685
0.02678531514529634
-0.01969954531329912
0.0236659684287385
0.03934862500662022
0.1593201833505985
-0.01539164950229444
0.4096424076456327
0.04755720332158878
0.0108918565377506
0.02282096970603436
0.02310862347649151
0.03547363674266193
0.03720625040216025
0.03896383694305355
0.0317040110885753
0.03485423046245596
0.02431515330266882
0.0201193784853922
-0.01677072774200142
0.05320051717269506
0.01831037528001315
0.02164655569524914
0.02833344545662967
0.02902735898170295
0.02211394752952363
0.02409746768567181
0.03598232254147308
0.03653674282259987
0.03746863719413047
0.03754917312754347
0.03987673742455099
0.03481919632950148
0.03901934141317948
0.03666280362385357
0.01538040806815827
0.02341951860662749
0.02453270697626599
0.0257934725245727
0.04169251824657939
0.05566638129833244
0.05466095661029028
0.04567957974406592
0.05084995316255964
-0.02284646416218044
0.01700551310428865
0.0215849268611045
0.0504365015748774
0.01603407107943246
0.01497577130745625
0.01495981328974088
0.06985878174494223
0.1442526721013765
0.0165424677046507
0.01485719411869229
0.0177486460761345
0.02177624934317664
0.01627270062894522
0.03108436389237109
0.04340114325819789
0.04196801306415641
0.02622691015754956
0.02678648739557433
0.01915236249439045
0.0381762341954775
0.03632369311830389
0.02462940448541389
0.02501439672912563
0.01482068365762752
0.05552437711301429
0.05885954273083761
0.04549542095487655
0.05131954002431542
0.01494361259664956
0.0149906489031142
0.02240738785956993
0.009867007333234902
0.01537127959968649
0.0116279697338742
0.02127277106620374
0.03591306408492181
0.02030227414277233
0.01968689408720152
0.01961878761740144
0.0194060543245686
0.02077869079894909
0.01959283755758508
0.02881434240004989
0.02805177182620101
0.02870709754152241
0.03422352906531249
0.02861733703228812
0.02882036977175654
0.0291707599561472
0.02860184026126683
0.0269116378355842
0.02699485709061216
0.02608706437059468
0.02514149770587731
0.02718054541665775
0.02492758392544089
0.02646406805078151
0.02503432982154549
0.02685812451338078
0.0345191330709779
0.09988253608731822
0.0350447297288308
0.01955728105098293
0.03229221733442351
0.03255233392365918
0.03565822654588315
0.03682444700421768
0.03587354543732293
0.03479868328353505
0.03552575540486545
0.0647013710884542
0.0195098058370277
0.0536986609283304
0.0891328219521777
0.05084595702033138
0.06016604470040052
0.04358819424396547
0.04244711839156747
0.0939761789991802
0.05150065390237756
0.02965634798053401
0.02604668994457479
0.02775846490183525
0.08710180799984227
0.06933448410587402
0.03490011290404693
0.07747889801244796
0.0550094000558085
0.03227309155674974
0.05816644876479903
0.07646705498506838
0.07379994498372328
0.07125227194813358
0.06716983372309394
0.06868956680104937
0.03308275487939628
0.06708537693098025
0.06300251692335852
0.02674663062765748
0.02470999554162972
0.0242324989862324
0.02573762249122102
0.02565288691873205
0.0240693699271785
0.02301190459921785
0.02068459682937554
0.03173606272249142
0.1547316984910455
0.02495260285601285
0.0258108048342012
0.02375525161215207
0.0290232379911818
0.03114503630200036
0.02412189916806316
0.009954554185746601
0.03325323314107206
0.03065522446420058
0.02929363397447598
0.03091654327038195
0.03087579954144831
0.02833339385120003
0.02901946790400613
-0.01659716221541982
0.04648204074213781
0.04252298914630875
0.01977682005408902
0.03604573522871781
0.06841616292954315
0.07874033048018482
0.08347990277720667
0.0863917413753323
0.08121834787368483
0.09894561623142091
0.08995718400846982
0.1020644595528902
0.04055293430500139
0.04238223633607514
0.03695221059593056
0.03553572431142861
0.0370467912298109
0.03963583641802185
0.03563452257413989
0.03804067052766547
0.09632754843453716
0.09605598002950258
0.09858107349175435
0.09425533867684774
0.0812773746668751
0.037503241724842
0.08917963520842626
0.0899178976215934
0.04676207074194347
0.04713747036564556
0.04874533054861187
0.07760041678410148
0.07009839887848054
0.06185210362244588
0.02280094570862667
0.0647612281466893
0.06084916662147215
0.06176308161589136
0.06780429499818326
0.07207928845090353
0.05385583647291505
0.06378565431199962
0.07221884174029101
0.01468145053651965
0.0166469759697394
0.01371724953145316
0.003767965310859362
0.02411867435014739
0.0207637645139704
0.01488815214215326
0.01692045869935436
0.0214829994060712
0.02468598337644837
0.02390895646248735
0.0268333403439635
0.023884246404621
-0.03122884536034059
0.02189933312939385
0.02263273428265079
0.01993617358298717
0.02152186753928863
0.02023611724799093
0.09854608328705858
0.03041031356988482
0.03000818337332332
0.07136227344725836
0.02363491821437915
0.07786943389198286
0.05133728420750938
0.5763211040760937
0.01656315506247357
0.05243805347419416
0.06249243083857821
0.02499188250680799
0.03247367420885372
0.04608370296412074
0.01960831885904321
0.06045280142658474
0.01719720994253606
0.04464702126714716
0.03910999247961585
0.02675363688779407
0.03487992068353802
0.0395169618435546
0.03832802527658867
0.03948635972421984
0.07137505560648531
0.07649343065935239
0.07835789631895559
0.03611092257819741
0.03857696844595561
0.03994011042901802
0.04291890031302519
0.04195481550817721
0.04297878638047141
0.04066947555672819
0.043210737410511
0.04461181895111125
0.03504553626370249
0.03761823998749152
0.03884801724040423
0.03693906895979717
0.03552502571082444
0.02482090477874865
0.02560913455836867
0.01988149023302641
0.01912708085011305
0.0009079009018121419
0.02273552205239261
0.02311757374756454
0.02533487022919357
0.02863215722745949
0.03123694233243552
0.03070522042756429
0.04281968626510733
0.03785602162510868
0.03957564677770527
0.04037791337513826
0.04786442118795389
0.04820087542896898
0.05178744694584665
0.05537202931811876
0.03983023780616406
0.03547960465222772
0.03967107085426188
0.03987432806122609
0.04040218133835951
0.03977466582392317
0.01983529447354299
0.02228683374265946
0.02324953657496509
0.02376614119388316
0.02314335566867708
0.02321435979359636
0.02097753797326778
0.02140712835930431
0.02098979295503317
0.0114394023924358
0.03527221299970474
0.03395474177222053
0.03408508368173111
0.03301241454239589
0.03366209711286023
0.03441654249860691
0.03621195237150235
-0.09396517327311242
0.02219564908453235
0.01883222143708181
0.03665702620050235
0.04163984306511363
0.03992597399107525
0.01443185078323598
0.03077994412372535
0.04496599553624676
-0.01769862426552601
0.03496813444133757
0.03462696775217674
0.0277467761046654
0.0305559907633093
0.02793698944968199
0.03093216374380904
0.03133645749424739
0.02594830111891679
0.02484948066361558
0.02529281126301438
0.02731635715315723
0.0271209767022956
0.02732900033648408
0.02525217206076438
0.02491728466447478
0.02217657094865924
0.02476779017789912
0.02839924198608457
0.02947283101691506
0.02985326940595539
0.02710262268529303
-0.005851624523690211
0.02337587133315936
0.02320154361268948
0.01981906862326285
0.007503625193706281
0.01944841271913896
0.02041531773462916
0.02108203854749597
0.02153503731641104
0.02089078031299457
0.02018763362708946
0.01986605901846034
0.1032099361121778
0.01892345885778808
0.02104141393321591
0.01900914920963518
0.01778261879632108
0.01054464179555632
0.01732072272798075
0.01964810566090693
0.0185502648251234
0.0200618856846039
0.01939467769803187
0.02704814451177859
0.02389194777691678
0.02835579203300564
0.02930351604086219
0.02586543100900041
0.02381836353540604
0.02609924518786159
0.02653198006039412
0.02365865703684153
0.02376281200239911
0.02451035340686174
0.01949943156976295
0.01894627305457543
0.02030242782822536
0.0200548968364921
0.01751810173433737
0.01447308380586947
0.01505036361210359
0.01711887317484375
0.0197397481778559
0.01842716532544566
0.01676940167052891
0.01970082167915127
0.02231675459951238
0.02116556576121492
0.02186692606926399
0.0215662210376446
0.02067627314594627
0.01552362799870225
0.03692285046388262
0.02131830808281934
0.02208948793629139
0.02059236695821464
0.02167141023495379
0.02135295465861877
0.02377576512678219
0.02125759336432327
0.09291421224239967
0.02049023402137131
0.04195412277215172
0.02075847176573746
0.02531573126505206
-0.01903687070136504
0.01948047892060819
0.01944391434220185
0.02451915811495673
0.01961127436977383
0.1586722501677304
0.01918625122214736
0.0377573967985196
0.01850219416265533
0.01762054218602604
0.1068301596452735
0.1194922499856585
0.02929717582993265
0.1091114381976433
-0.01958497148020096
0.1094303075757755
-0.001403509124876734
0.0326543782076861
0.02771548522114842
0.02631424034763308
0.01881026315444863
0.01887632883131862
0.01972543188223173
0.01947669568517607
0.01718913919285663
0.1957853094119542
0.01747694035831692
0.03573969573680411
0.01869428056883729
0.03708601095210023
-0.004948698545506237
0.02384803746082518