/*--------------------------------*- C++ -*----------------------------------*\
| =========                 |                                                 |
| \\      /  F ield         | OpenFOAM: The Open Source CFD Toolbox           |
|  \\    /   O peration     | Version:  v1906                                 |
|   \\  /    A nd           | Web:      www.OpenFOAM.com                      |
|    \\/     M anipulation  |                                                 |
\*---------------------------------------------------------------------------*/
FoamFile
{
    version     2.0;
    format      ascii;
    class       surfaceScalarField;
    location    "1.3";
    object      phi;
}
// * * * * * * * * * * * * * * * * * * * * * * * * * * * * * * * * * * * * * //

dimensions      [0 3 -1 0 0 0 0];
oriented        oriented;


internalField   nonuniform List<scalar> 
37380
(
-0.3776499303776286
0.9989157463127765
-2.77447894190788
2.153213125952123
-5.161937421384248
0.8042714391125524
52.36975940009538
-48.01209341782066
-18.28139266870238
21.92279079632785
-22.79737701008542
19.15597888242821
16.80083348446093
18.26370011194806
-18.54544621888658
-16.51908737752319
-5.076225341356959
16.72643596136373
2.817278729041089
-14.46748934905219
9.380636979746741
28.05698197661999
-20.94060113443198
-16.49701782195087
-10.20355260637042
-24.85382250842442
44.43801209453495
6.968344628778944
-2.984281273768222
7.608363118091332
-11.59242647305809
9.646142988724058
0.4395416506056311
-7.427577117537823
-2.658107521816012
-8.923727977566502
7.607640629286881
-3.174934869954856
4.491022218359491
-7.537611986537916
-7.295340497164854
14.83174704528515
44.36649033490507
-10.67282405435491
-22.32971018907516
-11.36395609148404
0.8526673691745038
4.851694474373051
6.943873651425068
-24.12572813519534
12.33016000939558
-14.94140761574142
23.74623344022253
-3.412997297715496
-5.391828526753079
-1.498167599479029
-0.9586459025589673
20.45043976281987
-17.99362626090122
4.408728061441934
-0.01275958419299108
-19.33737609298963
21.12687519975416
13.41293010280716
-10.79357186234232
-14.16278349402553
-9.922126772940599
-1.577781146194621
25.66269141314507
-17.94677473347827
2.302915023536417
0.3235190244284867
15.32034068558038
-0.08273517496612788
13.59693404691862
-6.545854243119777
7.28371731338794
2.755251430299483
2.526499312091937
-12.56546805544271
13.6022451563843
-1.520217343436615
8.273578032406352
16.64875089265455
-3.795453725325693
-8.333385960816512
15.13439583515371
11.10224201999748
-17.90325189418452
-6.212813765711812
-2.210371342729839
8.862726759119113
-9.711913798932406
5.607893699739169
-6.411916200371071
10.5159362997845
-3.226616049075429
-15.90772723068908
0.7832346091951375
18.35110867058772
-5.088868152567136
-16.73179085229538
6.423758433914843
15.39690057094124
13.99456448675627
19.53460305385441
-0.9059764506464644
-32.62319108996287
-10.15241752855292
7.736142792884939
3.938132553997845
-1.521857818334605
20.81020187828932
0.3800915777519293
-24.41690950511607
-17.5919008330516
-25.34222129162448
19.08093932645784
23.85318279815992
-14.33585526412483
15.42704636359161
19.71901077881189
8.561575344275123
-8.749238461825579
12.97414032679367
-12.78647720925584
-8.052115815224736
10.59986847620171
-12.9177112713516
10.36995861036441
-23.75612656923608
7.421745128754651
-9.016699032915319
25.35108047315288
9.293711939974028
8.775157918566739
-18.06964161268845
4.577024740050913
2.628789213619005
-10.19009522737522
9.078189589231179
-7.305225412457489
7.520747763198431
-27.4053887621881
1.953918852995343
24.24159748694161
1.209872422278225
1.469837111963191
1.299293740744576
16.38110001313126
-12.79477167237096
-3.133864884094118
-0.4524634566704818
9.1219465237135
-23.37114434243647
14.85615243893809
-0.6069546202148109
9.215800895895825
-11.83676041505973
28.12961556605739
-25.50865604690267
19.29758527501904
-8.679471729078232
-8.239357765858438
-2.378755780148191
18.8897860849907
-18.96617840416483
-0.8296986067022285
0.9060909258287917
4.821461019848252
6.966363110473787
8.372009679099751
9.427823080705908
-16.67347153726236
-1.057095920433145
8.302744376960803
-1.891527980676675
29.90413265530736
-2.921309219804079
-25.09129545484548
-15.57469901206769
-9.508110047802104
10.24090428907619
14.84190477078313
-0.1425778485515112
-12.27686894889925
12.41769923637191
27.85501297280939
3.221718474513839
-10.75279954299232
-20.32393190433342
12.32068488170543
-6.315356267314647
-4.65532241164311
-1.350006202759873
37.07280331424887
-25.53549741522
-34.52205678181307
22.98475088273356
0.1677415187637333
-28.61766405899551
-1.044957111132449
29.49487965133098
-16.11954253694015
13.55682089148896
6.848588086429083
-4.285866440889571
13.93684608580076
0.3540603269239662
-17.24342624378011
2.952519830975393
-22.18960858328645
15.41598147491973
9.943713372148782
-3.170086263807061
22.83556556655062
-22.06728603639975
-15.38101043773529
14.61273090757806
0.392008593526289
6.646841983626781
-23.83977173310739
16.80092115594502
6.197918844164406
-8.321586661557435
-16.82207206480412
18.9457398821907
-22.64015219910046
2.170894448160325
20.07381924120038
0.3954385097576042
-6.75546610102969
-11.48729877096629
25.6420857665441
-7.399320894552279
-29.00046781390369
-16.96927457907108
16.95825360225533
29.0114887906924
-21.77908170872566
7.073651646210759
0.5964830126522673
14.10894704985775
13.8824354523253
-21.00778406876771
-20.28004014569305
-11.08400087634938
16.2983492851078
-9.21583758059834
4.001489171837558
13.57462139448559
-18.67244173616228
14.91827417654718
-9.820453834898823
-21.84445259490141
30.72764869521763
-24.91030864781239
16.02711254745736
23.17874308113738
7.008625461788607
-27.70034947903971
-2.487019063885214
-16.79638458949542
-3.728624418158913
12.20265818909416
8.322350818547624
-1.325218143799558
5.204174341032031
6.179615717920401
-7.815404743542181
-0.1025192052780007
13.08326356455193
-27.28251735035481
14.30177299101926
6.990212575960592
-16.30405524804553
18.8132889566744
-17.15230576186485
26.89106030246493
-9.739393753789685
-11.29429558150372
-10.41615922791326
21.70903311190911
24.59173181783265
-10.46880054949735
-0.2404958160010683
13.54040379037089
11.35107480962875
2.628565976642386
-27.52004457665939
-20.9370619112453
8.141242428355323
6.583977179701153
6.211842302925208
4.429791391130178
4.836657605767297
14.40560250384722
-23.67205150073361
-7.84249581221362
-12.41778189019261
2.358816517250482
17.90146118500205
10.46028320450499
0.7837175383065729
-15.84316684272863
4.599166099933973
-33.11802542562432
-1.708387586641144
8.329515931488102
26.49689708090823
-24.37336734344283
3.871377790016607
-12.61603587217442
-16.21060825428287
-1.055143555426914
30.44828843910292
-13.18253662939881
-15.44662373195878
15.93932741225379
-0.4944226078839968
-4.154641986666366
-12.63485160945719
18.44379846733006
15.51828204099475
-3.142398374605051
-1.414745154024404
-10.96113851233021
-6.59486518137019
5.854330950723116
-0.964189113728755
-4.922446766873991
-0.7082293007074265
5.888007027968713
-0.2002151387636813
-14.55221703980717
15.0357419293319
-12.70061752141347
12.21709263188238
-0.8150669987168452
-7.696112420151846
6.237552198300216
-11.03634010223879
-19.34284868782322
-3.465445917373515
6.597686350912451
-14.24600627316003
-0.3066841054126072
-3.373405337274026
7.965181759928491
13.09493631398698
-17.68671273652324
-0.434581082684043
18.54112995078395
-18.10738486898191
18.95869912414778
13.2452329372855
-21.82805893274133
-10.37587312870153
-38.05991360461633
0.06966191718177474
20.9203260070288
17.0699256803942
4.406626617106518
-30.71634529596006
-1.873016873276437
28.18273555211633
29.21182856822686
-25.17404286724741
0.3688409161196989
-0.1307049228374012
-14.34983960578451
-10.74977577198821
25.23032030049608
-13.38240528230589
-2.607181530472548
18.28434496422727
-2.294758151450582
-26.79228281547361
23.42924804646325
-30.65596746369274
34.01900223267648
11.85619683926102
-5.759316296285335
21.20566643223765
-18.57634299855874
-7.689818258359495
-7.462312854623498
15.15122899945829
11.25432242382252
-13.51633913046802
13.9426084797688
-11.68059177313611
-20.19104177658882
11.56975147459728
5.859000624908488
2.762289677152814
-4.964473080163881
20.56467455811394
3.253753059193441
-18.85395453712565
-17.01376069705911
12.5459292623924
-5.145757036952506
9.613588471754667
-9.907260402615563
0.7906650973215665
-3.113378128148362
1.048814333715061
0.9998783938959661
-7.254558505603705
5.205865777988895
2.461888606257473
-5.918828411752369
-13.23813095193814
-17.67080287052897
29.31832928309204
-10.17443880726304
-1.473087605323599
7.063588186721373
1.207290025659265
-7.222063878614131
-19.51975070041048
-12.21463273397339
16.89158552199548
14.84279791237143
-1.716005670555883
8.158844890515496
17.77381392186656
-37.31378561548626
11.38112680309882
4.988481639445049
-3.325990567305888
-9.166953127756363
0.3092412187342227
6.8059181395557
15.06487181244698
-14.1329486833509
-7.737841268630086
1.578936493370532
-7.554772256296894
-15.80066353664412
6.970100796827573
15.45690758176479
-6.626344841982776
23.13405105746199
2.759737367397011
-18.85805604473482
-7.035732380134461
-6.84587247223026
-0.5824242759192876
-13.50876516324703
10.77226412484949
0.782493245837935
-5.736367744964541
-5.818389625666315
19.00599246530554
-18.38734804556755
23.1138879210254
-23.73253234076923
-6.080102048740677
-12.15531604143195
1.550292759758659
16.68512533036862
-0.24950722109947
-13.09576585479671
13.34399605913749
17.28762525917628
12.66571042007413
-6.991718849537327
-22.96161682943946
13.1198176701463
-1.799107284542431
21.67674134055815
-32.99745172617563
-14.5312868029777
4.267072597111367
-18.36284871669483
14.11982804014947
-0.02405192027069866
-24.70621920171177
-11.81120228409021
-3.025711694759212
16.66605465989159
-12.84591364347914
-0.7944293215710172
20.66836722101674
-16.43235795342963
8.883808402549173
-9.051241214165746
9.115236964994947
-32.44370565298522
16.83995367505871
10.60608549469934
4.99766648322414
1.720146101168847
-2.558474624360866
0.3532839044053471
0.4850446187911489
17.56566573404501
-10.6255188895573
-24.6990022379674
17.75885539347756
-6.421223432970703
9.626003607024533
-17.67374112502749
19.6134387500209
-11.56570123202009
-8.711542025732342
7.690685022027888
-27.68712345606225
28.70798045984746
-7.713971172213702
23.53978257351206
-2.68191163859861
-13.14389976272029
-9.707259298474762
5.742233672853445
-24.25519630743782
28.22022193312119
17.95940242972643
-9.185058185388081
-21.14543717795177
22.25379433238379
-18.29478215083376
6.238480190728425
-25.72226752927865
26.08870273078904
-6.604915392221892
6.52097910676908
-29.95145841248134
7.879661999048635
15.55081730666543
-0.4545865952177769
-0.3919661246741122
0.9221257983577442
-0.07557307817965861
-12.1427150078011
5.753172142239681
7.947971766320292
7.832651736973321
25.30724028438185
14.22179367119419
-19.64345151668402
-19.88558243893306
-2.097314747134706
1.363304557359677
-8.317231024344728
20.27938323123785
-0.2722861343071551
-20.00749897585818
9.237976759541457
17.99901234699232
-12.97152661834496
-14.16624617092567
9.138760442261452
-16.55844964481614
-2.212215840433773
24.42702413138053
-5.656358646140251
-8.662647542156595
12.2314146822302
-20.12721678489847
-23.45683495774096
30.49972842181386
-2.76307372323016
-4.279819740827499
-2.670752848390967
-5.040700753865486
-1.642659642685018
9.354113244947929
-1.312296746594845
26.73655117164604
-25.42451167111735
-10.65680726931814
-29.74382993181425
16.94380224338328
-10.1345491635791
-4.885274651219177
-6.270490503781647
13.81646911346737
10.36636498146827
-20.82270425541195
10.45561891849025
-8.878290218767601
20.48254349180159
0.6249948364256576
32.50336431627838
-15.57307614801492
-17.55528300470067
-9.764517233358299
19.87661837769045
-10.11271348604978
-13.12417733995586
28.19948228491294
-3.637660524386462
-10.06900590818218
11.03591358421476
14.93505720777448
-9.901428951399005
-2.389689355269001
-2.643938901217252
-6.419350141165292
-14.34568024278108
21.67168131742453
-0.9066509334795589
9.380241137702381
9.179684495436121
-5.749178665435895
28.96361458550118
6.004417968028386
-29.21885388794436
-24.53460576466336
0.1384648083918101
24.39594809214866
20.10777170112952
0.7504340630817056
-1.536662900349733
-19.3215428638659
25.52051602528136
-16.99839046179127
7.124915677984013
-15.64704124151253
-4.08974164310136
13.51767665926217
-4.424970903384621
-5.002964112764134
16.71367604844076
5.947068700217414
-10.34478132696613
-12.3159634216616
-4.11853647122359
6.516132761826527
15.12173272155795
-17.51932901216418
12.44292913096121
-10.80119735702651
22.36673205564336
-24.00846382958042
0.02546564766152563
-0.03330189296922653
15.52564446375903
-15.51780821846072
3.176633566527909
5.920343666681219
1.675286891647674
-0.01435159649255664
-20.10588273436204
20.10318521817849
0.01704911267416267
21.64429883762736
12.92814936186312
-22.76055328203759
-11.81189491748782
-8.416742221283954
-7.635125056951275
-2.014594577402484
18.06646185563569
-6.435358455738259
25.1719880261702
-15.68099267403198
-3.055636896439268
-11.31954900894028
30.63908651700201
-11.40078465666306
-7.918752851440356
16.19856177495101
-15.22318061034963
0.7349713880533083
-1.710352552690201
-1.920821900483849
-1.299085724777065
19.41846940018838
15.93777148773091
-22.1334720547289
-13.08852404928798
19.28422461628737
19.12274296626685
7.100294163276454
-23.6972846932488
-2.525752436314806
2.966891047172596
-20.02324184139808
17.05590774641055
14.30574637298272
-16.60018545696668
10.65025682117667
-8.355817737235357
22.36015268599237
-0.6329927320767142
-22.31371231181219
0.5865523578937784
-19.05353704724901
19.9297518684869
-2.797036721750739
1.587716830759847
-17.93740910094582
15.86822176531646
0.4814705048841335
16.7271434249181
9.198904566593463
-8.931119910790443
-13.09984094203445
13.16176556361373
-0.06240228115235617
-18.66532964987791
5.596703116318155
15.04009545629136
-1.971468922734348
18.78658449628365
-8.592567642508769
-10.21499430063306
-9.661771975637247
12.84187048991086
10.36120596750707
-27.5760370217737
-3.267990982544398
2.761163911452674
28.08286409277006
0.01672126547147979
-18.50406999974752
18.48698206246673
14.99953075261038
-26.43884578564457
16.82750318127429
-5.388188148246924
5.735860859449047
-5.463301767816072
-15.18239269149124
14.90983359983012
20.10134811230989
15.08612748401507
-14.90809236509178
5.775241471082731
1.724410259587795
8.699190720418065
-24.86885151975466
35.72022740661972
-2.820278434546641
-8.031097452361722
-14.62927631321965
35.71488621130541
-32.56700366650007
11.48139376841069
1.190774977931323
-21.71068908198281
3.001812468659304
17.51810163538509
-13.56996216165867
-9.101471166551098
30.79651128360041
-8.1250779553705
8.739487238683584
8.050913417278384
9.229905671067955
8.256942826194052
-17.48838265944423
-1.433796384565059
-27.38892880392581
29.43389448164091
-0.6111692931545214
21.78603808639821
-0.1469261963541472
-21.63979663213856
-20.02589848498772
14.20490503732372
6.506623206802101
-0.6856297590070661
21.0621584973083
-20.35339562557159
-11.6859693956025
10.97720652386548
-17.92792153949023
-15.30531226017167
20.12179217259642
13.11144162706407
-13.92293666671415
8.625440207306914
-14.84098431571953
20.1384807751276
9.963372525478388
-21.73236965142648
7.764149379947786
10.31701124618607
-12.23565516242021
-5.845505463720468
2.422263675817441
7.853990913143663
-25.60979560979924
4.944696985009774
1.184872889419772
19.4802257354122
3.839486865059072
-19.31098301455209
-5.637317918694343
21.10881406820324
-12.62191276334511
13.23954487618476
-15.15416544857523
14.53653333570738
12.27708477144336
-12.13528278679846
8.662939928100757
-8.804741912782966
-14.82639689699287
-5.603551142810823
6.248814064917011
14.18113397485926
-11.69704960945747
7.382407829710475
27.44869283720111
-1.66674716934892
-24.76439057339718
2.475160158699487
23.95597758402375
-15.50390990181372
-0.01757688856166505
15.52025876377135
-1.462168924717982
13.46078584058678
-11.9994822916971
-26.44388079363117
22.41794504208823
-1.090515929020781
5.116451680557552
-17.16380642718139
0.4929658820183707
17.42522871958562
-0.7543881744448383
-20.98748190638826
0.06848186119447473
10.77670297326812
29.24907601803216
12.45304794047771
-25.6177775841682
-16.08434637438256
10.2058856700956
9.079551264626774
-15.73066338419087
-18.37172662715865
10.79227186492478
23.31011814640839
13.45174772700289
-15.94138492485178
10.25378657778877
28.09706330750265
-22.28023740695923
-20.22551568588432
14.40868978533565
-17.59367339855382
-10.15971031136533
14.36061726713418
13.39276644283713
9.508140645266934
-22.24258899031369
-2.996215039170285
-10.3212878918794
-6.425804584309714
16.74582136105786
-12.74489731875737
14.95663898219272
15.61690172846622
-17.82864339186247
0.3848371493329403
-0.2383014699513227
18.69171867842375
-18.83825435781054
-18.82210136097442
0.1084535166020682
18.70872197449263
-1.308005445956801
-14.93111417967046
25.74726027086526
18.74211314121412
-7.347619188109056
-12.70249939910438
-14.92619848278312
11.47763689395022
30.28229114751819
-23.01781490032301
-18.35506695658951
-8.585649835799813
12.00960261270453
-8.745977192007315
1.839503938728512
-7.071243557347398
13.9777168106247
-21.37050951603306
10.77548360065249
10.59314692370278
18.55423064684139
-5.850373083521041
8.057003285432886
-20.76086084876013
7.519619980168945
34.54245596815785
-3.037124210955855
-39.02495173727003
-1.007630445315248
-3.427700350540316
16.89842466252133
0.8500900764196354
-14.3208143884135
6.128832021137365
-2.43540784700026
15.88884223781277
-19.58226641191581
-15.76686836645787
32.02693786785094
-2.148231104595242
-14.11183839679948
0.6318755402021102
-0.857968431460743
31.20652169029369
-30.98042879911526
9.621853493473802
-0.5533136753250903
11.36451067263362
1.715758461398157
1.751226003255752
-14.83149513730729
-3.959086759067829
3.284603093357393
6.562490693707939
-15.61332200001823
18.6834792018973
-1.355861040507011
-1.714296161466262
-20.63070088153938
22.5114381166087
-5.735188809096135
18.53953144417428
-19.54361419434943
6.739271559253335
-1.451012550102503
7.113779284656081
0.6144837480875821
31.24949594743779
-3.262262176212544
-28.60171751946491
-12.30916764245119
1.01912000370918
13.6186714344423
-1.121938910055962
15.24224167552659
-27.73897419999607
-25.19324329362495
10.81460111148567
1.962186480431086
12.41645570160846
-6.886682442906851
-0.2818865223497694
-8.700918679354531
-9.739290131255892
3.860357416791912
19.82759185835076
-4.287973845372179
-29.54047699730768
-10.9580191753629
10.8544614994488
-0.2427269055891795
-17.17431541920005
38.87710931774518
-21.46006699298262
-33.27213686880796
17.80727546319364
-1.96446381269845
17.42932521831693
-0.06522477148198384
-20.25812256375805
0.06072156302912923
20.26262577220702
12.85841940590234
-34.89127020650616
12.75857988938141
9.274270911185123
-17.62753676909882
6.052964909863864
-15.24666477585169
15.24559752017902
11.45365808918612
21.97717897399417
-25.95374170581887
-7.47709535737671
0.09227239413428606
-22.6153083986915
-0.07630844274941795
22.59934444729329
-9.744478913011699
25.23597406688038
-26.13950346719558
10.64800831332368
2.866660234295644
-15.3754200556562
4.667219568825987
7.841540252486774
1.458864414556094
31.16086943539021
-21.16607576076957
11.99500107088521
-11.28607428528301
-6.575380666247179
5.866453880639989
-5.695880571075603
-4.06104713657846
24.56257586426375
-14.80564815660808
-35.54380340706328
5.728825069598584
2.52687564505396
27.2881026924034
9.380240126381329
19.344208607047
-9.315359588107761
21.9793206016186
17.99048442020075
-25.68626735557849
-14.28353766620931
15.17362660575779
-15.49441506220224
-5.241333376099981
5.562121832543487
-11.4996872123041
21.37997653601309
-9.881459417057917
28.16707848312151
-23.01495948107615
-21.73968608543824
16.58756708315227
4.907360274293406
-18.99626684556578
12.44539358080086
1.643512990468297
-1.033976964510818
24.01135609144682
4.122096310277729
-27.09947543721784
2.136453911123001
39.7225917646868
-14.96317713907583
-26.89586853657097
-0.2689638446771466
3.024924787517524
29.06050743041047
-31.81646837337971
6.600256275013153
2.752240002006954
-14.70584297809529
5.353346701072887
-4.882449190880116
15.25373199327994
-2.194773040577547
-8.176509762062896
-15.97990193081422
-9.643776264989691
3.327706336257944
22.29597185955384
4.744369243122193
-19.71545961456485
-5.45382216740897
20.42491253885309
6.912495818278712
14.10887802515188
1.07586273263041
5.349953690281044
-8.523131169997322
8.680722835615892
10.87443861844248
-0.6748748144048021
-18.88028663968146
-0.5373699605367628
5.452202402125515
-6.630838112135111
10.51086703031629
2.939921856055079
24.4852847023497
-16.05180263694545
-12.48718786134821
4.053705795950272
0.7389369144468354
-0.7737896830603509
-23.48880771034101
23.52366047890276
-2.661465613203316
11.12201436385445
-13.1385480663899
4.677999315684782
-10.26733523817698
34.53086593242298
-2.619231856642828
3.977549223261038
7.678432477256346
0.07605935840522417
-0.08365589267274368
0.5831100525699393
-0.5755135181514816
11.6556548584478
3.662950396768533
2.846947424741551
11.19307658258764
-0.1542031332539181
-1.425284977599933
19.38637887524952
4.872400339501191
0.3020152827898762
-24.56079449735047
2.837744805671963
-7.437056969300108
33.15713514172796
-28.55782297796588
-4.918185531932803
-17.14666587566362
1.082021155737
2.720687597529089
13.34395712237944
17.03572694661596
-0.8895475669089794
-16.14674240374441
3.543654060145178
-17.6822551673131
20.90631480318225
-6.767713696081626
-14.88053399490796
17.2021134295227
16.58604270165685
-18.90762213629505
-41.74448982671024
-10.33553750422963
24.44721431114397
27.63281301975945
16.49900817260964
4.596574768141104
-20.72753028983904
-0.3680526510583573
-37.28526905209472
27.87368236485193
9.63482099021585
-0.2232343026700231
20.14659277440017
-4.18329380713205
-25.04596966892241
9.082670701647407
16.99107642170393
18.87871261535079
-19.37078086473085
-12.0575166802422
4.932237567069393
-11.36702319835956
18.4923023115252
4.305642419848228
-3.661286871483479
-1.729606737926846
1.085251189874001
-34.26377451271695
37.49345175357841
1.37499569948476
-4.60467294034202
28.96988963138702
-21.6258841219187
17.29361824017182
-24.63762374965554
-15.24251317313092
7.566561278945879
24.66702831575178
9.962741643830727
-16.27738810694821
13.52937575029339
-7.214729287180727
3.418164798384619
-27.07834950924596
16.81662253265339
6.84356217823589
4.772280633975266
-3.692919799249246
-14.03638985587322
12.95702902116192
-12.26090626332953
1.614967858317527
18.93859861257748
-2.672420565736493
-24.07832769645787
7.812149649619417
-6.934221829625615
-20.2305775154258
0.06769081718996232
27.09710852785336
7.350797752787378
20.66938917502114
-9.081588315255459
-14.32688386460491
1.901276901542132
12.42491190501033
17.58829323592947
-18.51763588220142
7.40568797127387
-6.476345325016694
-24.03187190234639
15.74166543332771
13.30159579016579
-5.011389321140625
-3.668872711726535
3.059128588451363
-19.24751961025987
19.85726373351545
0.690029173400395
-12.16136484045165
6.599005951072237
4.872329715971754
-15.66953269072751
6.516537275528133
10.52652227646663
-1.37352686126701
-14.47476131869129
23.86716218047667
9.993978013499794
-10.0894809896869
28.04494403401938
-9.522099309316211
-8.433363735019947
-5.269335479730829
4.023840654723367
24.46308342474938
-23.21758859976888
-32.09696623905299
8.293164779348603
20.65987672883679
3.143924730865757
-24.35109107292924
0.1502904469229045
-10.16365931433489
34.36445994028718
27.55439244675171
14.93881053683561
-14.4610684896307
-28.03213449398319
-1.569186310778051
-7.683513340872041
21.57030142872582
-12.31760177705797
-9.505408338297597
31.50792572512506
-21.38904136733886
-0.613476019493026
11.74523452962964
15.50554345408881
0.05024123050504949
-27.30101921426519
1.665885877631301
-23.41575660398005
-1.576298698765606
23.32616942511062
16.15999117547702
-13.28200088198426
-18.78571752417623
-0.4447100861806644
14.26613515137774
-13.82221232773425
-22.14970465486142
11.00029402812016
11.14886648417089
12.12425929737086
-22.62642870022747
-7.732212792933405
18.23438219574395
-16.71174047901397
13.86284676119014
2.847745028509749
-9.074594702607859
12.43293636303694
18.07535129401079
-21.43369295449305
-15.99510637821462
-2.812477577841042
17.50849823123962
0.8019279451526689
11.9210572078714
-24.30677293051041
11.58378777747586
-17.64475174154638
12.73983734274425
-11.09019197944881
-2.989855344492842
1.246001403707229
-18.42730734414034
20.17116128489066
5.784918434038532
11.84475742844166
12.99897368081593
-30.62864954332239
18.75153673559097
-2.134834953967518
-8.171582683274956
-8.445119098310718
7.496693662242331
-2.470932981725758
-21.38971711850145
16.36395643798383
8.914801274346502
-28.68130427152084
10.69190829452911
-4.786392723877666
-13.04257991839816
-2.726538847150571
20.55551148936528
-8.001207945600223
19.09339518046783
1.886571221540447
-12.97875845642038
3.02068323594542
13.84972446852161
2.049487326947205
3.928994880245656
-23.35388142439679
15.16194842311555
4.262938121024266
18.80548944668678
-15.0948996371641
1.562553720799441
-5.273143530321065
-14.46425161425547
1.14071884217417
-2.053402066856298
15.37693483915911
17.39706186242885
5.843548456145968
-19.06134236832877
-4.179267950259854
2.639097731782152
5.126498011802784
14.47621951082763
-22.2418152543878
20.66987501433012
0.1931776710710686
-25.46899723183406
4.605944546799197
29.3611412898111
-18.72766884816125
17.9744699989797
-28.60794244057099
4.617460086090492
11.38666969058633
1.780803321429985
-30.01928480385754
-3.223154099057616
20.45237572667151
12.79006317618046
-4.139855144862022
0.3543411577793691
19.23935242661933
-15.45383843954053
6.905716515691182
9.374594803016821
4.835543842735898
-21.11585516145449
12.15778111092206
-7.082738060957188
-18.07888007223795
13.00383702224328
-18.49621487100587
10.04499529182961
16.12749560674618
-7.67627602757604
-18.56912971278823
19.88415338484366
9.098016092180705
-10.41303976422887
-7.954121930699279
25.56767258789013
-0.4082001578016622
-17.20535049936778
-21.06467873016103
-3.356851929949662
22.78054667261967
1.64098398747429
-2.330397251627999
19.30142041276134
2.828509866265809
-22.37786761242386
-6.837695168915465
3.605767171594833
-26.9263203982387
26.25146107831341
-13.79990199870251
0.8991068039028761
-41.84610412912889
6.880545754328106
-18.67384676493467
34.57481663865713
-22.78151562805694
17.70660070475176
-41.64989349092947
-13.69900262272621
37.64229540889307
26.44289095319069
-3.631352245943078
-22.39753442710074
-0.4140042801560327
4.319669403409335
-1.435471347610456
27.69894514833127
-30.58314320414163
24.2171100327512
-26.4012000027489
-1.142890808123854
3.326980778118757
15.53586666112253
-12.53209613063685
-24.38385198077238
21.38008145012959
-5.595198692003326
-12.91570091222019
14.29625772059552
4.214641883627876
33.37987251844606
-16.98344857245412
-19.77356685972564
3.377142913861505
-11.46940435563975
1.617322127447494
12.46617779537127
-2.614095567136865
8.008174478565428
9.719916858619728
0.07174293008073537
-6.280492470008067
-9.834065494660093
30.85983898822636
-14.74528102356525
9.918324655862939
-20.30912708049545
9.020553247058992
1.370249177575883
-19.44885838571612
25.25357569049004
3.447885539289701
-9.25260284404102
14.29300909965223
20.46735205390535
0.8208364176784941
-35.58119757123041
-27.20186512270293
-8.575799911287776
-11.61497546222537
47.39264049611154
37.75736485715519
-11.31028718750023
2.568587493901177
-29.01566516359695
15.633391811663
-36.03068916622284
-8.402157231201363
28.79945458574115
21.4659877144562
-12.41111853210489
6.046717111938068
-15.10158629430757
-20.31683378329187
0.1074490979186827
-3.00490477133962
23.21428945669413
-21.25336941408585
0.08667866022773565
7.466982801275851
13.69970795256955
-10.94380267895923
-20.11374143888819
18.7947462127017
12.26279790508393
14.02270240847609
0.235656766254959
-14.25877945434633
-14.45482489550912
18.78658383770721
33.42560591497067
-18.07174755410333
26.03638586839742
19.38209506997804
-27.34673338481939
18.90675139114188
-0.2256203103473414
0.277568043350476
-10.6232573029512
-9.696246302846953
2.452294231096422
-23.02554826091299
-6.628611092919857
-21.1559875325335
10.52164963507303
-0.3094647815242078
3.472752088453491
14.95402112374955
-17.23599823428559
37.01998361832499
-16.99242672606813
-15.10743869609089
-4.920118196340217
-4.207828774118965
10.89344977198856
-26.79936243679527
14.21074699756994
3.808652146856088
1.702002216827148
-19.72140136128726
1.280022510711597
8.804144915814687
10.57896964830681
-20.66313707472212
2.259655038704265
-3.676579926870938
0.5418407471623488
0.8750841409893916
6.402190586233783
13.00621166992278
-1.270398200732734
8.74730112367461
7.958704202554927
-0.3249053130980574
-3.649309756315434
-6.717584451722581
20.16483571361474
-9.797941505544268
-42.6957658948323
9.531948166200005
15.09207017422494
1.650870088372949
-19.68714000134781
0.9321087703949625
17.10416114248385
-10.83448589517417
20.94498376451225
2.361208817972332
-12.47170668726926
27.00519184287934
11.54287227937819
11.16421425957186
-49.71227838188744
11.34028101680103
5.469279240596669
-15.81047924927257
-0.9990810081225081
-23.53354490972581
-5.928649279292832
1.337290568150611
28.12490362083649
1.211643117090417
0.5888686173763985
-25.33405664421996
-15.30277911412511
-5.590182175847334
-8.04812081506519
15.43151291439434
-15.93737533448907
2.156732508354876
16.24613100520078
2.756742944526194
0.8621087130733383
-19.86498266279115
38.53845226755349
-20.81056541189701
3.581514092040834
-21.30940094770105
20.43342518695824
-27.22338555989928
6.789475693793658
-9.095669006626776
29.68292733809849
-1.459475726629653
-19.12778260484613
-17.34677848583959
-5.429539912064748
14.93792055988651
7.838397838004931
6.843263502373033
-6.66872843648761