/*--------------------------------*- C++ -*----------------------------------*\
| =========                 |                                                 |
| \\      /  F ield         | OpenFOAM: The Open Source CFD Toolbox           |
|  \\    /   O peration     | Version:  v1906                                 |
|   \\  /    A nd           | Web:      www.OpenFOAM.com                      |
|    \\/     M anipulation  |                                                 |
\*---------------------------------------------------------------------------*/
FoamFile
{
    version     2.0;
    format      ascii;
    class       volVectorField;
    location    "1.3";
    object      U;
}
// * * * * * * * * * * * * * * * * * * * * * * * * * * * * * * * * * * * * * //

dimensions      [0 1 -1 0 0 0 0];


internalField   nonuniform List<vector> 
19632
(
(5.010751219805608 0.02757193398263195 0.007462662006440168)
(5.000050833991761 0.0006379521283154268 -0.0003889897369220221)
(5.000429641342052 0.0001381333621768946 3.658591961730351e-05)
(5.000837160151729 -0.0008579564428981551 0.002181234714052152)
(4.999689087837736 0.001566844450852783 -0.000289273565540005)
(4.996722960543311 -0.006694907184451517 0.005585806206371341)
(4.997000027653257 0.01688107263415761 -0.002864727625472959)
(5.003425049113195 0.005834371476002505 0.003392918233366936)
(5.003844933667266 0.0110262122226595 0.005257838650696505)
(5.009443324565895 0.005507103500679124 0.001792864306289588)
(4.999700639728741 0.01308441941546218 -0.0003433903297793407)
(4.99692254346459 0.002013065678556274 0.003565102887740848)
(5.005569327622657 0.009317274658538986 0.00351539424495404)
(4.99954145076649 -0.0003790900918530173 -0.0002503442556083512)
(5.000037880179804 0.001418362820045515 6.92729770560343e-05)
(4.999804581999651 0.001840224379525375 0.0002018859280605219)
(5.000194949936513 0.002085298559304581 4.369657287084632e-08)
(5.000255451477216 0.001351411636836506 -0.0004892791481906192)
(5.000273308533527 0.0004735789265490597 -0.0001792534176379776)
(4.99950116028158 0.003629501537097145 -0.0004525536066205382)
(5.004093705367583 0.004473100360549973 0.002420011523940653)
(4.998311272029631 0.008440780691614216 0.00532404223616385)
(5.013134830270998 0.01505011133504516 0.004061727878996639)
(5.000258238181254 0.001040298571935277 -0.000649437548910832)
(5.000612849746311 0.001350116878974687 -0.0003057653680567431)
(5.00661090725673 0.007310886746810515 0.005886618961930538)
(5.003321051551761 0.009523019055117956 0.001580579825072919)
(4.999878020911945 0.001109925485865724 -0.0003493069248235309)
(5.00083220717332 0.001292290210744486 0.002164414192417901)
(5.00017005261049 0.0005408347077439641 -0.0002040973897848896)
(5.000268248822642 0.0001426429456452803 -0.0003732017437769641)
(4.999548164042894 0.001972645347352093 -0.002296165001501098)
(4.999424371086507 0.001450577789809834 -0.001229172100144086)
(4.998682911592188 0.001599347681195429 -0.000226660462932746)
(5.000102739818295 0.0005329851524089049 -9.880971466111372e-05)
(5.00141046788142 -0.0004854121964594272 0.001933198044716802)
(5.000157499361928 0.003569429749776826 -0.0005350774951432559)
(5.000001869009036 0.006217869041626596 0.0006982581794353042)
(5.003748524089946 0.005977219385034521 0.004458685255659942)
(4.999562828364419 -0.001783204691945772 -0.0008749652342393884)
(4.999657758463118 0.0007280350221245442 -0.00123469325514068)
(5.007652555443921 0.005357930491394981 0.008425722192819363)
(4.994499226204837 0.005278636436267118 0.003726677054445254)
(5.000164712049846 0.00130332771109678 0.001056695590303703)
(4.999879695079908 0.0006891871862964306 -0.0007259679069931958)
(4.999395703666529 0.004715710451127844 -0.003685151242771303)
(5.001026446922659 0.0008791126321047389 0.005056116535127119)
(4.98832274450359 -0.0001529704120229348 0.003383454874013453)
(5.00352570281154 0.003596173502081488 -0.003940755459913309)
(5.000516984748531 0.0002830317289285335 -0.0002185259109787824)
(4.98889772573773 -0.001401149165570178 -0.006889666038274449)
(4.999858985492587 0.001444315541582149 0.008697651017480362)
(4.998329412816766 0.006661105272398634 0.003669497962448676)
(5.000378452054619 0.009059061398238555 -0.003623127055256635)
(4.995957988135828 0.003440849524163512 -0.001348574079829289)
(5.011935609036166 -0.0003306150608385613 0.004144618585351309)
(5.004198621542233 0.0001470997817177128 -0.0001427860153627058)
(5.001659200083124 -0.0003789599362580383 0.0004908151156055886)
(4.99599611680866 -0.009954564983177287 -0.01276071745862673)
(4.999894453260522 0.0006490476203993176 -0.000202797355580997)
(5.000570803373212 0.0006945322076893306 -0.0005858493089735602)
(5.000904568595935 0.0004640506934121175 0.0005468966788610244)
(5.000206338203569 0.000532676227553361 -0.0002580671769219093)
(4.998593239035467 0.001241406392234341 0.004458113752453024)
(4.998818199044387 -0.005754940858387117 0.008247899033192008)
(5.000009579495247 -1.787732599929808e-05 0.0001891266245515653)
(5.001017467888701 0.001336422711710356 -0.0004057784517935756)
(4.999146302385293 -9.370982829810563e-05 0.001801896852238444)
(5.000158930774251 0.002209402188854686 0.001187685948319114)
(4.995498858454066 -0.01951258564323329 0.02218949429229886)
(4.999798243734365 0.0006457647864768239 0.0001677119095288127)
(4.986879836320472 0.002844485765669167 0.0003752688904127612)
(4.978762033519732 -0.001699735688123184 0.002081493949384852)
(5.004757647504908 0.006932500332015943 0.006128868955834104)
(5.001011621750201 0.0002688525315484512 -0.0005297938675221079)
(5.001310240865293 0.002563724565460133 -0.004516855121228145)
(5.001129305797003 0.002081358966132773 -0.01404854526668562)
(4.989046316993197 0.0005780189697940702 0.02710057493089274)
(5.00005969219168 0.001256007893161217 0.0007870873720807282)
(5.000586226076932 0.005218365651269871 5.362872547401213e-05)
(4.999100155095134 0.004511472887993385 -0.00921758273257484)
(5.003090305097095 -0.001144451234470356 -0.005158839221208637)
(4.99901104670465 -0.0005168128793551953 0.00545151286041475)
(4.999456766270584 -0.0007080932765264612 -0.002645673111512504)
(4.998164561821344 0.003850340853578594 0.001454156584185998)
(4.996412813706542 0.002598320751399639 0.001195355922463661)
(4.999146304562678 -0.0005845189439864097 0.002321317055291856)
(5.00187324358353 -0.002844109135075036 -0.01757638321493332)
(4.993189910020148 0.00474253687413281 -0.004766714717687318)
(4.999997449370224 0.001425285881748202 -0.0009234176503733591)
(5.009646839725636 0.01207814230303338 0.01241845829869567)
(5.008005910478748 0.01274298139917084 0.006424487103133304)
(5.008307644413338 0.007133191868852975 0.005216740605280547)
(4.999895175971428 0.005831105292181808 -0.0003889237782278576)
(5.003637391360137 0.005271755568772867 0.002750505552159401)
(5.00383987203455 0.003441877310027175 0.007371367736895694)
(4.996717916552264 -0.000460377772925222 -0.0005328891606226594)
(5.000013751352444 0.01555346160775843 -0.001466957190720385)
(5.001710289893894 0.002548663055153486 -0.002935842072480038)
(4.999992630003617 0.001260790132542864 0.009159438109949779)
(5.00034015816458 -0.0002304216487826698 0.0002941175883867507)
(5.00289681192424 0.003458901624742336 0.002632802278286674)
(5.001052733580482 0.0007691157329931191 -0.001215175302888466)
(5.000690781373259 1.945048637663787e-05 -0.001168476168974674)
(4.989253554862352 0.003804291910350437 0.009566351241840007)
(4.999602187147374 0.005026680212956079 0.003448838436751158)
(4.999997773741788 0.0006928899574102961 6.795840041729326e-05)
(5.005092703283223 0.005420765879514788 0.006550594109817457)
(5.002295227274613 0.001982389422704378 0.002836393779430974)
(5.000102102447848 0.009982636874935296 0.0001889943301196588)
(4.990884771210252 0.002470496624924278 0.001325967233178318)
(5.008870768358273 0.003314306608708132 0.0003155326272480289)
(4.999813079416277 0.003599589409093569 0.0001153197982444262)
(5.006632936847156 0.0032863629358336 -0.003353895405889377)
(5.008365661903133 0.0005123408589415224 -0.001379309197780583)
(4.999484265507752 0.006011503221014822 0.01156312312512982)
(5.006160902478748 0.003779880340753779 0.003160403546535406)
(5.008864579543951 0.004987847449674282 0.002382078479997459)
(4.996365463825876 0.006735915503075934 0.007349282940701638)
(5.003059860380008 0.0133512331013732 0.009814275603300915)
(4.9850619803247 -0.001148973963725077 0.0008874984327090436)
(5.005010639511364 0.008169204296606817 0.006825429892643971)
(5.000029890706398 0.0004333016052136194 -0.0002170253721086645)
(5.009160797454512 0.001823150865747921 -0.0009763553733425029)
(5.008585028772947 0.003135102936488906 -0.007392474693581512)
(4.998985546925115 0.002466790158675492 -0.0005331499987291914)
(5.000500101453412 0.009441951931838851 0.0110076881178778)
(5.000564259433656 0.0006248528038655481 -0.0003236355990160806)
(5.00061140136447 0.0002308496412651838 -0.001135990891503027)
(4.998991935035725 0.01093004973569176 -0.003779919771638344)
(4.995790206146917 0.009608258839090607 -0.007535640810134224)
(5.000523741654946 0.001355113127297914 -0.0005114837227971603)
(5.000019443329355 0.001695930998925101 -0.000555453704146367)
(5.000139643884785 0.005889756867313775 -0.000914189766226798)
(5.00257937870663 0.0008314577351855498 -0.0008536322918723887)
(5.002111295789726 0.0003341628154186555 -0.000128695384274754)
(5.007377970630307 -0.003453071508517706 -0.00216193534659506)
(5.002055606897796 0.001257447254503861 -0.001492041455365155)
(5.000449894342483 0.0002490840062304408 -0.000169737907297876)
(5.001071355798569 0.001424147980003674 -0.001418093233159924)
(5.001618327374858 -0.0001879871044338575 -0.001165083989938042)
(4.996757282506175 0.0002736654453571472 0.009785646573925595)
(5.00043511956463 0.0001992406044724994 -0.0001368556057772021)
(5.038190580146262 0.008113566744691755 -0.02606217090940347)
(5.000948897268688 0.00295031083062743 0.0008877731501302273)
(5.002091901470441 0.004958296812392593 0.01919016765871064)
(5.000627168375792 0.0001930169234602977 -0.000195423414642657)
(4.998326037882515 0.001782621964719147 0.001081329401933933)
(4.99917765809946 0.0002907491622235627 -0.001431755039304839)
(5.000575410565531 0.002018214997645664 -0.001428929413425967)
(4.999904226330393 0.007645053469563341 0.0001113641602822095)
(5.003036456840589 0.01313383978897163 -0.002004208439335141)
(4.999100733911435 0.00120410699410202 0.0005898732376553032)
(5.000311663426326 0.0001683443256820657 -0.0001329012414688849)
(5.025116631449794 0.03370795620897157 0.02262452331763005)
(5.006850800031324 0.003965898755492061 0.002211422303645302)
(4.98819624430718 0.01451751931735369 -0.0006119603652231776)
(5.003301628328997 0.00118337080037972 0.002520804779661566)
(4.997906319874577 0.00746156049801631 0.008554595510674222)
(5.000461956368947 0.001983183679009745 -0.001000234842849103)
(5.007537188309725 -9.649236386252443e-05 0.007778015129854213)
(4.993502241365292 0.0005779701372795021 0.001309273501968166)
(4.99623343649295 0.003738357128892842 0.005373504305045127)
(4.992267525165952 -0.0003795269448516531 0.001172673068788109)
(4.998398584675321 -0.01053129189344026 -0.001857507735763821)
(4.998765582326403 0.01346475420042727 -0.0115657981190572)
(5.000599713871006 0.002178389860811427 -2.346657103572648e-05)
(4.992253342839521 0.002274287744189054 0.001713844172657783)
(5.000289227062189 0.0002243409028007288 -0.0004042630281881281)
(4.98706543527709 -0.0001702937625800637 -0.0001626452953871318)
(5.003731856297502 0.005234735054262346 -0.01676800963374038)
(4.990907434928908 0.001081403832858298 -0.001329495446684899)
(5.00018064020611 0.000735537614008407 -0.001628921178938001)
(4.999263895171072 0.004397231469130054 -0.0001243598725071854)
(5.001104159132062 0.001161744721310149 -0.001546790185220691)
(4.999574987574051 0.005079207537587139 -0.01138695315336054)
(5.000675116513297 0.00471464714741591 -0.0101159733240747)
(5.00032698361137 0.0003020277523575174 0.0006752271511402931)
(4.982897300820683 0.001122412383016 -0.01729965958966288)
(5.001153494138224 0.001632133588253422 -0.001615888732519453)
(5.000422079132013 -0.002218659488682734 -0.0005081571482832082)
(5.000455424670061 0.0001909053831886417 -0.0001718798098166843)
(4.999906588926338 0.000766046196722549 0.0003513801951715038)
(4.997578507865651 0.009477073596625354 -0.004068377952982436)
(5.000533559636616 0.001889236068021533 -9.639791136199354e-05)
(5.000498025475858 0.0001971328045741056 0.000121350553156974)
(5.000439444689333 0.0002191804986578469 -3.941035044361985e-05)
(5.000471424368643 -0.00066342422639675 -8.240594464162155e-06)
(4.995814083500869 0.01092439314545152 -0.007558604709562231)
(5.000397115007804 -9.693012965253557e-05 0.0001894938299963112)
(4.978891076250181 -0.00509545991604422 -0.001722913456855121)
(4.995479839424108 0.001504302814186219 9.651224720194967e-05)
(5.000081662089636 0.0009321123696535575 0.0002107409352753019)
(5.000316393725098 0.0006470310868020594 -7.791900858361685e-05)
(5.000550282852966 0.0008008301336991546 -0.003145297617640477)
(4.999685851093821 0.000886921737907396 -0.001642840744060768)
(5.000535511678796 -0.0002065241239723932 5.424216257194861e-05)
(5.000129500865844 0.0007145394956138759 0.0002675018129291096)
(5.000457433939771 -0.0006327078390810972 -0.0005491249992425421)
(5.000806201884314 0.0002466397787386786 -0.0003732860973795952)
(5.00020676112032 -0.0008213866297175555 0.0008150194019355486)
(5.000294973299247 0.001125091116262975 -0.0008366625078035905)
(5.000558205461504 -0.0007711196246084432 -0.0009697727059222856)
(4.993817539763125 0.001046269055811718 -0.00160453924173507)
(5.000723964011516 -0.003911484023069348 -0.0003004190348225636)
(4.999619070690598 0.0007070913088609963 0.0003086726670320092)
(4.950462558288372 0.09799682164945675 0.1532305975259028)
(4.995633134821175 -0.0004912460521268097 -0.0002796594222701127)
(5.001196698976289 0.0005037387788776505 -0.008708184720131153)
(5.000742803395791 0.002568911593683676 0.001574110375900232)
(4.999495133132946 0.002097734184739585 0.0008281271110103632)
(5.00603928167114 -0.001491076736663595 0.01101517257469453)
(5.000545273857242 0.0002481897322028787 -0.0001391022988684772)
(4.995800080833948 -0.0002657542633011379 -0.0001486944360920823)
(4.999422742375902 0.01093026465859082 -0.00315306283367198)
(4.999907556426693 0.003062414573500523 0.0006183214569266045)
(4.998810037124077 0.001348636977372143 -0.001608428831039754)
(5.000793242024275 0.001005343467008332 -0.000159719257713938)
(4.990251073979437 0.01137757968695282 -0.0003184644742547422)
(4.999056721274398 0.003858107719932804 -0.01302390624474503)
(4.999581418070783 0.000630236835173408 -0.0001281820403017585)
(5.000695651396335 0.0004447800198814088 0.004430221435900389)
(5.000834702793901 0.0009746243129707656 -0.0006309454726732818)
(5.001243475842325 0.0005375382184097037 0.0001241520662464367)
(4.999400149660767 0.0006469609947324622 -0.003649988949593457)
(5.0003309613918 0.0003335513452666041 -0.0001744696145274699)
(5.008465825293156 0.000388261455181162 -0.002953621461434296)
(5.000105147942096 0.0001054319955932401 8.293632473399465e-05)
(5.015158103373371 0.0001957687526317878 -0.003748419814029339)
(5.000129685178878 0.001860179555470953 -0.002207024534154417)
(4.999910394970939 0.001128902530492228 7.854171845317212e-05)
(5.001707857062936 0.0001275388027616363 -0.0004003820942955416)
(5.000517956605735 0.0002541479737257529 -0.0001538302406435205)
(4.999924525791196 0.0011137504005618 0.0001479155449958521)
(4.999988889302142 0.0005552608054878076 9.919107506757963e-05)
(5.000297635208608 -0.0004418406611175366 3.068816032315573e-05)
(5.001278382173555 0.002083209540352505 0.008593820800753858)
(4.998321884164295 0.004863981632839928 0.006697666875526575)
(4.99996447176289 0.0006728382976908824 0.0003354369965301466)
(5.000566535773835 -0.000862254912986024 -0.001176980130630195)
(5.001981736219212 0.0002100926552642581 -0.0001360152210292179)
(5.001112997178909 0.0006095492706626455 -0.0005317853011367493)
(4.887932513598857 0.004148206864807225 0.1052806697976163)
(5.000467642351236 0.001119747308983925 -0.0007912504787726043)
(4.999985199800314 0.004034073106830861 -0.0002110077019910426)
(5.000243917675089 0.0004209138791267646 0.0001012230188520446)
(5.000494181295148 0.001229233191917225 -0.0006958205907679825)
(5.000378612590032 0.001026132064718744 -0.0006870928096683902)
(5.000399346325601 0.001947170675983658 0.01053782375165209)
(4.998957178475269 0.002599410849246812 -4.711856153496876e-05)
(5.000448542296694 -0.0001222445474198113 -0.0001849784617474757)
(4.998477773001575 -0.007652265634396327 0.04321987432268719)
(5.000340976047161 0.0009242295434686529 -0.0009057915083282683)
(5.000503368626249 0.001013117042662367 -0.0009697931517856789)
(4.999912756944482 0.0009072552195785569 0.0007296608964424345)
(5.000625868066462 0.0007669151100349692 -0.0008370533229213828)
(5.000213822892381 0.001016287481358647 -0.000551854951327282)
(4.996598854470548 -0.0008791164874078303 0.0002652619620759346)
(5.000227291399002 0.004048762104161284 0.01052436655470171)
(5.00054316739833 0.00125648103825781 -0.0009452667378997032)
(5.000917717713722 0.001413802958908934 -0.001004204704246129)
(4.99600875244337 0.01861629403612818 0.008410601719224666)
(5.000493716948459 0.001162103649898964 -6.569037340654085e-06)
(5.004376320460524 0.006857063829415599 0.009471409930766443)
(4.999641891431255 0.0005373505837086529 0.0003383383973811407)
(4.999792907619407 0.002422427218160891 0.005628666797002973)
(5.000434147938648 0.002468911713903346 -0.002109909757675292)
(5.010649083229144 0.007738253217194732 0.002735972542172465)
(5.001594407235523 0.0003724721137304307 -0.0006412967592099619)
(5.011472801628751 0.006925970035738247 0.0007452110151853094)
(5.000468374874013 0.00150763753262892 0.0001201796193158535)
(4.997506685500438 0.01023034918547396 -0.009407231371771619)
(5.000809980123484 7.897271550073271e-05 -0.0002326400868249598)
(5.010289493076929 0.007475460612621502 -0.002012191103664958)
(4.997992193353397 0.006040219092128199 -0.0003908925468125178)
(5.005108804479439 0.005315500861644809 0.005615636408255389)
(5.000867271809014 0.000225622724454014 -0.0003211479097228029)
(5.000970686859002 0.0002626571181567962 -0.0004079726989809667)
(5.002821022734189 0.004077474303378736 0.00491414792126597)
(5.002224942148616 0.00702069807605849 0.00515646765476903)
(5.001613378374008 0.0134389869667011 0.01015707744559245)
(4.991682542160358 0.001178866985680612 0.000615347749606261)
(5.000255423775535 0.0005031656181856321 0.0001700627582675474)
(5.000366379075781 0.0007854488248582804 0.0001065043117530998)
(5.000383204036491 4.775517661959583e-05 -8.094810263994571e-05)
(5.00009838778131 -0.001024321445873477 -0.001319100763591156)
(5.000000217371977 0.002693550573792388 -0.00173364051737963)
(5.00099515913674 0.0002792075126398384 -0.0003074682511998731)
(5.003302968447842 0.03784384387442846 0.04782057413844679)
(5.000345964780407 0.0007867729194611356 0.0007108028382900791)
(5.00033810361071 -0.0003675771001332046 -0.0003154899167619079)
(4.999701198102335 0.0003224572007105326 0.0003704334633895451)
(4.999832306620362 0.001799151571656553 0.003210777042016979)
(5.000498207170628 0.0005272038903057701 -0.0003168189244482294)
(5.000296932297853 0.002749761611161399 -0.0002596206907993438)
(4.997705584275089 -0.0008205517394777177 0.002142566964712174)
(5.000350231385768 -3.099453027702523e-05 0.0004758898409451648)
(4.977620716240695 -0.002275781872166923 0.001033459455655587)
(4.999766762487411 0.00200187379027547 0.0002101156800930725)
(5.000496196089976 -0.0001083606463911634 0.0001754429468420236)
(5.000211632241441 0.0038052315732704 0.01535102204092744)
(4.9903937734186 0.006657485561150992 0.01335704149038291)
(5.000199368265486 0.0007704178069030792 -0.0002345231949200421)
(5.000553279431897 7.603053541355198e-05 -0.0001474941268175088)
(5.000992145372175 0.001713401275258963 -0.001125792273878104)
(4.999755607339825 0.002505710163093841 0.0009706899272669627)
(5.000516877412045 0.000512060957440033 -0.0005239116515933487)
(5.003065242704644 0.002530676743548311 -0.002086697247098309)
(4.998430881985736 -0.001076080975425778 0.007553857267250536)
(4.999524013237802 0.001510269184397512 0.003262799039831328)
(5.003453122442005 0.003666662013268336 0.0006343318499904898)
(4.999710576846798 0.01045668608375657 0.01097339366359666)
(5.000757394153851 0.001382467524766434 -0.001035366225189252)
(5.003947112660684 0.006681784698772494 0.005088258642984398)
(5.000048440668229 0.01217860699424345 -0.001541104058697952)
(5.000588019016493 8.810615236672816e-05 -0.0001032141477358819)
(4.996611372817349 0.01182889191570817 -0.01426311344291548)
(5.007837202516363 0.004454796833333141 -0.0001186527060376083)
(4.988074855977276 0.007879861447602715 -0.006997892781923422)
(5.008391297548883 0.008531545972974052 0.003128836839086388)
(5.038240077863977 0.03954454051247543 0.01262401754148708)
(5.006749699145707 0.002846947776905942 0.001785486456006367)
(5.006949159721525 0.007883808523632064 0.005351516662677095)
(5.00610766343161 0.003859034639407673 -0.0001051869157273487)
(5.000685434760009 0.002589981001941646 -0.002644985418613601)
(5.000269019471852 0.001703582116402888 -0.001941488172498127)
(4.999676290490702 0.001706521514443329 -0.002411786736038751)
(5.000453143046848 0.00407894532190864 0.0004701765970701232)
(5.000823695543986 0.0003908305917002712 -0.002914198542140191)
(5.000212250975029 0.001473097933226162 0.0001168621139850291)
(5.000527098044578 0.0006520600589444402 -4.223637839884181e-05)
(5.000493137951745 0.0007786829096226161 -8.952269661841029e-06)
(4.999835248072499 0.003598957904220866 9.387919542302723e-05)
(4.999032453501141 0.002734715929674755 -0.00277965755407635)
(5.00041797812316 0.001786267582369364 -0.0002013649739511409)
(4.999534963596805 0.002874041197796705 0.001104600147044548)
(4.999960340303224 0.0006160493507761232 -0.0003339451227971886)
(5.004341981576148 0.02324489036134751 0.009695313382242193)
(5.000189529313624 0.0005421249290500711 -0.000207031362744516)
(4.99802961688248 0.0005544703594299985 -0.0003920413779381114)
(4.999370123663673 0.003651718303876868 0.001482107830412691)
(5.000591379516464 0.0006660569358240277 -0.001053855429425987)
(5.001137601757032 0.005332116959259619 -0.002668961469824721)
(4.992509667241641 0.0003137725099445432 0.0002156087973581781)
(4.999448311578014 0.004153158789544559 0.001419030697650052)
(4.987138962970227 0.002954474952677027 0.003378546560754288)
(5.000399976146703 0.0003394676572315427 -0.0001498305004720738)
(4.997012030131852 0.003749314333797036 0.01278254765141146)
(5.000518552439927 0.003120685370402459 -4.153794279239549e-05)
(5.000527210696259 0.0009122803559875512 -0.0003113155580212024)
(5.000973054175837 0.0005693155389918334 -0.0005736462506346987)
(5.00246714483793 -0.001568843117654153 0.008710344174742313)
(5.000238353455308 0.0003438787766295611 -0.0003052165298194557)
(5.000267928789084 0.0009698463188370318 -0.0006410129229750365)
(5.000542526657065 0.00228626957724594 -0.001994501006212656)
(4.998097698560034 0.0005761231747796248 0.0002164266040610192)
(5.000345502321563 0.0003034088941944571 -0.0001403428058762023)
(4.999530170978065 -0.002528292474568149 5.603588829859983e-05)
(4.999500345105394 0.00388306921984833 -0.001590830945103584)
(5.001832457172904 0.0018419765318032 0.001517698210030432)
(5.000978037503072 0.0006029865193824747 -0.0005095274051179987)
(4.999826023345638 0.0004964527860463792 5.560639565379751e-05)
(4.999727991085474 0.004352285499857342 0.001838912462170413)
(4.999682722326016 0.001071281840188138 -0.0009247939340105821)
(5.003198505828596 0.001731394616644185 0.0005699558466216735)
(5.000221162522029 0.004558439761406151 -3.519212461414277e-05)
(5.00014850829989 0.01289916880819827 -0.001189850773406102)
(4.999799448203919 0.001010025983325817 -0.0001502348620157737)
(4.998528741560065 6.84075789487586e-05 0.01048108153818713)
(5.000453206789833 0.001044851645977491 -0.0007678469517735325)
(5.000693899632529 0.0007475542665115677 -0.000900493008094646)
(5.000049671636399 -9.042263633823532e-06 1.781108812765943e-05)
(5.000708264673968 0.001204866288407524 -0.001049878674783788)
(5.000875960691371 0.0002357022616329558 -0.0004588686911554368)
(4.999704554559771 -0.0005951280153738529 -0.0004845627794135174)
(5.000306770284772 0.001266202377388422 -0.0009035752810108315)
(4.999646307865028 0.001286681458528611 0.0001008695007640846)
(5.000215704137861 0.001030519078852424 -0.0005419868979311205)
(5.000946830034992 0.0004252810082631696 -0.001317974649550055)
(5.000214883836785 0.0003852466606725442 -0.0001619826215688029)
(4.990274142662462 0.0002259893759977575 -5.682777715683975e-05)
(4.999786192633005 0.0008037917267528183 -3.234590812950438e-06)
(5.003959784702332 0.003562960158073246 -0.00277817183003961)
(5.000328238100043 0.001614236537023053 -0.001005850506788291)
(5.000009204849826 0.0008137896046249212 -8.98337734766451e-05)
(5.001784492102932 0.003309882719411419 -0.001699266256872708)
(5.002127705385358 0.0008718210732554541 -0.001467092806210911)
(5.00604666670935 0.0143814308131534 0.004985928611943245)
(4.969874237877444 0.00238195435161844 0.0004854145438176494)
(4.999377680910424 0.002287381526422925 0.0004588522598350071)
(4.999500182800165 0.0005837893909640867 0.0009471233211804272)
(5.003148559773997 0.007623245099659007 -0.009745011073480419)
(5.000477767859092 0.002975491843754305 4.374046303563492e-06)
(5.000231839599214 0.001674647747660435 -0.001512534662969833)
(4.99891034526657 0.000941655554193789 0.00166675019978972)
(5.003016600026549 0.001372673076346639 -0.001614467974508644)
(4.99988937855768 0.003976349311713563 -0.008599199162824629)
(4.979378707857686 0.00157398769939867 0.0004832986961071163)
(4.999934215566943 0.002158505133548563 -0.002589481044357629)
(4.999929350698262 0.002624835233033705 -0.001367053505317705)
(4.999932996826454 0.002342698773843189 -0.004307433695686721)
(4.999701875675821 0.0007967442757214803 0.0004470933345259822)
(4.999941543343909 0.000544280004480368 -0.0001614889786856064)
(4.999919324111827 0.0001208191738604452 0.00050376308490028)
(5.002276421787661 0.00238949907274028 -0.001114708651814401)
(5.000222188760363 0.0003581266003601298 -0.0002690370237781092)
(5.00303135166868 -0.002430081598750908 0.003938360495675163)
(4.999879221120499 0.0005886199467339255 -0.0001272545552971615)
(5.000517022174702 0.001372364843854031 -0.001064204982522469)
(5.000062953435888 0.002429634254781969 0.0006079213916672551)
(4.991994078302191 0.0006589042646788719 -0.001258411869328624)
(5.001248283689503 0.0009846408325684135 0.001222672272627515)
(5.000235000411494 -3.261981937830186e-05 7.40694720079274e-05)
(5.000355002918647 0.001414837280706733 0.0001211803196801547)
(5.000992648539646 -6.848692010472933e-05 0.0001506524613440266)
(5.000101022236952 0.001233749705517675 0.0001088716343519976)
(5.000397909532462 0.001391846852912713 0.0003879824547124543)
(5.000059821054701 0.0006601365495875248 -0.0001987465196824782)
(4.997963086940449 0.00636328449922508 0.01528825715317222)
(5.003206543693309 0.0003255700413566364 -0.005894419774062878)
(5.001847171121214 0.001011074195589748 0.0003080928774574619)
(5.00046372816284 0.001166803100472782 -8.125865644314598e-05)
(5.000278489752268 0.003565376877424801 0.0001573801657199162)
(5.00035854494149 0.001287126588099966 -0.0002712225391754403)
(5.003227349809945 0.0004235511269703378 -0.0004931825714480904)
(5.000817656396221 -0.0006333167432700494 -4.865929462872083e-05)
(5.0019554825096 0.001651533659140311 -0.04477608125580441)
(5.000116850244112 0.001478818785408808 2.089192355044006e-05)
(5.000337887878268 0.0009591151820536006 -0.0002262433946938161)
(4.998664405184989 0.001809701881265709 -0.0008607909405358268)
(5.004001362043485 0.004841633399337007 0.007784900955081875)
(5.000268026577671 0.0009230629792662627 -9.408010811333043e-05)
(5.000898891849905 0.001126762646053896 -0.0005835089139155561)
(4.999103205576295 0.005131624517581912 0.001302964150603509)
(5.013255055448743 0.01793652514350051 0.005115572741416839)
(4.989323032786895 0.000365229867970148 0.001090642049164124)
(5.00603311468808 0.002640207045179057 0.002201933498517137)
(4.999522649340558 0.0009944787056311135 0.0008601597259084056)
(5.003685213374013 0.001653197242385115 -0.002286890157886812)
(5.00038148570146 0.001242942573154701 4.760055758508044e-06)
(5.000442559376735 0.0004446367927589249 -0.0002631257497555315)
(5.000056346165584 0.0005770814892923713 0.000817332559728204)
(5.000360870859141 0.0005318298957776511 -0.0002698588138914487)
(5.000194914273051 0.0009095851617121429 -0.0003319689112452752)
(5.000209385676793 0.001337984575142582 0.0001817203760907602)
(5.004196740478335 0.000526666097894112 -0.0009631608356085158)
(5.000567906930352 0.001243055856639956 -0.0002762598395578754)
(5.000878758318951 0.0007633072176979216 0.001797087055684142)
(4.999822379055082 0.0006402134779214889 -1.092725106073318e-05)
(5.000195751334615 0.005022590695214025 0.0002341118225871228)
(5.000223138975624 0.0006495802951799362 -0.0002070113808014785)
(5.00005886536964 0.0007877662795176739 -5.211774001026336e-05)
(5.000216651660265 0.0002564519289657695 -0.0002253701571608155)
(5.000790270168916 0.0003010701593078371 0.001956232568047909)
(5.000443284077229 0.001297882072488914 -0.0002700833413898965)
(5.000026068788651 0.009720977457494536 0.0008620425868441862)
(4.993168471508617 0.0008146786998097125 -0.0003551397127217906)
(5.000090349958316 0.001021387134996411 -0.0003000879094070049)
(5.000546473662181 0.0001584348362898047 -0.0002581806910267742)
(4.997401451595532 0.0001407479243344302 0.0006419984616575504)
(5.001495903248769 0.03150336656504042 -0.009724491957097316)