/*--------------------------------*- C++ -*----------------------------------*\
| =========                 |                                                 |
| \\      /  F ield         | OpenFOAM: The Open Source CFD Toolbox           |
|  \\    /   O peration     | Version:  v1906                                 |
|   \\  /    A nd           | Web:      www.OpenFOAM.com                      |
|    \\/     M anipulation  |                                                 |
\*---------------------------------------------------------------------------*/
FoamFile
{
    version     2.0;
    format      ascii;
    class       volVectorField;
    location    "1.3";
    object      vorticity;
}
// * * * * * * * * * * * * * * * * * * * * * * * * * * * * * * * * * * * * * //

dimensions      [0 0 -1 0 0 0 0];


internalField   nonuniform List<vector> 
19632
(
(0.001340732279494313 0.004027494212268672 -0.007504584680113655)
(-0.0001934073745449777 -5.885683604896143e-05 -8.498535904825031e-05)
(-8.139257219076765e-05 -6.817067673802987e-05 -0.0003215084397015283)
(0.0003149131430091141 -0.00256230224674653 -0.00208219303022973)
(0.001514081589974958 -0.0007584791686010427 -0.0002578165393956442)
(-0.003622706370924514 0.002175731378025244 0.0002349743716865404)
(-0.002893373958450258 -0.0004629063949974227 -0.0007539245769213909)
(-0.001289079441496075 0.0003040024470229974 -0.000131046244567167)
(-0.002720623694060859 0.00260077243836006 0.003580445470744232)
(0.0039944181803117 -0.001652497539124422 0.003085186820984461)
(0.001257144083523597 0.0008187909795731455 -0.000266517402091353)
(0.001271829353215187 -0.0003652744811600932 -0.0004788973090525209)
(0.007442409265562997 0.001324578324878705 -0.003457796182996659)
(-0.0008840224068456626 -0.0004017973081208487 -4.488441416081212e-05)
(0.0005125291316216201 0.0001854980776414123 0.0001831812876148296)
(-0.0002406193899547403 -4.823787348697536e-05 -2.42358419834291e-05)
(-0.0006906745169022667 -0.0001534128029528956 4.771798347664161e-05)
(2.547238836197899e-05 0.0002188536685372316 -0.0001941484388229775)
(9.330378934337423e-05 2.072323652709804e-05 4.405472906542402e-05)
(0.0002059876633907383 0.0001705950770005429 0.002015187473455127)
(-0.004203568545340802 -0.0002504028161584446 -0.0005099841920411171)
(-0.005441753320341224 0.001824524128815046 -0.002695553561767952)
(0.002915296483464321 0.002151620930892316 -0.0037904490064198)
(0.0003997314882543635 0.0001539338623826938 -3.531592160988189e-05)
(-0.0003923967682623309 0.0001421310101047265 -0.000255516107797591)
(-0.004032963131761501 -0.0009467292774076718 5.303469667640166e-05)
(0.001022126595837887 -0.0002963524743509233 0.000712603203962397)
(-0.001032307800021666 0.0005487602184295795 0.001422532968011053)
(-0.003222358058278026 0.001967627415930249 0.0004880523885345593)
(-0.000267032321951003 -0.0002616034715667218 0.000189512933715569)
(0.0001997424894391227 0.0003358259543357281 0.0005177700670548615)
(-0.0008215869611369408 -0.001312788240615702 -0.0001846971303669976)
(0.000695879599971691 -0.0005286786927658923 0.000195894163055249)
(-0.0002776461618381335 -0.001257067496104846 -0.0003489576163302819)
(5.449837211692227e-06 3.519897350732092e-05 3.503729017844551e-05)
(0.01264193504632983 0.003429143829332439 -0.000850811323015603)
(-0.000795984509460698 0.0002342703301556313 0.0003088789818777411)
(0.004803943758840267 0.0001985280239971289 0.0001030689489377334)
(-0.0003837584121297601 -0.0008054012629027196 -0.001294996203735069)
(-0.0001839099675653355 -0.0002989832616067813 0.0001442477399446629)
(0.0001101886080604948 -0.0008149059399938042 0.0003802353075093333)
(0.01050214069281663 0.001224149216412999 1.572885697615194e-05)
(-0.0007179708800481239 0.001012063250259596 -0.0007300260613175989)
(0.0002293409235872773 7.899988449290426e-05 0.0004294952253402118)
(0.0001127638488712822 -0.0001742193108301298 -0.000184013652914384)
(-0.0001723308722160343 -0.0002300075338553814 -8.922366246644543e-05)
(-0.006414023301856074 0.004043136933497924 -0.002472811859819612)
(0.003259809908219739 0.001507746071832308 -0.000500995102273147)
(0.002619126943994196 -0.005499955167149713 -0.004607493843669923)
(-0.0004062591115293464 -6.975262251882142e-05 2.733122699629681e-06)
(0.000821060157542837 -0.001060893910916383 0.002432088884965448)
(-0.002337283850674966 -0.001686227852606696 0.0006415973372971967)
(0.002874878102394904 -0.0001133228234424484 -0.002269848492494277)
(-0.002233729319355003 -0.0002421742465627725 0.001390520598535006)
(-0.002073420790455836 -0.001077349620931217 -0.0002766069285468087)
(0.004395500235690734 0.006852124173203601 -0.007360022913589673)
(-0.0002956555513597102 -0.00192268769563486 0.0004901788455480784)
(-0.001987274421941319 -0.0002565207252690714 0.0005558438316183438)
(-0.0002977138894024841 -0.001656797739587644 0.003322808480698967)
(-0.001032987788239458 0.0001134206806265219 0.0006038017404660092)
(0.0005498889214828548 -7.115025214425778e-05 1.891343705738292e-05)
(0.0003229891880903634 -0.000167674975470136 -0.001109831083704138)
(-5.305972546364952e-05 -4.045750050403884e-05 -3.278983823758796e-05)
(0.0001970717002235659 0.0005231889982918792 7.413767900276856e-05)
(0.0014451378830818 0.001480280153858733 0.001401355794627063)
(-7.729200318863073e-05 -1.427115670774265e-05 0.0001479299524363073)
(0.0002635458548392306 -3.1020308463526e-05 0.0001479479865135545)
(0.001458277711494296 0.00124245318510625 7.265401382003473e-05)
(0.000268142310250973 -0.001473739250162438 -0.0008056247062185832)
(-0.005256100013248935 -0.0007859542838901568 0.0009000636431898015)
(-8.935370163432439e-05 9.865746279699974e-05 -5.625476969504936e-06)
(-0.001104252032327849 -0.001269305208799602 0.003112868850352141)
(-0.002008069917081868 0.001912032958584144 -0.0007023096628212349)
(0.00173216739824406 -0.0009147480717841256 -7.827881357572479e-05)
(-8.339702484097288e-05 2.054684512388244e-06 0.000103882319523729)
(-0.001007642580251659 0.0009595231369138217 -0.0007554715660693517)
(-0.0006732280976039829 -0.009601993152676992 -0.0002966340754712894)
(0.009244788748156428 -0.01675879123258939 -0.004630586861269243)
(-0.000537044650208102 0.0005934999909756634 0.0003602702202658226)
(0.001409788652807029 0.0005960587756084529 -8.446682466240721e-05)
(-0.0001604650266039864 0.005962610948971183 -0.004295660398251752)
(-0.0009592910186525925 -0.002687249956742659 0.003714399769974089)
(0.002845602485781665 -0.0002803308047140948 -0.001051032249551228)
(-0.002278147653607633 -0.001823505024137839 0.001243251087899325)
(-0.0008599865371248382 0.001128093220145346 0.0006519360231538916)
(0.00280976259036987 0.0006985518913955493 0.0008286110544502732)
(0.001358358919335572 0.000947317601173638 3.695314984860612e-05)
(-0.002837085172055738 0.003323606223403718 -0.0004622305065097641)
(0.00117657192083666 -0.001948847999612161 0.003556302059312001)
(-8.347373943991149e-05 0.0001025506072807177 -3.987927027626909e-05)
(0.001261172158354684 -7.077571566430898e-05 -0.001772609750780001)
(0.001582317880532022 0.001559221415949419 0.004482340809586117)
(0.001620565286448812 0.002666026496436678 7.387295606662019e-05)
(-0.00488410952762422 -0.001029006064869646 -0.001403653222024313)
(-0.0002682381313886134 0.001603571626408577 -0.003218075035530896)
(0.001059544734059641 0.003457622242064394 -0.004462713936950905)
(-0.0004311336001894523 -0.0006938613776308136 0.001160861088212784)
(-0.00401610232116655 0.0002664471665363872 0.006441800779015593)
(0.001849842519689579 -0.0002059008663026207 -0.003655164245917959)
(-0.001546261854457939 0.001071981890958875 0.0005628621794504153)
(-0.001025372980994423 -0.0001880387534318921 0.000460406265839448)
(-0.001135754778816396 0.00264424191821459 -0.001783385217399616)
(3.823615573084242e-05 -0.0006249434514207882 -0.000303145147132465)
(0.0002431120056632981 -0.0001458028169895691 0.0001859937216548687)
(-0.00100586302910248 0.0002273818726893557 -0.0009909851960257351)
(0.001602209656557567 0.0004098938778345299 -0.00324836170824306)
(-1.514206658971464e-05 -3.814744696024337e-07 -5.983557276118544e-05)
(-0.002901335454941028 -0.0004044424355088297 0.002495577300997561)
(-0.0005394536891969696 -0.0004552472189489592 -0.000103301380059752)
(0.001860370078187662 0.0003159153746199148 -0.0003398441148985817)
(0.001772430882240779 0.001879139388983352 -0.00183132825302136)
(0.005997272950443624 0.0007699318639925626 -0.002119094768842347)
(-0.002675957375189166 0.0003313495944262301 -0.0006205535339027797)
(-0.0002583015971895299 -0.001197390985550016 -0.002231105223355034)
(8.722373507352721e-07 -0.001850498357397132 0.0008628369760157104)
(-0.01258850136736745 -0.004650167175137106 0.002068519067965667)
(-0.001678301574632396 0.0007600030813100038 0.003203070807801857)
(0.001431626469974898 0.0004646883915090873 0.0007058796745814112)
(-0.003980824565892645 0.0005865772536388252 -0.002101507708810194)
(-0.002306085142305063 0.003513402173588949 -0.0009285063327698216)
(-0.001616117955916386 0.003069842001890752 0.001065812668591732)
(-0.00280612813369833 0.00120256447838695 -0.0008103952343853117)
(-4.130843240406316e-05 -1.284840796216563e-05 3.38743627990671e-05)
(-0.002380608375528045 -0.001073829414658421 0.001733814830987364)
(0.002360310501961217 0.002790383854508869 0.0005462789283193478)
(0.0001357428962681066 -7.449627872707903e-05 0.0003842252400513215)
(0.001585055284482486 -0.001500213191214037 -0.0007841492049026021)
(8.903644532906667e-05 1.918341099230429e-06 -3.077333587971216e-05)
(0.001498586923205942 -0.0002658174964848893 -0.0001797050773951951)
(0.001158756126447828 0.00337708980883981 -0.004090710696171641)
(-0.002277923469572352 0.001688889638295236 0.001242928534273704)
(-0.0001530765891033177 -0.000233191983345129 0.0004324795169846051)
(-8.839312180133364e-06 -3.443126924499083e-06 -0.0002439402307562702)
(-0.00228101438860797 -5.551728734440222e-05 0.002585115159964262)
(4.635943584385445e-05 -4.401738961108487e-05 -0.000218497424237447)
(0.0007210353784607214 -0.0005217733639569312 -0.001375851379290643)
(0.001192886216964866 0.0005912301258073861 0.006132393404939106)
(0.0002453805992002578 -0.0003006689054414784 -4.348980873321035e-06)
(7.707935554512731e-05 -0.0001153508423062517 9.617690599525323e-05)
(-0.0002180871974809744 -4.352192054429837e-05 1.101996899444417e-05)
(0.001644623835681718 -0.0002215272370108812 0.0012252579543947)
(0.01066165790304391 -0.0001345895221464563 0.01375252840791221)
(-0.0002804407014350471 2.916343898638944e-05 -0.0001238249468354499)
(0.01043864567821455 0.03505269934284326 -0.02085572078490489)
(-0.000864131483436165 0.001275963019235259 -0.0004877099457133488)
(0.004112907324129072 0.001520416783800619 -0.003174012486530093)
(0.0002389475347904298 -0.0004701234829644144 -0.0001171363974851271)
(-0.0002113373986623399 0.0006575513452142709 -0.0001031043325302622)
(0.0003908921283359547 5.982584326800675e-05 0.0005715730142815925)
(0.0002392435173661654 -0.0001904682656591427 -3.514356319002604e-06)
(-0.002612033718462155 0.0003832738319741376 -0.0001265367682814812)
(0.002715426812537546 0.001061556435315055 -0.003625058377211522)
(-0.0006609809096717407 -0.0002975288940622607 0.0005175377458026321)
(0.0001156093952240798 -5.872639876962804e-06 4.339493999399885e-05)
(-0.02066191319203027 0.006320289373972863 -0.01136310533401981)
(-0.0005977155668329911 0.0003144363032201549 0.0009019293082182204)
(-0.006547920423905172 0.001948000080029347 -0.0006198398272811226)
(0.0006488891472307139 -0.001142430183274999 0.0004258585654953798)
(0.009234867267231103 0.0009745401833888224 -0.007390616704163151)
(4.459609484850312e-05 8.533169537114241e-06 0.0002720336915385666)
(0.003977554293190684 0.002047323468742623 0.002025922760152252)
(0.001942943820332189 0.0001519171226851573 -0.0003715956832566821)
(0.001268489879472943 0.0009479635332826286 -0.0007487317727941001)
(-0.003763724812775335 0.0003503609545085267 0.0003911018372091093)
(-0.004610691680936102 -0.0002585074291470645 0.001986738457571878)
(-0.003615897021511463 -0.00162530160599937 -0.004851014936098252)
(0.001157486363623104 -0.0001919371487479298 0.0002570280214708151)
(0.002713689142569359 0.0003287309871124939 -0.000992023697207047)
(-0.0001758464263287681 -0.0001213112039577291 5.085158779702013e-05)
(0.001440500247620728 0.0002316606132961004 2.447497226751771e-05)
(-0.0006104592253891603 0.0004465507277097325 -0.001774061976342779)
(0.005975938226482283 0.0002169793378987312 -0.0008889228498143223)
(2.248813856718269e-05 0.0001199086100605788 -9.450449605643055e-05)
(-0.0007226566041831779 0.0002645657150437648 0.003033083478386209)
(0.001189581352430235 0.0002887037108246421 0.001693472736700776)
(-0.007807660493165072 -0.001063671591551445 0.002472364495577095)
(-0.0001566462173679087 -0.0003601061520334765 -2.664017590154981e-05)
(-4.145407150781924e-05 0.001196121957162903 0.0006558436553626012)
(0.007186744124504757 0.000191603820043398 0.003183080895782848)
(0.0002924078382719234 -5.107276398703679e-05 -7.264668319993629e-05)
(0.0008859562888858599 -9.109194899055176e-05 0.0006638046656677007)
(-0.001754948268214757 -2.441782166075515e-05 -0.0001549202027625697)
(-0.0002402521055509032 0.0001594630952728323 -9.686144864573865e-05)
(-0.002859991141542033 -0.0005701301742516291 -0.0001228627597078605)
(0.000215573440143892 1.276645777335304e-05 -4.262582809171024e-05)
(8.111334385380297e-05 -3.094546528527212e-05 1.9570561962422e-05)
(-9.080131144856588e-05 -8.823223155806683e-06 1.786328021128967e-05)
(-6.605096542030958e-05 0.000184827828755026 -0.0003267485498123919)
(-0.005014714404817953 -0.002168350455211293 -0.0003951721157055469)
(-0.0008087836185445697 -4.977985335007236e-05 -0.0002978299954788658)
(0.0009186441923195255 0.0002958822711083974 0.004517854283907685)
(0.0007326274076873726 -4.688391121677739e-05 -0.0007596156102595893)
(-3.951806058639463e-05 -4.147291655368182e-05 -0.0001465278595478688)
(-0.0001057454760041548 7.505423167785643e-05 3.149540290499406e-06)
(0.0009110060865973737 -0.0007148797490894884 -2.18698067646103e-05)
(-0.0001779474625402768 -0.001144748237987878 0.0003983543573746028)
(0.0001888971099006714 -9.406617441707946e-05 -0.0004106818090014354)
(-2.949017072904877e-05 -2.866081851478917e-05 -1.824548792780513e-05)
(-0.004455176693873568 0.0001123519927301477 0.003736275113979972)
(6.794015064760225e-05 -4.790411801093662e-05 0.0001425514740301499)
(-0.004141045401568498 -0.0001632957101970275 0.0001636149131601112)
(6.476681188707228e-05 -2.01430369839743e-05 -0.0001930531193843644)
(-0.00209402521290762 -0.000608102334220079 -0.0002042390620311845)
(-0.001084338372860587 -0.001292724557372213 0.002474427442316846)
(-0.0006184171004958887 -0.0001345844015996571 0.0009888759700186571)
(4.108824157480928e-05 1.018669623537995e-05 -9.648966128972332e-05)
(-0.02437040559628074 0.02247241189476278 -0.04099244096020656)
(0.0002880010631588243 -0.0003247084082514718 0.0009921586493733389)
(0.01733385919953022 0.002367992761269959 -0.004072029645915756)
(0.00260149176197177 0.001360557039640294 -9.695545133017389e-06)
(0.0001071356038193609 0.0002355833090703967 0.0001075012913881236)
(-6.578221245600972e-05 0.01314807208138773 -0.002138753969056473)
(6.985060903130471e-05 -0.0006207022647541361 -0.0003533162624399303)
(-0.0003640186055650035 7.399374130205339e-05 -0.0009301002558228695)
(-0.0004751900178418114 2.769423877877907e-05 -0.0002371956834226307)
(-0.004052949015835854 0.002773201245773509 0.001061371141917385)
(-0.00139015460511681 -0.0005114059902820171 0.0003127847583677995)
(0.0004152914582424596 0.0001358766652798763 4.927982733740929e-05)
(-0.005481257916795057 0.00178959842525722 -0.0003997097995033679)
(0.005380476678655903 0.001796307713013688 0.0003621455499628421)
(0.0007990243910204605 -4.27444975241274e-05 -4.708321449889768e-05)
(0.003798198842646695 -0.002207476897346719 -0.000260559494884413)
(0.0002526609925278158 5.897074438227359e-06 -7.172417130990588e-05)
(-7.413619451564823e-05 0.001017933541272583 0.0008479317265987441)
(0.001145179569172761 -0.001349739230119708 -1.231836060714862e-05)
(1.807671607359652e-05 -1.99831190364718e-05 -4.781937826245253e-06)
(-0.0007900647239278881 0.0007507752511821098 -0.003322303109382448)
(0.002773034753822083 -0.0006403352112590208 0.0005898121055227014)
(-0.01031511937491996 -0.001587845429350522 -0.009908231372341357)
(-0.0004331500925302583 3.935898922265287e-05 0.0003036722302292164)
(-5.642290003520165e-06 0.0002725203912945633 -0.0002568642943281979)
(-0.0001662807758942095 -1.972220662631271e-05 -0.0001510465281418039)
(5.422700353326611e-05 0.0001039834355302794 3.039793504617986e-05)
(-0.0001385104813191496 -0.0001323567667423505 0.0001741037839944107)
(-0.001636249662695025 -0.0003887600083454385 9.567022201503666e-05)
(0.002447299373358289 0.0007216980846866529 -6.855080640342744e-05)
(-0.004578695263184216 0.001872623955986968 0.0005248583605632387)
(-0.00495630574799814 -0.00401971175179891 -0.0009118010160522866)
(0.0001535577014826906 6.377968608045491e-05 -0.0001275924664713182)
(-0.004009056796263303 -0.0001174002412737561 1.549839559287619e-06)
(0.0002407840589627174 -1.806903042533085e-05 0.0001026206510826195)
(2.196536183716184e-05 -3.521261912566328e-05 -5.602460959476974e-06)
(0.0562088714684429 0.003600086396478339 -0.005703779573610164)
(-0.0001140456812980201 4.631900541138564e-06 -3.935283398396823e-05)
(0.0001384791621560997 0.0009207078795361253 0.001686619056151371)
(-5.35637497988719e-05 -1.523800335187131e-05 -9.354955760837163e-05)
(7.307255554349799e-05 4.368388282154627e-05 0.00015934675653173)
(-0.0001983143320120709 0.0001266170194443415 -4.257458212584903e-05)
(0.00092725100354219 -0.005436506596212154 0.0002518620970647613)
(0.0002050752252680926 0.0001895214644219036 0.000578629610853661)
(0.0005034907929931756 -0.0002588739088227458 0.0001515036257473503)
(0.02127699574393286 0.008772593942922518 0.0001942753355490458)
(0.0001975623726101964 -0.0001109352448268862 5.877497553867927e-05)
(-0.0001326755094959654 2.141022032988208e-05 -1.635635256545122e-05)
(0.001181799936957553 -0.001099965461960045 0.003323033174738721)
(1.056627293361079e-06 1.256077809849984e-05 0.0001344508926349212)
(0.0002846143096495553 0.000118065956859165 -8.829560570396506e-05)
(0.0001859175879514143 8.196619854916823e-05 9.729258525057049e-05)
(-0.009149899018509869 -0.00566518839704562 -0.0001353855448336142)
(-0.0001366178293745277 -4.946609598796789e-05 -0.0001998023323032949)
(-2.758919133420041e-05 7.902648048099513e-05 0.0001063110315732736)
(0.003046936964141578 -0.006085628301450741 -0.004812902135958234)
(-0.0001615725449730421 -6.951930272576633e-05 0.0001749321138820321)
(-0.009439780046528953 0.003281068804864006 0.01105745052306281)
(-3.108556205170534e-05 -0.0002346728630887746 0.0001710541715910242)
(0.001665331802435925 0.006724449363883589 -0.000583479101431457)
(-0.003208947912013818 7.53427282974878e-05 -0.0004975019420553416)
(-0.006512239032287297 -0.001453352384439771 -0.007711029339740945)
(-4.694018686134695e-05 -0.0001805277593448326 -0.0001585712033060879)
(0.001915570869290849 0.003109742732142872 0.003455323002955544)
(-9.835894814978736e-06 -0.0002034214982377735 -0.0001044394500789481)
(0.004491675978557834 -0.001153809622701866 -0.0005090940735466305)
(2.896324119470369e-05 0.0002348777428203593 -0.0004889199726003195)
(0.0002834857265740041 0.008448673612924819 0.00154855578155198)
(0.001490871923460134 -0.0002538237924117194 -7.115594073810834e-05)
(0.009067904603299547 0.0006520860327960915 -0.0008109589622253561)
(2.734500933969075e-05 3.693168299339912e-05 1.437576326545062e-05)
(0.0001549831121726425 -2.478131719247281e-05 8.400884035640791e-06)
(-0.001626803875506001 -0.001173343684595133 0.001341754827391397)
(-0.002061029360951013 -0.0005101521279851603 -0.001783530191354526)
(-0.0006251374348261738 0.0002711521268984928 -0.00264712921703865)
(0.0001840587178201692 -0.0001852775321926324 -0.0002160891711437056)
(-3.824512023932365e-05 -2.03048509486742e-05 6.998447306246184e-06)
(4.888093687004357e-05 -1.900892135252721e-05 0.0001120414433638385)
(1.537087641878575e-05 5.839935687760942e-06 7.755453135245043e-05)
(0.001816129003928387 -0.000349688480548519 -0.000255282706197022)
(0.0003246553473060367 -1.086482483634399e-05 -0.0001440082251315959)
(-0.0001035289388863653 5.307088849951368e-05 4.733731430914242e-05)
(-1.898278013426694e-06 -0.02168707460604172 0.01603921990948333)
(-0.0003148832556953312 0.0002479416777883879 -6.637667836892567e-05)
(-0.0009542859663055759 -0.0001582553925193506 0.0002442709877707951)
(0.0002169305450592661 -0.0002604656222644593 -8.023662956597301e-05)
(0.00238945062467522 -0.0004028499249952376 0.001458101422213962)
(0.001468029516785827 7.712435586184806e-05 0.0002937323255303169)
(-0.003669027171029474 0.0001164450011513328 -0.001196541474648314)
(0.0018227421168752 0.001125032611115449 0.0001004245516314287)
(0.0001852184036198465 0.0004978316617036459 4.165877710965454e-05)
(-0.002376223922569003 -0.004220264451523656 0.01081905523124364)
(-5.762209598801114e-05 0.000237979705921607 -3.813130107011257e-05)
(-0.0002547956515849683 0.0001874944810152065 -0.0001996635640177147)
(0.001046826018652337 0.00378665026808656 -0.001105494945127117)
(-0.009984726815058475 -0.006139012955560907 0.01603568361661122)
(-0.001130958975816577 -0.0002240172516682409 -0.0002172526475725801)
(5.593413841864267e-05 6.723767842148783e-05 -1.537658049657582e-05)
(4.046701128337722e-05 -2.96061222263413e-05 -0.0001454536203555476)
(-7.050019971458206e-05 -4.376830820497546e-05 -7.675847756074751e-05)
(-0.001837690240713885 -0.0003002560944018133 -0.0002301045259985924)
(0.001373050463154238 -0.0001737703395379025 -0.0002674945477372329)
(0.0009068575502717145 0.00413390214624573 0.001386395713018476)
(-0.0004595306704115291 0.001714885410118663 -4.065199899560331e-05)
(0.0003360858015888765 0.001026102991899033 0.0009312725036313563)
(0.004480411729768111 0.000382864451547786 -0.002807907988163847)
(-0.0001025284240619868 7.324394344308913e-05 1.759480776860069e-05)
(0.002839038498305868 0.0007565548876795138 0.0001982957583762053)
(-0.0005777738710875469 -0.0004661471290515636 0.0002206436928607007)
(3.187326657210591e-05 -7.898754658764555e-05 8.007504894770313e-06)
(-0.005312264218820834 -0.001344447350592491 -0.00436821015229478)
(-0.002917447869278088 -2.900465261880666e-05 -0.0002418156494151196)
(-0.003714328199372422 0.001228469620006405 -0.000248848413715828)
(-0.002423692479660741 -0.0004735661100079317 -0.001384961841670961)
(0.02699221838684678 -0.03826291335863383 0.0435892343204249)
(0.004466623235354133 -0.002874027314097597 0.001486434280190566)
(-0.007642943116818205 -0.0006625121789107495 0.0008978930545510903)
(0.001637073776381131 -0.002060569614424229 0.0009283380692235615)
(-0.000431817890619528 -0.0002821189524140095 2.079938673223905e-05)
(8.516995468222876e-05 9.413719383973807e-05 5.057630412093209e-05)
(-0.001647335352823071 -0.0002048459003906136 0.0001365929576011946)
(0.003915601631920593 0.0002170534975347827 -0.004778097702115351)
(-0.003005731057618157 0.0002772341233608435 -5.638819736493699e-05)
(2.110837336477031e-05 9.680676595909411e-05 -0.0001345230885146948)
(-0.001267073234294705 -0.0007937472658215714 -0.001904648943221658)
(-0.0001561805254060618 4.481552478193523e-05 -0.0001460322649125915)
(-4.147709764507345e-05 -0.0001297904678226197 9.216152940802005e-05)
(-0.0005002778661342316 5.00467435933802e-05 0.0003130101145956086)
(0.0005934513342049687 -0.0005227376100013946 7.627487190416061e-05)
(0.0003823756994153078 -0.0001854341327545032 0.0002335506892538588)
(-0.0002692439528500431 -0.0001055689682514637 1.56783667731637e-05)
(-0.001490559077180121 0.004097186706641234 -0.00105501096212516)
(0.0001148722855240807 9.458491972368487e-05 5.065719469332368e-05)
(-0.000375305350644535 -0.0001084234087059523 0.0006229499045916965)
(-0.000217478904114782 0.0003643806722026988 -0.000266401593364151)
(-0.004738250346054627 0.0002493216174927717 -0.001105016862804939)
(0.002595042524191793 -0.0007455191705213229 -0.0004953772161684097)
(-0.001824721516371976 -0.0004196830782147837 -0.0004154442572612519)
(0.000622188022032695 -0.000337849300041998 -4.15670911951755e-05)
(-0.003956526175557137 0.0009667838454077678 -0.0008408645852340741)
(0.000118130761256429 -4.400450955194799e-06 5.453395015596242e-06)
(0.003398373304639002 0.002330587907994268 -0.001934370146914071)
(0.00121566996258916 4.109726427988006e-05 0.001527563403424489)
(2.219980566771445e-05 2.865362518750868e-05 0.0001494607894188305)
(0.0001077323411756527 -1.241962874862512e-05 -4.452346683069745e-05)
(-0.0009260424721115146 0.004554391758974621 0.003321436088814621)
(-0.0003603593361883656 0.0001356233134199849 1.269569984018891e-07)
(9.641054904491105e-05 -0.0003461805600833058 -9.520315678805054e-06)
(-4.815468004708439e-05 6.140217473874724e-05 0.0001088393645366211)
(7.551585471513294e-05 1.019012682373707e-05 -9.884050551328833e-05)
(3.58643215522489e-05 5.266130343984712e-05 -3.323035487127425e-05)
(0.0007832465686348848 0.0003254091007576417 0.001537604980693859)
(-0.0001147593006769531 0.0003542483370131815 -0.0003679632446815126)
(-0.001597029707160136 -0.0007096701060011596 -0.0006922111146409969)
(0.0001398693486513706 0.0001220181597331923 5.648865511029177e-06)
(-5.194204369224921e-05 3.978374906675506e-05 4.589505189904293e-07)
(2.740825999131219e-06 0.0014060338536453 -0.001516407623062723)
(0.0007541316666229395 -0.001284618725421519 0.0002775002850469177)
(-0.000893868248977311 0.0005710926270882775 0.000700340041801031)
(2.019390413493366e-05 -0.0007008612945027916 0.003803423551267245)
(0.0004223018528158216 -0.000413562032555783 -0.0009140464194429059)
(3.860932481226635e-05 -7.441004241374598e-06 -0.0004080173751417721)
(0.002681596015827037 -0.003350185813905424 -0.0002613043595702174)
(0.0001326979133880192 2.729806494834047e-05 5.01064276942594e-05)
(-0.0002509470062778507 0.0003201793489972508 0.0002904431661353314)
(-0.0002696368184225551 -7.498913498204186e-05 -0.0001149275120848724)
(0.0004563514987750424 -7.431015128166647e-05 -0.0008744585357894379)
(-0.0006368832938623854 0.0001086893024896544 -0.0001047243430578182)
(-0.0009389526717896975 4.307276412334452e-05 0.001379184904829973)
(0.0001142067644695966 0.0001205739829558184 9.704741531770954e-05)
(0.000271473414144956 0.0001108339046369471 -0.000394036396071982)
(-3.959796864534828e-05 -0.0001579067216762659 -4.382506552877356e-05)
(0.0003895409904125896 -0.001400915767669206 -0.0001039572089741078)
(4.097102168064625e-05 1.599774291620586e-06 6.133087832016486e-05)
(-0.000222444440568994 -4.768822045365356e-05 -9.060536203296173e-05)
(-3.484059438309093e-05 4.858881107217739e-05 -1.557819441967416e-05)
(0.003365717105279194 -0.002983961782518597 0.000211316723904797)
(-9.444408771961349e-05 9.106389760278692e-05 -4.124732281615884e-05)
(-0.000421124000777882 -0.00047726864817068 -6.029231755428342e-05)
(8.293258066934792e-05 -3.540094936414397e-05 8.169662054317102e-05)
(-0.0002248782282342943 4.354551287955613e-06 -8.895615450979863e-05)
(-0.0009194403604450124 0.01056835382280363 -0.003036851509798542)
(-0.0001525194036652583 0.0003259557410721126 0.0003875404738335961)
(5.779580696050191e-05 0.000150014958639339 0.0001100773197846138)
(0.0003528705628060167 0.0008953640095102719 0.0001218172985439904)
(0.005954000495661488 0.002874799738268638 0.003431463975090089)
(-3.846049859567677e-05 -0.0001320805491898784 -0.0001504521580884893)
(-0.001568185069678063 -0.0002849574654133323 -0.001142612585240064)
(-0.00159212148864022 0.001594107535748378 -0.0006972332808000482)
(-8.162301596100841e-05 -0.0003501983870308073 -0.0003413670510114377)
(-0.00155502086313343 0.001512348758829929 -0.00206189073590655)
(-0.001347219509379998 -0.0005135796840551982 0.0004833933897132239)
(-0.000170701265387183 -0.0005560689281594245 0.0006410255147625333)
(6.129417757282142e-05 0.0001900580195163935 -3.944030498948037e-05)
(0.0003105267096061774 -0.002039342874478909 -8.582885876798492e-05)
(0.0001238088533701138 0.0001094055883449347 -0.0003341357712728118)
(8.736018943935563e-06 1.973789903493258e-06 -2.486496556463389e-05)
(-0.0001335541547594814 -0.0003810151563594753 -1.058957045585457e-05)
(0.0003064003312953325 -0.002380624802582913 -0.001647498380326193)
(0.0006002083439824882 -2.929166331410817e-05 -2.779719819358899e-06)
(-0.007917394121550164 0.005188316325256107 -0.001566421594525785)
(-4.14251660117448e-05 -8.892663389927149e-05 -0.0001667972892967155)
(-6.110462613741065e-05 0.0002568015448305164 -0.0005235095253169797)
(0.0009224994806720692 -0.000141104352628709 -0.0002269290595662464)
(7.046815538327086e-05 -0.001044699058113537 0.001089779899283331)
(0.0009066456130469297 -4.524759894290753e-05 -0.0004561140223656234)
(3.109556920238575e-05 0.0001031276412969534 0.0001770138465361589)
(0.0002901276359185119 9.925342664280354e-05 -0.0001012179235326727)
(-1.069339842955984e-05 -0.0007036398705011149 -0.0007945080234408666)
(9.267577058260352e-05 -6.023782098185697e-05 -0.0002298765514377734)
(-5.04166787041746e-05 0.0003680503826577305 -0.0001446558221907506)
(2.05608553039696e-05 -4.532802138186456e-05 6.761939174436575e-06)
(-0.006909836506432216 0.004699484813803484 -0.001204409011077025)
(8.000367041654713e-05 -0.01352123168176622 -0.0002611346433706473)
(0.0009481014159395219 -0.0004715827846282161 -1.855497934138761e-05)
(1.773727678753873e-05 -2.47513909991025e-05 4.44178415349825e-05)
(0.003296995372532997 1.765829387256178e-06 0.00045989090788615)
(0.0001145389870104765 0.00048324358101605 -0.0002846660384323058)
(0.0009204639159705375 -0.0001820945994919368 -0.0002245840958154474)
(0.001180465586402357 0.0004636014479532713 0.0001348474822134608)
(-0.01652199309650417 -0.001945471498948294 -0.003367123389741006)