/*--------------------------------*- C++ -*----------------------------------*\
| =========                 |                                                 |
| \\      /  F ield         | OpenFOAM: The Open Source CFD Toolbox           |
|  \\    /   O peration     | Version:  v1906                                 |
|   \\  /    A nd           | Web:      www.OpenFOAM.com                      |
|    \\/     M anipulation  |                                                 |
\*---------------------------------------------------------------------------*/
FoamFile
{
    version     2.0;
    format      ascii;
    class       volScalarField;
    location    "1.2";
    object      p;
}
// * * * * * * * * * * * * * * * * * * * * * * * * * * * * * * * * * * * * * //

dimensions      [0 2 -2 0 0 0 0];


internalField   nonuniform List<scalar> 
19631
(
0.4945173184178758
-0.256188901957103
-0.6781725317282
-0.878786759396278
-0.01980806966891488
-0.3272977590485149
-0.05941944875036712
0.9358265319213827
-0.02760126215044389
-0.04470140448146271
0.02391340646074777
-0.04662742350565649
-1.301316538890373
0.05672508124502119
0.07602202282109241
0.1352592229120213
-0.4909500583765177
0.05187796151731856
0.4470360263577161
0.2476604120808205
-0.02020360162120504
0.3707526894655383
0.06716789415308919
-0.7603256178254769
0.04002609821446184
0.08218918362221382
-0.05376351789140429
0.3529420596380387
-0.05318743161439352
-0.009303473016926805
-0.02361099891204966
-0.5503782674410496
9.317114618610713
0.02233294066647355
-0.2929363101229836
0.05725057517430253
-0.1627607526536506
0.01990297231992544
-0.2133815353022985
-0.2650827625522494
-0.8841547429321105
-0.7381231455183164
-0.3231894388612341
-0.8103781074454963
-0.4393814274676875
-0.7439508226215191
0.03280990613701169
0.196700402784935
-0.2708095732268757
0.06406715472940551
0.3210590013552822
-0.04840036860345091
-0.2163064029759494
-0.1388146165672435
0.04512986152433471
-0.7722735723755765
-0.2586146159961948
0.02652796693656377
-0.06733473763247158
-1.172554439997248
-0.4658670032321217
-0.1605415441690667
-0.521623555076033
-0.262507515395794
-1.704356564024868
-0.1407912814800585
-0.004941958415221428
-0.1258668941592985
-0.7060819251039464
0.1472843914914955
-0.6862730263745505
-0.5380804753229549
-0.225851701277115
0.5388530333040891
-0.1269638452696965
0.01557780013910021
-0.0120540268143857
-1.03276971073175
-1.56232692761795
0.01211071161279703
-0.9765857703252863
-1.338036126982669
0.05822697959238837
0.03382516354276086
-0.1443691301496612
-0.1996932118403839
-0.4153589129592445
-0.7036964953992677
-0.9313084777102362
-0.7204787726352186
-0.5271703368376692
0.08379261206244999
-1.532536615482279
-0.7087173876830613
-0.0273443790710675
-0.8247242548462373
-0.7825005758921908
-0.02273287253392907
-0.5489726124846585
-0.2685200474080281
0.07705622864644379
-1.018651088832107
0.0520421702558985
-1.523998448807974
-0.7230306229852074
-0.793205082815108
-0.03746805261182742
-0.1799472291100685
-0.09104727516010445
-0.01203274618764864
-0.4097600426027065
-1.028380121191299
-0.06841573448938776
-0.1718495126039227
0.5302430025865064
-0.367144464759605
-0.07864853611790085
-0.1478881774756344
-1.572979768942708
0.011271927087103
0.8401855447096949
0.1283654448313179
0.01286180497829093
-0.1711468349208683
-15.24597300632214
0.08833634319042882
-0.2374389438211141
0.03443018572804685
0.08487139516552915
0.01713202872496349
0.69910248605593
-0.4503297735081878
-0.8390175443482812
-0.5454837958464478
0.00426524237648716
-0.04211446211088269
-0.1584407747422441
-0.08416831207634831
0.07799388525826378
-0.1350744062597436
0.06857532480435173
5.127395059380378
0.1061628367139116
-0.4419113507288696
-0.0162734411482434
-0.1474362944864666
-0.0412777413686203
0.0680582921529683
-0.7946049053382249
-0.6386538547969269
0.1250017279598133
-0.0401480984206561
0.008732454291038076
-0.0222861979324344
0.1389297213560712
-0.03656328130259401
-3.256001270903848
-0.2041140809323719
-0.3370711664532312
0.02640998761818623
0.2681607793011539
0.1356889111524383
-0.7932287371789419
0.1397170139854394
0.02396388958399349
0.03082806267069961
0.04429972332246887
0.06496393971194221
-0.2773756672567368
-0.4948879229789961
-0.4938901133158083
-0.5978849022493847
-0.6101325407499015
0.2705405039683213
-0.06508437935955134
-0.4499075089640613
0.09627571530464539
-0.8967075242043582
-0.1267975417392249
-0.1931182537481845
-0.2057377097072032
0.1558220286114994
0.06266354587183177
-0.03156906826507516
-0.4971082922823218
-1.065340349531456
-0.3125151792640767
0.03856318159231947
-0.08140390991919806
-0.09241267105896736
-0.3568151910718749
-0.3746060782852237
0.3153748777200088
0.01602058316129936
-0.7615132369421898
-0.6917944358971081
-0.02797024397453177
-0.8592061858724456
-0.6437750740119436
-0.3887056219014264
-2.712002534086732
0.4614855004885707
-0.6489129785317546
-0.6932555544730017
-0.0523608891643276
0.1044733980401484
-0.0186606744416674
-0.1356223750972021
-0.2696672548533613
-0.2728606551148814
-0.1061694845196004
-0.08194383138862622
-0.1558891169384046
-0.3176710751445094
-0.07942724268493996
-0.5728827047235038
-0.7258613338263987
-0.5862124486763473
0.2917628155955508
-0.1539428059880746
0.2130080769793471
-0.2181212329391518
-0.03422622812073752
0.1405047358737304
0.7875032426547259
-1.916942208340897
-0.2541952241907851
-0.1895764734431875
-0.4630628550457844
-0.1526455809385009
-0.7030983835228105
-0.5377801706719546
-0.1561206833523966
-0.3359829208571046
0.5047067696336951
-0.04013272039632548
-0.162391283108646
-0.3316505934052605
-0.008368031016723237
-0.5230910747281771
0.2692750270258575
-0.07630667520924309
-0.7506421742757056
0.1569365117843952
-1.415294845370433
-0.887537656373408
0.05331043915179149
-0.5304947735898703
-0.6079887390014592
-2.447918835595604
-0.04937727332339812
-0.4562226468021081
-0.6866237514557387
-0.6548953564308848
-1.115334008030819
-1.148010337776873
-0.1523404998958008
-0.6218329654120962
0.1623304823011073
-0.2233472183484777
-0.03757541106495405
-0.8026585188317749
-0.2683331030850843
-0.3570476283876529
-0.3952033147855127
-0.3461308786594882
0.02401639221408854
-1.316938042439823
-0.87893277342211
-0.5495409795118914
-0.9845397139971943
-0.2372860445136243
-0.4755107338614272
0.07487493497250494
0.5368116630176043
-0.3313055864067895
-0.7778985259111798
-0.8061354914699774
-0.4920489287980978
0.3406890409200548
-0.8240778902192366
-0.5630628788168303
-0.1811383419830642
-0.06215435478924991
-0.5811082534212284
-0.6472808726764122
0.2141059480461149
-0.1978771097926388
-0.5673800207965273
-0.309890272447396
-0.2734677499252943
-1.139007919315162
0.1348991861425042
0.008759706708817453
0.1407890719363246
-0.5412393654699852
-0.8031751045598587
-0.8956929872294432
0.1026726696031053
-0.5396372843978902
-0.2684542230849686
0.4203957242168411
0.1145151697270303
-0.3800199019914004
-0.8039855270007727
-0.05110728369458472
-1.640701735482654
0.467347582663159
0.2971417330352483
0.1045892960461525
0.2902589458100737
-0.6740493763384418
-1.160481294809738
-0.19255867041806
-0.03146360688500845
0.09837536139156164
0.1061841545357985
0.07961054720252815
0.2547105140779503
0.01690358008080804
-0.6843799398296132
-1.514714766251765
-0.7051428676877044
0.1068106714665164
-0.1849607648618515
0.08899638382990425
0.04941159609251486
-0.4892148888537321
-0.5125243652243698
-0.1553897342820303
0.2441424750613699
-0.09755812962561942
0.02391838618511945
0.134149536400541
0.5804400984725645
0.1055782421009569
-0.1272502185812902
-0.3940610627150913
0.004070307330938104
-0.1960551516110155
-0.03083779824110609
-0.5480695456082901
-0.1795458485642205
-0.6295312253208168
-0.7519962242088338
-0.8561689862070865
-0.3488286671420828
0.07352730508209344
-0.234770239117916
-0.2636529597751758
-0.2742519073057203
-0.3768163412266761
-0.4006862776669774
0.181304572611512
-0.476731380598705
-0.2770603221353825
-0.001376073555737789
-0.6448566859364459
-0.4522108220688763
-0.2499080921429655
-0.2646187840206302
-0.8404875554718154
0.1707612824480119
0.1411872887334916
0.9636530412343108
-0.147306137989732
-0.8307884387669819
-0.2131282492753365
-0.1781507365094745
-0.2075431366717411
0.02702391177941677
0.04595654132223979
-0.347130975736275
0.2846334266084399
-0.2130667730789153
0.2209109404790353
-1.016042216510474
0.0243773902090445
-0.2157434619281283
-0.04168462508971343
-1.00785033060238
0.04284270806763287
0.01926775513269124
-0.001666139187114685
-0.1637093905583338
-0.7832063013751859
0.247814345427475
-0.07709773463407699
0.2368071833877005
-0.4080897241855327
-0.202949635137473
0.1206013201014014
-0.2663296935590226
-0.5772840095931284
-0.2104714078599494
0.1636622908471067
0.1395518767776093
-0.8758915779162246
0.183475071619214
-0.1113946967073901
-0.6609565407732312
-0.3914208485349053
0.01763730927752758
-1.238436103474672
-0.3206865133368526
-1.471256826051307
-1.173840941915045
-0.2803349917593949
-0.2336976331019385
-0.2936680740924796
-0.7567483422316365
-0.7080387234746143
0.143393674530801
-0.4856264471916655
-0.3783090469399262
-0.3669901768501675
-0.5799963959592377
-0.1528843772495091
0.390673120432327
-0.7424850952025605
0.07352822215531316
-0.01702676252736639
0.9935154385954187
-2.805345183789195
0.1481538038533602
-0.1684040511377132
-0.427604559997992
-0.05146024115796793
-0.03052732762850432
-0.03004106827295172
0.07268867580024821
-2.089337896353534
-0.3075866863926349
0.03029791232969727
-0.09547027283366079
-0.06407082903340267
0.005920218688706661
-1.838260032703576
-0.3149365007926953
-0.7813609851385417
0.03694209112171114
-0.4613410393055284
-0.1647208441173584
-0.3931704227167806
0.1467634946877478
-0.6960036147093215
0.06473576029278734
-1.327021423150929
-0.5109413711640194
-0.1857423869887297
-0.2870469070391523
-0.4992921978181765
-0.5913728729970089
-0.7324845678363838
0.09239586923078169
0.06458918047978529
-0.01879069041640237
-0.3115747136339015
-0.1894011494979662
-0.2440273560228188
0.03250421532575039
-0.2036776891967813
-0.5281679191619877
0.04869353351092485
-0.01469134871063106
-0.1799048095701888
-0.447675972962944
-0.777139992468496
0.4627687942560881
0.1071953927635396
-0.6707205830843352
-0.5018238509126176
0.06166331058417975
0.1499082656911958
-0.3176160701322542
-0.3478192518936144
-0.07967331315464438
-0.5412099404528278
-0.4066389833393174
-0.3387853089680018
-0.6663423301463587
-1.121584498277318
0.02314544454645719
-0.2769581467064127
-0.06152996350212582
-0.4238429749022615
-0.05038473967357489
-0.2027589360060121
0.2941468118532837
-0.2991786939994855
-0.02257646984664915
-0.708419144223072
0.018664786191719
0.02870539880698434
-0.7960372098822877
-0.1050591591847486
-0.3115612937563704
-0.9734863968622615
-0.3925698342346554
-0.6931399708186695
0.3989887278753031
-0.03368823497528146
-0.4417907200380047
-0.04320530003542634
0.1348274090320282
-0.2511813963499904
0.4626966781800915
0.02448251519263111
0.09859715692819991
0.02517075564113308
-0.9703063109765151
-0.02880464800338916
-0.4714578672515235
-0.03935878632984729
-0.003284690226081004
0.008113402417623384
-0.1033928267508586
0.01625193618683736
-0.4612803756592427
-0.7641655033612881
-1.002259058976065
-0.06319683524747548
0.3954995230401467
-0.09900822450689502
0.4222153409744653
-0.09781138973235268
-0.9584214530896923
-0.7774185148319874
-0.649007395178134
0.005703310686823676
0.02757118622436049
0.01239563103870675
-0.01188478521474895
0.02258106026990912
0.1274074761674713
0.01675568727241504
-0.2694170198672281
-0.4625405715548926
-0.3393763461241121
-0.2456539805248703
-0.2052972145152351
-0.2630134067622759
-0.02980211107930018
-0.3908264173554007
-0.1266899829130739
0.1423639366784469
0.0154956738298092
-0.9929167125926259
-0.2752110441027328
-0.1086659875528218
-0.4400588931777627
-0.2328474824446213
-0.4118083302004995
-0.4433604514839532
-0.5299183889180099
-0.01724412048704536
-0.7195253904014942
0.4226704083400939
-0.1279705235903077
-0.3836816838531672
-0.02791295218935866
-0.1648863510455028
-0.6342793592869445
-0.2793148610178259
-0.2405160107022817
0.1650111659313122
-0.1535961523837794
-0.5474833452664756
-0.2439027696711595
-0.3370837010605102
-0.3509430401220637
-0.5880016898492775
-0.1442376555981777
-0.4563927842752314
-0.3959334366660725
0.07298652838968597
-0.5471006942826787
9.287059716873916e-05
-0.8350227251378356
-0.6016189104778629
0.05576544553808848
-1.042409172343878
0.3004883210032346
-0.6627271515220532
-0.5606573237592649
-0.404880528878121
-0.5326292381647968
-0.9195855511685084
-0.2665906885212404
-0.2852533154612222
-0.0575174517969274
-0.1271450244581855
0.2745103494836647
0.02615943475070274
-0.1539993080350063
-0.1616608412727132
-0.2636199480541943
-0.5503723231121604
-0.2407765980555835
-0.2051599748945336
-0.8286664215992461
-0.3880164862295208
-1.003538450824312
-0.8934699405773822
0.08560007927354105
-0.1934076536092382
1.15172880534254
-0.240450798592292
-0.007604821608822527
-0.3570787863304504
-1.315153207574034
-0.1472213057551804
-0.2150994568667041
-0.2318599846824697
-0.3748032208308421
-0.8421696954720697
-0.5500636128324029
-0.3968121483255323
-0.834595882075601
-0.6420748628826348
-0.4005588602602128
-0.3976329147237604
-0.1146100992684102
-0.02088133080668991
-1.445579064154423
-0.4902362947228001
-0.2623843526481441
-0.00889682258503593
0.006040356002598444
0.02734094580414835
-0.471308638503191
-1.081405907193698
0.3083526868911449
-1.384004999461169
-0.2537008529181445
-0.7555792982743585
-0.9289112281914566
-0.53609528610593
-0.1161696628659306
-0.08601295882662799
-0.1557675074784731
-0.5314580619449846
-1.031846857113271
-1.715592722472068
-1.111652058200216
-0.7718715809666651
-0.6388995320888756
-0.4361699674512359
-0.6245159609524826
-0.463656808083992
-0.4775348521247624
-0.3423893660380348
-0.7518801058034313
0.2594805484744785
-0.1542307576273555
-0.33518974370916
-0.5014832061327831
-0.2429837119584795
-0.2808369782194196
-0.2812321086693442
-0.1389291369002837
0.1137490367217271
-0.2043629707465326
-0.8240466758812194
-0.5984027043810161
-0.3394171633557358
-0.7227788203205101
-0.7239699641827101
-0.03324571993650533
-1.037245725844459
-0.0173570307192621
-1.288131902372716
0.2600870432877709
-0.8982908320137362
-0.1700262316829561
0.5239514463107841
-0.611314666840401
0.07919085093227816
-0.6243652410140287
-0.2181135588186265
-1.189945382722035
-1.854120309593374
-1.274472102369897
-0.5277714463307316
-0.5368061008171878
-0.6873416598280176
-0.06967395458678664
-0.4363981133823042
-0.1913586194672985
-0.3594512280194903
-0.2424615895174801
-0.06335083949870446
-0.368861431047571
-0.2211432631096151
-0.8786110950624302
-0.4165235727811725
-0.5202803221570861
-0.4993372523403017
-1.275396720152491
-0.2591485185556
-0.5669893201079679
-0.3848755723958312
-0.2523077517952195
-1.250460123055207
-0.4119354519319459
-0.7285785710277282
-0.607986846827421
-1.305293389851584
-0.4387625904062822
-0.2397636702922232
-0.8823904736349365
0.6938405358262222
-0.7333668167292609
-0.6920585433568175
-0.2374526143086081
-0.7708145718280933
-0.8845012351486681
-0.532015981931783
-0.03495077878268223
-1.004657341896977
-0.7725566112381089
-0.333549965872132
-0.3462990259915458
-0.6545908139925903
-0.8017543122946336
-1.22097927564636
-0.3337962318180088
-0.9956387280976104
-0.9273565874905385
-0.1169406414961212
0.00245436393288821
0.440165601116018
-0.5711330716731384
-0.8723928715872845
-0.3877732683362768
-0.1852251625251999
-0.7024479892412294
-0.2219609632434812
-0.4100733512614478
-0.5245849144135124
0.1821079070720218
-0.223173473374641
-1.189231619217446
-0.2546634076161066
-0.1984765566039615
-0.6875774166978065
-0.1953613790044032
-0.5290889622159962
0.05687698208577127
-0.4049107849389598
-0.7003131097416748
-0.7787041915676841
-0.9539905947877777
0.1110440937586344
-0.4000432101063977
1.498099971649233
-0.2941064722702359
-0.1838105693873001
-0.5288275839202174
-0.3076363521624537
-0.4299250723363394
-1.076340717698037
-0.8631076606812298
-0.3019228720329999
-0.2057745046963907
-0.422780602423671
-0.7664535782491918
-0.6123864389712977
-0.3925230422933949
-0.1166928397540666
-0.5390120275894354
1.92918680172568
0.07576909656915234
-0.07033310000172459
-0.3123994202484408
-0.06635152211806566
-0.2836239098465868
0.01740705866767209
-0.06491524978466089
0.06357701824235718
-0.5453602520029587
-0.2121638644847862
-1.091250040849848
-2.012354105436537
-0.8942229105677184
0.1337264415585755
-1.605604390561631
-0.2362696240317271
-0.07743095420909046
-0.4406287156861719
-0.2111364507454427
-0.1272353450974585
0.02271048651399275
-0.2920007252839274
-0.3747621844872797
-0.336619175462862
-0.6479025745528023
-0.3450592805325676
-0.05272379159861728
-0.6281856195051291
-0.4344539617665575
-0.4514970706974751
-1.101079751113206
-1.689608916414801
-0.5256591150791927
-0.7975238498541668
-0.4709191578829184
-0.6007133049616686
-0.7870384042026081
-0.9088641532642306
0.05454884856738441
-0.3532928107854049
0.05302349245755972
-0.0163954232587295
-1.259576959231953
-0.8582109484120262
-1.065171566998365
-0.3650777780819831
-0.5283972336518843
-0.3719338495129682
-0.5216629819747305
-0.2762521293749943
-0.4901035936181138
-0.472174274284847
-0.3041508985283117
-0.7101350379659618
0.1108487299156923
0.0358322990696737
-0.4882293041419461
-0.8783513651904827
-1.527858111143791
-0.4449250759593634
-0.1744554451143166
-0.8854100549297796
0.003490369052550484
-0.06001051808354708
-0.4159687471322775
-0.4398424411143953
0.04368988141441742
0.1188047141995595
-0.01263911287594558
-0.2482441725530116
-0.7615047705588784
-0.1984952296125432
-0.5855043065197179
0.2089219356596519
-0.5455024722192094
-0.4353329592466065
-0.02941670339843919
-0.01395872644799176
-0.3539417541912112
-0.7050680867469831
-0.6131980783485995
-0.4959565874170905
-0.9759275612580935
0.09320207789751624
-0.1654303933094917
-0.3440000560409073
-0.3753467841112486
-0.4028156296313702
-0.0664182095673973
-0.437484186384876
-0.2678621544255747
-0.3063655271718088
-0.7354877923000218
-0.5593049284967301
-0.6446821269583686
0.07956266028354034
-1.188851025533461
-0.6903088127682341
-0.7860599087716232
-0.02096880085006072
-0.7928695332857302
-0.6052276193789479
-0.2792710486366219
-0.4496682674649538
0.0579277123647997
-0.6742283252978055
-0.9537226942628207
-0.7865962306689018
-0.6508386299613722
-0.4809303253180093
-0.02151437508608602
-0.5845584648831669
0.4525388536889249
-0.1508437261812754
-0.8604051904216925
-0.09400131841718075
0.1003327571179731
-0.6098303945036214
-1.151363129269091
0.1012488608122477
0.01892058160501938
-0.2326702372329079
-0.4584774714406705
-1.691749205789659
-0.8851902980809844
-0.1843317731217506
-1.28636219682663
-0.6510056154845745
-0.3462789654736743
-1.106542861232615
-0.06006444005732735
-0.2696051042375688
-0.2027807501504948
-0.438814729914801
-0.3703257576724287
-0.7167564570662974
-0.4797369883630214
-0.4337113488905639
-0.5342202221204102
0.002574070536436766
-0.7901392882092222
-0.5239380357537951
-0.7145465111434617
-0.7198760088616553
-0.6704524820014478
-0.4232318001412395
-0.525161135674259
-1.486788587413151
-0.3924499939185487
-0.6403869807687137
-0.07759335438426117
-0.9323706376954025
-0.7713684437669379
-0.7597437893741309
-0.1959002449506382
-0.4689140494794201
-0.6912733063267755
-1.384993115814295
-0.1227615076826609
-0.558843171160517
-0.4813237616299501
-0.3146246708747764
-1.153621164212153
-0.5744153506699926
0.4300630160158515
0.2499042978279239
-0.4083144112923753
-0.7662763881425534
-0.6504799431438145
-0.8317299828776498
-1.146297787477817
-0.9166307433220255
-0.5653679096869796
-0.2764697772555796
-1.170846599720313
-0.3392028404347995
-0.4238941962580793
-1.219039598006493
-0.3763008727298699
0.3234022434069569
0.03965370074331951
-0.1386719106870724
0.07156548486895097
-0.3065877123986518
-1.422408967633102
-1.247863976797741
-1.883730399505683
-0.3587658356037378
-1.271515061885995
-0.0852735076018889
-0.4637794362543469
0.05666526663966315
-0.5827354051586205
-0.7777496693641547
-0.1026622132800931
-0.5661900465285864
-0.5378020130701597
-0.8108534533254224
-1.319597481696255
-0.8710687280816272
-0.0894781476035255
-0.7932045702790091
-1.89308334074452
0.2079667295869494
-0.7071870221927213
-0.2276702185969784
0.0185250809420316
0.02934529141021645
-0.143918904088756
0.001632764029462382
-0.8100185334398887
-0.05578996793536259
-2.778229620815461
-0.7242271447122035
0.1550978938027969
-0.6197427702722658
-0.9789407326286372
-0.1786110941652911
-0.8829823606191401
-0.1323576911366608
-0.4601616223496153
-0.4775743780999813
-0.8251643899732494
-0.9947085369253436
-0.4591251946466987
-0.6303736422042331
-0.2231684253074536
-2.161775830503813
0.4947803011788532
-0.4011380878035847
-0.5470374902560676
-0.8014929987876059
-0.9733671936078346
-0.5350645915531475
0.02748844296718024
-0.02907980659633566
-1.272166895448164
-0.3387109613396906
-0.05760589102020974
-0.03290493048838089
0.04327528314773268
-0.07316799425765917
-0.5474902851759244
-0.1177215968364809
0.01664867760255892
0.01014735626894039
0.04221959444651147
-0.3523673474199054
-0.144270328614672
0.02997978610631959
0.07181992139503335
-0.5131535329017136
-0.02102938902099062
-0.1801086197406568
-1.427777040731362
-0.7630126210118443
-0.3638065189282984
-0.00134607456010313
0.1340467382525048
-0.4351909137472611
-0.05831073483242356
0.0291136404115692
-0.05440609246333071
0.002043407204388013
0.02496003706152703
0.02411633499516301
-0.1183794846982643
-0.510322893474949
0.06142231774659297
0.0929945581367549
-0.221380486523981
-0.3926162968263643
0.4100548289260567
-0.0906989295533238
0.02922762652607257
-0.3291515773170154
-0.6580883906341144
-0.2780060241282362
-1.089512269837339
-0.5443693904253257
-0.8169897760084996
-1.172100451506112
-0.02012434047010066
-0.43690980754368
-0.1463693034514487
-0.3357680103243093
-0.9458489730010431
-0.253810043893546
-0.1643398199644557
0.0402751798524591
-0.3170466783073165
-1.211929934525374
-1.106829165128184
-0.4063309145085293
-0.2961998233791924
-0.008734228668198339
-0.7621083511798417
0.09827624287518338
-0.7172603997062578
-1.632600548863174
-0.8607405395614111
-1.020208374920444
-0.1034427085158503
-0.2855422154304799
-0.582200676044723
-0.2526724786132317
-0.4988958312000013
-0.1543171137928276
-1.938655959998697
-0.7968980162443061
0.0494355464407084
-0.3199489610039845
-0.82483516520473
-0.681737691825553
-0.39162246940112
-1.579032181130876
-0.04695695992024708
0.001551512876472402
0.2096019154198195
-0.01980646024362325
-0.01409572940485388
-0.128540540072978
-0.2810451987715348
0.05418209106169914
-0.8640448857770477
-0.3023211314618053
-0.2044909171946096
0.1236198304881649
-1.003515061310255
-0.7481357883236625
-0.2868964002997929
0.2011914190256301
-0.4098254276004833
-0.2394857333640503
-0.7581475811133533
-0.9552102219972236
-0.814745834399128
0.0198107274757497
0.07514096583443275
-0.08074579871902281
1.118035385204471
-0.007625472628527694
-0.6939948817190055
-0.0313655409475967
-0.5055887890246809
-1.209522669642267
-0.009075907171570667
-1.096270834306685
-0.4948994969713379
-1.04485337616903
0.06147457563157541
5.921072416588651e-05
-0.03204866562181589
-0.745026306715701
-0.08604396437672925
0.04045259418747676
-1.79313676596973
-0.05182331214562118
-0.6907351210542633
-1.301800906402069
-0.2535265778161599
-0.2810781180328057
-0.388194147435622
0.1214017167725224
0.07409022668102659
-0.4689595091328339
-0.3691286132166791
-0.7357211897009517
-0.477685030853189
-0.2267053922505219
-0.9906785420107141
-0.5684446105151177
-1.799905412818455
-0.5195798260339505
-0.5904730898350742
-0.9247266450179903
-0.6577340151106505
-0.4423232870099696
0.06647993344618917
-1.876697871828059
0.1220699914494339
-0.976346015393349
0.116137020084757
0.04523085096970039
-0.04229089065634878
0.219114817315966
-1.222957041551793
0.0340011470304188
-0.1347836540873641
-0.9207153485132081
0.01882705838121413
-1.031767354483135
0.1418235659886817
-0.9197528697587145
0.3939060603818428
-0.09162286111772651
0.05833331252735624
-0.5387672144973515
0.1552694498218102
-1.347074794882906
0.2061312028602552
-0.1886559638095948
-0.01714276338301832
0.2760317450225023
0.001378160353718481
-0.2491966946469785
-0.3914475662621448
-0.5668903894551892
-0.2106767360824691
-0.4607391534824824
-0.05078331217523086
-0.5595509751523597
-0.9596158646825161
-0.0003145093000934433
-0.8852987126550489
-1.029196803697426
-0.2000819132033251
0.2059105207745745
-0.4893864027486145
-1.4821208938407
-1.562568027424533
-1.566683270758145
0.1030703820463531
-0.006518741206322234
0.06089188612798595
0.1592460408845923
0.1191754175236194
-0.4290417753610106
0.03663945289096503
-0.3034061804893911
-0.134414654147996
0.111551705134414
-0.2813229143147495
0.1869232734707456
-1.960451955488118
-1.052619345536373
0.01187293201027696
-0.08188360404050643
-0.1256877445186455
-0.2640119813070559
-0.03229920301960078
-0.09921641533922658
-2.477105095512663
-0.8419734896973284
-0.860696826893975
-0.3291140039203164
2.243066209890686
-0.2451918267755502
-1.165997491992862
-0.2551865788922765
-0.03692348964784983
0.03432094941856102
0.01362652567764992
1.260666160815047
-0.1626660615397025
0.1637778190573466
-0.3984231518649
-0.254241438962832
-0.4405967893804237
0.1228351289771907
-1.443649673761038
0.01785262890557537
-0.4027801089719633
0.02664843171404983
0.1614614810229496
-0.08135943004355375
-1.660426518461052
-0.1780834586985394
-0.6918051277824856
-0.9865525874106553
-2.69085251622587
-0.2574605151612587
-0.530775996264475
-1.402239265939048
-0.06622272174310319
-0.1397546538096469
-0.06365970433459674
0.07527518425612197
-0.03196598511070536
-0.6771509925085269
-0.2199962823891214
-0.5201009565729338
-0.4804900059191497
-1.199310266165932
-1.398819400368746
-1.390586228716564
-1.793015354992303
-0.8348398044469795
-0.3524239252169835
0.7193799674909147
-0.1705219379287366
0.3558786077593717
-0.401253179389764
-0.7048357393308999
-0.2503619165003308
-0.8701515136360628
-1.176937669010783
-0.0743259554381789
-0.8559916787851173
-0.1718573762733923
0.03950938325053676
-0.8598296143120527
-0.9902474037396963
-0.08839614643127448
-0.7779176529562091
-0.447533173428895
-0.7958340386860192
-1.472517450201076
-0.7239582257412942
0.4043198750703278
-0.5064305192412382
-0.6055743698535503
-0.1409154905672239
0.2804552974274593
-0.3945998070516002
-0.2083882643367394
-0.1844878053255186
-0.04982024855939175
-0.2154459857415185
-0.9160421089345491
-0.3902745274878067
-0.3997548121817395
-0.3873513539300277
-1.272032388500301
-0.7181695933276182
-0.1320675346495571
-0.3508764303612304
-0.9787677806772861
-0.2876869542699624
-0.8943324338166965
0.01027589691155549
-0.8109039530202868
-0.4593230903962818
-0.9043553358913825
-0.05242093670176036
-0.1853125942968183
-1.603730976845299
-0.09191137751952447
-0.1156404758849768
-0.2537974090487462
0.1371061385435795
-0.06621972093661878
-0.1566066002122189
-0.8652370667616961
0.03787879506397524
-1.648458579353459
-0.1757811765737145
-0.30340145764152
-0.1335593930781629
-0.2234446663303551
0.04547759702228684
-0.7018753800451549
0.1496480668472513
0.3661599170062418
-0.006843210044728697
-1.302045947742089
-1.466084953385762
0.03616092373006956
-0.4005214833981905
-0.4566339819454795
-0.1001249601375153
0.130720689500652
-1.508680255406452
0.04070601893252661
-0.02090081981555924
0.07674678547137551
-0.1072556778413108
0.06516689795592563
1.303499033063576
-0.6809628748310625
-0.1257791583262164
-0.8698149794311844
-0.5219128632472497
0.4583185786197737
-0.01358892726645519
-0.8408696238847939
-0.4133663535663311
-1.404562728812569
-0.5869994661918234
-0.4848427060913172
-0.007156513920448846
0.09931606196732198
-0.6941563686768916
0.2917907897102587
-0.8694495310110609
-0.3370026296557693
-0.5518743289794661
-0.6340647264334643
-0.4994980031411448
-0.3260983419930786
0.1048578340436227
0.03466967051168243
0.6761039675032748
0.3175670373004792
-0.05651113540691721
-0.6271497027882339
0.1147276650380607
0.1995125664247449
0.1295218731429212
-1.000230458571536
-0.5686154244970247
0.003713949261366882
-0.1119761936047864
-0.1100053653516527
-1.615071361521687
-0.2103723557184552
-0.1595492245275186
0.1096869428583997
0.01184514543299028
-0.01044948978301856
-0.1711266012556101
0.06358393487553035
-1.711016304583462
0.06492960573718423
-1.132327442993642
-0.08945441754858081
0.03070086390283821
0.2275461700520341
-0.6638576534003663
-0.2091935167952687
-0.5397811569109651
-0.5792923563191146
-1.982327542718989
0.02271996801166329
-0.2341628898151851
-0.007425958980653336
0.002664882157502373
0.3397346394321334
-0.9136059569596218
-0.6479084560811451
-0.309060865669211
0.02683401063883862
-0.1390172436984311
0.02621837363875334
-0.2837023532078416
-0.0358401137321531
0.03383569237148346
-0.3529503113468863
-0.2790868169335206
-0.2020530613358821
0.0958236182297228
0.1688622287772653
-0.02947611414434775
-0.1853285011731672
0.3288962201803525
-0.7795538914050193
-0.05874349627405912
0.02628827087483007
-0.07918553175376521
-0.3046673595715415
0.1411302165450062
-0.2979758908526707
-0.5189111036170021
-0.3956386717101296
-0.1622192979433225
-0.07014638395505925
0.2598969244683276
-0.9213427513877879
-1.756031973154254
-0.5794208088862727
-0.0368024868588614
-1.908153336050818
-0.918178758587004
-0.9661083273112815
-0.07528532826376634
0.4754237318728456
0.001412004061745663
-0.8237217208044869
-0.835740068740634
-0.1418782554681202
-0.6566316860713181
0.196734015264319
-0.640424705112279
-0.122870603363681
-1.48102082721252
-2.191852843300012
-0.6108768606732663
-0.4605540042905429
0.0463400365591719
0.07015305447018626
-0.006059617738684324
-0.3561815627030545
-0.8151843032511376
-0.463633096912264
1.679604560442743
-0.3724857442467402
-0.1516720012928216
-0.4902189975375275
-0.9280897928444389
0.2801255089873185
-1.126771608072307
-0.6218490655169341
-1.135379171004821
-0.09288871174944159
-0.4192359816086502
0.1142455394176439
0.1541237313594746
-0.6683166792088786