/*--------------------------------*- C++ -*----------------------------------*\
| =========                 |                                                 |
| \\      /  F ield         | OpenFOAM: The Open Source CFD Toolbox           |
|  \\    /   O peration     | Version:  v1906                                 |
|   \\  /    A nd           | Web:      www.OpenFOAM.com                      |
|    \\/     M anipulation  |                                                 |
\*---------------------------------------------------------------------------*/
FoamFile
{
    version     2.0;
    format      ascii;
    class       volVectorField;
    location    "1.2";
    object      U;
}
// * * * * * * * * * * * * * * * * * * * * * * * * * * * * * * * * * * * * * //

dimensions      [0 1 -1 0 0 0 0];


internalField   nonuniform List<vector> 
19631
(
(4.99451805463554 0.01074439455390816 -0.004804634144208548)
(4.995956233878197 0.1121479435815468 0.2345036423136637)
(4.75007545521278 -0.06236134121204819 -0.1647619282624154)
(4.076278828041108 0.0838113610144256 0.3679127012572223)
(5.004755106946881 -0.0001166519953531064 -0.0006403994764902876)
(5.090523946148823 -0.09170637193477307 -0.04035900305719527)
(5.035587099318919 -0.01229938403099713 -0.008828959550331235)
(4.879973310350633 -0.04498270145621322 -0.07783095122682224)
(5.004499120751628 0.02932110913702029 -0.01141373434134836)
(5.027002066500773 -0.03822576255419378 0.02412235086394318)
(4.971633406154623 -0.03047967473134077 -0.07456651866798088)
(5.047921505127457 0.01021800167261726 0.0248962808890524)
(2.353035219538522 -0.3614886120827858 -0.1026535043796131)
(5.029820096970752 -0.08113803978018932 -0.03430789521799006)
(5.022019602974868 -0.02058640105862918 -0.009112548098031482)
(5.016922562997716 0.03446425712807247 -0.02106582677187596)
(5.055691466681957 -0.03974785063831114 -0.09184786570273583)
(5.021352301209252 -0.006783360858945546 -0.002954323778357847)
(4.989459036730881 -0.001525316007298203 0.003551794061103601)
(4.999581471342074 0.2575214334579627 0.1910314245253958)
(5.005127704305834 -0.004163948476236629 0.005588085745393712)
(5.03381205092767 0.007429470223296903 -0.02253211246225011)
(5.003989670347586 -0.03269132602819633 -0.03994884522029108)
(4.956998431482615 -0.2612871991043688 0.00389133547301229)
(5.027283663169111 -0.02978530306160525 -0.01314366137404498)
(5.021807061200929 -0.01586840335303845 -0.003720422590709858)
(5.049568604629621 -0.01647965867087553 0.02942060477855157)
(4.902633435709246 0.02223301721644532 0.05958735908104356)
(3.817089875250699 0.06001881950032308 0.1487668624820829)
(5.049614478228738 -0.03174892926207595 0.003204139438331326)
(5.003226185620636 -0.002322071816736804 0.001943857992114011)
(5.040705702969552 -0.1747771964941799 0.1955540971219421)
(3.222297055724864 -2.325887888523354 -1.564293409909884)
(5.029420906867109 -0.01914627276748723 -0.01468216000505934)
(5.04414062006193 -0.2735535424957743 0.122586074450197)
(5.030364375345673 -0.01092302171850648 0.0002628200445297887)
(5.065705246349731 -0.04185998206533138 0.03456249389572925)
(5.002768085534359 -0.008345334760568921 0.002255793587364601)
(5.042848771330644 -0.1608862507591806 0.2038609230116784)
(5.059741459856107 0.04096356578252249 -0.1292697594306299)
(5.034382392863817 -0.04346872420703436 -0.02767326039793748)
(4.584181283201347 -0.2019199159466378 -0.1991256607605094)
(5.072178142838685 -0.06113713628712358 -0.006559202784755456)
(4.239279408268075 -0.08270740970560841 -0.1422886691112343)
(4.97615886724126 -0.05212476606661326 0.02585052750628784)
(3.908220732254333 0.3028652881381714 -0.1608079232396494)
(4.718368655553878 -0.05796172456785501 -0.4801989171450092)
(4.919107057594135 0.02211112437028582 -0.4893151717036233)
(5.06276110156336 -0.05475955737258734 -0.009166761135183105)
(5.010883558198403 0.02497091607290037 0.09255182181114219)
(4.975287262800039 -0.005695728117702248 -0.008248539795307517)
(5.052452417642439 -0.003818459707894733 0.003193513047056079)
(4.54866242371059 0.2319372892690738 -0.08763848504760707)
(5.081088331307889 -0.05887590259703246 -0.006022681336847233)
(4.978092058876901 -0.0294476459899012 0.07115258060379694)
(5.029594380362303 0.08453234674135168 -0.08342452264280491)
(5.123657039762705 -0.1460349106438039 0.06082582036448643)
(5.030917746429291 -0.009654540654973389 0.012647910061073)
(5.060599718407257 -0.04617220757068538 -0.06350316851918728)
(4.214372924852263 0.3028029844151139 0.03672076737867309)
(4.381836401262962 0.4474633200433017 0.2983029122177267)
(5.106841658132623 -0.1513533262287107 0.2133948623211135)
(4.936249031352141 -0.239754243949431 0.04123778643551103)
(5.097677281160307 -0.1046081217357763 0.01356206863412538)
(4.338524504494313 -0.7531293410809203 -0.481377871498411)
(5.010460253058613 -0.1133896687848784 -0.5972789610415012)
(5.03313602575138 -0.02147580056385937 -0.01393578756430716)
(4.990938996840518 -0.009082339615073662 0.02159811770418422)
(3.856092198393533 -0.1505028505497969 0.1219385431548409)
(4.987818927037423 0.01788054483898351 0.05924945658268455)
(3.983858072505475 0.1077455916090016 -0.06236470688609957)
(5.082950180761156 -0.07561059506467457 -0.1048770980161327)
(5.067512650335356 -0.05938486250249694 0.01223966964244012)
(4.898691100056653 -0.269092719770741 -0.804912567421264)
(5.065548133330914 -0.094408053237399 -0.1094816659930808)
(3.9992821679145 -0.1453163114320126 -0.09059751754895232)
(5.003974458390045 -0.0319261709852043 -0.04259026984055011)
(4.804756281872423 -0.4326331949453394 0.04529456884792768)
(2.730921246922616 -0.2671533948307483 0.04807304860020484)
(5.038003382435391 0.0008768030968834321 -0.0004136037150518468)
(2.69400198147074 -0.2439693998568326 -0.04576712552640159)
(4.836956025595752 1.23418257845509 -0.4439991875222413)
(4.389628448607201 -0.03832219239628539 -0.1999883153179375)
(3.616088420175415 0.4078237111622688 -0.3392848818211278)
(5.05462498790342 -0.09609588100158857 -0.04834247585267146)
(5.098979362489658 -0.1112729182345601 -0.0686353482322638)
(5.123320835327027 -0.04601773395200542 -0.0223092307751403)
(4.109877823933417 0.5535485987319831 -0.156717298153193)
(4.176379447644333 0.009547068040417902 0.2856257784346314)
(4.793863418944882 -0.1964921096703531 0.1277939350962329)
(5.104963305094797 -0.07888980812383115 -0.1381566133654468)
(4.367957340887151 0.0186406336226676 -0.1119277910364832)
(5.225079081916437 -0.07785394223794896 0.09116357897891277)
(5.111217913410687 -0.08296227931409664 0.06207508675995836)
(5.004575447032874 0.002756199361372744 -0.05737263397822404)
(5.086812321708732 -0.08774336837683551 -0.07023158538420594)
(3.704649709990055 -0.6152278357306493 0.5043879191629832)
(5.030968034530698 0.03358277115631678 -0.1407440430701769)
(5.105972944580168 -0.1106050786568659 0.06428058294099843)
(5.076539456931338 -0.110818360220383 0.01407185451983342)
(5.020039280868363 -0.03000745408363606 -0.005105346756405451)
(3.192760586883358 0.1440159928537219 0.07859996689159822)
(5.031797613091878 -0.01850312556172595 0.01476655503817216)
(1.842522354759562 -0.1197387381821973 -0.0313055736565447)
(4.741909527531977 -0.09520074556578868 0.01659859973841277)
(5.020728438868274 -0.08300153832281634 -0.02632377855815695)
(5.038565783043642 -0.03577641051452087 0.007663014216051027)
(4.178008361939676 0.212282900777364 -0.1056051993223091)
(5.026856166487924 -0.03345598285965792 0.01303121354811053)
(4.975615303843677 0.03017386537305288 0.003989290390611551)
(5.087464619266507 -0.0007118326024553162 0.03882466288463426)
(4.288163907218014 0.06812580101389323 0.1896341815276579)
(5.01495732823466 -0.03361050528442122 0.01335974880668661)
(2.873033217930686 -0.09064212142737917 0.05208112876710971)
(3.469494421712139 0.1042192278834824 -0.1435224828008444)
(4.896348837321375 0.02780652053809807 -0.3129779757335254)
(4.783148473519336 0.05195897035371244 0.09483487901206698)
(5.066020428206339 -0.05520582438453591 -0.08112169265316026)
(2.998376507100946 -0.1173035174958466 0.1796025552295213)
(5.003910265763883 -0.0005653947789714129 0.001237819646345878)
(5.002023221240625 -0.09748050444966368 0.1013672035441612)
(5.018635180384252 -0.07148270742326399 -0.03277592909373989)
(5.026042250908593 -0.01444808369120049 -0.008132884834867472)
(4.987884273889038 -0.02293707052560948 -0.01856995920218859)
(5.962344472313692 -0.3102617360743721 -0.3140966989639815)
(5.01382496843904 -0.01952447098217066 -0.0169172605149199)
(4.643008426826897 -0.02806144004361469 0.1083645564055371)
(5.028268803705374 -0.01600402900204309 -0.01701739133362851)
(5.018278198974238 -0.02294357990648363 -0.006805054527281152)
(5.036323172020874 -0.008917527335886112 0.005111316263319503)
(5.054910069590123 -0.1585529182621636 0.1258078459584672)
(4.487208996918937 0.04107011755726866 -0.09506083460028428)
(3.197633721779136 -0.4852280661672276 -0.3737531640186197)
(3.643037961933767 0.2749305497930929 0.3151032808613875)
(5.032494290084954 -0.02013791965606174 -0.01489565099552469)
(5.044846075725101 -0.02019042369314883 0.0169486626607959)
(5.063193184069926 -0.05506842161299847 -0.02667798326628204)
(4.720077342386573 0.03728106425233785 0.04685445383758047)
(5.006269427196599 -0.187657634135141 -0.0113682454770405)
(5.052030012645435 -0.008450924998134384 -0.06557995972633945)
(4.905982441625982 -0.02479051149589121 0.03860486701977622)
(6.206475664272984 0.3462293820525045 -0.1902961660740685)
(5.026209861514203 0.04146586433012082 -0.3198166027650429)
(5.088716988773038 -0.09034004951402301 -0.05452085546525905)
(5.057744206864041 -0.0757032738402227 0.04634739401077173)
(5.061911777934005 -0.006212483636278444 -0.04320230465804315)
(5.045296184136172 -0.02358167079742892 -0.05369943072618891)
(5.015832297739099 -0.03074535374609387 -0.008173778241627393)
(4.851574245952031 0.4356720863744499 -1.063781649678825)
(4.680910061195265 -0.1309167008729075 0.1978849334715495)
(5.009975309408511 0.0008105195327489372 -0.00961889531002473)
(5.061569164685543 0.01425891064592024 0.005822021426559256)
(5.040496453827386 -0.02012944868088552 0.01675910802579841)
(5.047870709681985 -0.01176712200922015 -0.008038566880975746)
(5.011116465496023 -0.002769651002502368 -0.003978708962287104)
(5.029742598952737 -0.007934797156284996 -0.004669909164625952)
(3.283791466587225 -0.1164457276152952 -1.399803485056528)
(5.07064088044767 -0.100473871729791 -0.06320434529602929)
(5.090318154947356 -0.05427336361028283 -0.0004590145926124931)
(5.032828846282115 -0.04253679054913362 -0.008257491733439792)
(5.010526959918278 0.003404388280367716 -0.01145246956980395)
(5.006311647769464 0.03374210408621173 -0.02901863842533158)
(4.419318922732497 -0.2598212687921065 -0.07089561059266455)
(5.008290501591135 -0.004220185448349777 -0.06532386505630298)
(5.032609005401094 -0.009851839945900302 -0.004349297468148957)
(5.026378755235817 -0.01452105379056428 -0.008720061143191085)
(5.024543262285102 -0.006273176048426479 -0.009888311798643253)
(5.019133394145153 -0.02237673106833603 -0.007880058454457812)
(4.992170084525516 0.001026920236349444 -0.0005366027321036387)
(4.460730996776209 -0.1333729263929049 0.007280253604783925)
(5.111222072898918 0.02092186525865966 0.07067582521399157)
(4.910233226820079 0.2039853009476724 0.03640157252035888)
(5.063031701761219 -0.03667929080430073 0.01332616084446142)
(5.393713700751492 -0.006767232054197661 -0.0633687921577443)
(5.003445940168796 -0.1166654799783982 -0.02821102307640459)
(4.702469781089792 0.01994530109875688 -0.2980208547839513)
(5.036020624229313 0.005342141948809133 0.01985601079512252)
(3.637776897405937 -0.06554396094165563 -0.1679142339472872)
(5.038493615524515 -0.03095361507335423 -0.006593595853523596)
(4.753576500756795 -0.08189761389310772 -0.1156567363734687)
(5.051679223026158 -0.1290142288235114 0.07319839167667835)
(4.988885154030166 -0.01294322022102204 -0.02470576885457489)
(4.950208906241904 -0.009209723924714414 0.05283583478567157)
(5.071162267238291 -0.003739948359549296 0.007525007821797493)
(3.791099614297912 -0.4804579304945262 -0.7027726085270345)
(2.585706288280963 -0.03855035951020582 0.04326408585572504)
(4.396159033924276 0.2815467957403079 -0.11418840003517)
(4.998565618760339 0.003627622109172378 0.02136336827138979)
(4.77767588567545 -0.09952733587653033 0.2057935867517765)
(5.030977958355108 -0.02987269991452153 0.01306527912420003)
(2.914728707020049 -0.06953584392325644 0.2382252712101881)
(5.087638737755518 -0.04279789110875096 -0.04524876625812585)
(4.899065102967218 -0.04678635120577577 -0.2132070532507047)
(5.026530603353827 0.02270704800212146 -0.06488861775501284)
(3.531174142088291 0.04116276321781571 -0.05959012025973635)
(5.090516195108954 -0.1493841409389327 -0.09824943608761602)
(5.009220217563795 -0.02998602333486514 0.01565494270040428)
(4.950057323959968 -0.1270974020245802 0.1573377955139339)
(2.632745242736605 -1.494617812909969 -1.307224675566251)
(5.147775037570451 0.03351176601904296 0.7892431791979402)
(4.325709887486982 -0.06950815039314252 0.6622168767989525)
(4.975136344252433 0.07655855651854372 0.2440195536699064)
(2.00060937893998 0.6623470801392278 0.4883026058875873)
(4.17978794726541 -0.01038032587672948 0.3015825536744338)
(5.005041466923926 -0.03213725093852182 0.01506135466255556)
(5.017337807612695 0.002804817169140958 -0.01448662209597387)
(4.958110042649237 -0.0164155268160685 -0.01246453791051026)
(3.439727083996325 0.2203005710247627 0.2291593067660423)
(5.019437857300091 -0.079785882414854 -0.0250198467440015)
(5.037066653639531 -0.0433106709504665 0.09204489283032029)
(5.067976132396466 -0.05397584502097564 0.03783494718542338)
(5.003596956833783 -0.06834713676054567 -0.2472417854354833)
(5.024131691071239 -0.1279767095241236 -0.1026412771287894)
(4.998723202157707 -0.005273785651291935 -0.007234365975507961)
(5.04703992916797 -0.1185450384646304 0.00579738620775036)
(4.140410129405153 0.4843932029020165 -0.3050726035585176)
(5.039988316477788 -0.1962939924613915 -0.1661335970482543)
(4.947419744136758 -0.2445949976130721 -0.06425075664785429)
(5.010217864122793 -0.01017248696953941 -0.01093019069993146)
(4.966429972645648 -0.096040298247387 0.1577066813818239)
(5.002216080639528 0.0006577243435486698 -0.01916699160185383)
(4.837076446761831 -0.0001839064655149792 0.1505441336013698)
(5.146544455858452 -0.1879158330317024 -0.1278111655702811)
(4.863804105339976 0.3717139446954483 0.1731819576286175)
(4.946154044614464 -0.05648870794887709 0.1128968614089067)
(2.978953558157984 -0.05449527783789582 1.118309118904685)
(5.075678966996485 -0.05794735761420592 0.007959369432685982)
(5.071658605959549 -0.0413067198692564 -0.02729012051031766)
(4.736168090571141 -0.3224743357476988 -0.1035120934541641)
(4.896721257980738 -0.1090580594349711 -0.04845979778097379)
(5.012781395069 0.007456380561719597 0.1507887206101635)
(4.878541807191501 -0.2747583997245314 0.03035866108241366)
(3.277842327523561 -0.494627160441198 0.1074193731863178)
(2.33682223587729 -0.09418243277327613 -0.04425066136125035)
(4.937555490343237 0.002126292917516423 -0.01699928292760001)
(5.052719450590566 -0.08438531563764587 0.1351404598093811)
(5.105939714909288 -0.04294397014419406 0.1788599128482343)
(5.112819800502233 -0.08038367229376092 -0.006374352868609098)
(4.494067128372968 -0.08864583003426794 -0.05581568728665443)
(5.113864502784504 -0.07693323964159263 0.05969852454546611)
(4.999305066769757 0.006932960384266828 0.005774751542394553)
(5.024781142178828 -0.05426534214183834 0.05391683109995551)
(4.956614746762947 -0.02841856390481593 0.0001178349985104243)
(5.008639388305116 -0.002078363654390548 0.00308339080058208)
(3.162706317819539 0.4692679314741467 -0.1358781657204685)
(3.096164868544209 -0.03847936881050212 -0.02833557178920728)
(4.980924927690476 -0.02609675157526744 -0.04464817133499627)
(5.081274444920986 -0.06736316084932052 -0.1010522204139372)
(4.323466239181645 -0.02987492077241642 -0.07342942499131158)
(4.751857958888362 1.680918782173203 1.02467767001655)
(2.6535254761314 0.09738573619563802 -0.1603281671068996)
(2.803440539737348 0.06745340627211242 -0.04025905793997846)
(5.142436621980797 -0.03785299224999327 0.1553850136252528)
(5.005503739646084 -0.1367430205273026 0.1932882616976109)
(2.138691805549537 0.2251757276686349 0.01729764028927586)
(4.974048320316505 -0.1020381999383715 0.2465699801578862)
(5.049334783756048 -0.1857835176357685 0.1299653648347732)
(4.272372340549528 0.06235960330654244 -0.007884595766493722)
(5.02869179242164 0.01039247159570066 0.01006781541036014)
(4.21479547695832 -0.01552838330204758 -0.2324956369982849)
(4.335049739636213 0.179017223661603 -0.07549501907051008)
(5.104865587086441 -0.06293099520346029 -0.2353157077210036)
(5.091270372478117 -0.08374742157970408 0.1350834315608223)
(5.179499124352053 -0.01801711649932732 -0.009644229372948818)
(5.007476977549773 0.2243522831877539 -0.000170084940741916)
(4.207341469862036 -0.05441280647320869 -0.3335577332414595)
(4.402515730015174 0.08668377844053382 0.1926847857706)
(3.203848953717519 0.02548280574367682 0.04467227460801274)
(3.655196560728054 0.1497299849465419 0.01152067920134925)
(5.116315407717598 -0.06762668058612195 0.08138871055835281)
(4.001092519265467 -0.2310716857060629 0.2749873499529649)
(4.942143265376455 -0.003018072935043475 -0.1302143298186435)
(3.645518278200655 -0.2820117707323965 0.02312893286450474)
(4.977267530252554 -0.04202203916353293 -0.05894485119896884)
(4.9714992996576 -0.04539186685467028 0.04787958974278222)
(5.087450631964226 -0.05087543003743479 0.01660817221035968)
(4.21268600304832 0.02933280873268174 0.004975092388472512)
(4.121856186513702 -0.444094085179957 0.2088603063994678)
(5.074556380943081 -0.06070918739407725 0.1187534915025421)
(4.971967352309463 0.09850393054304434 -0.07403747453543449)
(4.62491290634353 0.09382550407797466 -0.7130785229020421)
(3.295483956619409 -0.05996463263745726 0.09217075203952249)
(5.046794517286007 -0.114335141964682 -0.005815804391838132)
(5.076932670436449 -0.09161730015545629 -0.06980681614468591)
(4.85717407910423 -0.2055906461914321 0.1091580259318715)
(5.034683949616655 -0.0439060101078022 -0.1307326480861961)
(5.008295446838685 -0.001249913646705777 -0.0167517879415273)
(5.06291698060913 -0.07824681010468899 0.05047176534105288)
(5.049782811009855 -0.1098606922082597 -0.09562809724518334)
(5.042149808662962 -0.06548140893984791 -0.06516710469814394)
(4.942267682437672 0.05283751973384642 -0.2872270454328554)
(4.034733248227642 0.6633485087805159 0.2462434614001164)
(5.008802135306833 0.110521953839354 0.0833849142503135)
(5.032755770934958 -0.02399557016281463 0.0008014372935122335)
(5.006636232885041 -9.636982686904268e-05 -0.005689056765836561)
(5.14922016122228 -0.04546500244779234 0.5858646355280055)
(4.965216465564709 -0.08548206660830279 0.131614471926407)
(4.457779572823044 -0.1594158374126645 -0.2749448903888235)
(4.714694577550035 -0.1106078629681042 0.2348679804420175)
(3.398237312530656 -0.2702553523895837 -0.03971715527899393)
(4.480527472270892 -0.1927972751934556 -0.033686189860892)
(4.933295947443069 0.3797038351913699 0.1173611497089614)
(4.925731016045905 -0.08234012548424889 0.01818867564673608)
(4.910008285988478 -0.1774627894204976 -0.1155902970419253)
(4.754219509210385 -0.1456022479498547 -0.1447893804232574)
(5.047099664750191 -0.02262951077315759 0.05948845229427024)
(2.494224773024228 0.2281849101015093 0.03895518708018583)
(4.995493238618347 0.004645963173882713 -0.006018599394594799)
(4.971267525076166 0.006657668078222032 -0.008019768393610852)
(5.006981811712119 -0.009515340330186818 -0.02688060429903605)
(4.975766123081672 0.003913061523667346 -0.01689441579054226)
(2.843873796817097 0.07692743457682363 -0.004979433616977899)
(4.923541244088535 -0.1917037768982632 0.1812162304204536)
(5.077082555133211 -0.05111450634878952 0.01360432978053242)
(5.039476507701178 -0.01223673166781447 0.01045025015898579)
(4.983590727566479 -0.05242846358404282 0.1121637542272584)
(4.981729282142868 -0.006578142963007759 -0.01246410003760647)
(4.983516859739719 -0.006754382712100505 -0.005457122747592281)
(4.041575534886793 0.0159135036051232 -0.1983343557738408)
(4.999553208736916 -0.002003547293726859 0.007557267846560728)
(5.066056378430344 0.06267721734777734 -0.1847539255180516)
(1.549110636394412 -0.1141096654105863 0.00707997236257576)
(5.086146574894266 -0.007653338698627369 -0.1726998820143459)
(4.913998219776512 0.04158262948853356 0.03374631516443791)
(4.081085543370033 0.1141640360855969 -0.1128668100574374)
(3.925285805487007 -0.1066930967439393 -0.1060730202012629)
(5.043621313016257 -0.1096031287263028 -0.07168681009157611)
(4.467953102316784 -0.2347906636082259 -0.09378482573971478)
(5.0984271905159 -0.1211126750574135 -0.01130583673519875)
(4.96724100132908 0.04381492743731676 -0.08819737009888376)
(4.85691667245186 0.1715943789258725 0.2055034340077698)
(5.046782209949543 -0.01692655524779722 -0.05932981198042834)
(5.001235373919242 -0.01749940667078546 0.109853725243969)
(4.974023778899835 -0.05130167119071954 -0.03217043594416925)
(4.021410220494881 0.04137153148817255 -0.1400413201405137)
(5.01737628793991 0.0315465985447994 0.0336218184473231)
(3.499261321371829 0.3345051137394217 0.299519510577122)
(4.381622114445301 -0.1466217564841954 -0.2685271141623361)
(5.001654138672436 -0.007181500578902341 0.001023832144361454)
(5.075156631028666 -0.05948897610833869 0.02164877982201327)
(5.042092973456453 -0.004300703886515587 0.03058709580736938)
(4.968678981463945 -0.1229403437245548 -0.1319215215719012)
(5.058592510857339 -0.04336336596937357 -0.01628690393897709)
(3.045483460047489 0.07074480644364045 -6.24564338767581e-05)
(4.64762462290744 -0.1271858854311427 -0.01003141993844991)
(4.182713573459752 -0.8212951631752492 -0.4369499350469137)
(5.009582943539072 -0.01301400101497449 0.01430169504274549)
(5.023464177966152 0.05107617061434861 0.2425484213577567)
(5.07495922075463 -0.08787600421092279 0.01212061683214145)
(5.067326881127331 -0.0724873775929849 -0.05468303466930297)
(5.071655429521318 -0.0586001725540592 -0.03724826830019237)
(4.967165861117918 -0.09040996915374262 0.02038044662346796)
(3.767749804861416 0.02965813143710029 -0.1506089225921438)
(4.402919257810685 -0.03100950763051098 -0.03766555278255014)
(5.053182529142011 -0.07353318304923399 0.05826639903094234)
(4.114247812767202 -0.1818480176394856 -0.003212072625946871)
(5.05690339239794 -0.05580671849181353 0.08331273719394282)
(4.089870583148283 -0.08578761142901392 0.1009724284621615)
(5.166214774601309 -0.1643737910276366 0.1852572138053533)
(4.962538485108687 -0.09624860364150094 -0.02407853055114278)
(5.082211517300744 -0.06223054840630007 -0.01198487476069604)
(3.110067131440693 0.09509280294920829 -0.06437761345487888)
(4.940074420326253 0.1513898511709112 -0.2824593731864398)
(5.007625171302588 0.0515643453748443 -0.03920251170170307)
(4.926354910176008 0.2947679893807625 0.01509814203436746)
(5.061502647287431 -0.05715566368940285 0.0228139180513205)
(3.802496570753245 0.1844186120990428 0.9094812427184408)
(4.927527210993112 -0.01053627590757463 0.003064760528811303)
(5.054778219422904 -0.06667718199557941 0.02367891498772889)
(4.978535437876433 0.3134576305624804 -0.1630290109158146)
(5.001752137951041 -0.008230623872386428 0.00685762362496525)
(5.00447815948842 -0.00164182777261272 0.009747634130043301)
(5.070001658983473 -0.03357158017442959 -0.04043854655357564)
(5.021314640129828 0.134025761463204 0.1598336868003151)
(5.125923703141946 0.009036779792626463 -0.01408611426003483)
(4.998706446349695 0.01346313968648126 -0.004107435661141195)
(4.88283054355068 0.009821377154595299 -0.01528771127264672)
(5.030121937904659 -0.003491043928015377 0.009927679451737547)
(5.085881880981878 -0.05282750586046207 -0.012505636949795)
(5.017847515077328 -0.04076189418913851 0.05399638952662064)
(3.478665774153978 0.2788354345114502 -0.07937054901675897)
(5.023193348304429 -0.0001755703776844655 0.01451383253506465)
(4.996565251624884 -0.002129474341542006 0.01728850011813192)
(5.012719362824382 -0.01170334141693978 9.066644399706976e-05)
(4.538027113333431 -0.07543933994431214 0.07594678327895701)
(5.102095380167479 -0.4559320912833428 0.1136343784159794)
(4.978584557550946 0.0381832986161819 -0.03474337907679258)
(5.013830637480946 0.00981781393544299 -0.03636884881503095)
(5.000958798579216 -0.06037429410006769 0.02581965084744561)
(4.575481577178074 -0.1008530812202914 0.03639454891040077)
(4.74320651260898 -0.0343491567739645 0.1849390736940995)
(5.00281788848511 0.005444303768684894 -0.009230643590512275)
(2.652503621396484 -0.06021746850896498 -0.03773861856120664)
(2.999153692857541 -0.1904480644475328 -0.2098370491035153)
(5.086029310549264 -0.1077478249467723 0.1010457706217503)
(5.004027880381249 0.004561364275357017 -0.005270645347011578)
(5.010167224747855 0.0001114246042790169 -0.004886450074188135)
(4.907865243317162 -0.1735466405629738 0.1219348486139632)
(5.038232453516612 -0.1096302082646634 -0.1153092366735379)
(4.975132581736452 -0.1835375038479247 0.30449009063462)
(2.156266631987311 0.1662885461493488 -0.05747789674868884)
(4.925286357321455 -0.2855147049582828 -0.1459333611324436)
(5.063962406042617 -0.1612776215772805 0.004487375807566894)
(2.593123155084085 -0.04795770343325931 -0.2722136542988075)
(3.812230514658799 0.3119014986470362 -0.3290613047043275)
(2.052038434797481 -0.1930829535142168 -0.2936093530521102)
(4.439188645105163 0.2710307892005456 -0.08648295904288972)
(5.020690629744444 -0.2872780852147708 0.3708901532871696)
(2.799661302554003 -0.2047448953324793 -0.2565552128186391)
(5.057239178339162 -0.1377572415902354 -0.1512487816989935)
(2.042335054999064 0.2707698312003119 0.03604891008556297)
(4.771756529133811 -0.2813441094081723 0.23231666447373)
(4.998524116562018 0.1012637025410556 -0.0003772523724970321)
(5.097569452557551 -0.2142884045049749 -0.04815139883968457)
(5.109113246603505 -0.06928750125313331 -0.04799794766295299)
(5.024538804698405 -0.1735414914332958 0.01330122421534054)
(4.388574319406117 0.08135207209532984 0.1644782924791442)
(5.07388829345877 -0.03687315381256039 0.1137433241690277)
(3.858722653823539 -0.1995721575421505 0.2947685067941058)
(4.586009255272487 0.04529080017593184 0.03454037934224023)
(5.012764874358277 0.03748464122296678 -0.04320506925203667)
(5.017022169526322 -0.02038558931695494 0.02198992597276683)
(4.947781872927552 0.3186184279926674 0.06792647833469601)
(4.723000190280378 -0.01459897160948788 0.5083671141928454)
(4.918188294272438 -0.04393390933608009 -0.02255514869498276)
(5.065474633897164 -0.02124485709635937 -0.02784769531338516)
(5.083780307122809 -0.06327185337245939 0.06508712342119954)
(4.965598315914823 -0.0417722791064551 -0.008442665569681825)
(5.040881521395695 0.002865843214976099 -0.05107755266900098)
(5.042473817566234 -0.01851467102670491 0.001752457136619)
(4.950980355183431 -0.0313775430508566 0.07385380225650745)
(3.311592011297484 -0.06162622335962775 0.3214871222563264)
(3.819860042151793 -0.4527858203496267 -0.1421941512950336)
(5.013235193265388 -0.0254702595319912 -0.03150334919347313)
(5.090938312116969 0.02801838427538594 -0.1657988707920018)
(2.114705518023026 0.3659852494952407 -0.3411770008381678)
(5.001066430161924 0.001328064541034634 0.003329593204835527)
(3.205288206573609 0.2975603982954002 0.2841474767675237)
(4.06824436299225 0.04484551341360569 0.1220064141871211)
(3.485593132256775 0.04601371592719434 -0.4465890612747375)
(4.998403048695092 -0.001340930394824272 0.006370004780188002)
(5.095588358151605 -0.1408550977869925 -0.1831466311799508)
(4.82781817960013 0.445541926951264 -0.2558169887382983)
(4.928414584945449 -0.1200303650704362 0.5114908150388036)
(4.992965061940883 0.002096974797406102 0.003128721415208228)
(3.341938019950947 0.0112873655158224 0.07714642580788797)
(5.005960414367507 -0.003105727858466455 0.001318519268570834)
(3.190031698751489 0.5476480196893084 -0.5265610921069723)
(2.445905198168342 0.2037477261307932 0.1487580447034725)
(5.044848526008363 -0.05257554224992791 0.01086003014163515)
(5.066749328431589 -0.1236098417542123 0.1914904693332257)
(5.037898879480572 -0.06111623922871604 -0.1074226771361602)
(2.498355967577707 -0.04519230565461652 0.01631679886919262)
(3.23478088574903 -0.002577201524966206 -0.0547915115570859)
(4.99889079069376 0.002867733378460548 -0.0009639860340595711)
(5.001780214877336 0.001086199852794888 0.0001462954594264476)
(5.004924213789615 -0.0272066192765623 0.01374223181786473)
(5.081054988186783 -0.08120127773350866 0.01810264024430832)
(5.078046819550063 -0.07774173028747612 -0.04888126842723822)
(4.988401377733413 0.007299253794491358 0.0285532877040815)
(4.855306890131899 -0.01009110789426874 0.05426369217335884)
(5.013906846345099 0.02866116235594025 0.04711767445618231)
(4.968588259582263 -0.01946803889018142 0.1581118996137887)
(4.996859192830968 -0.02990867036255132 -0.0309348642470857)
(4.930639970062761 -0.08039800808653255 -0.1372324351615783)
(5.065862361098978 -0.04345145258343891 -0.02488367876418395)
(4.800016336832736 -0.105749717653811 -0.08694667035801412)
(4.412956141411241 -0.4773109671358626 -0.02827525946683144)
(4.953503547834732 0.01524340945359272 -0.001594236278034949)
(4.087915085883465 0.1616349718411127 0.02244326346372064)
(3.705268117521635 0.147967742967214 0.2682906030484042)
(5.072759540176005 -0.1265262981542729 -0.03570734113876306)
(4.983835726743566 -0.02111943778915971 0.01944541286577834)
(5.011867276100494 -0.0001783336072610719 -0.0008662316428899781)
(3.392074250519778 -0.07101449590068591 -0.05242812940748746)
(5.101704377145441 -0.09366499730837809 -0.03672392846453847)
(4.990074537046344 -0.02776580352799435 -0.05946926725078466)
(4.324505871385066 -0.1222324240391267 -0.02743007002456872)
(3.810027107671618 0.1441717237499515 -0.10308298388331)
(4.935490646620232 0.06720511868202736 -0.08701027750481888)