/*--------------------------------*- C++ -*----------------------------------*\
| =========                 |                                                 |
| \\      /  F ield         | OpenFOAM: The Open Source CFD Toolbox           |
|  \\    /   O peration     | Version:  v1906                                 |
|   \\  /    A nd           | Web:      www.OpenFOAM.com                      |
|    \\/     M anipulation  |                                                 |
\*---------------------------------------------------------------------------*/
FoamFile
{
    version     2.0;
    format      ascii;
    class       volVectorField;
    location    "1.9";
    object      vorticity;
}
// * * * * * * * * * * * * * * * * * * * * * * * * * * * * * * * * * * * * * //

dimensions      [0 0 -1 0 0 0 0];


internalField   nonuniform List<vector> 
19631
(
(0.0037351297800024 -0.006735118635696112 0.0004355730926634237)
(-2.817066479642715 4.228235858137214 -0.05725476945246211)
(1.947345188472265 -0.6682946672530017 -0.8915225390287491)
(-5.742863009243596 -10.24732077770015 1.517811047785453)
(0.01782737776581503 -0.02701694457758091 -0.01556788302912047)
(0.08771597756570421 -0.05087300333365658 -0.01658982459872505)
(0.0004728377636146874 0.004152683362200288 -0.020444850078757)
(-0.4472119537352744 -0.47006758943863 -5.548947943944333)
(-0.01689433303906086 -0.007432688238817639 -0.01575655639455533)
(-0.1101513905607044 0.01539779723713226 -0.01531156172126788)
(0.06559911131280002 0.131091613951177 -0.02499514925832253)
(0.01031050660315139 0.01951046876089056 -0.04103375535055961)
(5.151151997398917 12.47996395768532 5.062826215184017)
(-0.00412781844884285 -0.0100894765898377 -0.08401227286922491)
(0.003761091079197504 0.00392967614143235 -0.01621228484361678)
(-0.03344793083133871 0.02381829412939013 -0.04551191901890934)
(-0.01373563915086018 2.11457347365332 0.06358319930809964)
(0.002291095831091609 -4.955886884529422e-05 0.008488034376799247)
(-0.04690357985969676 0.006905927791705905 0.02740566638833749)
(-1.812907648831626 -2.314708375349523 -2.185407140170935)
(0.02052502024032266 -0.01947999778867454 0.01891919312744239)
(-0.4077653945734989 1.134377937261152 0.6464538554424604)
(-0.02851765241248394 0.0521056055644679 0.112305232818294)
(-0.7759304429532964 0.06711865365876483 -0.2567567002836983)
(0.05286059957249072 -0.02207697926806181 -2.712067196004343e-05)
(0.01157336141607044 0.07944303553834016 -0.04643724295764919)
(-0.005476896381963841 -0.0418668024339635 0.09984805902088957)
(0.2102851760446913 -0.6872120932678565 -7.025707169300966)
(-1.060747262372788 7.199924269447618 -9.588337108902854)
(0.2533679506895728 0.06827115028175089 -0.1810789802331206)
(0.01300491538483846 0.002111287571652279 -0.02702772453462842)
(0.3492121165449193 -0.2800056611658646 -0.4556311608557139)
(-0.7559689059718675 0.6469642241309136 -1.896912147168043)
(0.02681110362495769 -0.0114304792807042 0.0524124290920793)
(-0.776189372477352 -2.376672212447086 0.3530835144950552)
(0.03839026892065352 0.0209890979855807 0.006065710881137901)
(0.05453744287105543 0.0534708777865705 -0.1941739638601353)
(0.5156958741924345 0.1545400778557011 0.06148267886297082)
(0.237622776662739 -0.06616898685544235 0.06148281626658848)
(0.1781510087336121 0.05841794537372866 -0.05329512102068)
(0.775095459287219 1.462546259535605 1.233642642876317)
(2.439120778697471 5.544453296242727 3.514856354651516)
(-0.02509981161759633 0.0228814635492111 -0.05804387811510447)
(-0.5202302368133199 2.386958022347602 -5.197420946060098)
(0.6559201336898441 -0.2462496623494116 -1.272587574673884)
(-0.4590776381631737 0.7244624692066208 2.074746751506032)
(0.3922494326657454 -2.94400656936977 -0.06408260515397957)
(-4.971083138482141 -1.185826157692572 -0.05144658757702203)
(-0.01007499549708018 0.01983718070266517 0.003153359935229486)
(-0.02494166757993876 -0.01724499334562248 -0.03382840622829547)
(-0.01288694575111712 -0.003313102241055438 -0.06668606293679996)
(-0.08182031581904173 -0.09569283625651515 -0.03623483222815976)
(0.5545698712861624 3.518168900640871 0.7937587789389393)
(-0.07694852874600569 0.0004051934622707563 -0.105623596508915)
(-0.05176984579605261 -0.4602558296268346 0.1176033111452847)
(0.9195727461358069 0.7814920455963357 -0.3974704511810501)
(0.4952581102196794 1.720246795486982 -0.913563863543887)
(-0.01298279564470861 0.002017403408938986 -0.005364557812049768)
(-0.5387458537576774 0.2367265258918475 0.6703296888170058)
(2.849920661093491 -4.52112238761798 -0.3427416269249466)
(5.06884098384364 3.369002072421853 -7.423592312954067)
(-0.07980805038286765 0.3153253363615579 -0.457565322539769)
(-0.8062082475146533 -3.194405401249151 -0.4327348786639938)
(0.2162376864522597 0.001494545228348174 -0.06414998093625041)
(9.868716141010104 10.88962983502357 2.379417600684117)
(-3.621323473582088 1.671979208848886 0.7740324476966225)
(0.1324112279639887 0.004107036538040927 -0.07863842473603472)
(-0.08642573143403857 0.1947064153763205 -4.734643663346986)
(-1.499829096259828 -7.150414467867213 -3.397433065507383)
(-0.01383748513281433 -0.2059536905846142 -0.08285852210132512)
(0.209031569136533 9.625737506114868 0.2119971521484499)
(0.2674453622471099 -0.173715747753304 -0.3125837530743141)
(0.1899092050923546 -0.1326828001907041 0.05860309943353155)
(0.02047580572377461 8.220427035674915 0.6384652714710795)
(-0.04097236035771645 -0.071940174526476 -0.0363687291227609)
(0.1939704227029835 0.4819571833688855 -0.6398131388328627)
(-0.04060470652946259 0.0691014272148248 0.03510452691806516)
(2.028068822330329 1.999395928488334 -0.5029772459831801)
(-3.183021111420041 -12.74211080012638 -0.6324918155230947)
(0.01536415322404219 -0.01617454609466641 -0.007356010097399918)
(-9.243211719130164 -28.49127455468892 -2.734345090730325)
(0.3025811679126907 -0.8679311176942143 -1.296493983682296)
(0.1164433885713831 11.58312719927173 -1.956565875167485)
(3.38381574011429 0.5234257965295159 4.279110718190379)
(0.05698560971000298 -0.08264054047163408 0.1321754329795784)
(-0.3421761018612906 -0.09669091409900053 0.08232016347652248)
(-0.1721223526779147 0.3200696640642579 0.006462348483532152)
(0.03181283304877293 0.3152284837540541 1.295202078137295)
(1.044461905353621 -4.563980154550423 0.3737559097447939)
(-0.7327042100720629 -2.322240510696386 -4.143428524955479)
(-0.2095699415914543 0.7711517722491048 -0.226332455861726)
(0.9426312682716036 3.781549298792342 0.4531532442698842)
(-3.578005579083028 14.03710840072091 7.779557796691699)
(0.3241676422972938 -0.8551844527463255 -0.6425895044496707)
(-0.4456646531995698 -0.06138974204089379 -0.4645659828755863)
(-0.6222767448004403 0.7366537240219861 0.3662338188304773)
(-1.942095561912462 -6.130408708180186 2.410388490678105)
(-0.07591824786504792 -0.05067859627740452 0.2769581407371449)
(-0.3018213510978695 -0.04535307180071085 -0.06645527268888464)
(0.1137156426261172 0.0002601661393948004 -0.02817084388572028)
(0.0784754646861478 -0.05231838875806023 0.02592801903502456)
(0.00327121235881711 60.76752483626729 11.09673497850449)
(0.03850085219916482 0.009684148700021211 0.006183959250190909)
(1.993829758654011 36.61322658240976 -9.058027177979273)
(0.4737229940250272 -2.953172699528773 0.7623596829079704)
(-0.02735604607509155 1.238400708511006 0.27327008450361)
(0.008786550666109672 0.04336381292078059 -0.06578404868602594)
(-0.8543679773267701 -6.607559774304028 0.8278508075514801)
(-0.120318545287027 0.07571918510447469 -0.04272563923180032)
(0.04248063030523045 -0.05217275518804362 -4.545816586601143)
(-0.008821550036406306 0.1723972927202357 -0.4410000955004345)
(1.3412675840087 10.69079530305476 4.114038178993539)
(0.00933746407399963 0.01194317161716186 0.006060880303347217)
(-0.6249642735092817 28.70472500036102 1.813438683151304)
(0.9162788646014612 1.939691789061682 -2.230545141174352)
(-1.198763041775983 -0.2305207658166321 0.4522544377080412)
(0.003745733025334208 3.253152860631245 -2.782730107998226)
(0.08852052040974634 -0.0644853638682107 0.08593973756849627)
(5.691469787080379 15.12254142523034 3.216032241275993)
(-0.01670713173251033 -0.004197567370793226 -0.01174001506014199)
(0.3516798602016712 -0.01184165531723721 -0.09610286118099397)
(0.4845861700051737 0.03759878478952063 0.05108313678962923)
(-0.01362011277380989 0.0230449347335558 0.01406570182759359)
(0.1709851548568216 0.3527769361064295 -0.4022867378195331)
(2.346455144652122 -0.6333724622529786 -2.089737387099761)
(0.1808100919265554 -0.009631445469011044 0.03899609865972586)
(0.1452924533330971 -0.01852515902080298 -5.266402800067657)
(0.08275667993873215 0.01716253696262468 0.01090768017961195)
(0.040526814431928 0.03127706609980203 -0.01681014956794463)
(0.03751496861689232 0.02174819509428265 0.00493924175317902)
(0.5657905316922245 0.5896322848905844 0.1575819454689111)
(-0.07817963875578396 3.587957292695779 -0.001183377490951765)
(-1.907213388165387 -30.06173159552772 1.812642152240585)
(-2.240972678757134 -6.851812009783544 3.870056392363188)
(0.01267950881899324 -0.03083882724763485 0.0003215458006942604)
(0.03984889754772136 -0.02601878970968395 0.06394514888283558)
(-0.04369676007753991 0.03060704694268353 -0.0233822968580282)
(-0.03164960360665544 -0.5525462754312831 0.2215088576047844)
(-0.2869679857179512 -0.1046444922951218 0.1694022021462587)
(0.03422252551363625 0.04203773508655092 -0.03115109556380041)
(-0.02147165886926291 -0.509298766683944 -0.3740593183841114)
(1.511119710460406 0.4518128240346608 -21.58020907310883)
(0.09421901732010457 0.531213851668567 1.01958699363992)
(-0.1051005867271898 0.3250186654185662 -0.06234428939010006)
(-0.03495205903138242 0.00201456108771279 -0.0549231269320323)
(0.0593118846569073 0.06852562844398023 -0.01043082517964323)
(-0.04523362812185375 -0.1690863082207488 -0.02289555121135205)
(-0.03762308975893346 -0.0271764037253079 0.1133904798891887)
(-0.1506203002384607 0.4202415245411282 0.8499258238605647)
(0.1806513153128393 -7.008866865962053 -1.803555213644034)
(-0.01801768087991909 4.161563422410956e-05 -0.009792524826514557)
(-0.005329772991267537 0.05051927457510209 0.02358776721196969)
(0.108948556330527 -0.02636287902394783 0.06268893871651016)
(0.04919177165966773 -0.03705898429226837 -0.002064608855822344)
(0.04598565132690149 0.01195975592442632 -0.03222061880659331)
(-0.07940189110702045 0.07754593086437939 -0.07195195993400105)
(-0.07264722400968449 -1.105659808756128 -23.47571522646301)
(0.2239372705016353 0.09639092775156088 -0.05459824757934328)
(0.001739411938072456 0.1379882114873391 -0.07628190853358302)
(0.03090736947591404 -0.01722478814819824 0.01705567781089031)
(0.0198924309598447 -0.00648328941633999 -0.003136922231894719)
(-0.07181961192044251 -0.05267802044244477 -0.1185356091516804)
(-0.350074964753086 6.211459328473814 -0.1736918017622754)
(-0.1174154085811455 -0.4747799223767466 -0.08110521401292227)
(-0.09000143084983188 -0.03147487574225809 0.01566478070121703)
(0.004022782451450784 -0.009126682716699063 0.01430455153338499)
(0.003958636089311501 -0.005572052526326979 0.01025515910689325)
(-0.009860365167185688 0.001633284296477887 -0.009936045290113086)
(0.1291796640577594 -0.116565610514694 -4.160331921595314)
(-0.392668394663676 -3.346037532896347 3.871486452292158)
(0.1086769003343998 0.08606346216911021 -0.1998644633549713)
(-0.3951490549818981 0.195860407276352 -0.7512974552871517)
(0.221958985967325 0.2256183770265766 -0.1414504815836686)
(-1.012635797212289 -0.2810527232787251 0.05712163128429451)
(-0.2146982226859306 -0.3132057658890768 -0.4069881702780128)
(0.02496109449350403 0.175785077147643 -12.76077955967615)
(-0.100875947616681 0.1164867036614052 0.08029292229095543)
(2.125348917370901 -3.50550648608915 -2.089510941448821)
(0.02688978704019577 -0.01055416402286565 0.009158312967789713)
(5.551394622181608 -0.938582341546585 -2.009673858276377)
(0.2008029133350064 2.257014452615409 -0.1727345564611596)
(0.006614976640129645 -0.0153462598561815 0.0009973529175229499)
(-0.1215474682367509 -0.6725300672647276 0.04671824928514604)
(-0.01932126606370812 0.1955830015979828 -0.0249517180638592)
(-1.030090551996246 -32.20634247141788 0.3545016563966847)
(-2.657301510279257 -22.01942426642698 3.601683667525983)
(-0.5554178287126742 4.047364715080894 -0.6245552953671761)
(0.00439998521569356 -0.009540000894386776 -0.005027428051448133)
(-2.89375496909803 -0.2493022316456361 2.828822251260603)
(-0.01867433103176642 0.001586804681544932 0.01202320452477188)
(-1.536868474624111 -21.51089770218151 -3.866982044156857)
(0.2123066177923365 -0.2378068387316913 -0.678630542539914)
(0.4696211469575732 -0.1474102650607784 -0.002975509325069681)
(-0.05823783226379343 0.08423371234539483 -0.07246445150080635)
(-2.461346644097224 -9.997961395165763 -4.3191992362694)
(-0.9533757212004716 -0.124177327086314 -0.5071579003489373)
(0.03680692947665897 -0.01839941558069576 0.03869586848261489)
(0.6798894589223003 -2.268388147096703 -1.775672297374207)
(-1.547901820949106 30.75647707151252 9.265381637597752)
(2.691653552640775 2.431886218819185 -1.310753532662691)
(1.467168139629615 0.3755948687967365 0.4231733451552233)
(0.7408743714520101 -0.4320094938886279 -0.1830639297299334)
(-3.017983921013553 45.36909261312366 3.322645039372001)
(-3.547949006897642 8.518551363181627 1.082842811114576)
(-0.06246385932158662 0.03091043369919664 -0.1512539843004663)
(-0.04382923725995524 0.003942181303402209 -0.003968825445138109)
(-0.03110203392819049 -0.003602164119129077 -0.03162319826904982)
(2.309978157799166 6.628769056225511 2.415620286981563)
(-0.3270240840051818 -0.2314414335413119 0.4523932583243314)
(-0.1169122279501848 -0.104675154154951 -0.05876862759482742)
(0.08942144127617063 0.1133065997836245 0.06526295845388068)
(-0.3256388146321944 0.03640267357048746 0.1294984863374445)
(-0.06449398908868423 -0.402753056248972 -0.1610760765481008)
(-0.05514206316725585 0.1889865635893921 -0.09090957981579952)
(0.3247428637449962 -0.1929686301146529 -0.3836731245812827)
(-0.02552963260694179 -63.29028009902259 -5.083297386322342)
(0.6852314233922459 1.924523766204611 0.3781876727924187)
(-0.951436145139553 -3.470025324226687 -0.5804340679466937)
(-0.1099027754132464 0.2068737918605854 0.002424095824958429)
(0.2092643046879605 -2.374510447851637 0.6661281495461632)
(-0.01240922018888014 0.001105282961626975 0.002391582444277701)
(-0.4025439139080647 -1.652472111545214 0.6554679411420918)
(0.1391769166154469 0.1072650876878038 -0.236041903017743)
(-0.054771028059311 0.220182067297009 0.02339886501855037)
(0.08596565693262107 0.01654063455713381 -5.524435673555877)
(4.431297928303504 7.220704456248676 6.510410133132091)
(-0.07802259401900369 -0.02218178724794407 -0.05569367727582863)
(0.1035327238853504 0.00862961892568263 -0.04496435883754513)
(-0.5366925840258918 4.551571171297485 0.0449958299037031)
(0.1539155752279647 0.2848531149768236 -0.3133418495110524)
(3.433451405573292 -3.780769807554566 1.151915906646624)
(-0.06190204592361942 -0.9194311176027343 1.3913187720647)
(-4.879748817105707 -23.94265608650746 -1.240353815379138)
(3.991574564126902 45.18790448303881 1.143871571270257)
(0.01026779892006606 0.1343614715368164 -5.898800862477073)
(-0.6118992181685665 0.3749942030180707 0.135011248245528)
(0.8214731185024065 0.3332161540989922 0.2908084347152896)
(0.04280813580588419 0.08438774617362992 0.03491871057392339)
(-1.448801400598715 -1.404009416697779 -7.450046243662547)
(-0.213555480387743 -0.002430391420075898 -0.08484300689834326)
(0.03261128533106263 -0.04244613349812446 0.01845805826758753)
(-0.1059072621331662 0.0334624692203381 -0.05444589174619088)
(-3.077383255611771 0.303514368539362 1.081982966767786)
(-0.007853233156722227 -0.009564875020596383 -0.007652176069653802)
(-0.8469027714409368 30.24603547324535 -5.223328431299061)
(0.3796641454451355 7.038758566238237 0.1322609263799027)
(-0.002453384711862797 -0.00974338913182992 0.01530616357752974)
(0.05253376905517871 -0.154881371666533 -0.07560655751054718)
(-0.1776575026127789 -8.383871064092368 0.3648745198240741)
(8.888073546047671 17.76001820000722 -3.600408774651939)
(3.92727477322363 12.62715014612628 -1.428425579149133)
(0.6862139050050208 -36.61507843536094 -1.251516924888)
(-0.6166558794827897 0.5578864800826886 -0.8236895701178306)
(-2.058004041098072 -1.877395510035189 0.579051213950234)
(-1.222063711701654 28.43168471585067 5.442429767489475)
(1.274024175983931 4.382654407290412 2.659870453264818)
(0.09361129165955337 -0.1726888534849352 -0.2682514686703464)
(-2.601660141534458 -9.094311400603271 0.6763449586432497)
(-0.1516891784267453 0.1596453912516097 0.03426789351921546)
(0.6385658512220741 1.032029324344631 -2.696995413134903)
(0.4485169880130996 2.73149101719113 -0.4252593044639732)
(3.171279531275558 -0.567272807938807 1.668178260562145)
(-0.4133508207362859 -0.1911346870157069 0.2104536456921869)
(0.1697864941560319 -0.2644107143915235 1.876548467059504)
(0.0616208698490211 -0.1710499709615033 -0.3569188038573138)
(1.744442148522884 -1.30352657622286 -4.467396161262744)
(-0.2886582996267671 -3.773730007217762 0.6790413800663249)
(0.2360834675794214 -10.37540055566776 -0.8713422998335301)
(-2.244317531383637 13.35663446168331 -7.517500258385756)
(0.06010163283615191 0.1726327539891758 -0.028955440567715)
(0.9037062629164041 5.508265906168615 -1.839793523073449)
(0.1750597180935485 0.06900708499522273 -0.2158691833420453)
(0.1465375437931411 -7.506118733761194 4.023139834923042)
(-0.2495495504911243 0.3358169329837554 -0.3592013905124939)
(0.1111973262467011 0.004463860126501518 0.06836988013966008)
(0.4296757347030379 -0.01584630207510122 -0.03357677698538498)
(0.09870998904893018 -4.026291053238028 -1.28433556182387)
(4.93936600635415 -14.2448398706431 -4.308146842767571)
(0.1614749776047253 -0.0810032673323087 0.1331582515584332)
(0.2424648678782306 0.6132685044705983 0.08936241645884499)
(3.280215161141082 -5.86967074612987 -2.659834088646978)
(0.3375262071522815 -6.239854940871669 7.222992858433405)
(-0.002525948249516338 -0.0590800641222736 -0.2243994533747097)
(-0.4499890344760314 -0.05092407610904782 -0.07196341786271192)
(1.381460111444279 -4.573380699948992 -1.914848598427462)
(-0.2943115902155198 0.3313673713891973 -0.2368135144991111)
(0.004080924722725052 0.01121702715073504 -0.01409012603405472)
(-0.5026971966049123 -0.2307631692835951 -0.08454523804967506)
(-0.3331681101967614 -0.8558206839199717 -1.446516294834252)
(-0.2055363387223192 0.01556384711585768 -0.05755125184952529)
(-1.080321790972191 3.885424491143596 1.915364282164941)
(3.633624985116136 6.122725844990476 0.4374522055651062)
(-0.1381065232550041 0.04143958714371926 0.2291672593374524)
(0.01378501525426495 0.007246478391758756 -0.01270596865291691)
(-0.001610402166113123 -0.005901683594223365 0.003109123353047003)
(-3.099172359731022 2.974655937684593 -8.899002995127312)
(-1.675789609017774 -2.625156280645094 1.418380257108319)
(-0.9932358833689104 -0.3757262995303949 -2.264369529393764)
(-0.53219461145956 -2.717416705361323 0.651646692614594)
(2.958700001670059 7.940892092125536 7.165640512937254)
(0.1313861460550821 8.82733552829075 0.4661576748324288)
(-4.673932564443737 0.05158299352279165 -0.9435567206327448)
(0.01369512255134071 0.03775918841569276 -0.0001479805672540586)
(1.272885900721856 0.5177010335648929 1.741856075731101)
(-0.5467059240718282 5.158769012852023 2.492533277353054)
(0.001833538649726515 -0.01055515631611942 -0.04839695186124213)
(0.3943301409357565 43.0417150054964 2.85811584618111)
(-0.0169235110711504 -0.1106399295259148 -0.0645557565642058)
(-0.01052835160018357 -0.005789904028149755 -0.0680926010825724)
(-0.1403049930247315 0.05454806964252892 0.0002415945353994031)
(0.03354783187964801 -0.1320969431640616 -0.001559721623320267)
(4.418968296584014 29.33147058576792 0.3460464379302031)
(0.6905499265203067 -2.280725511589923 5.038283001479352)
(0.1475310890550297 0.08838917305338541 0.02725360197192797)
(-0.02237588553123931 -0.03189847842179402 -0.01494374052096833)
(-0.1071568589308378 -0.1333141545452022 0.01663623682482257)
(0.0280435660936464 0.0506231824188065 -0.04735154463503385)
(0.007389811422160792 -0.02464222080063316 -0.0170653053299279)
(-0.5676760726093139 -2.548753451112558 -1.779107796637806)
(-0.00483546492267937 0.003160140996305149 0.00205972264284821)
(0.3363395326127412 1.123013228427286 1.578700194180279)
(4.326425657987905 34.65523219467099 0.1701564855592925)
(0.3037681616502876 0.6951351953810619 -0.2103430213600029)
(0.07507502564906629 0.09366369254530622 0.7944275099212961)
(-0.1100517873397839 0.7325329720218555 -5.270463038893601)
(0.7455272779963372 -2.777451057596108 0.5111338750023411)
(0.4684050123260278 0.33710646355595 -0.3698204834019429)
(1.370466863833982 -6.530553080906921 -4.868663048668127)
(-1.240845183904068 0.3847387972345225 -0.8562119602972555)
(-1.237326385602677 1.72650122023096 -0.2827710999442766)
(0.4871647424165662 0.4727112855105849 -0.1812766645663665)
(0.1805290815983371 -0.05427442224523653 0.004044128049722322)
(-0.1128195057460497 0.03522270243965889 -0.0654807787111233)
(0.1892466587687895 0.04524086097451137 -0.05653105439067825)
(0.2842114818589022 -44.00405367609427 4.098692216268046)
(-0.1097463552582372 -0.1581019184275985 0.1172905391910284)
(1.095102831474885 -43.62492138015555 0.727442937534012)
(0.01465000251716436 5.528580939064244 1.350448701704283)
(0.1897273775442942 0.1096147133813348 0.02958112256951223)
(-0.1338591427389013 0.02198810205221347 0.03662714873135534)
(-0.09494433432957247 -0.02771244860728574 0.01608762188802247)
(0.07493536946323265 4.195981076534975 -0.6909650168601653)
(0.0215948002112662 -0.02876165396842428 0.01188004894852869)
(8.522136783439972 18.65833993640271 8.463431088423331)
(-1.558221416659208 -5.169678034625099 -3.409902890877313)
(-4.903635529668619 -1.417126733319027 -3.53444073346561)
(-0.003338359132128301 -0.002074446411534172 0.06178497982348173)
(-1.048562588217355 0.9278113237664802 -0.1431736172016876)
(0.1399803108314545 0.02832298741536686 0.003803031392887306)
(-0.2823431502856859 -0.4539267170983897 -0.005508315159189481)
(0.1183185926970125 0.0391953832351248 -0.04618351542495933)
(-0.1429112581721865 -0.4081504367412411 -0.158776296265277)
(-0.1051294369649991 0.8697749902536145 -4.64494040622363)
(-3.719618682672522 10.44488970681938 -2.263911986899005)
(-0.2226780593223943 0.04503924966401188 -0.1037771679002406)
(-0.2685205925750072 7.888618630239812 -0.6493547103572976)
(-0.002858229861108435 -0.001024898463432562 -0.05134207373458095)
(2.126653302644919 32.91288512237077 1.528822254830675)
(-1.939537205170587 1.370019446146476 0.0825321933298038)
(-0.8820403960182016 0.4485125543035143 -0.4144191956114399)
(0.09232067451779702 -0.1155678582117676 -0.01200996659693697)
(3.27763005919338 14.56112443848952 2.217590037078375)
(-0.7341550332759132 0.0843894621262602 -0.1890902035448344)
(0.1711984581181266 0.2049984946122103 -0.2035563073696648)
(0.008450555956189848 0.4123237508804126 0.4209353086476895)
(0.002190506144159478 0.02164028429461184 0.009143231342646416)
(2.816056269223065 -7.1113480429991 0.01656410677700038)
(0.09103897076631665 0.3246629293792809 0.1169962578754908)
(0.02727555440927206 -0.01867838848163721 0.009118107025819389)
(0.153526705887831 -1.083088043793098 -2.978399573146417)
(-0.05555711335578558 0.04234405042256045 0.01247676177658466)
(0.06122357559151206 0.008412641293980481 -0.009540247727342709)
(0.05643415652835004 -0.3359812422144349 -0.5117589540038873)
(0.06660449747039832 0.03153095103169229 -0.2427932616655786)
(1.253243999680359 0.2904288745823853 0.06452273835530435)
(-0.01013629116072083 9.020421352683031e-05 0.01991623333035471)
(0.2230691375264442 1.000905784385302 -2.291791433435045)
(-0.01012379501051976 0.004296405245459866 0.01325353629576587)
(-0.006469249032911666 -0.02670672988589146 -0.03580752721419107)
(-0.004892820065327102 0.00717562015792779 0.01242366921402071)
(-0.6655192369020059 10.68677239287927 -0.8875781259564232)
(-0.003207184867244688 -0.00135164311025775 -0.002397598138226636)
(0.04407633601034786 -0.00209673496191095 -0.01266245073162474)
(0.111143120623142 0.01763735162724388 0.0347596255690568)
(-0.2227756623942055 -2.139446060580593 -1.378328020448696)
(1.324754789271621 -0.6790143467904785 1.362979048475873)
(0.09159654000355745 -0.03720006265699548 0.04249604647846784)
(0.6566904359010002 0.1186276402781927 -6.647566969624832)
(-0.169249749066949 -0.1184943525699742 0.00559480621876883)
(-0.1723478382001506 -12.45888643867873 -0.7522242456950354)
(4.4744665094221 -6.086619040639525 0.3978130177587618)
(0.1668652466975825 0.04434012532382323 0.04465375189808966)
(2.929175153188871 -7.448941674481934 -5.488509689084884)
(-4.617926454449501 -31.43010978900244 -1.425898837245542)
(-0.03790393933936095 0.01990272259837262 0.003995178906494118)
(0.04452513849311504 -0.04622259824558256 -0.007123376767609236)
(0.01079493079040413 0.0005946691550992225 0.005474294614798321)
(0.6206891031019047 -1.200940590774687 -1.073107658535607)
(0.7657572302173845 0.8932126010879239 -5.237655275762765)
(-0.7273271578712245 0.7758267357965573 -0.0209408855701608)
(2.176182142637726 -44.22905703847866 -7.098019118469067)
(0.1699881493226633 1.004454276258648 -1.166853894670026)
(-0.8120758021255469 -0.3977813627113377 -0.2931503219803148)
(1.968024638728373 -15.41075689223786 4.711194408881372)
(-2.52098058813795 -1.281037426559487 -8.934977109501792)
(-11.3126768024978 -38.65490088272183 2.203372133683993)
(-11.36617379982298 -2.053794789049288 -7.723531010320137)
(-3.838563463029506 1.311416514169915 -1.446899493584621)
(-10.45164513567695 -44.0591947179251 -7.435184228281722)
(-0.2715408229820935 -0.6035382660468429 -1.149516615564477)
(-3.94901271252236 -34.2859253041678 -7.889567851725679)
(1.559369794335037 -1.086289713263585 1.398357578416873)
(-0.260272325055223 -0.03872157031266459 -0.1715914443905125)
(-0.1283430641055996 -0.7975070722260529 0.467508895891023)
(-0.07903087015633486 0.02375791886491012 -0.01216593025703418)
(-0.07083890035236945 -0.1088586415362967 -0.2242477382059842)
(0.9305094928003564 7.785322527711109 5.234433831011862)
(0.05320565628993545 -0.06331802295632548 0.1193361654340436)
(-0.5447388227229378 -56.18858865935478 5.214459696480228)
(1.245445927817846 1.846185002642487 -1.190989046446399)
(-0.0511313511639483 0.09098067292221537 -0.2874044329465114)
(0.1169039978479494 0.0007993237691867844 -0.04777026400916874)
(1.63589661444933 0.3500883709366682 -0.4149834747264766)
(12.32720430294724 92.81098739205024 -0.9432288756661613)
(0.5958147102781817 -0.3943279076585625 0.2676890414255801)
(-0.01857915754715375 -0.007935709766429492 0.02153628416153916)
(0.03207327210100507 0.05826026281468 0.0658027806840551)
(1.719877691003678 1.334258795784893 -0.03845842215897405)
(0.7854821767426127 -0.5283811466168323 -0.2320877692692028)
(-0.07039010472365045 -0.06468505153641593 -0.01223037670699412)
(-0.03815590879523099 -0.2577683020349955 0.09777516498136625)
(1.401711110517863 81.61521823592986 -0.885697272785416)
(2.244451140523095 -1.540665818290481 -1.430058977859862)
(-0.002167828096987366 -0.03196434364448778 0.01469349511969564)
(0.9109901399102258 -1.934182686391682 0.4063721387832987)
(5.1021931466854 9.779187762477573 0.8784955827231737)
(-0.001302035167669721 0.0006642940867025498 -0.004760374050135733)
(-9.004255142153076 -16.8937168773021 -2.079850728498118)
(-2.950705385898168 -4.336159721382819 -0.07809440018235847)
(-0.651539889255759 0.9528196586550843 -5.436011146090174)
(-0.01122372553573959 -0.005536516834940488 -0.003255941448112284)
(-0.08423689048693545 -0.243276259671982 0.06668494617575155)
(0.3055623161789528 -5.953665705192064 1.689620712903416)
(0.6042136177648468 1.569616136614843 -0.1433522617302349)
(-0.003687751163246701 0.006322844836144554 0.003507905910121911)
(0.8188234263849996 -6.763173753718385 1.536350556249412)
(5.98641393730814e-05 -0.003097170479940614 0.009908332748836854)
(3.645638215964375 1.863247270379478 2.865003014002267)
(-1.102517188801296 2.821736305625721 -32.08165218823842)
(0.04638496547897513 0.03651454285817642 0.02603122736320841)
(-0.3683716291473036 -0.1701914657133675 -0.4555465032950715)
(1.250789285506706 -0.3599442034772609 -1.577641626274801)
(2.863794309300832 11.67416089326374 1.191885639043471)
(-0.1195065777394436 -5.686155409135964 0.5208633058298159)
(-0.005822473012213923 0.005962339261729058 0.006661865470235056)
(-0.00025239427448149 -0.002733207227162764 -0.00115521950522203)
(0.0385369254569231 0.05342562212653292 0.05840990465709314)
(0.5162121878651836 1.327415517900276 0.7635977382892928)
(0.2129581546638546 0.04634025663821013 0.4982531587327423)
(1.076720661390015 -1.189626804888013 -1.498949014376413)
(-0.1180432922270433 -0.7583808598173511 -0.1140190232150058)
(0.03203820170731467 -0.07760328820477552 0.01918423747907515)
(-1.390064455535538 -3.159550996723529 2.017971699068869)
(-0.004320483856838194 -0.01081678842160732 -0.03109824487118739)
(-3.735943966272349 2.879459363131859 -1.004603139620453)
(-0.01008913004562127 -0.01176948885808047 -0.0469293978973981)
(0.4332871190459193 -0.2654151979826567 -1.650610331022571)
(-0.6136051516156495 -3.486472837412715 0.2844210236946292)
(-0.139044173232171 -0.09955111557047336 -5.878515174445695)
(0.0146502878940788 -2.489566149686398 0.009206219881376598)
(-1.086870943448456 55.88445947805148 6.377159743825176)
(-4.651164517170166 1.049041599443045 -3.182504428018955)
(-0.005062544457782005 0.01751296599699688 -0.009164468825423527)
(0.03491942452106174 -0.00600026598230807 -0.01418733039574799)
(2.021612662102824 -53.27026168740625 7.446737695040147)
(-0.1642742805741745 0.05389543535182221 -0.1199193112310799)
(-0.1758322794376766 -0.009026346965943805 -0.1767542476453299)
(0.7228274522154531 11.11281154843333 -0.9202132032397043)
(1.773600228803202 4.498776589261657 -3.317759073803212)