/*--------------------------------*- C++ -*----------------------------------*\
| =========                 |                                                 |
| \\      /  F ield         | OpenFOAM: The Open Source CFD Toolbox           |
|  \\    /   O peration     | Version:  v1906                                 |
|   \\  /    A nd           | Web:      www.OpenFOAM.com                      |
|    \\/     M anipulation  |                                                 |
\*---------------------------------------------------------------------------*/
FoamFile
{
    version     2.0;
    format      ascii;
    class       volVectorField;
    location    "0.1";
    object      vorticity;
}
// * * * * * * * * * * * * * * * * * * * * * * * * * * * * * * * * * * * * * //

dimensions      [0 0 -1 0 0 0 0];


internalField   nonuniform List<vector> 
19631
(
(-0.02176398053679926 0.01945483524446374 -0.01321202623913468)
(0.006436637020393131 -0.01329560554647866 -7.889973867771886)
(0.005608190432861717 0.01473726499226262 0.006994535997320533)
(0.7298746324613727 -0.6310286070170026 -23.85072751165232)
(0.1759022860651331 -0.009001009647856481 -0.07149638928238534)
(-0.002594912132181382 -0.04876870186517885 0.03124589197465234)
(0.0001642449677696479 -0.0007049858233458542 -0.001958827821607561)
(-2.473316754015002 8.376617524363745 -2.287833156525731)
(0.07884051249376475 -0.2027081954195245 -0.1230588974797348)
(0.0004548881077398406 0.0006688170792917276 -0.0005594738686294685)
(-0.0469280173910489 0.01283533626988276 0.003843991202136599)
(0.0263921385019624 0.02207024763899949 -0.0105797226352381)
(-0.1525593785451442 -0.04118854531004074 -20.72617935468416)
(0.005026205375080129 -0.0002404421571010496 -0.007833008441761446)
(-0.0002566205717487413 1.403764170078059e-05 -7.625233150529969e-05)
(0.5203656256572655 0.0466643434901528 -0.07064691261978877)
(-0.01296840517263011 0.006830951070600502 0.02302748051166142)
(-0.7772084015258327 2.022010132984078 2.333675125578513)
(-0.251736291188533 1.91679267823176 1.907858739010301)
(-0.4927400149948922 -0.3040352275573924 -0.3108334149791373)
(-0.02412743315576897 0.008070419894722481 0.006372359864864513)
(0.009188786448910934 0.008237258673165033 -0.0001671503124601455)
(-0.9865485749158498 -0.9437177056043009 -0.9218721235835677)
(5.864063768111342e-05 0.00197275018746927 -0.005551749208572135)
(0.004618035729296461 0.03201734404542909 0.01056635730528911)
(0.0001052728968600668 -0.0001228182460562668 -5.462594825931203)
(-0.01576921818045073 -0.007907687137783444 0.02958860905349335)
(-0.5422945655966205 0.6812760164208815 -3.899083068343331)
(0.1082617170831019 -0.01163164148002119 0.01132562943083099)
(-2.99122546444968e-05 3.423866518951982e-05 -0.0002253724780560068)
(0.003040672926060986 0.004803265910403351 -0.01992544296509766)
(0.001396490038830078 -0.0371030280918741 -0.02254906306176251)
(-0.3286286641466289 0.1892183664736344 -0.04408499177114505)
(-0.04729737479195268 -0.004034200720776725 0.004204514876531829)
(1.673961800420567 -0.1188693855234004 -0.02133265194458527)
(-0.3410046468016502 -2.208127550058393 1.960445017816233)
(-0.0001708201168207621 -0.0002193858429194228 0.0001986664085505425)
(-0.005496677054926866 0.0004356359754040457 0.006087930103113464)
(0.06742804176467684 0.01086672071235118 -0.01488444371354095)
(-0.007231443920004416 0.0012922151116183 0.00093079611590423)
(-1.374399473873946 -0.609543360140769 -0.987358028864504)
(-0.01327357660224242 0.005494148995982125 -0.004693673284787321)
(7.190328684800317e-05 0.0003326837291784659 0.0003065920364460007)
(0.04837213071979046 -0.0218168024805818 -0.01194827824160096)
(0.05525476208472557 -0.09559995853225736 -0.1317806873914209)
(-0.06401660310445828 0.196178632989796 -0.2387759358395846)
(0.0004169201579428372 -0.0004815935446829537 0.0001294443440628987)
(-0.009237326213625493 -0.007694985018398708 -0.000565537099279291)
(-0.01240007993855227 -0.003009274728541772 -0.005670905749328855)
(-0.008188971600437037 -0.009078057177059366 0.001357823493666793)
(0.002082776438252596 0.01318608739016476 -7.248447352683615)
(-0.009550719080944558 0.1280117356931694 -0.2082434941977301)
(-0.007211594629741805 -0.01036142338140241 0.01723685035925983)
(-0.07962498554205018 -0.01226966423770137 0.2942463952486691)
(0.2120097165702968 0.0260470515765166 -0.06334951337057598)
(0.004268923364202998 0.0394788788971502 0.08133850225666031)
(-0.04004939281631149 -0.0001618813886619143 -0.01539627462356837)
(-0.01975985431803286 -0.01361697088024274 -0.003092707817319687)
(-0.5883988225695499 -6.261185314314788 0.4316803216734546)
(0.0006445280018764736 -0.001517885355346583 -4.086387603647836e-05)
(-0.001278706968241971 -0.000815286072671783 9.950515864405727e-05)
(-0.128172057642869 -5.720820721755969 -0.38842717790068)
(-0.1205670486412574 -2.839855517208553 2.855651364582585)
(-0.0323574717746031 0.0216087437447787 0.001178004048531966)
(0.007389610560560994 -0.01622374766742571 0.003551853419557573)
(1.500567410759932 -4.18225756730471 1.961278896468737)
(-0.1311771908294592 0.03475672517751791 -0.02989578970596754)
(0.002069185876609389 0.00205692235351462 -0.008623820204432501)
(0.06960300037035111 -0.006086959691973599 -0.007599733877223465)
(0.001188586997686287 -0.0001922559007516044 -0.001555987819569576)
(-0.0007784778465957974 0.0006242195046002385 -0.001056658371115476)
(3.553340960038479 -6.725090337072805 -6.273443981047262)
(-0.009665517533549762 0.004534816300584872 -0.004471427540460234)
(-0.03683198290062226 0.03295141651236873 0.006888008676530727)
(0.004221046720205613 0.0009415446930617077 -0.01476811824488763)
(-0.5972640398279674 0.2442453587459941 0.1437449866607884)
(0.006537042389025248 -0.00127125498872717 -0.002433468942409124)
(0.02519138334351405 0.01727443370735555 0.008077220012630035)
(0.03220250610059287 0.01626432352884349 -0.1178451925317665)
(17.02625454630146 -15.80958861273661 -143.8739729701068)
(-0.001517932462015437 -0.0002562276839176353 -0.001168431050714515)
(-0.07993654653624249 0.01162942776193634 0.01166040831757846)
(-0.02123103019927405 0.1261296203144057 -0.02997477069387981)
(-0.1185808922308053 0.04131114767989311 0.07002062936803111)
(4.110598445713061 4.632775719320549 2.478111984216277)
(-1.537439464691958 -75.13194236319084 5.541069062207789)
(0.03882912527941176 -0.01024638508779387 0.007770155409356659)
(-0.3728257283135399 0.2727787362117085 -0.1698360460420164)
(2.633510389937844 7.816320311096152 44.58700599365356)
(-0.03249906025500407 -0.02535817701712485 -0.04501950999136415)
(0.1557942570181688 0.2534185101451695 0.01831239627826542)
(-0.01048465940415641 0.0294673792782132 0.01757619000184359)
(-0.04703343857682543 -0.0326778204145664 -0.0176701723286236)
(0.02333665802597585 -0.007748736532413987 -0.0209262325183375)
(-0.2396825399945565 0.02951244303416476 0.05620629504510906)
(3.188258745057659 8.601200063760476 -1.413298164924628)
(-0.009928789134368919 -0.01086106471169359 0.007688104196940574)
(-0.0242426466028841 0.1249998764406996 -32.82277402441834)
(-0.02539636329096459 -0.01555132010614235 -0.005633976872075409)
(-0.0002188617019822352 -0.0009460360990661779 -0.001624109584783583)
(0.01750994179306179 -0.002433444856695412 -0.002851104318359582)
(-0.8569217147593442 4.821571377272408 3.580765353219145)
(-1.881714340495807 4.218878520486868 -3.383396018658561)
(-0.005696617194960608 0.001016758010987909 -0.01000573986169235)
(0.3500632540208264 -1.367146933617153 -1.168607725973777)
(0.01789559571564551 0.4848765833142982 -0.3741076609864056)
(-0.7262649404162173 5.98918851483799 -0.7210907826361471)
(-0.04717356515556464 -0.02026577385093407 -0.03898950093292138)
(0.04952387502833775 -0.008836271112597608 0.0242557474878135)
(-0.2423418797069543 -1.604383368184184 -0.4157323814523683)
(0.0151788622881352 0.08852166736880505 -0.2436022350482621)
(-0.9414753502016562 -4.1669932493707 2.631979343124553)
(-0.1470833013601748 -0.04721479053764562 0.05099352102229206)
(0.3201442475123828 -0.05167520865259286 0.1209193078496482)
(0.009636106338097455 -0.009344600230663712 0.004529137550089012)
(-0.1255475282562373 -0.05369846569536081 -0.01226447947861859)
(-0.810225014934989 3.745227902962557 0.4167768436352465)
(-0.007632285374377133 -0.01084854737040412 0.01168490204964649)
(0.01787691785705295 -0.03108115220410314 -0.01730976210819094)
(0.0444903864769294 0.03897242411076247 0.006305792173284345)
(0.008517089941203957 0.01529582798908751 0.02914159070768846)
(-0.009616530128331018 0.003519201572072167 0.01116260560969718)
(-0.02604677064138224 -0.004217884850454901 -0.01660970964828185)
(0.8504126978423363 0.5932463885327279 -4.66982799314254)
(0.02173427526322698 0.008207685356941809 -0.005490011758252667)
(-0.01619911795056066 0.01337842217901763 -0.007443871146912391)
(-0.266817679132221 -0.02221313224464838 -0.3114199176580693)
(-0.01016563163444453 0.01121921590324089 -0.0181633386249818)
(0.001124242515179797 0.0002577911412864989 0.001297180980526186)
(0.390814185996573 -0.5421615865645091 -0.9757055035706448)
(-0.0002349147088745777 -0.0006681781930362152 -0.0004773152264296655)
(0.04663813270403341 -0.003959185868447516 -0.002471953143658025)
(-0.03005543863338128 0.0565612332326797 0.05906907481405368)
(-0.5122788347055995 -0.2902669674691321 -1.481830307821679)
(-0.102969112053664 -0.1104908522065345 0.1216490516235833)
(0.1803260618202278 9.284876388231087 -5.322257533994992)
(0.3037282915906184 3.224402044146227 0.3890979340860025)
(-0.04405860472859052 -0.04057661524818995 -0.05422915714987624)
(-1.729808850771448 3.175268009059592 -52.90897789119774)
(-0.06250141613463123 0.04879875519405677 -0.02923277723652429)
(-2.375562480692352 0.3693862802126143 -0.8086870126726529)
(0.2755060142481791 0.1153591038905735 -1.252146278583566)
(-0.2933440506839046 0.01968010099825583 0.1307844199526055)
(0.0007525596426290414 0.0003765336704226888 3.836855878683212e-05)
(-0.007755842073585317 0.03185554734878567 0.02087006428225323)
(0.1293197723884139 -0.1351594017113459 -0.3610471747833914)
(-0.003983479764388524 0.005593503968370089 -0.002521563617444879)
(9.194928448384841e-05 0.0004178198964275024 -0.0001472739833687376)
(0.001281765574662155 1.50343039577081e-06 -0.0007122294241822761)
(0.7458159400059059 5.727361807483523 -3.303129781283434)
(0.02057813080695372 -0.008175137393935654 -0.005404258937517004)
(-0.04049741448596278 0.02082255162458095 0.06734943445522761)
(-0.1802081480183529 -0.00481047632841201 0.02294907569263113)
(0.004288628594681707 0.002193774358316507 0.01495059238660182)
(0.02249102129970091 -0.037254617180039 -0.03637166928860996)
(0.007864757700361432 -0.004491614406775309 0.006997642183202084)
(-0.0005158409072829805 0.0001113114395875454 0.0003442371068748731)
(0.3434926505225868 -0.005684731701724163 -0.2077698945958177)
(-1.752791590587568 57.54520219300069 2.7804012174434)
(0.003784047173209555 0.02135580455558106 -8.983303135394086)
(0.0387088235793848 -0.04677386727955114 -0.01179784705453123)
(0.00189961907977954 0.0005295051675720827 -0.0005063400080642528)
(-0.01591412813643577 -0.03037678966893107 0.0007085868441045161)
(0.02625884795288682 -0.02674426553421905 -0.01147187579404028)
(0.0009897583571041348 0.001698162704686012 -5.572158951596728)
(0.0007150548568449351 0.00255444248002417 -4.908436846494568)
(-0.005305967836266086 0.04428914288508677 0.001262258177121877)
(-0.004479391209221003 0.007061732742861699 0.001293068376992794)
(-0.8026956274254438 -2.529122390773129 2.843522734921793)
(-0.006604254180562166 0.0313241420619602 -0.02483816661504854)
(-0.1672967343071839 0.04630116765967998 -0.07621548384296799)
(-0.004702554112409103 -0.0003941245985887723 -0.01407800839426467)
(0.0403259000000772 0.004472169994446107 0.003387956121718683)
(-0.01845008588169493 0.004174472441895399 -0.01006920667281914)
(0.08023688259481934 0.101623870627273 -0.1470630962714948)
(-0.01418394825978197 -0.07801919508234401 -0.001880776070498317)
(-0.0001598126379632766 0.0001919738145269043 -0.000273949015936488)
(-0.01568697138065601 -0.0007371162989552261 -0.03553449414902367)
(-0.02341244250347342 -0.01688861132239288 -0.006429588737335352)
(0.1118627752680153 0.8006078254052926 -0.2390552589667347)
(-0.006846467603862764 -0.001064930461105064 -0.009247748725927301)
(-0.0002658956396735704 0.0004314473959236837 0.0008579927984855012)
(0.001006317869709957 0.0002334457389554906 -0.0001582987501054068)
(-9.712191786986077e-05 0.00510491844592718 -5.738388346109875)
(6.547141654581054e-06 -8.470016790004689e-05 -0.0003899382154075134)
(-0.0007470596547710416 -0.0003557987317287233 -0.001581504935521261)
(0.001367622010619629 -0.0009272208154858217 -0.007835225014087475)
(-0.007809607712143811 0.001960232996005108 -0.001250505662288273)
(-0.03359137044215314 -0.01882567916049085 -0.02183945588925008)
(-0.02241215469675306 0.00912565386734227 1.205549580923955e-05)
(-0.07860564247697892 -0.0318653076569568 -0.0306895555591959)
(0.001217077635511534 0.002116674141896934 -0.0002198531062126902)
(-0.1172694009330787 -0.2151645265372621 0.01722409076717915)
(0.0009914548050849179 3.843622436805461e-05 0.0001692496559122632)
(0.04661813460049812 -0.006319202466106805 0.009133618493384649)
(-2.000724717407503 -0.5042445746258721 0.1765112407591024)
(-0.0236215924670682 0.003180856616141172 0.02666016833086848)
(-0.002073246735374949 -0.002249739031914758 0.002934831143685388)
(-0.01824150281627722 -0.005030345313564908 -3.759619085390124e-05)
(-0.0007641558926643364 -0.008956158634808302 -0.007069911857742552)
(0.01017260122868356 -0.003560765133723242 -0.005404525453289813)
(-0.01579024829498055 -0.009060484318027456 -0.003291901581142251)
(0.005722935931323221 0.0002345222412760799 0.0008804370496803015)
(-0.001497664612258547 -0.001522378959212901 -0.01795393592226934)
(0.001555526665392832 -0.0003943974089361467 -0.001300815183744749)
(0.003495423811313635 -0.02091047512235416 0.002948091367640661)
(0.004169027234274003 -0.004844505503429924 0.005416184246571535)
(0.03095768382961918 0.0266365462721482 0.02305679145125226)
(0.0009651696121823116 0.003296303933675103 -4.905238012484288)
(0.01137662802690511 0.01052507919916027 -0.008630500709703734)
(-0.0006026419889257287 0.001800712670620322 0.0009237661419569017)
(-0.01775192436608513 0.03102744271070394 -0.01702203026625996)
(1.107111010918599 -0.3439113099262295 -2.977280676242837)
(-1.351816143262402e-05 0.0002907217115854722 0.0002580839165032966)
(-0.164822351485739 -0.003138708007452411 0.06705039362789494)
(0.5637846391999634 -0.6034365654831747 0.1232793383675732)
(-0.0001653964845138907 -0.0009197951309696958 0.00189097392099941)
(-0.003652573533095388 -0.001953369644216914 0.001149468837600391)
(0.0001621033862975758 0.001592890666992276 0.001219114493130214)
(1.769189974810664 0.5672832994230605 -0.1901561720685486)
(-0.0007655206871121141 0.000279120462297497 -0.004092996737317283)
(-7.873024314237892e-05 -0.007917115506936832 -0.007036949682903409)
(0.006861075401681736 -0.01020866360377886 8.751740024913815e-05)
(-0.0002147214194413896 -5.37313563352107e-05 -0.0001598037110907649)
(0.003785317220235535 0.00123949909150037 -0.0002396508033987165)
(-0.03911671583622411 0.01083855777019888 0.00807739215376824)
(-0.05093454740957113 -0.002852659690007442 0.02619420744386571)
(0.01609222223341455 0.07745536002999212 -0.007631415453340708)
(3.445201643275862 1.406253491423159 36.90316989300452)
(-0.8904877546753915 -1.505577154624934 1.497833348617764)
(0.007273966238541648 0.007286138606581456 0.006581021512508556)
(4.014616732059064 -2.059804236754612 20.58809715394317)
(-7.900851950083927 3.805566744504816 9.449202778571358)
(0.3152154336279226 4.978987117765496 -0.4312085813953497)
(0.4097369904466456 -1.69760195600825 -0.9451872578855135)
(0.1214817631917716 -0.03026595578366933 0.07768672200930153)
(0.2463319988472456 0.2327121996261622 -1.032214713334197)
(0.04924612811944797 -0.0218767243667964 -0.3133956098337878)
(-0.002914473387629661 -0.0001340337082487045 -0.00185415562262564)
(-0.07204545615003306 -0.9063829523344488 -0.3942238085805681)
(-0.0002412844685319554 0.002192560922855557 0.002086244317586857)
(0.0004267157497646924 -0.006953772118777457 -0.02836741705284148)
(-0.0001461844273491338 0.0002887235854231778 -0.003908643820267971)
(0.000121528298231367 0.0005378276676598832 -0.0002348584453071874)
(-4.180171072206063e-05 9.384565118202359e-05 -0.0002763248783162979)
(0.0007676365307880825 -0.004183744726477518 -5.090901044672601)
(0.0007477593667878112 -0.003349434450469168 -4.88649920459287)
(0.0002060780409214808 8.760659810321091e-05 3.647158754656972e-05)
(0.05427193941886467 0.06357481993638217 -0.02494002661299312)
(0.01763929734038167 0.001938421826873395 0.001309266315762205)
(-0.06702225065732498 -0.002497993215954576 -0.0005645349959315024)
(2.598159066865617 7.246455101490674 -0.09721611052443491)
(-0.004925597024760735 -0.01635456524503746 -0.02717736501147445)
(-0.0373887834454395 0.01954340437955345 -0.01210820741069005)
(-0.001290566439993401 -0.006002475650493742 -7.956146578979541)
(0.295988613276697 0.03543278276671499 -0.1480379972264842)
(-0.1298387472994654 0.03081565157600571 0.07523317011236189)
(-0.7156859078539995 -51.21955901856131 -0.4864500316326592)
(1.604496244688043 -63.55503901469653 -3.010758444296912)
(-0.000568735795098866 -0.04396437352653575 -0.007546659930412166)
(-0.001399932823319561 -0.0227622665829643 -0.0122884721552435)
(-0.03977530989413727 0.02450233646683904 -0.02303352533069581)
(-0.1021287999041415 0.05660137001422018 -0.09132825431348304)
(-0.03974010837972808 0.03863993436749964 0.01903894500968956)
(0.002779705463475764 0.004092866050519567 0.003399919468558618)
(0.02462592253691284 -0.008737163920380459 0.01302939155811427)
(0.1195194048975008 -0.03390483529559287 0.03175033266915872)
(0.04029211949278573 0.01697744321402643 0.01664279841537227)
(1.322053820762204 -48.58201872323993 1.983541463881626)
(0.5975665609720926 -1.117835243636126 -44.60647945317961)
(2.949678514250322 -7.733610419236937 -1.00687779241911)
(0.001865894183860461 0.09262332090343695 0.1565397131355902)
(-0.5888451765513896 -1.224320543461051 -3.534946668341769)
(-5.100634810933467e-05 -0.0001383040152656244 -0.00037854823786566)
(1.32422363498121 8.389512036519935 1.898993539118173)
(-0.6906927488579866 -73.12469044396357 2.533078915807776)
(-4.333693081305006e-05 0.0008129397047946376 -0.003564947096324803)
(0.002819535435466811 0.006481171338408096 -7.745978105972735)
(-1.582778655803188 2.352681751922681 1.036759610609114)
(-0.001047018847194906 -0.0002134193388464389 -0.003560321867364464)
(-0.2860001778058061 -0.08116059718622937 0.1961187686530097)
(-0.74420176423476 -0.1740012066083322 -0.4352826664277925)
(-0.02427576130851078 0.01935212997741543 -0.03282942856625098)
(1.865373887630146 2.779889248255871 -61.29099377624551)
(-0.7255313051811726 -8.153652887675131 1.274658136396774)
(-24.90377853382869 -15.61808628835377 -10.46139921131693)
(-1.512621849476716 -18.47264211155452 -81.12162993926263)
(1.909010301432623 70.85164834313767 -3.643198109001378)
(0.004048914494574653 0.004212339420734049 0.01059779198999198)
(-0.3305528710277021 0.573290390947962 0.1674070629792783)
(-0.04934881140084987 0.05511560743820439 -0.04428150818676485)
(-0.005180011368688714 0.0003490476485837088 -0.003369506164511282)
(-0.08936718071595492 -0.01285400970380206 0.06232687410947674)
(0.9301629383045293 -3.651282183774784 -60.24791673900221)
(-0.0229141777796847 -0.03520639185157379 0.01103643647118187)
(-5.530649764689592e-05 -3.766012317198094e-05 2.365694880438272e-05)
(0.5678321021676193 -0.02504586567070163 -0.08806790008475943)
(-0.4771956314299362 -0.3428907543410525 -33.86995505112935)
(0.01902451256144377 -0.001577926251657825 4.579986198163539e-05)
(0.07137965332828908 -0.02892321667264582 -0.05991581740634295)
(0.1134501604078799 -0.04744900546454842 -0.1984045171643878)
(0.1337973743629716 -0.6270192551800028 -0.5557298484376036)
(0.03415659535816118 0.03596474638771459 0.007261380898029832)
(-0.0003496725990831848 -8.065980675288904e-05 -5.764998867686577)
(-0.14234674152449 -0.07264232129630128 0.05240309319303398)
(-0.009786054966105392 0.009547671576753094 -0.02233728697198872)
(-0.05420788499103836 -1.664964262467319 0.08687814311804169)
(-0.01549124595126992 -0.006200775994243291 0.00578228086987014)
(0.02140754524618214 0.008518257418687147 -0.02341494881962437)
(-2.820440924012223 -0.1028954296900873 -0.3574750924380902)
(-0.1644106701715948 0.05880716626895469 0.3008532487210632)
(-9.489851246007233e-05 8.799681988000201e-05 1.007699539479266e-06)
(-0.0001638210565067465 -0.0001654872035134012 0.0002196428233863018)
(0.003780262708998946 -0.02427734210779631 0.01592427316783995)
(0.1366075365160383 0.1265208018479281 -0.08164104580156521)
(1.206501433522475 -1.237806624913271 0.2943006713705054)
(-1.820407726684471 -0.3801551483260246 0.3693230780722443)
(-0.02161086225968597 0.02037293796624652 -0.01379527611847004)
(-0.1063205255790216 0.05840539136415529 0.04385489633700489)
(0.000248827117059618 -0.0001115012456744754 0.0002007101798133417)
(0.01051037378066482 0.00625800214872378 0.02383982616647733)
(-0.03999394070302317 0.003163824415806557 0.009625946890617925)
(-0.1520442474074867 0.2784721835371316 -0.008757512095948938)
(0.004701808725334622 -0.008661116461283629 -0.006351125581459609)
(0.02890933073841529 -0.006464037142248564 0.03090224825570971)
(0.0009352346861042694 0.02149291505723361 -0.0228349133694589)
(-0.0005973400852458191 -0.1580781287799716 -19.75817971473812)
(-5.04248793446352e-05 0.0003616908979343349 -0.0003520912647854247)
(-0.2682605647351836 -0.0100604123147557 0.07721941152808691)
(-0.0001305084173390323 -8.983707975728422e-05 -0.0001128456973666987)
(1.764341030703702 1.827880409535077 -2.222888351508271)
(0.1126890388321089 0.2492122371260879 -0.06279327787177881)
(-0.8796269343725096 0.8398402635001527 -0.09710075331779466)
(-0.06457725743539035 0.0257669903223172 -0.03910468778285077)
(0.02262364169973275 0.02428572626607455 0.009316100385696711)
(-0.2267236880565416 -2.539704626422242 1.658861258590782)
(0.01688934711674944 0.02011775495613057 0.01543327021583877)
(0.1035953053165948 0.4110548064928801 0.2520959083760067)
(-0.3391516649432116 0.5709937181493845 -0.1967698500346473)
(0.0006616875588090204 0.001270914030771467 -0.004497933954090751)
(0.7245691961558044 -0.4650615773588338 -51.70914157126318)
(0.0172477589833472 -0.02540548909903932 -0.01900266834870338)
(0.001337027427581564 -7.522667097983394e-06 -0.0003828081540083797)
(-1.646696779123175 -2.08580534242145 -0.8907960842047963)
(-0.4895624418333936 -0.648416961804624 -0.1223074747018243)
(0.005855711981902576 0.02130453913509618 -0.02578603724361042)
(0.04505328344509892 1.734534630983832 1.558093873188121)
(-0.01075331071783839 0.02176451097510052 -0.01810441714317442)
(0.02305504770662335 -0.002268615604836224 -0.001142330397394914)
(2.896532088095041e-05 0.0005116851510589197 -6.430565738105428e-06)
(-0.02016170026879888 -0.005632992019227619 0.0110219408149632)
(-0.0002091859684108328 -0.0002135822109504654 -3.767030814570962e-05)
(0.4834711241414683 -0.1783671312546515 0.1694288581649856)
(-0.02639461068330813 -0.05460550823196211 -0.01399402715092906)
(0.005162839817749074 0.01234279742168147 0.01095940586567333)
(-0.9396023736485655 0.5295092995123123 1.448452088752947)
(-0.008663030261487275 0.02541167716370588 -0.03886696526551644)
(0.002621496445495856 0.01321575270851224 0.02687953972686164)
(-0.04531868812262576 -0.0193944933102495 -19.60677963883077)
(0.1107143891117281 0.2245660749133205 0.04462466846489129)
(0.0483763141436712 0.1953612040216952 -0.004778255910137599)
(-1.445154880006031 -1.752443151703869 0.05840772389866966)
(-1.099575715911581 4.146025424759053 1.464009937797831)
(0.04169476187622975 0.607788960397493 -0.09716189530172314)
(-0.09250715320565858 -0.1594023873782553 -0.01892074848345263)
(2.691909641528865 -4.450132511968484 -2.404121621076905)
(-0.001373043371373422 -0.002220091047026043 0.0110349637936777)
(0.03494760558923231 -0.0103882908481042 0.09425334507288112)
(-0.05037024156557254 -1.867242308561589 1.33051631293782)
(-0.001302329601542834 -0.0341729909339088 -0.01324222898880684)
(-0.05532498527772481 0.03427446618244115 0.01967818300134111)
(-0.05454289457394397 -0.1016074748461704 0.2340899123546339)
(-0.0209586574234884 0.06168353316210043 -0.06539712970722665)
(0.000235899651179635 9.115795246787387e-05 0.0003678030343088256)
(0.1368274148500062 0.2164969725924732 0.03982613580145672)
(-0.0004688868504273809 -5.872109721297443e-05 -0.0001616452697961798)
(-0.07069558154885394 -0.03301661862213139 -0.02817281044227347)
(-9.763937931202366e-05 0.001938406748182719 0.0002590480146765582)
(-0.03723776702796138 -0.1357673611949232 -17.71048223802676)
(-0.7608429968237469 -0.2486433150370178 0.2613095139572015)
(-0.2700253382937245 62.26734628212052 3.446836215919363)
(-0.1012145951142732 0.03426807588001191 -0.02128312371405244)
(0.2304539743971981 -8.457575088200466 -2.114439484261352)
(0.3179019000050336 -0.1270246626994784 0.01346790722640503)
(2.420512959153811 -0.3009063626349523 -0.6558639438370688)
(0.5014122311362215 2.847970101987002 -0.458183513122953)
(0.5001711343563006 1.482641022136092 3.766806320051351)
(0.04957413863862974 1.019014046848042 -33.68310237158793)
(-0.1207682422698816 -0.03442627815698782 -0.3289688736807445)
(0.0001155772397552638 0.001264943036081686 8.249860230092899e-05)
(-0.03851289250211995 0.0265751981955804 0.004334243692391561)
(-0.01829794496254526 0.04618695981394294 -0.1084579924149175)
(-0.004237264877515582 5.298471949878852e-05 0.01017367524438187)
(-0.002750248287475636 -0.00188706769462685 0.0009289545822081043)
(0.002432181610049991 -0.001257477770894798 -5.538643650314002)
(0.0004636412706392428 -0.0001710347954857328 -0.001335171625139471)
(0.01429460895316923 0.008218860457327386 -0.01701594838115422)
(0.2798526166445638 -0.1652009086510453 -31.54652313328373)
(-1.918892671307744e-05 -0.0004575819792449337 0.0002581330419654507)
(0.1133450621637986 0.03166259324750787 -0.03722540994533847)
(0.002545666684200323 0.01308940569250771 -0.007370797086290837)
(0.0235985118600863 0.04456120564917733 -0.01702735802715378)
(6.814054488785282 7.024240350138085 -2.720494871304597)
(-0.02943680987637538 0.01864156893162617 -0.003885729578830514)
(-0.03378367482169053 0.03874106711993187 -0.0524418868186071)
(0.00497499204939635 0.003373545361304981 0.009121353479733234)
(-0.0433973798080045 0.03730821780301962 0.05566461798781656)
(0.01895350216573004 0.006550688809333884 0.001200393125562305)
(-0.1100416766726726 -0.04435883723820792 -0.0835969952116242)
(0.0006348140075699688 -0.0007140871354172989 -0.0003663793433899992)
(-0.000105938315457152 2.752349708067644e-05 -0.0002874789106521527)
(0.6491303216514178 0.1839317082442127 0.3681979026098178)
(0.004117156237492603 -0.001280335560948462 0.003246507155615067)
(-0.03249811553515749 0.01882310648285131 -0.0025914016593443)
(-0.0001530160896587125 0.0001141965367276301 6.645371184876993e-05)
(0.001273744021869149 0.01545541054838291 0.01176128696610647)
(-3.282306446567617 66.18778595601687 -7.956552948263035)
(-0.007036104572023315 0.02626959472942612 0.02271055667309713)
(0.0004519624197816334 -0.0008783337328996791 -0.0008511273257009893)
(0.0007080785004723376 0.004129539700718422 0.0007926791494785042)
(0.5325728438064594 58.89006166869878 13.30593708802257)
(0.01046560371670231 0.01086575848411502 -0.02326588064398679)
(-0.001731808713973174 0.00158547034235413 -0.004166628587405623)
(0.07048879031888221 0.002068730552202865 0.01011660931301434)
(-0.001620553959879479 -0.001505251262010547 -5.012420598365015)
(0.06693387741536364 -0.03005586377205579 0.01956750676574147)
(-6.999805196358694 -7.998798440364306 3.788634212614253)
(0.1438965665051237 0.1922471411708322 0.1713834274747372)
(0.147408414199945 -0.1651345129218903 -0.01738309576252524)
(-0.0001140361523999622 -0.001484142649231433 -4.819293133992654)
(3.850724037704825e-05 -0.000441670455758901 -0.0003770315847103761)
(3.586434790269091 91.56209688151439 7.622786944329476)
(1.942541631555754 64.94516888865142 -2.471132808240571)
(-0.0002925399155116758 -0.004175058258540967 -5.016182058522149)
(3.117225818407277 9.772396761827288 4.577953701748509)
(-0.001564407197376146 0.005780919300618187 0.0003141222438968294)
(-0.0534455533631451 -0.04161342751322372 -0.1025955349869804)
(0.1196562954347729 -0.05753529748693495 -0.03014907060843871)
(-6.061456632961099e-05 -5.310633762843454e-05 -0.0001274900676398617)
(-0.699256713458424 -44.74025533812972 -1.107182112947544)
(0.1907133762092632 0.03591018577602323 -0.01211637833144508)
(-2.486687412613275 -93.26239214967828 -6.737331366893033)
(0.004421397538594662 -0.04257765835566987 -0.02169543800762659)
(-0.0333027101534911 -0.02528547230561225 0.003389843231343996)
(-0.05590756263321589 0.03224208308972448 -0.0235206748267484)
(0.1169863781593879 0.133240045669114 0.05400612371552497)
(-0.115306759996876 48.70822095648283 0.4338473816494719)
(-0.06200441732420927 0.100654786658629 0.005906527208352793)
(-0.0054430010067507 -0.08434301300510083 -0.03965185037775414)
(-0.04346198310142783 -0.05877413572193372 0.03179244014004456)
(-0.183846377554904 0.08739396016535975 -0.0390212017863622)
(-0.009053816418659199 0.01593178014097944 -0.08327760044256519)
(-0.001176207625742068 0.001164989508873783 0.001503480665188499)
(-0.1016825855637436 -0.1896187203362312 -27.40673447666842)
(0.9326036266504232 0.1782585514280015 0.2380567741725957)
(0.0005384081800142095 0.000447210863901525 0.0001646155249989583)
(0.005309158527950065 0.002204039450704042 0.002408573518865985)
(-0.04827182524767749 0.003445196030400537 -0.01425808575060459)
(-0.3796895623234473 -1.179883644965327 -1.441337167605502)