/*--------------------------------*- C++ -*----------------------------------*\
| =========                 |                                                 |
| \\      /  F ield         | OpenFOAM: The Open Source CFD Toolbox           |
|  \\    /   O peration     | Version:  v1906                                 |
|   \\  /    A nd           | Web:      www.OpenFOAM.com                      |
|    \\/     M anipulation  |                                                 |
\*---------------------------------------------------------------------------*/
FoamFile
{
    version     2.0;
    format      ascii;
    class       surfaceScalarField;
    location    "1.6";
    object      phi;
}
// * * * * * * * * * * * * * * * * * * * * * * * * * * * * * * * * * * * * * //

dimensions      [0 3 -1 0 0 0 0];
oriented        oriented;


internalField   nonuniform List<scalar> 
37380
(
-0.3767006803567361
0.9975817718672796
-2.774287045239745
2.153405953699467
-5.198046192413361
0.8158658089660799
52.37869637658667
-47.99651599313518
-18.28160984495993
21.92206376136853
-22.79751519589872
19.15706127944842
16.81097519621914
18.25985900353127
-18.54855896556506
-16.52227523418638
-5.079417677660937
16.72672405445319
2.816159328838495
-14.46346570563648
9.37882451757814
28.06078261011145
-20.93670079183548
-16.50290633587563
-10.21457124230787
-24.8449917588399
44.43838751871692
6.965268391322692
-2.987994751613239
7.616669376684151
-11.59394301633646
9.644851178782615
0.434034148537543
-7.429075186128884
-2.649810141223727
-8.927714513266301
7.625557565018244
-3.179978584946539
4.482135533364501
-7.534246830771782
-7.28911274573261
14.8211241812453
44.36745258927557
-10.68714965217375
-22.31960714317011
-11.36069579394374
0.8539071201699585
4.845556785420069
6.947089127226149
-24.12162952706769
12.32898361441923
-14.94132593266291
23.74528403156527
-3.411838069804945
-5.392120029080198
-1.497928106527112
-0.9569592790891968
20.44785100683573
-17.99296362137943
4.408092869339905
-0.009903151015398862
-19.33951565098631
21.12713203265665
13.41320055005812
-10.79504855115384
-14.16095671975543
-9.920105109206423
-1.584388221057037
25.66545004999766
-17.94271743335562
2.293398956207215
0.3261124296814194
15.32320604755816
-0.08344705065927931
13.59377351949476
-6.545058077442124
7.288061393688452
2.750201483048203
2.533458165272633
-12.57172104155762
13.58484296299124
-1.53593856882584
8.272020287981052
16.64866353303283
-3.793551788382457
-8.33443848480192
15.13299852112066
11.10337133244248
-17.90193136855922
-6.21762936408133
-2.209825468726299
8.861488981442037
-9.713240255978462
5.609482422760672
-6.414481221062134
10.51823905457384
-3.223608648513905
-15.90585106932982
0.7819825451970768
18.34747717267134
-5.087668854864993
-16.73035174737629
6.42197770622481
15.39604289600787
13.99409677109841
19.5338589153524
-0.9076788609684372
-32.62027682548054
-10.1529601932453
7.736565063510031
3.938693842279918
-1.522298712550971
20.80595531405993
0.3827826822813157
-24.41234664485436
-17.59292451348179
-25.33986869272687
19.0789574508151
23.85383575531568
-14.33843052179021
15.42802289679941
19.71636293903649
8.560952104877716
-8.749804301553425
12.97434222201863
-12.78549002535968
-8.043067176675262
10.59091606150172
-12.92190562663466
10.37405674179463
-23.75454855207188
7.424974913838522
-9.019991785028811
25.34956542293352
9.290540653488831
8.76801390729389
-18.0600006027936
4.575176668798717
2.626812047897036
-10.18998346822608
9.077099640567265
-7.307480382882892
7.520921395801909
-27.40772291105415
1.951299205337799
24.24132411101606
1.215099594735344
1.466309814388781
1.305331915955337
16.38033353710614
-12.79154095123314
-3.135542333137174
-0.4532502527415747
9.132457137856187
-23.37711948265191
14.85398540094846
-0.6093230561525533
9.219477801693502
-11.83758424489754
28.12869737332095
-25.51059093012914
19.29131971581653
-8.679270210473268
-8.239553336346651
-2.372496169086634
18.89805274247134
-18.97306114773523
-0.83894434970734
0.913952754908083
4.827815043572323
6.964095099338687
8.368033892635401
9.416528909378531
-16.67422511537837
-1.04972432340282
8.307420529363842
-1.889045192833921
29.90344037667728
-2.923276501269652
-25.09111868259884
-15.5741100688168
-9.511163016311841
10.24103405475018
14.84423903036444
-0.1521008661441438
-12.26030058210051
12.40872376723064
27.8531653102265
3.220806471255745
-10.75020920248597
-20.32376257899968
12.31706357481933
-6.314894935223767
-4.652833847140276
-1.349334792474081
37.05784779521497
-25.52925753117599
-34.51962960775725
22.99103934365081
0.1593063701428629
-28.65267265732177
-1.039209256335196
29.53257554346998
-16.11946877980452
13.56292244381411
6.843025239109799
-4.286478902999367
13.94612417153474
0.3471225879088743
-17.24290822365087
2.949661464099464
-22.18767078906308
15.41855030712969
9.945543093017234
-3.176422611117243
22.83901366515325
-22.06668167376629
-15.38230482594157
14.60997283454609
0.3937144296002218
6.647112080825701
-23.84074186201063
16.7999153515723
6.197746797797956
-8.333411124870677
-16.82295684406992
18.95862117113398
-22.63930953081951
2.171407164114735
20.07375030846626
0.3941520582624467
-6.749866337045705
-11.4838891973438
25.64237378867506
-7.408618254291099
-29.00145861856867
-17.01332681867761
16.9841125857028
29.0306728515079
-21.78072194425985
7.07425577230724
0.5983886160906602
14.10807755585548
13.88555969984884
-21.00882412982459
-20.28445848100852
-11.08084985918534
16.29785035069573
-9.217535976541456
4.000535485027881
13.55713155084099
-18.66483203511656
14.94386802632693
-9.836167542089488
-21.84100228120469
30.72331228124867
-24.89437485934693
16.01206485925091
23.17885824441384
7.007286501736657
-27.69886917935383
-2.487275566795171
-16.79149665835762
-3.733518337780451
12.20160567402712
8.323409322094081
-1.3230660218887
5.206136011679593
6.177240469808268
-7.819693165036704
-0.1053892920653602
13.08256089972544
-27.28042076766184
14.3032491599208
6.997494754563431
-16.30619129449672
18.80402538721018
-17.14803407618429
26.88063006753344
-9.733752392707139
-11.27690205042003
-10.40871377610737
21.68584451547216
24.59196650464166
-10.47063167660039
-0.2357751281807549
13.5323135496314
11.34767039089989
2.637668114109383
-27.51765205466442
-20.91942444270181
8.14423204333044
6.566488278891949
6.208704120131037
4.437807996746686
4.834956176055016
14.39717186573702
-23.66993603852377
-7.849558930616152
-12.41856912920335
2.364755597405662
17.90337246221951
10.45855787875188
0.779132431195684
-15.83840150799762
4.60071119807275
-33.11263808274219
-1.70755858011641
8.323510678244761
26.49668598478734
-24.36934950180787
3.876616213929814
-12.61990479483272
-16.21383157265054
-1.055823933253899
30.45209871717914
-13.18244321128231
-15.45069556121866
15.94528161270491
-0.4977855585521787
-4.150681086223489
-12.62287132851104
18.42792762029209
15.51741113469071
-3.143890726048058
-1.414774985124732
-10.95874542347026
-6.598185463355745
5.854669809177881
-0.9653513425110311
-4.925865001079416
-0.7069691196826603
5.883886435532347
-0.2023760389822533
-14.55919218375891
15.03044307776988
-12.69226140375327
12.2210105097339
-0.8251599562679545
-7.677639446879058
6.242791376493401
-11.0450545147509
-19.34173997775087
-3.466704855898899
6.594613260997312
-14.25022762693886
-0.3105309465979182
-3.36486988178566
7.939264754299343
13.10148328395531
-17.67587815630003
-0.4386257043566766
18.53831311878502
-18.10100646555262
18.97494084342149
13.24111025047041
-21.82964170393013
-10.38640938997452
-38.05255787454269
0.06899410438540544
20.91532197480871
17.06824179533315
4.409072756980519
-30.71295455991651
-1.878352796024969
28.18223459894266
29.21404876144642
-25.17265922833243
0.3676832238566151
-0.1569982142898561
-14.31642053368886
-10.74888812983015
25.22230687765533
-13.37280971231327
-2.612805434349386
18.28269029316307
-2.297075146502757
-26.79039353321979
23.42943422147983
-30.65627605472636
34.01723536643074
11.85533688444807
-5.761543465270445
21.21116147505504
-18.562694014234
-7.682779972898246
-7.466986680249184
15.14794513250728
11.26390088806192
-13.5194270094307
13.93524734405786
-11.67972122270622
-20.18975784277503
11.56539568936485
5.858683123004134
2.765679030506324
-4.967108799316408
20.56172300291821
3.255274186371967
-18.84988838995004
-17.00504788667034
12.54610643859441
-5.15172853576227
9.610669984020017
-9.91503509637675
0.8023821485839626
-3.113281967409427
1.042840561026626
1.005977937541059
-7.254655924357357
5.205837425790592
2.471414705356651
-5.913540148110735
-13.23620760400703
-17.66854345224533
29.31594170781744
-10.17618050459033
-1.471217751013237
7.060524886169789
1.208799723576446
-7.226484048649277
-19.51446204258994
-12.21060121307483
16.88821014940956
14.83685310623259
-1.724519621385754
8.160116304886412
17.77252580864033
-37.313137964098
11.38049585056408
4.985116564101517
-3.334755970906043
-9.16690933435159
0.3048951370320707
6.804838396453923
15.06520734449328
-14.13181276151089
-7.738232979407182
1.582916966906471
-7.548749374621279
-15.80067641620951
6.968913926269565
15.45656046516882
-6.624797975275769
23.13382695094042
2.752337219109358
-18.85320443751296
-7.032959732550576
-6.831028979157257
-0.5899904067944171
-13.49840505695537
10.76543666301728
0.7845657507824857
-5.726647775222186
-5.823354638505187
19.01028717155409
-18.38366917751991
23.1112699089811
-23.73788790302315
-6.080834542527297
-12.15353218440666
1.54914487820697
16.68522184866619
-0.2508962762282363
-13.07925401045995
13.32828430386216
17.28523288002689
12.66711465799687
-6.992477444947207
-22.95987009270801
13.12173319508195
-1.800963013338877
21.67784219465541
-32.99861237641674
-14.54567519374309
4.268785716439395
-18.36147896443441
14.11726631461367
-0.02457306622133297
-24.7052107249348
-11.81126083730462
-3.026948960061643
16.66556294409319
-12.84530154444394
-0.7933124394760726
20.6672693064716
-16.42921470267046
8.88367859126741
-9.048937938624208
9.115904169527175
-32.44328449036691
16.84132053373714
10.60480742771074
4.99715652891495
1.709784914217383
-2.555245761613457
0.3571015054885504
0.4883593419326659
17.56701928978912
-10.62713049317592
-24.69789523241501
17.75800643579893
-6.420710432553593
9.62573466658638
-17.67052633587661
19.61285179756813
-11.56806012828076
-8.712802642021146
7.687438979801581
-27.68588753138426
28.71125119371334
-7.715134756388969
23.53904595253138
-2.684567807716246
-13.13934338845366
-9.7061406292457
5.740663959237772
-24.25345052391676
28.21892719400501
17.95388363738919
-9.18736527991598
-21.15706015205662
22.25623550005904
-18.26253095571342
6.236058904091528
-25.71892700404446
26.08519073631719
-6.602322636341557
6.521325912968673
-29.95115815070232
7.878358222700617
15.55147401503539
-0.4525314948536598
-0.3913358170688423
0.9182105234291562
-0.07434321112523626
-12.14536632113077
5.752183956166244
7.94510794221986
7.830969995175262
25.30783244387379
14.21510452698938
-19.63803696215179
-19.88490000876378
-2.093200578119643
1.364514026236195
-8.320251386677008
20.27753566504128
-0.2728215459904058
-20.00564747413359
9.237880227243977
17.9931778926332
-12.96983048396128
-14.16952044908835
9.146173040393867
-16.55839615909097
-2.218160808361533
24.43243233162721
-5.655875364187523
-8.662674501699458
12.23278751426159
-20.12850917166474
-23.46160216039607
30.50436726016548
-2.762137334112897
-4.280627765636065
-2.654561634808672
-5.052129938740464
-1.648717865140176
9.35540943870569
-1.315218986752711
26.73870652016809
-25.42391000790117
-10.65846297706652
-29.74558225153658
16.94244306819617
-10.13606242078843
-4.88548494744158
-6.269579284489457
13.81393977922072
10.36190411078776
-20.81949747179785
10.45618604943587
-8.880603036050376
20.47638200691012
0.6332556831774376
32.50212032580987
-15.57118963649106
-17.5641863725092
-9.764413551569117
19.87310446191772
-10.10966356189973
-13.11462286966511
28.19730654445953
-3.629694200313843
-10.06845947994319
11.04359204550689
14.93346646622553
-9.898264994387219
-2.394134486981893
-2.641066985001454
-6.420241441794801
-14.34361361508525
21.67081929741778
-0.9069642405395856
9.380954804369578
9.17414001692504
-5.747370200930936
28.96218482658864
6.003128488980842
-29.21794311443624
-24.5346061930647
0.1377430236234604
24.39632371517272
20.10646864322248
0.7520019478622708
-1.535973875967367
-19.32249671512304
25.51826927489471
-16.99747393826141
7.12412249268082
-15.64491782936553
-4.084700809550472
13.51314176513624
-4.423146479424853
-5.005294476148768
16.71265161470421
5.947692545219089
-10.34569718763405
-12.31464697224799
-4.118679453781698
6.515004379764567
15.12224316336989
-17.51856808935707
12.44361934506427
-10.80097591852594
22.36555270359058
-24.00819613013167
0.01362650757443914
-0.03315053689843052
15.53644426879388
-15.51692023948241
3.17837841241705
5.915516707254461
1.671541543354323
0.005076121417726526
-20.11547177297416
20.0902737201994
0.02012193135437174
21.64352289227038
12.92948877957565
-22.76114042784722
-11.81187124404557
-8.414577608534772
-7.631908856965066
-2.015029677315155
18.0615161428123
-6.432841200652688
25.16982056950375
-15.68049203317987
-3.056487335723722
-11.32099478055978
30.63829958747911
-11.39951110503504
-7.91779370193971
16.19557637667854
-15.22252682846874
0.738028351807244
-1.711077900064534
-1.921455630692698
-1.302003125930302
19.41903513327
15.93554454238389
-22.1295912146621
-13.09036243262758
19.28440910490766
19.12287110503168
7.101782575913669
-23.69643546892201
-2.528218212050766
2.972848799387565
-20.02191766528965
17.04838291353549
14.30489142836696
-16.60098531519615
10.65017571373894
-8.35408182696654
22.36002591883374
-0.635716059228455
-22.31375228404299
0.58944242443402
-19.05402158508848
19.93026792125782
-2.797701966900844
1.583289991838766
-17.93499371814201
15.87091453945279
0.4807891868699788
16.723695837201
9.199969507005489
-8.929586550452445
-13.10206869036483
13.15951313964204
-0.05840783121795762
-18.66452312882949
5.598002537639994
15.03882238196069
-1.972301790774837
18.65530171515941
-8.500024929443761
-10.18679352807971
-9.661230343594925
12.84055391261782
10.36167832128879
-27.58116241786504
-3.275672601405679
2.764053995091921
28.09278102405122
-0.001680855295249627
-18.48453610149226
18.48449468597331
14.99874524394894
-26.43804141988936
16.82586946827351
-5.386573292343387
5.701834245000344
-5.463586724242131
-15.15567641311806
14.91742889232208
20.09762727147915
15.0894834917463
-14.90957509819037
5.774513671348773
1.724260682461765
8.699580732193105
-24.85572558864959
35.71146652460799
-2.825685426554003
-8.030055509462439
-14.6400833036178
35.71123674316797
-32.5565298819312
11.48537644237618
1.190454420550827
-21.71052373364516
3.004342615889481
17.51572669719539
-13.56986378859647
-9.101580133652757
30.79421134056727
-8.122767418290808
8.734963398597888
8.052293695322241
9.231052242154478
8.246188817158911
-17.47992174186739
-1.438305574710785
-27.3827014663675
29.43021114797728
-0.6092041069049756
21.78273256311578
-0.1463140946191854
-21.63686999356411
-20.02476901368636
14.20459709513925
6.505593275014752
-0.6854213562912803
21.06400167703689
-20.35405498553859
-11.68475574926817
10.97480905776946
-17.92258361175455
-15.30148714143374
20.11827217543545
13.10579857775094
-13.92357049847017
8.625537412365102
-14.83979224267958
20.13782532878566
9.963455296871192
-21.74345146026947
7.764630045786622
10.31390556542524
-12.23302708368671
-5.845508527534386
2.411583442718643
7.838503549216798
-25.61104619583979
4.939649111138717
1.190536314650067
19.48086077010766
3.837976866883904
-19.3087369466951
-5.638928277274986
21.10968835710691
-12.62038183962524
13.23791956733283
-15.15351275495678
14.53597502721062
12.27617586175164
-12.13622083955122
8.663202112947607
-8.803157135197722
-14.82575113500506
-5.602065725378846
6.249133211193893
14.17868364915379
-11.6981960651659
7.381553799501224
27.45046921659455
-1.665036110945812
-24.76308445955794
2.472682457529895
23.95543811294356
-15.49072554438838
-0.02068541091852748
15.50939165531301
-1.442387654304256
13.44427236155952
-12.00306711977412
-26.44231990852998
22.41928314772301
-1.091904436933883
5.114941197732583
-17.16371517668028
0.5022607425859799
17.42318807213832
-0.7617336380735537
-20.98579772513493
0.06804129969152675
10.77609779832994
29.24849938431775
12.45225498462244
-25.61827809122903
-16.08247627776623
10.19595543603227
9.053625549692486
-15.72853758175096
-18.37244568943306
10.790891197018
23.31009207414274
13.43722996976917
-15.94710074392818
10.27450081993476
28.0920189710714
-22.28151585267657
-20.22832509033843
14.41782197193638
-17.59370173781797
-10.15866475439818
14.36117830073531
13.39118819154871
9.509207337093446
-22.24173003768298
-2.996014881196393
-10.32190710588525
-6.420099060732342
16.74010086206936
-12.74288320383667
14.95663866684537
15.61407014173699
-17.82782560469342
0.3808236011023753
-0.2316220491175175
18.6907567728493
-18.83995832484106
-18.77187544834901
0.09042083942792623
18.67773372510489
-1.307940601575455
-14.92935279388928
25.7465007325198
18.74180413359776
-7.348912372029838
-12.70083236320047
-14.92958596945936
11.47727549250939
30.28104304863001
-23.0165144076331
-18.35448136255459
-8.584612389954026
12.00974095860032
-8.745642602555414
1.839708360740735
-7.069508572256505
13.97544281406917
-21.3763673096291
10.78106746746282
10.59339207881417
18.55301523725825
-5.848716926517436
8.056604903933788
-20.76090321468496
7.520756135014548
34.54218477810937
-3.038667888420098
-39.0242730245681
-0.9979561846161233
-3.425627493758215
16.89716504979566
0.8491786482362019
-14.32071620429112
6.128731869631047
-2.435242907889166
15.88734189873918
-19.5808308604351
-15.75091677496643
31.97220357445343
-2.144608609600873
-14.07667818988834
0.639359251447888
-0.8516413502637565
31.20764430793722
-30.99536220922901
9.627512670927432
-0.5564709336375708
11.36556192300086
1.715230975503944
1.750836172842031
-14.83162907137171
-3.965093462448107
3.281867225893934
6.5671126721271
-15.61203193366578
18.683606949584
-1.355327955339557
-1.716247060705078
-20.6245093673012
22.48884244259079
-5.735621491195209
18.54199763170413
-19.54038408476117
6.734007944228361
-1.451059465514812
7.113478674193189
0.614892897701655
31.24793175224749
-3.266777123644423
-28.59604752650915
-12.30397404412544
1.01251484301263
13.61774887902435
-1.119961569492737
15.24071080927564
-27.73849811891883
-25.19242048638234
10.81400377322505
1.96166360162717
12.416753111395
-6.886342623951239
-0.2823952102171017
-8.698788534416668
-9.744532758113017
3.858774543333726
19.82548815344529
-4.284889657838229
-29.5381651370886
-10.958284586986
10.85178081154362
-0.2400830229356625
-17.1754574328916
38.87624292492695
-21.46070246913528
-33.271028045368
17.80727325875863
-1.96559616666495
17.42935095327984
-0.05974332510118242
-20.26233594808999
0.07678741427796799
20.24529185890786
12.85865375314351
-34.88904019010879
12.75713781689345
9.273248620022969
-17.62685424368335
6.052182636254747
-15.22226418620896
15.22486854493247
11.459068986151
21.97301539120339
-25.95558265988392
-7.476501717491066
0.1029860583054028
-22.62602649167831
-0.07685095217782377
22.59989138553292
-9.746263242803497
25.2403032048006
-26.13964876734384
10.64560880534241
2.869261163422542
-15.37878531451334
4.672829361066212
7.836694789964072
1.468764881578537
31.16207041501933
-21.17176631045924
11.99165361300432
-11.28274508246541
-6.575808673020371
5.866900142474797
-5.688478983109074
-4.071651827313652
24.56302443940697
-14.8028936289821
-35.54284379947521
5.728107379319606
2.526492649256738
27.28824377088909
9.374742911820981
19.34440249455533
-9.312708865749167
21.98004177197218
17.98705201125917
-25.6833237112814
-14.28377007190775
15.17237423586115
-15.49429001419319
-5.242315395222389
5.564231173553171
-11.48565197758889
21.38221063121998
-9.897618983708423
28.12960100139755
-23.00258745720846
-21.69480201581819
16.56778847130749
4.906555341372488
-18.99233553036275
12.44435083065143
1.641429358334544
-1.034212221726909
24.01040724288555
4.123702356150308
-27.0998973773144
2.136379628165275
39.72048069415457
-14.96053183155994
-26.89632849054102
-0.2705193086655548
3.02619468195863
29.05879692765042
-31.81447230111612
6.601566893269793
2.749783831405308
-14.70490444685538
5.353553722177185
-4.886340377674549
15.25614778756869
-2.193551250613444
-8.17625615959483
-15.9855723460489
-9.655179371650677
3.358724027041514
22.28202769066854
4.740787623932452
-19.71772196137587
-5.453042685272603
20.42997702271784
6.915619171225389
14.10573436956765
1.075376200834015
5.348710489868412
-8.517287268754519
8.680119542581094
10.87491510109335
-0.6759476078314397
-18.87908703588069
-0.5420800032429535
5.452951218048169
-6.635390836177153
10.49817175804356
2.937778448212793
24.48449049543648
-16.05029583790782
-12.48800283661991
4.053808179099428
0.6851000996105444
-0.7408652856105449
-23.46006445054455
23.51582963647492
-2.665864637044874
11.1217670266298
-13.13321834492571
4.677315955265941
-10.26159479436058
34.53017079084141
-2.625053104242856
3.97439689715081
7.678563948341226
0.07812819266760623
-0.08751729353076668
0.5797381626850487
-0.570349061611198
11.65463026856186
3.660763726105601
2.842138006712781
11.19242522090847
-0.1566260121770939
-1.425129224738049
19.38757675849706
4.873218403766566
0.2986449225083178
-24.55944008451998
2.834714106237219
-7.435894773702401
33.15490673906151
-28.55372607141465
-4.9251606935652
-17.15018810151358
1.081778390031302
2.722057506519554
13.3463522049385
17.03704323102873
-0.8890646312594284
-16.14876796412724
3.544721456524004
-17.68239231290175
20.90508798895187
-6.767417132664267
-14.88231560443578
17.20728615911263
16.57478897610851
-18.8997595308166
-41.74139490658692
-10.33824445399156
24.44669979196497
27.63293956856466
16.49858941418434
4.598488498409107
-20.72665367595148
-0.3704242368375832
-37.28884983557025
27.86902864492211
9.642535966013456
-0.2227147749608138
20.15087054377781
-4.182912932872403
-25.04895333790823
9.080995726993608
16.99249138910097
18.87660652425994
-19.3705084995633
-12.0564994583481
4.932465106344794
-11.36694546328353
18.49097981527724
4.305516363067637
-3.670954923349316
-1.727470329505946
1.092908890200752
-34.26340533237845
37.49224597448236
1.375164600197621
-4.604005242295957
28.96711236208609
-21.62039591578913
17.28888060825016
-24.63559705456772
-15.24103794393186
7.56916609574417
24.6643632371055
9.955955091071029
-16.27773872735751
13.53272175113548
-7.210938114855534
3.422365830359005
-27.07852826676862
16.8096516537575
6.846510782689479
4.774532398439999
-3.698082167356486
-14.03489060583944
12.95844037477566
-12.2564163033277
1.61386685777592
18.93316773236218
-2.663117249797672
-24.07424407803179
7.804193595470734
-6.936063628222035
-20.23019625124386
0.07044476400191117
27.09581511545345
7.361662730663856
20.66863178586652
-9.097126784200791
-14.32862136174754
1.905140241725344
12.42182804524589
17.59079654295619
-18.51701021053174
7.406152932584604
-6.479939265029002
-24.02992596288937
15.74161626206143
13.30105472923311
-5.01274502839695
-3.667759823204725
3.056413541870894
-19.24551927209216
19.85686555339969
0.6891885443645809
-12.16067057584278
6.599186736286264
4.87229529518221
-15.67017468005629
6.516981990254407
10.52692594079554
-1.373733250993379
-14.47368802031165
23.8663849893711
9.994879789483845
-10.0870045046219
28.03833847685107
-9.519197235164736
-8.432136737069353
-5.268870306622013
4.021749422499454
24.46392258964349
-23.21680170555691
-32.10029995342581
8.295704939250188
20.65746451607756
3.14713049809544
-24.35488316291495
0.154700606356007
-10.16359438666357
34.36377694315063
27.55631124173437
14.93730688314684
-14.45842158821252
-28.03519653670442
-1.57026885735731
-7.681369831847912
21.56944494660179
-12.31780625737368
-9.504753615880436
31.50722124936145
-21.38740092767164
-0.6150667058152853
11.74569525246613
15.51062474781774
0.04639386449458727
-27.30271386483404
1.668915833383702
-23.42076145327555
-1.574004248238329
23.325849868125
16.15662207682318
-13.28133004669061
-18.78114309945478
-0.4424015698531371
14.25828534211062
-13.8178975827626
-22.14560917551168
10.99563648396794
11.14897234019659
12.12377373815614
-22.62473441581289
-7.73135784160517
18.23231851920125
-16.70277585274163
13.85700414376486
2.844082609794174
-9.07215876933312
12.43095643119977
18.07414243759325
-21.43294009953156
-15.99719693339511
-2.811766198512826
17.50696000592549
0.8039714096491347
11.91996258051935
-24.30674395022973
11.58280996004724
-17.64370606378867
12.73771865880401
-11.09120952845873
-2.989237384803654
1.244398881399034
-18.42788538855348
20.17272389191102
5.788343671823781
11.84592733954505
12.99696418611531
-30.63123519751936
18.75118217406148
-2.135575192814159
-8.171427551658743
-8.444179429537586
7.497121990549361
-2.46946989298679
-21.38964999182656
16.36199789426259
8.913629987007923
-28.67786188066614
10.69207312427535
-4.784664673190751
-13.04186235957712
-2.728654353738862
20.55518138642607
-8.000206552356723
19.09418820138799
1.885958253803414
-12.97993990285104
3.0216281592957
13.84650353235191
2.050811471655208
3.926905368760334
-23.35192261212219
15.16287564258681
4.262141600760061
18.80317568188847
-15.075532752291
1.558610690205389
-5.286253619801673
-14.46383169322439
1.139963974050411
-2.052698501607396
15.37656622107703
17.39357594062786
5.844577469828587
-19.06230005001996
-4.175853360454846
2.635710268932469
5.125070189198747
14.47630987633879
-22.23709033444009
20.67160782090797
0.1961671478769029
-25.46911328246856
4.601338314173996
29.36367983386139
-18.70982098831293
17.96055626357443
-28.61441510904493
4.621772335240227
11.37936115966413
1.782092401754649
-30.01713676300254
-3.222276188473744
20.45271528050899
12.78669767088115
-4.138370587777432
0.3548417965915664
19.2371701418876
-15.45364135070688
6.912225606095508
9.373836801225993
4.827541281477452
-21.11360368881276
12.16025685319288
-7.081152902109068
-18.07959989732078
13.00049594619522
-18.49559710033413
10.04606646900907
16.12757367514945
-7.67804304383267
-18.57637836958342
19.88664318507902
9.107697740729613
-10.41796255621588
-7.947838953284574
25.56400540906884
-0.4132909935827577
-17.20287546217195
-21.06225658826435
-3.352710921067315
22.7785394924012
1.636428016908271
-2.327735876275561
19.29578847021355
2.830382145822173
-22.37437796775409
-6.843317552395461
3.6066493243826
-26.92676575817758
26.24973487465502
-13.79665713670493
0.9015766368515994
-41.85233297420812
6.878837170244472
-18.67456771220449
34.57212104924868
-22.77639050729703
17.70489371247241
-41.64923841464302
-13.69774692720142
37.64209162935776
26.43796432334802
-3.627893609360208
-22.39579665920632
-0.4142740547938274
4.312543599002545
-1.438603815978876
27.70518488355576
-30.57912466659478
24.21835852801432
-26.40155491110578
-1.141730652101597
3.324927035189254
15.52872763568923
-12.54244785411987
-24.36374541491291
21.37746563313306
-5.595046600836115
-12.91521025377076
14.2954084113212
4.214848443285512
33.37681581930959
-16.9817063860793
-19.76853705677512
3.373427623716792
-11.46852581025146
1.616035262788275
12.46628440672021
-2.613793859200305
8.011499967292476
9.716653867896536
0.07098478099436487
-6.281907608918065
-9.83326487958961
30.86125305668255
-14.74608056818434
9.918166762787603
-20.30889345570989
9.020563891369418
1.370162801555986
-19.44878972104355
25.25218119946605
3.450051037398016
-9.253442515790328
14.2920210750507
20.46509669905379
0.8186287850306896
-35.57574655912754
-27.19871027680198
-8.578030613926609
-11.61439598404388
47.39113687463295
37.75440931819822
-11.30734604624969
2.56882695314635
-29.01589022515046
15.63474834859626
-36.0303678177812
-8.402430171745333
28.79804964090336
21.45563489963878
-12.42671221816688
6.116326616751708
-15.14524929824796
-20.29497616436463
0.0937829505057302
-3.01568197710052
23.21687519093454
-21.25658318846285
0.09100216092794573
7.465822293985031
13.6997587335327
-10.94179007030951
-20.11484933227002
18.79567439589581
12.26096500660035
14.02119229666694
0.2382432657854349
-14.26046515741272
-14.4552461512738
18.78607596430256
33.42357950518702
-18.07700843667327
26.03832048316633
19.38312067928927
-27.34443272652236
18.91441147062512
-0.2232502806891735
0.2837796534818499
-10.61787891448427
-9.680775749060029
2.453989035009233
-23.02377363431442
-6.628925677541872
-21.15484607652074
10.52223242182642
-0.3091764156492383
3.483510807156933
14.95163331211283
-17.24468969873743
37.01933968992653
-17.00644328480697
-15.09893725797994
-4.913959147373461
-4.207968189308405
10.8915390202517
-26.7984201632644
14.20952054447746
3.808948462106368
1.70652932481356
-19.72499833144295
1.277240481845191
8.807077924595495
10.57975156598486
-20.66406997227768
2.25853535509118
-3.676029366756628
0.541134833274988
0.8763591783670112
6.400371311960558
13.00713923446842
-1.270499902963012
8.747392008541008
7.955456333273276
-0.3225148047078557
-3.648889462290037
-6.719147742304395
20.1658528888028
-9.797815684165597
-42.69443258235567
9.52399012779593
15.09343401747449
1.649446068047473
-19.68636081641711
0.9329666363371297
17.1039481119042
-10.83345228863758
20.94426906593723
2.361124747146699
-12.47194152439121
27.00295146968681
11.54029656323317
11.15931697243786
-49.70256500543478
11.33991207690639
5.468888848140065
-15.81039429925043
-0.9984066257925813
-23.53344397249084
-5.927841404947165
1.338813981033299
28.12247139636221
1.210016532238826
0.5898903657872689
-25.33335087055308
-15.30311427122012
-5.588304479296012
-8.049255902754341
15.43065943760296
-15.93780927933875
2.156595909631546
16.24614580807282
2.760277022592764
0.8623693845173098
-19.86879221517048
38.53829979558776
-20.80888438162667
3.579731934168642
-21.30914734813468
20.42966832946177
-27.21976052954007
6.789338456847313
-9.09585978895368
29.68124540908251
-1.460805890166059
-19.12457972996813
-17.3450437398288
-5.429817427335903
14.93751688351372
7.837344283633938
6.843205544834958
-6.669725033986761
-2.540169074133816
18.29353370804507