/*--------------------------------*- C++ -*----------------------------------*\
| =========                 |                                                 |
| \\      /  F ield         | OpenFOAM: The Open Source CFD Toolbox           |
|  \\    /   O peration     | Version:  v1906                                 |
|   \\  /    A nd           | Web:      www.OpenFOAM.com                      |
|    \\/     M anipulation  |                                                 |
\*---------------------------------------------------------------------------*/
FoamFile
{
    version     2.0;
    format      ascii;
    class       volVectorField;
    location    "1.6";
    object      U;
}
// * * * * * * * * * * * * * * * * * * * * * * * * * * * * * * * * * * * * * //

dimensions      [0 1 -1 0 0 0 0];


internalField   nonuniform List<vector> 
19632
(
(5.009549006734516 0.02896534231912569 0.01008845313716512)
(4.999801575374741 0.0009826041296171269 -0.00155159560371283)
(5.000289509762588 0.0009692676972200162 0.0001586112769491026)
(5.001877683944571 0.001342863517609117 -0.0003153290654107156)
(4.999564413302652 0.001749194521953033 -0.001067519799205059)
(4.995491851490882 -0.009393210296530405 0.00788278282050963)
(4.995785556236883 0.02257027545024817 -0.005058824388781468)
(5.003609433174732 0.005350233772003024 0.003203721619436087)
(5.00382834384349 0.00573853015987519 0.00866671157544578)
(5.010744169342017 0.002980144848205846 -0.002482448121797475)
(4.999649802592522 0.03139355364169645 0.000104548526758351)
(4.995658474839481 0.0022660927472076 0.003453723746468905)
(5.004469341202272 0.002223150183655985 0.002163511096206369)
(4.998767516209283 -0.0007189890652396574 -0.0001621697007901423)
(4.99995161887357 0.001719325533257104 0.0003158694980103965)
(4.999518658148286 0.00208104285410619 0.0001512183328737889)
(5.000173506303887 0.002879134996631955 0.0002303477217721453)
(5.00007601459088 0.001538771024932258 -0.0004595519918690583)
(5.000427193568655 -0.0001649843419890822 0.0001319762351178117)
(4.999383545972667 0.003597214615303409 -0.001431495028583356)
(5.003709221538567 0.005097057489032228 0.004085103035935261)
(4.998682016116804 0.0101727694489918 0.009106079187656416)
(5.012260610163771 -0.00497782856442293 0.006017838356311945)
(5.000064441505531 0.001296376681095233 -0.0006992227350167702)
(5.000314337481237 0.001961534122086508 -0.0004136977919061756)
(5.00886840604759 0.00545280713855455 0.007513962804790053)
(5.004632785738371 0.008010745751262059 0.0009259575150951745)
(4.999811312296307 0.001278475376349048 1.476800619567359e-05)
(5.001331743538523 0.001767302309356716 0.003648055692980789)
(5.00016432943046 0.0008247363454622669 -0.0003585650146454848)
(5.000548116647744 -0.0002233734962758468 0.00024401431903972)
(4.999190749506086 0.002756118209244595 -0.003176469567077964)
(4.998918697904631 0.001957921021091509 -0.002014172723022287)
(4.997861985269735 0.001985007883730979 -0.0004830959545498662)
(4.999964228816539 0.0007458249029714836 -0.0001545385815476107)
(5.00264952969742 -0.00106158488738619 0.001486947515013104)
(5.000242389733125 0.003949694127632842 0.0003337990033190018)
(4.99823569592068 0.0161955307191485 0.001296115923516136)
(5.002938266190665 0.007384267509772261 0.00631962908576505)
(4.999112645646027 0.000490605360069434 -0.0002872954525267505)
(4.999694439928049 0.001064780750157029 -0.001984035520506962)
(5.009997323556618 -0.00752958307963443 0.01184258125073879)
(4.992514725648414 0.007735547047242003 0.006353402508134862)
(5.000548183152243 0.001725358412739966 0.00116300932200525)
(4.999714577382194 0.001178383848302564 -0.001194484612893776)
(4.998246596526357 0.0040470512929979 -0.004295551896717643)
(5.001394951562589 0.001801364769293016 0.00719697524482221)
(4.985460960012357 -0.0007322220199872904 0.005194814095340543)
(5.005605604249206 0.003653395310788632 -0.006128471526983919)
(5.000494396574567 -6.81327812848808e-05 -0.001058848780000657)
(4.984170980589194 -0.002203712499694245 -0.00745430620507583)
(4.995007258588641 0.006398900468702844 0.02886100317179412)
(4.997918088417684 0.01062713882793698 0.006334364872726548)
(4.999887022845593 0.00918763450898365 -0.003872003919550486)
(4.993852721636125 0.004533172151519627 -0.002744424450977695)
(5.014464713685618 0.006542651588341131 0.007589126839154622)
(5.005162443331166 0.0009481436246284381 -0.006284446450149651)
(5.002087078887099 -0.004336911468321065 0.001409063171146494)
(4.995465012565643 -0.01314094093416284 -0.01710641837912125)
(4.99953708343847 0.001237279569028938 -0.0003776463690877088)
(5.000879889341537 0.001080140880428945 -0.0009166433082001515)
(5.003165544159716 0.001009906684683241 0.0007782601418848261)
(5.000040120671406 0.0007810516408639133 -0.0004021805724990117)
(4.997951098663016 0.001643043654125214 0.007147267645511926)
(5.001570735378638 -0.004446118399350178 0.005204409055432066)
(5.000142327800225 0.0001331290340633077 0.0004285182175043661)
(5.002041380622903 0.001066006236918193 -0.0007398199089787411)
(4.998818777678477 -0.0007347964014811361 0.003452811156991737)
(4.999767943860653 0.007230332289589325 0.003263485909128244)
(4.997262649624207 -0.01218462549343808 0.02002447392438712)
(4.999581211616563 0.000846835302493464 7.502927133786795e-05)
(4.98219071046887 0.005332078621483052 5.348110883408882e-06)
(4.971745590585415 -0.001088838286363866 0.002467579230183562)
(5.005033150574857 0.007236511320580431 0.008616902512879533)
(5.000741834243608 0.0002364132849509508 -0.0009587559388378714)
(5.000642862836371 0.001827682280044932 -0.007095399369987617)
(5.000920724450948 0.001395235632540085 -0.01294861943003366)
(4.984466746863041 -0.0008738565073664221 0.02199112069077847)
(5.000197168637684 0.0007991240000725672 0.0007224423895494014)
(4.999652153889259 0.005560130733344564 0.002320722722463868)
(4.996209499933187 0.01335760126579457 0.002850595979311765)
(5.006499402775874 -0.001751402302606601 -0.008993913227752316)
(4.999516554223964 0.002722075750990446 0.004966920240298037)
(4.999168195746928 -0.002486619581814765 -0.003558103869262167)
(4.996792066066596 0.003596986427754355 0.00256116813416392)
(4.994540005014878 0.002702963872439959 0.001714520117492908)
(4.998846153535612 -0.001731594893958115 0.003041903921784354)
(5.002712645161038 -0.005463268590068753 -0.03834136572126086)
(4.986783037573607 0.006536141427722653 -0.004154388484019046)
(4.999807521595341 0.00184710523644532 -0.001147507477508178)
(5.013179671652425 0.01271784076490074 0.008145185903215063)
(5.009659333111293 0.01162177074124946 0.009682481727560642)
(5.008824658548139 0.003922935788470984 0.00933236544066259)
(4.999717388233627 -0.0002208916092389544 -0.000864300271577162)
(5.004646971079326 0.01198179044077149 0.01104618802947153)
(5.004637279099632 0.009096918372360882 0.00930447355547427)
(4.994696043000375 -0.001034334488330756 -0.0008110807667133466)
(4.999628578183434 0.02829164815461132 -0.003467210227791639)
(5.000825238324832 0.01053095257495512 -0.007869011755672119)
(4.999849920320461 0.002712372467523498 0.02094392284189244)
(5.000201315277825 0.0002446981697977291 0.0001730653457954704)
(5.00433833236566 0.004632445686992275 0.004020915074986611)
(5.0015889306227 0.0008271703197505 -0.002069699682117404)
(5.001024656090753 0.0001712318876204833 -0.001511562249411196)
(4.983567828894536 0.0008068736274355579 0.01484167155359069)
(4.999598656776035 0.007879625342962651 0.006215615035416179)
(4.999898520556968 0.0009260657616685844 8.968782982867112e-05)
(5.004804549035533 0.003219732040183995 0.006312931076726118)
(5.002867563354237 0.004275350153140563 0.003650879254273691)
(5.000297644148241 0.02283322467393928 0.0009697539896928473)
(4.986646626279045 0.00355527801699848 0.001791465382683364)
(5.010683008371423 0.003995207606620912 0.002716337863552026)
(4.999597562766411 0.004364413987728237 -0.0001344927251500438)
(5.007075245979243 0.003326725931080408 -8.162686808901718e-05)
(5.009932306830932 0.0009681382926419752 0.002690460443021835)
(4.999865176458611 -0.009130488731735185 0.01926700163911932)
(5.006993325324519 -0.0007772510077101489 0.005337174372088892)
(5.008755760682523 0.005382199462221625 0.001842054045138819)
(4.995114550237478 0.008363877480091032 0.009113852022341669)
(5.00433337739099 0.02032655765003938 0.01483023570357398)
(4.9792220640081 -0.001921094802677894 0.000885853108503967)
(5.0050733680891 0.0111519991468471 0.01326331155555612)
(4.999898891318804 0.0006252319986685978 -0.000323426420691461)
(5.010090362866506 0.001590507844241574 0.0003918982330280363)
(5.008549376748514 0.0009084588585701314 -0.002981013717505376)
(4.998691124722824 0.002881984758270209 -0.0007058929028780637)
(5.000879504081223 0.007362694490341004 0.01102543691282487)
(5.000393362760393 0.00095897228733604 -0.0004244485447561145)
(5.000209019879727 -0.001326811567048264 -0.002705273588820859)
(4.995798619730734 0.011818101863727 -0.007928032283631248)
(4.992808778804283 0.003803471507687227 -0.00610759195541245)
(5.001551750966064 0.004025159371597377 -0.0007625954041884125)
(4.999985590565789 0.00230134015025904 -0.0006188566171075969)
(4.996894178345614 0.01840578981007256 -0.002602745808821961)
(5.002192387626097 0.001255648787931162 -0.001450762607769413)
(5.003535066638837 0.0002760458998894955 -0.0001393878294961053)
(5.013343271309278 -0.006956755839248653 0.0003270492428053758)
(5.001710488892553 0.001459754244613461 -0.002201967160266286)
(5.000214454226996 0.000561961546542639 -0.0002052294467261816)
(5.000880129527796 0.001595925767491324 -0.001695798466398098)
(5.002413573946275 -0.0006852555715491832 -0.001964338084097389)
(4.99845738439706 -0.01666634952153367 0.01534950445797536)
(5.000016427493789 0.0003885652512735889 -3.06697454961303e-05)
(5.02856891778804 0.02112977299414429 -0.02209729293673521)
(5.001563145123931 0.005202560444228677 0.001961435499312499)
(5.001059888283327 0.008008008879145028 0.01629209564499565)
(5.000458944987173 0.000978531955397065 0.0005142516021514355)
(4.998050513356176 0.001276595489922073 0.002150031483498099)
(4.99907864956505 -0.0001309796561294497 -0.002111202312124422)
(5.000401579284075 0.002094801999033196 -0.001739189258439178)
(4.999624468235273 0.01646707768257291 -0.0002521998801566212)
(5.00117224186833 0.01434759175786716 -0.006770340592094587)
(4.99855132261562 0.001859814696922185 0.0003067870641866606)
(5.000255527550463 0.0003366006631480722 -0.0001626545547400342)
(5.022163124502935 0.03861656345799643 0.01981770986943701)
(5.006411336296067 0.005903267547053381 0.0008666651463048031)
(4.978316206243833 0.02658724031771551 -0.001291229287690809)
(5.003510256328714 0.0007023732849640305 0.0009781890155530903)
(4.9957682163355 0.01525205214227628 0.005529381502787744)
(5.000217592416344 0.01429456118627996 -0.002651399100544756)
(5.0076692872233 -0.0008211916677117205 0.009930382404265262)
(4.990083765812146 0.0003431495579377792 0.002002073243380531)
(4.994798396754192 0.005301913298972172 0.008606763870857254)
(4.988393040636135 -0.001118517758526023 0.001376169844515007)
(4.997933926786502 -0.0157973374221856 -0.001627596135461029)
(4.999993347549797 0.01858912067598964 -0.01945210043044635)
(5.001004449908228 0.006144923006825963 -0.0001830446181167512)
(4.988626575640438 0.003389546665035845 0.002343306733790115)
(5.000408415061798 0.000265028379062146 -0.0005718518308201667)
(4.981232115466057 -0.00052802726749748 -0.0001359925551029992)
(5.003363041002114 0.007520445145613515 -0.03156866098080776)
(4.986578788795531 0.001188575240079546 -0.002004714285327509)
(5.000561757452361 0.001263985364939094 -0.00255023277914371)
(4.998196559387797 0.009406662611253162 -7.740280915586353e-05)
(5.0014743343526 -0.0009868671954741763 -0.002802281443652534)
(4.999053531800797 0.00766810874343805 -0.01250744573857452)
(4.999612942261011 0.006015096384123498 -0.009634074781931339)
(5.000257757056483 0.0002947580117685783 0.001496035396111126)
(4.971652289774083 0.00173967153422368 -0.02868251199698687)
(5.000926602706399 0.002006844846528522 -0.001764222331331803)
(5.000250729322248 0.002539734046211513 -7.596794965841209e-05)
(5.000496387335733 0.0006050463429422215 9.378504028335489e-06)
(4.999469191916893 0.001158621318176649 0.0005497051532894797)
(4.996179383765848 0.008591096577230438 -0.005230200119951715)
(5.000269759364024 0.002340510486638275 -0.0002395783786060792)
(5.000317773171321 0.0002973437110621512 -0.0002172512910273803)
(5.000405888307085 0.0003937935812314569 -0.0002126251168280388)
(5.002487085545662 -0.003060842336494841 -0.0003576627031214312)
(4.992216451989437 0.01345805027917123 -0.008285539008527305)
(5.000436913651846 -0.004494234192301483 0.002763827613018821)
(4.972775193726902 -0.0108580812424236 -0.0007669301151141007)
(4.991800786319073 0.002452953089284047 0.0001566562610645857)
(4.999896259966659 0.001381972520804667 0.0001433791774663958)
(5.000171864888434 0.0009652359498320616 -9.477157579940146e-05)
(5.000777986143321 0.0008046980610836741 -0.004696215004369004)
(4.999417866912063 0.001138084128168655 -0.00286385899384159)
(5.000788727841576 0.001451163229834119 -0.0002577451208848134)
(4.999919485686756 0.001164613046039847 0.0002629634514486244)
(5.000423387486033 -0.001698076460512738 -0.001193808131237106)
(5.000643596866582 0.0005364943749550971 -0.0004809658960467432)
(5.000097333740793 -0.001409978127148506 0.001224959740738304)
(5.000142511305992 0.00127732049745953 -0.001029671497626906)
(5.000291089419917 0.0004001212760626292 -0.0007382797053645264)
(4.989235202000152 0.001536099751353492 -0.003150875609555355)
(5.000454201049508 0.003622741811894154 -0.000191104505664315)
(4.999416339930016 0.001071084283626991 0.0004493323962809064)
(4.931023199869965 0.2155644872500029 0.2415891567159529)
(4.992390335496489 -0.000877656566697116 -0.0006606370026623802)
(5.002200031385802 0.0002600947038545236 -0.01388362581791756)
(4.999266330866253 0.01149772419276927 0.0070592909317991)
(4.999352276240343 0.002407108411674916 0.0010475824645607)
(5.012762077749282 -0.003702153951910191 0.01933784933408097)
(5.000614762276099 0.001610204997679944 -0.000552726363782904)
(4.992253081349224 -0.0002294087803758959 -0.0003335225138299565)
(4.999492836933639 0.01523591526963589 -0.004251767516262897)
(4.999456643660413 0.006100299899311033 0.000635793096878824)
(4.998527763435414 0.00150487372766133 -0.002461400622803413)
(5.000454210451922 0.001222204178785421 -0.0005860120869267038)
(4.983140349558703 0.01996730066781168 0.0001265868250469947)
(4.997672757327742 0.007856698400937598 -0.03016554796670656)
(4.99866575538541 0.0007830608270309801 -0.0008864719790356529)
(5.000737492165348 -0.002202765297141375 0.004174290387292562)
(5.000633854704943 0.001136189028459125 -0.0009262732144898521)
(5.002128260752803 -0.0003044293312759187 0.00078604085015422)
(4.998956499089251 0.0011894478049229 -0.006517682462606365)
(5.000190169202171 0.0005241845594437701 -0.0003957985059704602)
(5.012348113918804 0.003442629347267744 -0.00503475738574563)
(4.999533036895054 0.001477094516619562 -0.001499324680722274)
(5.008066977089065 0.004816068488197392 0.001101423093450991)
(5.000214492802099 0.002494316636126068 -0.003548337258089034)
(4.999483750644249 0.001758823335582516 0.000596957883914198)
(5.001186952263974 0.0002700457926560642 -0.0005964602907450742)
(5.000467324811209 0.0005067045575215992 -0.0002500999144790922)
(4.99956256432497 0.001420413326813649 -8.698995780057562e-05)
(4.999836545335162 0.00105222712894566 0.0005357797904438031)
(5.000620611327832 -0.002063698151658195 -0.0001477406692144077)
(5.003274009724848 0.006006254551576655 0.02976462510188864)
(4.996117317710818 0.00967617007805884 0.01111156891142778)
(4.999785451765118 0.001094741404161253 0.0004297749545284459)
(5.000224169147841 -0.003517291403457983 -0.004004454079643031)
(5.001597711032383 0.0002366638684524433 -0.0003010674936291605)
(5.000846329894885 0.0008610813296955182 -0.0008630466509563804)
(4.812698456254681 0.006926979605575156 0.1759362263248282)
(5.000321529948204 0.001429766686641729 -0.0009541348655918376)
(4.998672777896934 -0.01083743393416753 0.002169106355340876)
(5.000496050047817 0.001378503548867264 0.0003451568601286766)
(5.000190920260192 0.001267773455087598 -0.0007842896715491933)
(5.000173536794437 0.00124195624111251 -0.0008149211174771937)
(4.99832693129047 0.003934497420901598 0.0270567477374293)
(4.99878345978764 0.002356517507293278 -0.0003092900118694647)
(5.000668357754705 -0.001419650810995434 0.001041905261745207)
(4.992635867278289 -0.01779000563378888 0.08047015662238233)
(5.000225766783935 0.001232163211811893 -0.00115824149799695)
(5.000429267176199 0.001483512597397021 -0.001091867726191594)
(4.999801064911912 0.01788989330511238 0.01683133057266778)
(5.000453705896336 0.0005044733112242028 -0.0009516134436339026)
(5.00006813130649 0.00130206161540244 -0.0007099076468760304)
(4.993609468344677 -0.001586852775053574 0.0003732093036188268)
(5.00054817762006 0.006764601514845519 0.01695753961615285)
(5.000385079949324 0.001486023808279186 -0.001179745729759123)
(5.000746498883753 0.00144021842862428 -0.0009620741506918837)
(4.997545471712074 0.02870618803580368 0.003581933383177737)
(5.000114963256402 0.001574954745111884 -0.0001402965812581057)
(5.009610263695548 -0.004088481691975033 0.01683262397034283)
(4.999293092195083 0.0004494761043616407 0.0001203563381950762)
(5.001819440556956 0.003208420456192987 0.008644046967208946)
(5.001428589363818 0.00904666142012793 -0.009411092308322096)
(5.012464707750654 0.01768076710948797 0.01090073465077308)
(5.001423378104643 0.0004700100375792457 -0.001371236909070255)
(5.010660050894949 0.006617032449656914 0.005423656013286462)
(5.000227632620613 0.001888133216545873 -0.0001283843788623651)
(4.991186767580229 0.003200550042411868 -0.008891466160662812)
(5.001085857487588 0.004079843286856822 -0.0002012707409828343)
(5.010072668579552 0.01217864219429845 0.004589236026996723)
(4.996885232497928 0.005761437797965134 -0.0006875962993795622)
(5.002960837037078 0.009140807230541094 0.004473371611339082)
(5.00057699366846 0.0005326428597811987 -0.0004508862640123976)
(5.000847901397884 0.0003080858928522281 -0.0005212025788756701)
(5.002052792604267 0.006008882514213467 0.0055739660409207)
(5.002278603371138 0.008114572010984486 0.005844216783449999)
(5.001771498853947 0.01714871949882949 0.01353631074423538)
(4.986599691330883 0.001729989044415664 0.00123720135342275)
(4.999942420718758 0.000817792486079621 0.0003055149001000429)
(5.000184953666177 0.001080541333160299 -3.772293325344692e-05)
(5.00021783100653 0.0004765868533332868 -0.0002664331900927454)
(4.998597905575951 -0.01120664124842546 -0.005053241887262138)
(4.999796282337374 0.003035480005831562 -0.001976659846416079)
(5.00074690434874 0.0002721128718368889 -0.0002052805387774127)
(5.004210199646642 0.04796050882721974 0.05234771719155437)
(5.000476716772607 0.001498284403108314 0.002130995338048224)
(5.000941446203642 -0.004412598785427849 -0.0005732364265234875)
(4.999525155226784 -0.00189519563326827 0.0003037956385014028)
(5.000473577210123 0.001603507069444044 0.004982334859614034)
(5.000523282698404 0.001225827788190401 -0.000828009463842755)
(4.999437209303494 0.004665244438575261 0.0003487236829074843)
(4.996884694782848 -0.001423278109383983 0.00321333605056198)
(5.000578513522361 -7.746604821475454e-05 0.001046837487364227)
(4.964684418889662 -0.006554042105137497 0.0006970427091338374)
(4.999752513814071 0.002184169967726587 -0.0006449569431524261)
(5.00050462292365 0.0003462368546911441 -0.0003605485943862469)
(4.999859375615294 0.004524343962481824 0.0338910011935702)
(4.983543007776858 0.007483302054689224 0.01963910713995314)
(5.000221576831157 0.001423869328731368 -0.0003214366325164477)
(5.000466331999357 0.0002905653810525389 -0.0002888543326428132)
(5.000736128286769 0.00197460614373536 -0.001381370031946792)
(4.999435437611695 0.002738859883683023 0.001183362733767693)
(5.000294694679096 0.0004369482982592947 -0.000757997594528289)
(5.003301995364903 0.001123404065582978 -0.001413875102655216)
(4.998363109470269 -0.00348971656642104 0.01242405199612331)
(4.999790218480866 0.001390081924233697 0.003529663871837858)
(5.004213040110134 0.003121154818022567 0.001518848053190588)
(4.999158640790007 0.01118410873317695 0.01071104779738319)
(5.000590171051842 0.001566676701368728 -0.001227770301562371)
(5.004257251330246 0.004224287827194319 0.01134019556718292)
(4.998427748029454 0.03564303498727242 -0.007273594203310118)
(5.000388904075843 0.0003453319287828482 -0.0004183893771863259)
(4.992000543294707 0.03048661681294209 -0.0402909208664996)
(5.006592724445756 0.00273296092134657 0.001292043197007427)
(4.98630741115196 0.00797963227802264 -0.007706008456622071)
(5.007550662622738 0.009611772311019307 0.005439795230587531)
(4.996247653973588 0.04071785791807667 0.03453057585007229)
(5.006797352580048 0.001393261649311675 -0.00252635679921183)
(5.007905882491716 0.007454498513685071 0.005948017636569385)
(5.006128115119848 0.0007588074993017964 -0.001268312942165727)
(5.000808105313629 0.002783723474597127 -0.003267456597222172)
(4.999789035919582 0.002088168443697898 -0.00254221828712181)
(4.999696830214574 0.00156681598690817 -0.003964052408620074)
(5.001134698414402 0.006263142858463818 0.0006595836861611007)
(5.000944996692196 -0.0001019457973363059 -0.007453777088459683)
(4.99993705200761 0.001836129433693693 4.4550741050107e-05)
(5.000383272570827 0.004773366123045988 0.0002388201892385849)
(5.000195787111497 0.001093269369406443 -0.0001135276463398067)
(4.999568539286264 0.004077140962632796 -0.0001944856655824803)
(4.999353819105932 0.003055959923001454 -0.003036764529450528)
(5.00085013385827 0.003218224961778959 -0.0007429854568360691)
(4.99921256359052 0.003112644924013017 0.0007701815624786223)
(4.999733917575383 0.0007132964285175463 -0.0003686748409622907)
(5.006475889697588 0.02510789680268659 0.006227430688121586)
(5.000037912369846 0.0005493817671854905 -6.466551910207151e-05)
(4.996947322701176 -0.001253087081908094 -0.0005253644698449622)
(4.99905924925284 0.004288173564845739 0.001360289673418237)
(5.00082472285772 0.002024293200968737 -0.002630600429909345)
(5.002391514066314 0.007370059803506587 -0.00454010784725762)
(4.989468914517122 -0.001112912408794517 -0.0007959979479843807)
(4.999165206534997 0.005072996065605646 0.001473125572745685)
(4.981050850124162 0.003842292399079078 0.004534619115469879)
(5.000302943185641 0.0006905322420675557 -0.0003745408421708058)
(4.996660879642093 0.00545453758105355 0.02018911483629337)
(4.999965376093681 0.009226177464388932 0.001363104215015246)
(5.000787611155876 0.004703044150194578 -0.0005022358009398179)
(5.00079653307469 0.0008106529672317093 -0.0008332773949467201)
(5.004293193023096 -0.002519743886990603 0.01332017827391048)
(5.000362433897075 0.0002940356212942363 -0.0004481443548808675)
(5.000187421745331 0.001175644458487465 -0.0009428743929721365)
(5.000415599065143 0.002780772733434573 -0.002035903301906158)
(4.996674248750384 0.001040959416365299 0.0003328958792302509)
(5.000341929970546 0.0006066632107018414 -0.0002253032256613845)
(4.999116190976591 -0.004133094957158479 8.292696792843333e-05)
(4.999857193388642 0.004460479228172339 -0.001851086047604267)
(5.002773591677721 0.003046947085264077 0.002353841355331006)
(5.000802051848287 0.0008225596951304891 -0.0006116142863699912)
(4.99960185146809 0.0007319499427022239 0.0002910567346265944)
(4.999258725919081 0.004472684098685366 0.001945072750256631)
(4.999328002046056 0.001515996078603217 -0.001065153019561654)
(5.004340118599607 0.001595199050361609 0.001421533881718785)
(4.999023690448493 0.01405776640653706 -0.001444826549640572)
(4.999849969587038 0.01848193638261204 -0.001827480124978536)
(4.999718164934434 0.001124026744396164 -0.0004545153766019803)
(4.996858367781972 -0.0003605009192785738 0.021806235367872)
(5.000057800899512 0.001280825586564453 -0.0009963393824212999)
(5.00055764817328 0.001286466817671464 -0.001028605827681009)
(5.00001234019005 0.0001908265785806717 -5.215581567830808e-05)
(5.000769786886464 0.002577053916340786 -0.001523390110341192)
(5.00109108024752 0.0002361244937598655 -0.0004522691912040145)
(4.998518261126327 -0.002521911418428827 -0.001357338280423152)
(5.000178022139506 0.00141493352879713 -0.0009828566565958422)
(4.999417395276009 0.001235641591393734 0.0007052409587176041)
(4.999734195802798 0.001498898967576914 -0.0007143198039028454)
(5.001378511628149 0.0009925037682381194 -0.002519203176178297)
(5.000173163257122 0.000611529287179441 -0.0003055082595702471)
(4.983525214707918 0.0001337775425558672 -0.0001481240443779934)
(4.999527671004006 0.00114705168979426 -1.305601784713575e-05)
(5.003961167174503 0.00430328242358112 -0.007802350757195395)
(5.000094196087333 0.00182065469974466 -0.00110952115177372)
(4.999789590551103 0.002217867250006948 -0.002428204233882761)
(5.0017146934711 0.003402810793032824 -0.001732548654317024)
(5.00163814935297 0.001681016600285222 -0.001617192656166003)
(5.007103638295257 0.01810170905330222 0.00864433373991629)
(4.956977381095485 0.003271622724158071 0.0002752734602265222)
(4.999142530889151 0.002331384468342503 0.0007693144445679394)
(4.999050105725002 0.0009128306964396618 0.001547048248947224)
(5.002888799658683 0.005190008142903803 -0.007822112546276998)
(5.000051455411412 0.003316514026494628 -0.0003136530202606992)
(5.000272625647544 0.003176522520295331 -0.003791212143863256)
(4.999928217590908 0.002660485886709993 0.001174391089808033)
(5.003169891005061 0.001859312463615166 -0.002719084318901287)
(5.001153928344554 0.004464256693940835 -0.008467708455864444)
(4.97034702107868 0.002342180317419117 0.0008426139280149064)
(5.000635796427849 0.002863273297454944 -0.003481115013951043)
(4.999778649515124 0.003179823552426098 -0.001800021678623077)
(5.00106016241998 0.003665435015504549 -0.006025042948296594)
(4.999127125028941 0.0008013927481178747 0.0009316998829754484)
(4.999721464145718 0.0006899814115017582 -0.000233471082250259)
(4.998919856616967 -0.0001695981798550697 0.001280980727408789)
(5.003797872176055 0.003963789427925466 -0.002157896027274377)
(5.000157088089923 0.0004682617226242377 -0.0006469132581628718)
(5.004121760623783 -0.004731554087878703 0.004989602952342359)
(4.999701032695639 0.0006377342455368607 -0.0002655281567735007)
(5.000321504004587 0.001726987363257899 -0.0007554225259166577)
(4.999768099157881 0.002566712589392222 0.0006766760560241915)
(4.986553571848744 0.0008692000590002774 -0.002313118172123474)
(5.001785943566039 0.001234837558811133 0.00178504633697463)
(5.000134759776105 -0.0002132729104276457 0.0001142862711606544)
(5.000040715193396 0.001800529096961329 0.0001686548620774705)
(5.001550712100954 -7.547471420400593e-05 0.0002563301937344096)
(4.999846963668186 0.001691065813749297 4.040391025282049e-05)
(5.000208344828161 0.001821137314877588 0.000660494309982957)
(4.999991312487269 0.0007860027122064861 -0.0002924431471055111)
(4.998968564347391 0.01445945690152372 0.02927431613453602)
(5.005266636764889 0.001862500724024985 -0.01210519029090268)
(5.002561231792777 0.001393650636862867 0.0004672140173923567)
(5.000243839077759 0.001397139832186161 -0.000184916243309869)
(5.000570659851313 0.006273503807023835 -0.0004497953727004943)
(5.000116281584694 0.001824664296000547 -0.0001003913490680934)
(5.003007285318801 0.0008891355221582978 -0.001035003125597475)
(5.001882183379977 -0.003792973709553649 0.0003089049338237805)
(5.000961504510666 0.005136812044179923 -0.07476417714981586)
(4.999914445863459 0.001776866003978628 -0.0001306121755760909)
(5.000146830832041 0.001264189540397903 -0.0004560274722581228)
(4.998864834089115 0.001695795664624547 -0.00167356727305651)
(5.002449304001512 0.005225533618118735 0.01037781758627968)
(5.000039482297153 0.00115707160842726 -0.000148850023471921)
(5.001479024606748 0.0009113304106053068 -6.380816476069179e-05)
(4.998425095203961 0.006119853344586998 0.001830961951924704)
(5.01039949485035 0.02321785665726055 0.001751375185347322)
(4.982398170241605 0.0002755813949774165 0.001928880913386292)
(5.009947871403507 0.003278462675187816 0.003171832036225634)
(4.999810799815008 5.183704235349445e-05 0.001588805268870425)
(5.003716838487744 0.002120129397543624 -0.003026527153861221)
(5.00013995562335 0.001615128856855864 -0.0001814398552093262)
(5.000266015704962 0.0007416888138365983 -0.0002816104090337405)
(4.999289967053435 0.000929169603578707 0.001763364058599184)
(5.000232480638414 0.0007373489513580714 -0.0004777528479714242)
(4.999983109276095 0.001371197855635645 -0.0003989281788318125)
(4.999996123560967 0.001467145838637415 0.0001327810231176036)
(5.004277803786813 0.0002469480042421464 -0.001140655618893362)
(5.000350036135303 0.001602773759158175 -0.0003676640205737186)
(5.001054869283112 0.001489123855656154 0.004082947747948154)
(4.999668570429714 0.0007092712524755048 -8.537382402911945e-05)
(4.9998734488974 0.01147125003952785 -4.060595062099988e-05)
(5.000193482689039 0.001012931040392766 -0.0003446187988409748)
(4.999829025689391 0.001086481903796524 -0.0001970395110285551)
(4.999740095277976 0.0003267004641909442 -9.904849049373453e-05)
(5.00342786687224 0.00183491138207113 0.00201907828344485)
(5.000264642996042 0.001664224473636078 -0.0003491141559427981)
(4.999893015324339 0.01712557159951848 0.001318654075310398)
(4.989609654028058 0.001127552970182073 -0.0004357681564339458)
(4.999858350824663 0.001551249360581792 -0.0006782771126914383)
(5.000898766231866 0.0002125605588779184 -0.0006926637385738342)
(4.995265437277994 0.0004102117551406566 0.001011701465059753)
(4.998818874280154 0.04568018975938829 -0.04419310558863137)
(5.000791228474454 0.00182331281617573 -0.0009134723479689146)
(4.999813014899384 0.001272061904283054 0.0002266132979280494)
(4.998623193876659 0.001221518664378575 0.001367273666008271)