/*--------------------------------*- C++ -*----------------------------------*\
| =========                 |                                                 |
| \\      /  F ield         | OpenFOAM: The Open Source CFD Toolbox           |
|  \\    /   O peration     | Version:  v1906                                 |
|   \\  /    A nd           | Web:      www.OpenFOAM.com                      |
|    \\/     M anipulation  |                                                 |
\*---------------------------------------------------------------------------*/
FoamFile
{
    version     2.0;
    format      ascii;
    class       surfaceScalarField;
    location    "1";
    object      phi;
}
// * * * * * * * * * * * * * * * * * * * * * * * * * * * * * * * * * * * * * //

dimensions      [0 3 -1 0 0 0 0];
oriented        oriented;


internalField   nonuniform List<scalar> 
37380
(
-0.3774434856244616
1.001673994797368
-2.775460776011123
2.151230266829818
-5.161431949712714
0.8038648646858629
52.37064754956664
-48.01308046453854
-18.28128389305461
21.92235478956673
-22.79723972675894
19.15616883023395
16.79462810388214
18.26640191222384
-18.54305034259628
-16.51797967351002
-5.078210684297589
16.72713515346413
2.821246119189042
-14.47017058835733
9.385876938579694
28.05440546626071
-20.94745084270825
-16.49283156213871
-10.19600881777876
-24.85880466124453
44.44069041760027
6.970554288504624
-2.979916010354025
7.608003582491296
-11.59864186062367
9.65359624463748
0.4390472011560646
-7.435115134851793
-2.657528310951974
-8.918442435002319
7.614525237813187
-3.178077162890601
4.481994360129497
-7.538716058141238
-7.296429719381003
14.8345774168601
44.36168784397389
-10.65265084943122
-22.33878861225649
-11.37024838228978
0.8390397298405577
4.8512409742556
6.943909150766224
-24.12748259175561
12.33233246673313
-14.94183207245658
23.74721276955731
-3.414708871092955
-5.390671826002719
-1.49756616951162
-0.961925330812286
20.45373667265635
-17.99424517238107
4.408021861415691
-0.01544682825595339
-19.33440710561604
21.12641319330966
13.41296483532808
-10.79216525908197
-14.16097397144342
-9.92186201890544
-1.580268606722069
25.66310459706457
-17.94945070631419
2.308548328651527
0.321321344749631
15.31958103294031
-0.08077522697420093
13.59784947387189
-6.546519958371658
7.27800261097251
2.765869363957528
2.521211992817653
-12.5650839676102
13.59406822145956
-1.525730517105103
8.275319789889737
16.64817897322268
-3.797085569810725
-8.331302866618469
15.13564892993513
11.10067174321775
-17.90501780647417
-6.218060788920177
-2.203641249824899
8.860749239930033
-9.722795906063325
5.607051400652557
-6.40859311365698
10.52433761915665
-3.230616486909119
-15.90749167254502
0.7839394121664259
18.3541687472951
-5.091892703283891
-16.73022577573164
6.426556580590556
15.39556189842236
13.9946139681667
19.53499445229005
-0.9046432200146972
-32.6249652004415
-10.1522518897264
7.738317826514701
3.935154676103771
-1.521220612893969
20.81252841949902
0.3782551861947391
-24.42140009260266
-17.59015110260336
-25.34404658963288
19.08134243017018
23.85285526204231
-14.33549108303243
15.42565439713673
19.72236510539041
8.562148473927053
-8.748712715566993
12.9739313987173
-12.78736715708244
-8.053369805643275
10.60363560684762
-12.91648606468016
10.36622026347171
-23.75735476129049
7.421813764711024
-9.019439398552711
25.35498039503411
9.291099049823201
8.777368710264273
-18.06869007676151
4.579459706271581
2.628940710066304
-10.1883164266669
9.076166751410598
-7.3073514073961
7.522283705807922
-27.40623818619331
1.955932792157513
24.24236385015962
1.207941543886915
1.463253797646794
1.292508906947283
16.38175990427592
-12.79798146392593
-3.132566154393623
-0.4512122859581078
9.115327572820419
-23.36759940286856
14.85743494093517
-0.605163110886986
9.212652676029958
-11.8371219493354
28.1310920935405
-25.50662282023877
19.29820190678173
-8.682017266486145
-8.2387268379407
-2.37745780238264
18.89075253991707
-18.96732070540686
-0.8280119162405465
0.9045800817109837
4.819738908859678
6.970857191305703
8.369819766169551
9.438435843397261
-16.67753364434162
-1.056448745940748
8.295546546873414
-1.891639844263043
29.90277849401413
-2.919585013762347
-25.09155363599636
-15.57272337410848
-9.506223365208667
10.23657249273656
14.84237424657636
-0.1407644575045077
-12.2782130562054
12.41881567688976
27.85860372139224
3.22240864060965
-10.75782748903737
-20.32318487296553
12.32040727813467
-6.316696848303351
-4.656559877328775
-1.347150552508431
37.08814238197946
-25.54584162599335
-34.52459438597824
22.98229362997168
0.1527698727764784
-28.5656879758742
-1.043520587512918
29.45643869059719
-16.12159529639689
13.55879592354449
6.850232237014723
-4.28743286412628
13.93608381650179
0.354754608045373
-17.24327743769103
2.952439013111332
-22.19235585796581
15.41278578771425
9.942418479803068
-3.162848409561588
22.83489357638448
-22.06691475859389
-15.38089557506193
14.61291675726876
0.3906216655460638
6.646721566434827
-23.83910749276123
16.80176426077655
6.199774340460357
-8.321934863186202
-16.82235709225453
18.94451761497777
-22.64072972725643
2.170483695763
20.07357923535521
0.3966667961452849
-6.758742881509687
-11.49014772119957
25.64281926122529
-7.393928658517709
-28.99286879032312
-16.98223588967113
16.95326867077918
29.0218360092042
-21.778808814073
7.073630789146197
0.5961375968681893
14.10904042805664
13.88226532866642
-21.00567381646009
-20.28282969837854
-11.08613646938211
16.29854785270457
-9.21456799635884
4.002156613035423
13.58157776933997
-18.67639090616888
14.90974261804259
-9.814929481225118
-21.85805458440062
30.73467224224828
-24.92416742211124
16.0475497642478
23.17848867311286
7.010326798334703
-27.70174085100828
-2.48707462043884
-16.79543799965104
-3.721885642561282
12.21147722689115
8.305846415316053
-1.324367444760772
5.205444170127679
6.176057531466499
-7.814658614099478
-0.1003520888794421
13.08273486208786
-27.28318415190011
14.30080137866703
6.987503804995625
-16.31458314101904
18.81915575827404
-17.15129996824193
26.88798206985301
-9.736843120878946
-11.30994109032824
-10.41702930365956
21.72610101243194
24.59258325628532
-10.46823793701092
-0.242079990604492
13.54136290642188
11.34417090328785
2.626315657140696
-27.51184946685772
-20.93531008118126
8.143268565064737
6.581659107402527
6.210382408612286
4.422341719657048
4.842025799713448
14.41012652566751
-23.67449404503349
-7.845905698266869
-12.41808881617625
2.355888264703056
17.90810624968098
10.46123775883463
0.7850963164064694
-15.8475675050382
4.601233429804087
-33.12014786668699
-1.71296493634146
8.334024754359332
26.4990880487215
-24.37604519907316
3.869473231478867
-12.61357589908342
-16.20922738324755
-1.05396592545827
30.44599100146308
-13.18279769275955
-15.44479934137902
15.93784704765049
-0.4935258955470141
-4.15579970882175
-12.63512033378437
18.44781172969338
15.51918317826177
-3.140801051215989
-1.415563184692709
-10.96281894233867
-6.603017122089776
5.862629669959161
-0.9670767779567772
-4.921960102980401
-0.7139802411289415
5.890923760416156
-0.2082516833607474
-14.55653772022888
15.0349335433137
-12.699477533564
12.22108171047661
-0.8098359344805232
-7.703755779432657
6.235925882422861
-11.04210030721629
-19.34439923706931
-3.464482608179551
6.59965446200074
-14.25212978702566
-0.3046335332176773
-3.37001536317208
7.939272622593542
13.10275426942592
-17.67201152879787
-0.434617822997635
18.54393858203743
-18.10956289768862
18.9547267299828
13.24615133482482
-21.82710482601535
-10.37377323879613
-38.06594977832628
0.0701939754516669
20.92492274194466
17.0708330609253
4.405015645238355
-30.71928944162167
-1.868524366675514
28.18279816305336
29.21090758255589
-25.17446824994028
0.3685763126197482
-0.1119277154592314
-14.36347234975209
-10.74899746278699
25.22439752795222
-13.38784909098753
-2.603895712591201
18.2853577469083
-2.293612943330273
-26.7943257433914
23.42879820987607
-30.65550111297698
34.02102864648158
11.85939903860312
-5.764116734102426
21.20635425052419
-18.58668941150118
-7.692344333867436
-7.461031123081405
15.15302357793784
11.24867563013373
-13.51494289123275
13.94831467229957
-11.68204741120572
-20.1847464447397
11.56726161099813
5.856538361468854
2.760946472301845
-4.960269077708012
20.56372542649965
3.25535932983138
-18.85881567861575
-17.0132279697228
12.54885406043238
-5.14202470089678
9.606398610242172
-9.910881745645472
0.7864567946597318
-3.104501761216356
1.043805037287479
1.000068359079067
-7.256866195060725
5.212992798691921
2.463964514294608
-5.918396560442644
-13.23878757030181
-17.67395823238988
29.31939644388826
-10.17374057425471
-1.471697637253216
7.063672626831687
1.202745704538561
-7.222613294062592
-19.52336594035555
-12.21857154837957
16.89474617467809
14.84719131405014
-1.718062765227406
8.157463446747492
17.77493246417324
-37.31409135532889
11.38169544440593
4.985665541367505
-3.329285675952464
-9.169912203696681
0.307448704667882
6.807101467973838
15.06423782758919
-14.13447600437697
-7.736863291177285
1.571882845760248
-7.553820738423886
-15.79991040901109
6.971208909322169
15.45718547390776
-6.628483974232772
23.13599246616311
2.758678587100473
-18.85861413157078
-7.036056921696954
-6.832361616041422
-0.5841653100046877
-13.51878315519556
10.7733460080711
0.7848553906926823
-5.739340016160933
-5.818861382580547
19.00545071218005
-18.3889669633602
23.11426594966652
-23.73074969848875
-6.078965725471237
-12.15685717333074
1.55095200458129
16.68487089420265
-0.2501153911141054
-13.09544581541217
13.34539402542621
17.28824500134727
12.66386589163873
-6.991678162926484
-22.96043272994947
13.11919808497344
-1.799284616464356
21.67639649726303
-32.99630996577758
-14.51718116804051
4.265772978501606
-18.36263593736064
14.12117975464366
-0.02431679566563636
-24.70667339952089
-11.81044665247835
-3.023628642999394
16.66612201971426
-12.84666503957207
-0.7958283371095503
20.66971196899415
-16.43440870634172
8.883894822316984
-9.053650436758691
9.122788385585986
-32.44414188111249
16.83917981416797
10.60695348631476
4.998008580628443
1.718836238505912
-2.556480025906445
0.3519285194781864
0.4857152679202772
17.56456611910557
-10.62468680687539
-24.69979439036711
17.75991507813606
-6.417707636614561
9.626347047158106
-17.6733979342872
19.61237433596328
-11.56532344883504
-8.709443886197976
7.688807379919877
-27.69464349721087
28.71528000352248
-7.714174049393484
23.54165459967735
-2.679660849160407
-13.14781970113166
-9.709522055360047
5.745569075695716
-24.25570569988188
28.21965867957013
17.95915316558159
-9.182038306883333
-21.12876134129556
22.24008710379255
-18.31975571323802
6.240297451556831
-25.72582094074533
26.09169799933934
-6.606174510144083
6.520194543885049
-29.95155262083816
7.880738871613396
15.55061920534049
-0.4539802572974336
-0.3898341138980674
0.9202291295023984
-0.07641475818679576
-12.13665968419805
5.748104350890529
7.949302175980541
7.83346204421289
25.31007608689286
14.22123782960277
-19.64579860727691
-19.88551530923387
-2.106918202537307
1.370571966209466
-8.317304200412458
20.27971176223176
-0.2736647456364458
-20.00603612099335
9.235480218203367
18.00365465207403
-12.97220716030053
-14.16492543818556
9.133477946405272
-16.55840589673404
-2.208296428293291
24.42422389431323
-5.657521569289754
-8.661410894991215
12.23055634117481
-20.12755134292114
-23.45420389797905
30.49610948497991
-2.763601202448418
-4.278304384546251
-2.66625614164023
-5.046823600076722
-1.647855823093278
9.360935564814501
-1.311661002505455
26.7355837734008
-25.4239534327947
-10.65687864768636
-29.74325712360793
16.94593187331197
-10.1347757332428
-4.884315691964657
-6.271369582891124
13.81887214671036
10.36835969160714
-20.81901558901235
10.45049362820969
-8.877147079489506
20.48772279790673
0.6217234861776374
32.50870582898293
-15.57614135466232
-17.55428796050255
-9.764139046297654
19.87731694893386
-10.11340839902123
-13.13314175788029
28.20485195821156
-3.629893589749456
-10.07280165120554
11.03643909932982
14.93490501327364
-9.902177049200356
-2.383655750826883
-2.649072213291092
-6.420399960163178
-14.3426446110459
21.67119538569211
-0.9081508144836048
9.379741258148627
9.182724616135628
-5.751443499049762
28.96357910179897
6.006609304973661
-29.21874490766245
-24.53474504507532
0.1384871905018409
24.3963017954587
20.10926946109502
0.7464388070332493
-1.535843120726927
-19.31986514740308
25.52162561308078
-16.9986214987422
7.126261372981468
-15.64926548733543
-4.092867601082597
13.51537516341399
-4.427850722626657
-4.994656839700574
16.71531038209222
5.945607852586954
-10.34300233509301
-12.31791589957386
-4.118909013302058
6.516599740650619
15.12123671479831
-17.51892744214818
12.44157982157137
-10.80085378313574
22.36728566329256
-24.00801170172911
0.02461467486142232
-0.03307701180676954
15.52545653643872
-15.51699419949719
3.176740971523679
5.918154209942478
1.678450826608067
-0.016607078228054
-20.1044090928791
20.10347392926101
0.01754224184536197
21.65403167169873
12.91655359102934
-22.75887359512818
-11.81171166761397
-8.417703938200749
-7.636706917729481
-2.013959417967192
18.06837027389661
-6.438079289012747
25.17452183450561
-15.68103104250657
-3.055411503002027
-11.31772190812368
30.63961761634738
-11.40204143054141
-7.919854277698748
16.20159360254721
-15.22346853940348
0.7309296025353879
-1.709054665693451
-1.920859802054713
-1.296947334293035
19.41940073888539
15.93781182043818
-22.13351290653783
-13.08773803519509
19.28343912129529
19.12258332632009
7.098702203647885
-23.69772895461815
-2.523556575358101
2.965680545417587
-20.02336980890827
17.05761233546388
14.30539471104852
-16.59895532229063
10.65042899482594
-8.356868383600871
22.35924219769163
-0.6316729599280074
-22.31301785089609
0.585448613131327
-19.05349671291863
19.92859338159313
-2.795956470741008
1.585433357235441
-17.93768425714876
15.86856393162256
0.4836869682966113
16.72888953917798
9.198231268330371
-8.931766147343138
-13.09948892003067
13.16196621661972
-0.06226407207427967
-18.66617112814802
5.595405117177862
15.0414197252308
-1.970653714261753
18.86654486355016
-8.643550510980296
-10.23682186925145
-9.661957023118701
12.84267477453338
10.36084440181589
-27.57841583374564
-3.259936294260749
2.758427810493302
28.07992431747459
0.02126695370668395
-18.50822320226236
18.48695983519327
15.00234526603269
-26.44074664192332
16.82958717321739
-5.391185797329585
5.753826808161621
-5.465381104349948
-15.19616234117584
14.90771663735277
20.10108115650155
15.0858040308713
-14.90717342514298
5.775959722912805
1.724322433546687
8.698809077392848
-24.87717685210986
35.72759903681902
-2.817380840555735
-8.033041344170941
-14.62560141145463
35.7175767027509
-32.57328852777918
11.48131323648144
1.188089659217206
-21.71085100543393
3.001507451707123
17.52125389450681
-13.569438975823
-9.101527690844982
30.79725067542151
-8.126284008745456
8.740123429034346
8.051887128262749
9.229041182888523
8.258618886419692
-17.48830408221337
-1.433539404605095
-27.39063799553666
29.43651029122391
-0.612332891083981
21.78385228003503
-0.1424748025786108
-21.64146119634061
-20.02644917507359
14.20439621906197
6.507492603123714
-0.6854396470583995
21.05904038108448
-20.35293548302694
-11.68628492551296
10.9801800274553
-17.93192082614295
-15.30725311730298
20.12412472181996
13.1150492216254
-13.92230733991598
8.625482890197684
-14.84194728610869
20.13877173582734
9.968469536327284
-21.72470423211498
7.764466385731914
10.31776645099156
-12.23611149899049
-5.846121337735783
2.410282742829069
7.854499802630752
-25.61036951452244
4.947470413268843
1.181918938630755
19.48098016264045
3.840787005113819
-19.31336923040636
-5.636950384543665
21.10953260984262
-12.62194095192742
13.23945322128049
-15.15286216835122
14.53534989898641
12.27726812780183
-12.13405954409071
8.662622458535074
-8.805831042261323
-14.82680775055912
-5.606052727940861
6.249351223530329
14.18350925495867
-11.69661526096834
7.383726797812986
27.44888092931529
-1.669825245985719
-24.76551169940762
2.47633930696184
23.95899763842226
-15.5038185039747
-0.01958346297221033
15.52323359676321
-1.470130949914282
13.4683400530926
-11.9985054883328
-26.44454090844302
22.41710629026855
-1.090879280623954
5.118313898795944
-17.1632075983319
0.4915562600391647
17.42533521992391
-0.7536838816400909
-20.98741844305124
0.06952678136212664
10.77665501401572
29.24754222841331
12.45374503100469
-25.61597188419451
-16.08531537524066
10.2113508860889
9.094402145674824
-15.73314473946161
-18.37060464197236
10.7939674577614
23.30978192366638
13.44971031953903
-15.94420233003489
10.2589583962245
28.09901076467574
-22.28077978671735
-20.22520725548799
14.40697627752745
-17.59313273127306
-10.16092951771714
14.35902431986404
13.39503792914735
9.506820093151187
-22.24312476810384
-2.996840064519437
-10.31815301033617
-6.428433357333754
16.74615543591489
-12.74747832944837
14.96433927549861
15.61617889924927
-17.83303984528376
0.3858565432292712
-0.2394053406473686
18.69121737858266
-18.83766858116669
-18.84096073884018
0.1232635651496869
18.71601673626916
-1.308978181308254
-14.93272851007512
25.74852678452293
18.74144464295651
-7.346547309436384
-12.70387551484547
-14.93047703314879
11.47846834985608
30.28201031132733
-23.01903401825437
-18.35539548052958
-8.586995154935444
12.00966212538416
-8.745853152428381
1.838500031059098
-7.071866753642034
13.97921987501071
-21.37141103413161
10.7721337954062
10.59827697860181
18.55532590287694
-5.852380027379667
8.057247501994066
-20.7601933774943
7.517157435785863
34.54162794471193
-3.033871575792166
-39.02491380466396
-1.012863265997737
-3.431524178467988
16.89998891115736
0.8518643159592306
-14.32032904865402
6.129165254113047
-2.434321313739418
15.89009640706947
-19.5849403474291
-15.77792620041248
32.05977333746799
-2.151217930750089
-14.13062920630609
0.6326708011330802
-0.860336556959223
31.20805497691336
-30.98038922112007
9.637191993046656
-0.5623029124584705
11.36350841461888
1.715090800388344
1.751950109510511
-14.83054932452557
-3.950164181180972
3.275124986573529
6.565962955034391
-15.61483967524197
18.68340964263794
-1.357814450037757
-1.710755517396251
-20.64040410559917
22.51918080686794
-5.734297232811654
18.53809098786137
-19.54410303982801
6.740309284770962
-1.427583934200662
7.114611746127421
0.630403170097902
31.2577113273739
-3.26902002468176
-28.61909447285194
-12.31694459893288
1.019324644529064
13.61818584403028
-1.123291196843767
15.24305407750017
-27.73794872471998
-25.19357505114465
10.81581402375395
1.962823056508176
12.41493797084253
-6.890854651005857
-0.2779313136243812
-8.707639408499244
-9.748148775095709
3.861566414598532
19.82805085091477
-4.288890549509481
-29.54187163200037
-10.95732289770003
10.85761041713489
-0.2453432438033989
-17.17366912449311
38.87813661125737
-21.45912424297156
-33.27146720272181
17.80712747333317
-1.965561060001482
17.42990078939179
-0.06479529384214155
-20.25711692256382
0.05817627852692798
20.26373593787744
12.85623621058262
-34.89402404507458
12.76263504790108
9.275152786575585
-17.627112172982
6.051722965846428
-15.26976905855049
15.27005339613196
11.45178508505038
21.97949952021187
-25.95226872702942
-7.479015878238974
0.08771388672789607
-22.6129561958634
-0.07564244071066091
22.60088474984055
-9.743453316799755
25.23566319659572
-26.14037913574472
10.64816925594745
2.871635895743744
-15.37979430559518
4.664189525941489
7.843968883892319
1.453705524725355
31.16190870161448
-21.16382914129324
11.99455569804355
-11.28913130023513
-6.574440680814697
5.86901628300425
-5.701503484000336
-4.054638353461162
24.5644643768059
-14.80832253934374
-35.54523573101233
5.730512709663744
2.526805280101119
27.2879177412445
9.38401470768329
19.34491297777672
-9.317951547524268
21.98266505155532
17.99485131408901
-25.68792306070007
-14.28959330493146
15.17389204329637
-15.49479679451946
-5.240680933684307
5.56158568490702
-11.50949031049806
21.37963402214035
-9.870611893318769
28.21688239883412
-23.05440805572926
-21.75790619992323
16.59543185672175
4.907307085655925
-18.99647398854977
12.44491099274275
1.644255910149782
-1.033770823732987
24.01090258276034
4.121665777288076
-27.09879753631718
2.136532364315144
39.72320134285361
-14.96631082326093
-26.89342288384198
-0.2680439519411173
3.021676907511516
29.0658512005439
-31.81948415616537
6.599281093420467
2.75276328664629
-14.70565877370254
5.353614393634865
-4.888098213216757
15.25753132965744
-2.195886669939923
-8.173546446594486
-15.97929236660212
-9.64373442669946
3.318058284291062
22.30496850901374
4.744799249401998
-19.71839182977703
-5.450133904719551
20.42372648509527
6.916610939192092
14.10603228355049
1.079212250335025
5.344239224593083
-8.53036967744567
8.681370992824034
10.87298598523932
-0.673121212724794
-18.88123576535001
-0.5353990068694673
5.450636860481093
-6.633300618835476
10.51116714086762
2.938290250721033
24.48507102567342
-16.05246185091377
-12.48621442032163
4.053605245564682
0.7661061352866148
-0.7922632213432447
-23.50428669872685
23.53044378476269
-2.664354809608128
11.11488994541642
-13.13615104240755
4.685615906575424
-10.26966350481012
34.53929739766544
-2.615602221166334
3.975725132261004
7.675422222989172
0.07585186349711018
-0.08339418321977551
0.5815957766424938
-0.5740534568584467
11.65517804569827
3.669872372044586
2.843280972762525
11.19216057522057
-0.1605499272481695
-1.425212037738285
19.38577793660878
4.868655850191606
0.308660106995516
-24.56309389372061
2.84068405091806
-7.435951690689032
33.15935681339237
-28.56408917356719
-4.912179532775665
-17.14731905618025
1.084309300001076
2.720828882393461
13.34218087377831
17.03724850722462
-0.8916509283722505
-16.14562244207096
3.541978075241894
-17.68170534726449
20.90819170293637
-6.768464430940748
-14.88056494607301
17.20156971406122
16.58680094772447
-18.9078057157222
-41.74760252713548
-10.33116764274659
24.44663505264173
27.63213511722566
16.49960362531456
4.594416782174385
-20.72785762512891
-0.3661627824194643
-37.28951535831854
27.87715970260111
9.629244151362483
-0.2168884955246008
20.14429409702127
-4.183768798998776
-25.04495237803788
9.084427080012606
16.98882462710271
18.88097355898293
-19.37019456088757
-12.0588008980667
4.932476053827693
-11.36684009520583
18.49316493944191
4.306912287483509
-3.658720200796803
-1.732736286532915
1.084544199975699
-34.26365959696066
37.49444494216809
1.374269968603774
-4.60505531380948
28.97226868087689
-21.62902226553121
17.29446463053097
-24.63771104588282
-15.24444827103504
7.563619802611504
24.6696530954714
9.963669106380767
-16.2766655152394
13.5293824168187
-7.216386007962027
3.414671560777089
-27.0778909890052
16.82302525666915
6.840194171570285
4.771119907243444
-3.691330307964417
-14.03963651823149
12.95984691895844
-12.26613554081517
1.616104051945853
18.9434737541906
-2.678798040195677
-24.0817080599329
7.817032345939054
-6.932956838678647
-20.23059397029584
0.06601535235613001
27.09753545661511
7.34170754649593
20.67148668876877
-9.069720481083904
-14.32615329574024
1.90209928162209
12.42401676406697
17.58784720826091
-18.51697475536523
7.405261875923327
-6.476134328825147
-24.03270679409072
15.74067118340468
13.30170978509333
-5.009674174404976
-3.669676738902571
3.062961527208327
-19.24936663908168
19.856081850768
0.6909055490043587
-12.16207175285773
6.598980012226924
4.872186191623472
-15.66918630445814
6.515763157268035
10.52698379595263
-1.37356064876243
-14.47612757089006
23.87193215231621
9.989973355196383
-10.09049213810364
28.04780719399499
-9.523543431172229
-8.43377162472062
-5.269904127416917
4.025121042728294
24.46246551029596
-23.21768242561816
-32.09438773282979
8.292086641790766
20.65932760521503
3.142973485823235
-24.34851865616905
0.1440627398110441
-10.16599621818816
34.37045213452394
27.55356938457061
14.93984311473486
-14.46280805686335
-28.03060444245289
-1.567903440052276
-7.685306654052976
21.57006177132362
-12.31685167721128
-9.506106356797387
31.50840009332885
-21.39021215783198
-0.61208157870127
11.74303445289826
15.50578700982818
0.05271346464830561
-27.30153492739142
1.664945667959123
-23.41495587764533
-1.576709373046525
23.32671958273131
16.16468261365356
-13.28110699075991
-18.79106729543641
-0.4447854286617247
14.26703207395838
-13.82231159731532
-22.15075238628933
11.00130589455511
11.14920553234559
12.1244020751105
-22.62846940196509
-7.73268069835637
18.23674802519247
-16.71528246878906
13.8649352844651
2.849935732851338
-9.076315361357269
12.43177385952963
18.07666261881186
-21.43212111700574
-15.99409916296934
-2.811561365218025
17.50871319387877
0.8006214680081339
11.92191054462712
-24.3074608620542
11.58492884941465
-17.64577361122067
12.74084422018796
-11.08916977195098
-2.989921318647547
1.247752623207866
-18.42722244294486
20.1693911383704
5.784000399422379
11.84551666568275
12.99769286739624
-30.62720993251199
18.75160330404511
-2.133429063701776
-8.172057935325645
-8.446116305002331
7.498222232898197
-2.47145284094769
-21.390632482577
16.36386309062608
8.914143152035139
-28.68254757787154
10.69208906446378
-4.790593638522565
-13.04110866698036
-2.724000106336734
20.55570241181526
-8.001910785780497
19.09290056107949
1.887032539401476
-12.97802231470538
3.02009260162463
13.85172569570451
2.048954853040406
3.931282482761541
-23.35571014531691
15.16133466921774
4.263092993333045
18.80581019785592
-15.09199609694303
1.551385226834043
-5.265199327746305
-14.46476548897224
1.142762526157171
-2.054167531672678
15.37617049457686
17.39885026752842
5.841795546162928
-19.06221508409243
-4.178430729604548
2.64294273746219
5.130185970021104
14.47194896668985
-22.24507767416414
20.66925506377171
0.1891752629401732
-25.46700660879196
4.608576282229838
29.35761217542567
-18.74153354802512
17.98725705945539
-28.60333568683253
4.615298569822073
11.39170678338107
1.779983342303832
-30.02324486233127
-3.229978113844437
20.45808075175846
12.79514222439153
-4.141937840271331
0.3541941217825326
19.23985306001536
-15.45210934152813
6.917335306834167
9.384772565547689
4.817367683226268
-21.11947555561237
12.15354905317443
-7.085445436766776
-18.07883125551797
13.01072763909813
-18.495716408225
10.04366324216715
16.12804798511344
-7.675994819058094
-18.56676972968312
19.88316341468383
9.096296450476222
-10.41269013547379
-7.95887129932363
25.57078520635945
-0.4052828727928193
-17.20663103423531
-21.06288382717882
-3.367860936338788
22.78607555510107
1.644669208409795
-2.331296296919337
19.30445917223319
2.827870617694322
-22.3850265289975
-6.831818652721025
3.606475667218311
-26.92718141291663
26.25440558424606
-13.8033517421943
0.8974873121459362
-41.84928357083214
6.878027356402916
-18.67209687796166
34.57748430896861
-22.78341478741245
17.70831873718123
-41.6498135772823
-13.70003961934351
37.64153445944026
26.44263563582886
-3.630845493176253
-22.39876925337393
-0.4130208892823968
4.324998412866289
-1.432997642888624
27.69829460620679
-30.59029537618906
24.21603728455663
-26.40130201434485
-1.14288347272273
3.328148202509878
15.54098598039325
-12.5226481709259
-24.4022408943353
21.38390308480479
-5.595421627558207
-12.91578315936524
14.29723004974651
4.21397473717686
33.38647234862022
-16.98890387691119
-19.77386107506698
3.37629260340986
-11.47047151649273
1.619433520652259
12.46608018568461
-2.61504218982671
8.006401316568768
9.722297278230027
0.07175932905169197
-6.279381450559995
-9.834746280265513
30.85919379249465
-14.74506606167196
9.918756256926894
-20.30899978390996
9.020244214831362
1.369999312152661
-19.44830393897708
25.25467984708079
3.44442621391882
-9.250802122013297
14.2932190121901
20.4678088108381
0.8233220337120853
-35.58434985673797
-27.20570046146569
-8.572856298392727
-11.61583595585894
47.39439271567534
37.76184808783638
-11.31411241315252
2.567415907795358
-29.01515158249575
15.63172296695173
-36.03089228532514
-8.401625391827332
28.80079471019265
21.47795208245406
-12.40058969752594
6.000236648586332
-15.07759903352175
-20.32080905784557
0.1102046496200235
-3.005716057426312
23.21632046564434
-21.25147898800963
0.08390443773762594
7.468390157745255
13.69918439252162
-10.94634086292933
-20.11239498601581
18.79308975431215
12.26564609460752
14.02407096584431
0.2329542475270463
-14.25712395093851
-14.45268928110763
18.78609584770811
33.42844152124121
-18.06664327321361
26.03168769368659
19.38194237406199
-27.34698679476059
18.90473787033271
-0.2271458078831007
0.2771346675320773
-10.62806541924612
-9.694198101161492
2.449710834862689
-23.02803975507382
-6.627371541268119
-21.15706171141503
10.52065455336281
-0.3099337048872708
3.464226461451099
14.95910240185025
-17.2352392040897
37.0138016109242
-16.97624248293682
-15.10863981582566
-4.928919312232278
-4.207233148209065
10.89603690406457
-26.80119874188676
14.21288230576805
3.807950106666214
1.698850248500079
-19.71968266094806
1.284078371872559
8.798069632533227
10.5790453486987
-20.66119335305992
2.260717961293591
-3.67495957832221
0.5405342464773708
0.873707370542871
6.403252310222753
13.0062718625909
-1.270589443044435
8.74674381162181
7.962206511582163
-0.3271904189279577
-3.648617559545579
-6.719441892094697
20.16509755148715
-9.797038099833905
-42.69523025816343
9.541616028810031
15.0869709560154
1.652448045723025
-19.68774298979941
0.9308855546766431
17.10440938936085
-10.83547519775345
20.94518199734175
2.361170725744547
-12.47087752531603
27.01036546990435
11.54495232206735
11.1605784398407
-49.71589623183566
11.34034439270765
5.469616670198244
-15.81021707555822
-0.9997439873466041
-23.53310521846225
-5.929575997403239
1.335204214554988
28.12747700129777
1.214188391684226
0.5874064878775145
-25.33470009803497
-15.30126734276404
-5.592890764279907
-8.044087055022183
15.43201814507784
-15.93673879242793
2.157168693027637
16.24314228364359
2.756681596056687
0.8610740695941868
-19.86089794929081
38.53898661370621
-20.81197502492017
3.583226888288658
-21.31023847707622
20.43397524017591
-27.2245612847826
6.790516655577247
-9.098876381579705
29.68436657707101
-1.456938868972755
-19.12855132652016
-17.34815443698107
-5.429062120921387
14.93765373441706
7.839562823480233
6.842434668029556
-6.661744707921026
-2.536324510202012
18.29317867336826