/*--------------------------------*- C++ -*----------------------------------*\
| =========                 |                                                 |
| \\      /  F ield         | OpenFOAM: The Open Source CFD Toolbox           |
|  \\    /   O peration     | Version:  v1906                                 |
|   \\  /    A nd           | Web:      www.OpenFOAM.com                      |
|    \\/     M anipulation  |                                                 |
\*---------------------------------------------------------------------------*/
FoamFile
{
    version     2.0;
    format      ascii;
    class       volScalarField;
    location    "2.1";
    object      p;
}
// * * * * * * * * * * * * * * * * * * * * * * * * * * * * * * * * * * * * * //

dimensions      [0 2 -2 0 0 0 0];


internalField   nonuniform List<scalar> 
19632
(
2.09321922591473
0.4463524593310382
1.008216212030907
1.296988835788233
0.6249545066147666
0.6427352054640082
3.434564863844389
0.3311491740530781
0.9500211944844278
2.187973983286455
2.319454653210619
1.401232213984685
0.9012780204372062
1.698619605786809
2.471324555405942
0.4867428262067248
2.39361535207337
-1.463633390264434
0.3504448982364123
0.4070265925093931
2.283163877600234
0.9151928143504026
-0.9284592926270174
0.3517688914100502
0.3764584790946107
0.3071256616532108
0.4276934564394734
1.041838179132414
0.5128401253027449
0.941529112810353
0.5846132303464612
4.179779747074743
2.127768623378837
1.864833591058145
2.129571744693844
0.783605424520333
0.3070412602367552
0.5055164471127992
0.4516520805183653
2.367503206097914
0.3330293921668061
3.991485089885221
0.5178397569370148
3.69168501336363
0.3220903946048118
0.318781182117337
0.4100054515305089
0.6077716873018533
1.072977574805119
6.159424057699703
1.066446964866052
0.5506179778374618
0.2144832021136113
2.391561978598176
0.6522804445312476
0.5012021636254604
4.711269532899129
0.4761861552282958
0.324827565437019
2.491711201738904
0.4048367881333776
0.5183485626105924
1.692527101893653
0.713980095026522
0.5989692834993449
0.9188014655250744
0.6482329878987916
0.4300611713132738
1.472265670913677
3.449484098406193
2.115174711402973
0.8409549865629825
0.2555393824628356
0.3432135593715888
0.4900836403958553
0.4156784719600461
0.3099192783600342
-1.642214063321981
8.277325698974716
2.280281443736331
-370.2825625004548
2.571758638227781
1.554842853037435
0.9611230104100672
0.2372767589420357
4.794695056179628
0.3072931001961358
0.4788549310741674
4.57510796517774
2.437904261033935
2.211825926276096
0.428926920302672
3.593545047059425
2.128464645815758
0.5963142194691763
2.754127528359104
0.9357091285482352
1.161091274945363
0.3399538243498488
0.3997907069380579
3.011134642284189
0.2899452073753334
2.338858205621088
0.3759631857409899
2.256110806419273
2.159152315495845
2.680190022411248
2.31696089666208
0.3605965954785945
0.4934790155701052
2.637176566231484
0.2633081734122045
2.494116907577519
0.5720220142540757
0.4174295338838106
2.560442179294396
0.5258726247509901
2.222304105784254
1.628184357129655
0.3431126219803111
0.3654384578784589
1.735881697714259
0.8342832211904817
0.6648428192005326
1.645068846980394
2.19965733560388
0.3270314947296852
1.91781490598489
0.5022193147236712
0.1485943423163399
0.7565983781530718
0.6892545710166168
2.257103562715483
0.4363849918392631
-0.2067860061175282
2.319862886337092
2.370431248630633
2.776449399605027
0.3830137187952972
2.872066325141406
-0.2900915721847018
-1.860244462766828
0.1409698413999404
0.7251849108624705
-0.1786187502466775
0.3651819848734861
0.5669539140247376
-0.7453108439724301
2.059025028456639
0.3311691842399413
5.486593412675251
6.089446136817942
4.005830275595248
0.3900384653368457
1.168380295966175
4.326894974817074
0.3886286468955768
0.6380144681996703
5.03148458186596
0.5683841368086713
-0.711627993906498
0.1532416175340285
-1.237052600496011
0.9593029198472997
3.704043771754387
0.3337658008517354
0.6660530510644136
0.8896316612017766
1.186715000417808
2.06958318745022
0.321327187252842
2.089198088038027
4.213235371151635
0.6083016834464322
0.5794639478312985
-5.854389154578068
0.5452061955249105
2.097311257235511
0.5900834576670858
0.5422075514544521
0.2347657853750722
0.5760365402295539
0.4895483163742319
0.3657496361417994
0.4868642766412622
0.4874832091862997
0.675502988850921
0.3058366679947561
0.346688175216529
0.5755267375785628
0.5234441509488267
2.232584092014621
2.363765933879522
3.159275502038157
0.2925017892261609
1.035914053532631
1.933359951947321
2.370096278096586
3.117822619242889
9.233544849625208
0.4781358890845979
2.242082623209146
0.4214320496259424
2.465439595789219
0.6567243595375702
2.732194814698177
0.3712310303150744
1.78442105500173
0.6138485735096036
0.6846499782438457
3.334358961438432
0.6610294609288472
0.5398888094181122
2.782705974530014
0.8038077058631302
0.4011643599826439
2.836956244225902
0.3080568219315521
0.9120382670482901
1.928210044296227
0.396668957706976
1.240137572975018
0.6116836443792799
0.3367800441623229
0.828191018962723
0.2099249499756447
0.6312979978847185
2.118424261886427
1.840436857328092
1.501485182513524
0.2806238270956582
1.455676428371532
0.8015394390805163
1.395310927214867
2.894099072399953
0.289228717875656
0.5596126079774539
0.06149812162407962
2.208638958294716
0.6588490344637054
0.3037016125017781
-25.09923357822865
2.387185520310035
0.4583034436093184
0.8729194496871712
0.5813586647579693
0.616981672510702
2.230103867668963
0.3972725668924006
0.4938954485223403
0.5671378636736746
0.4795231302039217
0.3013461005759748
2.148081056340618
4.450133942277483
2.190013445922081
0.3378010468594177
2.175091736539964
2.331700043315617
4.890334116531757
3.649995340113015
4.088291034037816
0.1891073697263443
1.153777190701612
0.8025367573811566
1.056278174559394
1.172290868095379
2.913737228125916
0.9664256151761597
0.3467236396132677
1.229934027310265
0.3515357529220517
0.5799689812346044
0.3921914655600269
0.5809599320306269
0.4310755783562961
2.647739484178453
3.369816613949981
0.5264020288487018
8.246300662744362
0.3099407327157693
1.297607737254422
1.194342393804681
1.025184927393416
2.309348018171571
2.461763359895619
4.72593365401473
3.310012623358121
10.35309127340099
2.658610592824662
0.8497587990382136
2.832437973058888
0.532607517454822
0.3420467111784882
0.3623213964382376
0.3047105313695801
0.3336927762197702
3.222208692304704
0.5600722353154496
0.5962141822949519
2.322679501682773
0.4828697101498332
0.8441309948989086
0.465495582298354
1.076434694439276
3.610406151780033
1.191920677110429
0.3935937190804604
0.5374968013407854
0.3989283468980701
1.256041846616472
1.268721134449779
2.156115612836756
3.486457544535336
1.019852810906084
-0.01921384681541743
0.990316002041119
0.2658576240613175
0.9969560811773123
-2.486505184508228
0.3671901434318638
0.5029527231658202
-8.338152560505451
0.4803965469897308
0.6471790107668772
2.761444133515409
0.5194036980395779
1.337714139862588
-0.05875750667172474
0.5504084866965397
1.401872953103269
0.4540471270409117
0.6368272241235433
4.133595678101769
0.4757326041127772
1.925443058780066
0.7950201810292448
-0.3498775115591727
0.61954195687188
-1.869717763578443
2.128429857133879
0.393611998828726
-0.2030821336597104
2.097588633426389
1.200032689247307
1.933707772854698
-0.1732975415646626
2.764049626707796
-72.08868672674117
0.6389876921549207
2.608244176569507
0.6097556773239983
2.733743890921527
1.433419642635824
0.4136317453555558
0.3986461104840243
0.3474121059005369
0.5513870439662233
1.254058304365721
0.7317140849999436
2.246162985750996
0.2259702554769505
2.379470573289597
1.918127966722465
0.9664629340018686
-6.092233241477446
2.025093214625294
2.32394026183924
0.3749563176504198
-18.40381883390088
2.297029711087511
0.746527882032772
2.522485520156758
2.112279485616864
2.190138293318785
2.019821395536091
1.548319782531259
0.4141393461498638
0.3221045439952125
2.25975136225057
2.223346350800066
0.8954560017184131
2.168727610335031
0.4946820854593364
2.195337093065177
0.8447946871938017
0.403570244625417
3.096336700701629
2.223902959997801
0.8865227323433054
0.8466597782169627
1.584434961786452
1.639208217909864
0.6448540140602907
1.306648259094021
1.359123849046447
1.356769991107688
1.292559281598041
0.2855014628232181
0.7473833598508828
2.140774737444538
1.800428443400794
1.93627884000523
2.120604238350063
2.093456016923542
1.43596064239086
0.8368217005546127
1.139258417809964
23.55838337795042
0.5602329670065148
2.142338344094803
1.003943191019793
2.32469861345126
1.246211710446685
1.241885080719467
1.880754429640295
1.641995405515916
2.297824429426199
1.833310740645402
6.821680061217327
1.504313789933464
1.364948223690607
0.4651502024614304
13.15326538159826
0.6309219025782142
0.3418795869228222
0.774417915579213
0.5162889446412616
0.4454501244674819
2.201209151829237
0.8165144997489467
0.7665941703913023
0.7703440643663558
0.7313349457578413
0.8335918001862002
0.897923701610032
0.7812847666123431
0.9966988984359763
1.020359375678408
0.8986757524897986
2.684679004662595
4.382248774819118
2.430503165174787
2.739963887955106
0.861293813578259
2.572585202216394
0.2749942581470687
3.120598059915072
1.186444125508683
1.293910099598022
3.366706317877885
1.559853795183505
0.7592691313937041
1.813586200615963
1.445686689994883
2.137057806983468
0.3841429539737666
1.326991014953723
1.350713081715111
2.387638914101789
2.93021978869112
1.656734337633841
2.475724179452301
1.514791714173227
1.19544104452275
1.00155533419271
0.9573197470269503
2.19034988316217
0.2628628606463622
0.08284577562165159
0.4796012696768529
2.625497986572245
2.029752695956465
0.8210863932737937
0.6683181308874098
2.132290534769878
1.450277214722317
0.4969270502795712
-0.9023783433965639
2.373006196499793
1.741297292336535
6.456099629026607
0.4615989619104633
3.072648331168174
2.070430948108963
1.734112121405298
2.111516662478981
2.165401514398683
0.5695877321095429
1.992246783453308
0.639181451012851
2.899343240620494
2.186648720491781
2.258768471125023
2.129932219957553
0.9084040574999498
0.5037534868323017
1.129704834845199
5.379619732209408
133.7540534436986
2.248307739097317
2.510588143975206
0.9341985936690743
0.5671144553372127
2.127863148463439
2.621901714304635
2.924517109674744
2.337732771632093
2.760040849843446
4.293361229260576
2.167777198872811
2.300729023630089
2.773575094360584
2.206866354489141
3.139635947644526
0.7114526618286124
0.6754391882943708
2.22683379249542
1.865223103962985
2.270951063700665
0.3207825995484208
1.156924205397784
1.084356241631224
1.642764258644804
4.175661284515497
4.333895678524951
2.101994241457401
4.428553395376364
1.095950209320743
2.212931192806595
1.52761089676401
0.8766702945000652
1.013150557198772
0.9372080498467238
2.306611028880929
2.802453963236563
1.84961443601494
4.761925854733524
4.224016511164737
2.442086450285396
3.305537363461806
0.8975835419937584
0.9430859340621093
0.9422242390093978
1.390403837984886
1.555794917564011
2.368575358859904
0.672923483751705
0.709554118235723
1.379528463101107
4.756520502999823
0.5555722603124977
0.4288745604737397
0.4310468599683269
3.160903313880335
1.489393778592435
2.300349878988745
0.4265265870145412
1.171383208081002
0.5307291824090169
1.867241519665462
2.243928857064498
2.267790430374953
2.330830286325053
2.4262621066682
16.05741945234736
1.593117870279465
0.5536691557358757
0.5310094611698785
0.5780242850585857
1.470684414008703
0.5416281397158961
4.136958555474379
2.246192816311997
0.4833226854679956
2.58903566248961
1.458334247546913
2.349367496585861
-1.086892473292569
0.441732622073793
1.291083256604194
2.032618651870649
2.301788094068257
1.088405390773127
1.868224163974432
-0.1853518646998681
1.160607190777876
1.630678473261584
1.116554321813957
1.465813338542895
2.262250877226514
0.8557489181704019
1.441760371468412
2.371273840283056
0.5216010993483227
3.408320599192551
1.245231634144385
0.720354073913663
0.6431573479341219
2.774985452539129
2.949662828601348
0.8666712361211136
0.5497360375276776
1.875930434211291
2.174829721473556
0.7321822418036801
2.098550714464209
1.92832340797634
2.132539819403254
3.183796599571334
0.7613120803349495
0.7726465617263679
0.743533891607395
2.910881601073504
0.7503914741986051
2.168324368236931
0.7205728929718551
2.879347038491291
2.272039634265441
0.6540144081630901
0.5605130456453619
0.7350878026088694
0.685205470146819
0.664140542506749
0.6443340442398885
2.34181081073912
0.7376965861910336
0.6464832993124296
0.6154543181012642
0.6009354830326269
0.6729167419203093
0.4693222940746198
3.324234548260927
2.375711545737967
0.6667630002663009
0.7308645872078628
0.5925832979620046
0.4118687415887471
0.5863678412823894
0.324912528047713
0.6427842162734269
0.7380493078714536
2.03007029428626
4.506269719256251
2.182769252682283
4.205547171537559
0.5770322271769309
1.406084914449955
1.035073875596084
0.6079450498557798
2.176249484127764
0.6075506652177114
0.4609111851779542
0.4709933874131418
2.281993651309631
2.366825184689652
0.4889704360256075
0.5252793571244805
0.8828613613407938
0.4467491781408556
1.931009891289936
5.568432849532193
0.3597224415480976
2.162427458278864
2.126462316542626
0.4594330335381034
1.825045418022895
0.7697039369410412
0.2998874421438281
0.7010789692739108
2.026258259114589
0.4685789844588325
2.620167363980275
2.548560322052699
3.024716602419578
1.893791757345829
2.438417909107858
2.272594833248295
1.838828969111638
1.1632731204475
2.026745978974895
0.5851867229379344
2.227086327230003
0.6885922209098186
2.206368360817811
0.6845320084870685
2.165319833163611
2.033178487949364
0.5300824329171249
1.825461006132388
0.4971230860476988
0.6404184174125432
0.5244183388474887
0.4997250411951312
1.465578655949665
0.5485198336166469
1.260453962391027
1.275537441925868
1.332927944308094
2.348685274964071
2.957268623292953
1.593443673408865
2.193646164658157
2.062590983793894
3.350042160599529
0.6503676458959196
2.934337622565202
1.350545216503131
2.061163463599047
2.995905480395868
0.3285699600606662
3.015671215917057
2.101227640951065
0.2824382085374615
0.5703831259509653
0.3006948002880585
2.302974805230732
2.045034696904295
2.571368636136758
4.203035009495678
1.907502584021982
2.374426729090906
1.67837201472897
4.471431737792015
2.152088560688083
2.895721853500771
0.6370357826004505
1.891943984505531
2.962700151421413
1.648737685636019
3.029736122747459
2.288273908110735
1.921813428329363
2.710920130060825
3.254694450528547
2.163835479286678
1.476982346655734
3.322525699880075
1.698606370309225
1.879565463327207
3.370815000551938
2.029986407921976
2.595423023479081
1.723865750703987
3.40413639329344
1.840868662566369
-2.778942115118905
3.42211868664027
2.639454631652531
2.579793624997289
-0.9418247142241862
2.50890663993135
-16.93134640649644
25.04274822156631
1.864556007092013
-37.80056099967637
0.858273072956889
0.4306338049353926
0.4732994287620447
2.868160332852448
0.5070608688778667
0.4742489222163341
0.3509346922913067
0.3229571300557509
0.3126460874183937
2.416503940535236
2.114144194125237
0.3091991360530119
0.3382525212000597
0.3455318108374159
0.4566768568565586
0.4079483039437904
1.767509358363328
1.91015198811603
2.302041868809516
0.4287781333082581
0.4551127117159117
0.526519219759668
0.5167990264361273
0.5351407169243753
2.134458682200525
0.5069897794854999
2.374138256754211
3.606228126548973
0.3961794958038065
0.2657297462266054
1.660350392262593
2.25664929645256
2.461156794857421
0.4676106070097922
0.4396109507323689
3.204616335777413
0.3986280504233568
2.261596676111855
1.986756540557851
3.083236292448172
0.4300217722235235
2.20747201943697
2.062407483308337
3.29234283390138
2.120623773109056
1.208302941971051
2.361986593786395
2.419738012810118
3.04614624053873
2.500574009287036
2.768849679415812
3.490800996233086
2.879070503214466
2.049403407568073
3.661578307564041
2.978524040077489
2.170639883226675
3.560644262909144
2.801431603351856
3.366487602656796
2.615247900239278
1.427856524260166
2.06045231368143
3.336206443261524
0.3715992263993428
2.356549810586789
1.1049813016893
1.297367066401461
1.362628585802296
1.253909561253456
1.319616650599266
2.211220159125483
1.593325771503847
3.25279693926804
3.125891497898245
1.133619784488633
2.811490964178249
4.529435325579413
1.032950526062354
3.497197792061737
2.693682127293633
-2.783424874995442
2.755966939025444
1.473052240404463
1.129571227950416
1.822316738017856
2.538892424927085
1.98768577931924
1.302539151594374
0.8653316074816804
3.134803962472418
4.9324767161557
1.059576178102788
0.8668817600736495
1.039629657150841
0.8650548222848439
2.852814131396652
1.721563872608624
2.120198897422978
0.9471703024242584
3.021515485920752
2.684775331161455
2.409689551296433
2.079255592531774
0.5259045837462526
2.799470543098282
2.585090914126071
2.669749425579692
1.887123267553527
3.098467921687934
2.881019241173144
2.841113037553176
2.164131143746911
1.810412336599556
1.527684146865254
1.445781349841291
2.32126902495461
1.412147472344076
2.083528084816128
2.389587747334892
0.4334061771442073
1.88570213478743
1.248174639081429
6.278377239887064
5.699202968904941
1.757284000691239
6.961712247785234
8.689837124993403
7.578919198959323
7.669016837058972
10.21760755128739
2.161707406556221
2.662425474145599
2.349455772769136
2.732475698561304
2.546126052656446
2.473144860376864
2.32145133865967
2.27907822329135
3.047576992264959
2.457019297660218
2.3054587169994
3.0786945606653
0.9421805930181915
0.795689420354576
2.452837292102953
2.064201743587218
3.402533345011368
2.565861036304002
2.353089913392761
3.508627255907845
2.823007250962881
0.5392930035542479
0.6584767046103128
0.6639860878981487
0.6603222051606756
1.605965226018798
0.723348321365472
1.725450007536722
2.049245901667621
3.393715993824636
2.614268224904431
0.3955186065221896
3.487114342872111
3.239157740904365
0.6569191747262719
3.559703692662479
3.246699626064736
2.881925180746345
1.191928641072386
2.258267761684061
2.134449345388946
2.072114411724507
2.008732360641604
0.341449819554302
0.4867106902706009
0.4401284699975377
2.455867822338623
0.4276160734654128
1.148272177233943
0.4518863504412332
0.4235143937699841
0.481975168215971
1.79312034691636
1.151292676797831
4.085584331115926
1.383402434024029
2.260372905069558
2.782504326745267
2.768680003504775
2.668129065377137
2.824745185410634
3.610157228808812
2.433135222935879
2.549176152834372
2.640668937496063
3.411907953231676
5.247007082271873
0.3907318059081892
4.343863299331804
2.352670081123321
2.242306711758964
2.805012699935339
3.496239786059489
3.029603223192758
3.292709206568393
2.159598865004187
1.19752934680274
1.303218989503684
0.4687899071724571
3.233535041144077
3.064327122734222
0.3779649506326451
0.4108543213823765
1.908755785654213
0.8191113230942024
2.999599631325693
0.8957109046497149
0.4491442037950759
1.584273544786346
2.29196432986091
0.9690085526379821
4.115051813894468
0.9538517915106036
0.8960784663408515
0.9460834147323656
0.9965573939586063
0.4793886912905078
2.65070312600072
0.5774329156009254
1.004311448146243
2.960853057863694
20.85057789535863
1.242739377451159
0.5056618771061188
1.231088755557663
1.425033771220727
0.6209988073851318
1.559455730594167
2.366871689554176
2.096752931509164
0.9493346853288689
1.305013203164362
2.174706418129148
1.320500190608629
1.007842835627562
1.073006920241452
1.008077492087684
1.06453134332955
0.8895668565938019
2.469865873319331
0.9511040557611442
2.217605968186038
0.7845027105040707
2.604127878685963
0.9464986714744479
0.9492012566541391
1.572565236119517
2.084868784181059
1.723392269268905
2.705952681593903
2.185741280978719
1.868276517083813
1.635964510432166
21.18143426528102
2.235541193419223
1.143922317037255
2.281450919661622
1.647552609316265
19.74681643446743
2.105290163885789
2.657300061988443
2.678537264657911
1.489182802822868
2.291654325315506
2.200804991932483
2.544286890316321
2.541950697850387
2.300448099949107
2.949567925442064
2.814302998997217
2.554733305169939
2.264641536837032
2.459488868968577
2.140972518057044
2.444362994065818
2.532916007614192
2.685929007797241
2.94374809944948
2.310668864705159
2.220034126545312
2.808403689463303
2.541771374546187
2.115714119937627
2.724888897380782
1.580030083302498
2.295524164434918
2.204958173133073
2.464686163986766
2.492340835947116
0.3128155210804191
1.835729833695668
2.242856007440276
2.192963760097943
2.141604418171403
2.724431172696226
2.41876807903477
2.094663972874153
2.525033624540214
2.764016463060618
2.552789850091875
0.4424567431874302
0.475822164146984
0.5002836583833756
0.5239600395552154
0.4586468265930373
2.94389181387505
2.359648187644231
1.561124360328284
2.748825666643457
2.844714836041372
2.459868282648852
2.962095597598747
2.616618193016059
2.927947948518205
2.150626656020894
1.949909882381727
2.255117927434009
0.8309555971206704
0.7982174385042353
2.13215712976311
2.452690398460928
2.751272202822561
0.7469163731372706
0.8194806417399121
2.197243212091735
2.227472905940636
0.8905914073234962
0.7525240796492929
2.181891619941424
3.034120928049902
2.742931097956015
0.7887990318423088
0.4743586189024162
0.8937122606775945
0.4049430435843638
21.44969963286504
2.01476309198467
2.499997994156252
3.460754574291964
2.420730872796686
0.7530747668305929
2.671129055567214
3.040780471187356
2.161221990930454
2.550962680701246
2.941140132371798
2.053339516758382
2.435815122589992
2.562062667985975
2.991089226777491
2.853337563424042
2.400798691401184
1.794300585992087
0.1896636204896833
7.310906306130978
2.371454546933204
2.456250827225597
3.003859559249574
2.685093278554151
1.5947482928065
1.821900364009752
2.630394872823907
1.661492815631226
1.962637114241735
3.476507634594806
2.271514882792177
1.945263839219947
2.228327502230907
2.291668441397275
0.3487684837538463
1.872567471542137
3.479816294658906
3.13581773588993
3.494032521949059
2.686288099575321
2.50337688859888
2.757560268844392
2.705075837976842
2.788147216797891
2.920912255428045
3.001802520243387
1.042061347047901
1.917889528236749
2.115059584976692
1.944561911457189
1.823334641403579
1.827651012669183
2.096229893951456
1.215159084885248
1.236101116532741
1.154479007501314
1.124243149094492
1.146126172228853
1.02871579261406
2.138828983510621
2.220786166478442
2.203209933096331
2.379789066158234
0.8005233760157191
0.8584344400708022
1.049894996983457
1.038177330523646
1.040121317368406
2.758638861988399
1.367351772076731
2.610639269702405
2.631296552194423
3.157932168378166
6.904184246604959
6.348081769650059
-4.483526127176848
3.167755175524742
2.228578682067883
2.271426793800586
10.50060170042812
3.707441224225247
3.315708126532453
3.01788975933123
4.11906435805683
4.498329055309902
2.981280902860997
4.085142128098299
3.486458428181709
4.795158923043418
2.676751327948184
1.805032115922828
2.312498788520994
3.596605745537746
1.475112721695472
1.774832083895911
2.784498862045913
0.3810006840674354
2.164354627362673
0.4410007547340854
1.515681101954119
2.611693949610389
0.368940410880756
1.995377401623132
2.66111435525256
1.633483282989332
2.306759760053832
2.704340690969471
1.313246264015249
1.289504124309393
2.476254040566784
2.42194254063475
1.160880763584323
2.86316977920531
2.206957060333595
2.485970090546259
2.454207925209221
1.65173333141863
1.208736384590345
1.839212448313848
3.472742048927989
1.490893326115651
3.271709511145573
2.461314391793103
2.898573696490711
2.092030774640238
1.194230110665387
6.56102512573577
4.653187221402229
1.978135669650416
4.917313639365023
1.429620365055008
0.2518177907982422
1.430206800753842
0.6725523335396545
0.5431894258888988
2.349370693437077
1.993060432426133
1.935257153782936
2.570440797660694
1.905118226406425
2.282697423383027
3.388408387295155
1.878275446828483
2.742500778192565
0.921696356458471
1.387276442443233
1.041759943463673
2.206795428395361
-0.3526606120178429
1.159969070781015
3.592843755187611
2.07633696960943
2.300683298639016
-11.09229551702486
1.499589379599919
0.9093390829118019
2.078247322786272
1.476605619831854
2.749215916245664
2.594452003201365
2.713231550110414
2.827893786813574
1.867551957107562
2.377321372537208
2.665033024836874
3.007420002480244
2.217688532630223
3.459557478787715
2.291555986401987
2.233409497445009
2.587523312967448
2.185701352966615
2.26454358048557
1.988080633868914
2.388890982077377
2.010663121847444
1.960984800405695
2.899639424233224
2.701800131196578
2.703602626727422
2.103235030422363
2.45194548022591
2.073787599892117
1.30582644827587
1.840286325327938
3.122662462332292
2.513738736153857
2.696124895780813
2.296434218707646
4.594764299729743
2.463595776498631
2.185065851284158
2.573809491292527
2.505707104429843
1.989468728672382
1.61545872849248
0.7412482134499079
1.353532379629315
0.752978127715242
0.5735177142826255
5.062541164368755
2.867741238236241
1.096297863972344
2.773963190288889
0.6937847030038834
2.617169710768758
3.482466006894017
2.398712376893462
2.724265236877529
2.62306561049729
2.617738686891962
2.895353835722622
7.56105333503615
2.281180152419987
2.209412347640184
2.930597846621247
2.784334494696846
2.603449640705148
3.49249645656427
3.160035097953487
2.359383413378827
2.510651595028693
3.368814604247418
0.8479441686796435
2.176361343060535
2.115214328575826
2.614513426173939
0.6203993776319988
2.167128299220399
0.6292486852441636
2.818077061296354
2.148120130274998
1.012034579366833
0.7672091385162652
2.698169714197811
2.3188939710437
0.7751918101521685
2.675915715515805
2.89362769948137
2.238353878555928
1.86698979354685
2.740999965788852
2.344196636328858
1.767391504092856
3.239155497534495
1.67219209466165
2.710916423217851
2.448707778835273
2.443430392014898
2.479983485283597
2.257101129865176
2.29982026397326
3.163142803969304
1.276626564555675
2.320878812624315
1.809950004149439
2.566360037906154
1.621696781252822
2.281902622898728
0.7718917493865457
2.019436482277337
2.586315653944305
2.186902872174867
2.21995554780989
2.145330975206801
1.866402933380421
2.800727053621725
2.359001560866437
2.132871868107707
1.628514173123384
3.030426992410679
1.711858364229764
2.446723489776943
4.742715103887484
2.04122390542091
2.849970296064072
2.040416372213334
2.101806663448208
1.991388579493306
1.812990880377064
1.991099085690027
2.585605135435078
1.722153591078289
2.260617236326167
2.845415352591374
2.253672086889641
2.276116739431812
0.3918105867844217
0.451477478592761
1.909201122752188
0.2291492495849192
0.7386686477744885
1.545853865237817
2.59970258967267
2.25945354395377
1.981355403738407
2.195129998572265
0.7661341855695988
0.9883809969900864
2.479753475106106
2.076528957035193
3.506765283395542
2.68502651208959
0.7085993948367656
1.221943116841948
2.443529677946235
0.6914157037441322
2.510405833023263
2.667356312980942
2.136364181450105
1.541378547267183
2.105441259832925
1.367952598637525
1.729974172623373
2.289071767323214
2.100995231864849
1.166466021084738
1.668310431948808
1.606604277771337
2.486736155507179
2.208950775916522
2.901872551001643
1.720697360112941
2.405768146004601
2.164201107606665
2.548496582417554
2.329396802351384
2.571636253187461
2.629315909926905
1.641649101458568
3.293968588122777
2.157689468478866
2.168027733957482
1.904491742754288
2.829396310756564
2.712954860432382
2.298077121799401
2.687414198483419
1.475231168344896
2.113873179866808
2.683648739763309
2.714048741985592
2.913341783188592
2.708664078175254
2.150213861289435
0.3994344564896576
3.060912212844975
2.854847870455723
2.077875702512716
1.418344086393626
2.189557943131459
2.244106569405426
2.273678322447872
2.309719082390884
2.430614805958615
2.255550221491691
2.758185740167852
1.942656595248609
2.39817270091005
2.120978429707046
2.114917542986596
2.065542996723249
1.541310400055602
2.555665378147022
1.666859037432872
2.197948445845956
2.110281392543086
2.412936903920917
2.602339035441555
1.200891090662139
2.320961262009023
3.062809531599221
2.789962370467296
-160.2360197131922
2.686349437553269
2.992590235949922
3.330769983860777
1.126452971121962
2.280781550723574
2.737423269698819
2.367178290926724
1.8399317129957
2.221150257748012
2.701935499437405
2.924879091856787
3.074411126415614
2.536732183251507
2.210784125912745
2.625137124660422
0.5955139041644236
2.215920406315152
2.439245037532605
2.750620530275696
2.31136632093333
2.358135746757505
2.286829681363636
2.224304274827604
2.690469070177581
2.127121797579077
2.663015627937043
2.967674506237757
2.775636811248221
2.505110432429079
2.672114165184771
2.190978564075075
3.532693505302594
2.557349898170142
2.307876771582238
1.424891984868585
2.51978976349617
2.443145971191243
2.406159488545926
2.306613550308378
2.233467548091617
3.020739833693081
2.501245249215034
3.111601935933189
2.473390677189553
3.940733404227403
2.803107860743895
2.581497074940875
2.773335292226988
2.490696903098513
2.118366660455641
2.327097420468648
2.42928811333594
2.051657344104906
2.834215521687339
0.9674616368015124
1.157229837987512
2.771338186612466
1.930458190020254
2.311627245716436
2.034087541325113
2.32699306219424
0.9304580100835276
1.044888187105218
2.730490389698779
2.369179169870557
2.351740214032985
2.132017908880168
1.120090430695855
1.016400210515595
1.836037804294062
2.080824942758381
1.940710810335203
2.012276522216797
0.4821807581186724
2.812560288433793
1.559062906740132
2.293134614658006
2.192034581126368
4.50554418035444
2.643798499202264
2.81774967234329
1.329195774388952
2.295389217289011
2.482786881611128
2.536363552164309
2.08459693624561
2.36367709097756
2.827176505093439
2.041594172545003
1.869115041851452
1.841354339925109
2.636130002368608
2.948637586677193
2.619842298161759
3.034696616939492
2.234905967549849
2.45699645863836
1.996739218670379
2.379527153880193
2.443857852018384
2.681106177990622
2.478266595534152
2.468513025065036
2.223398922730086
1.330697856183714
2.199964492315678
2.578940517054437
1.882547523743775
2.174697262855512
2.257225592632865
2.345415122502139
3.025550459359652
2.505506700898175
1.005199943044757
1.264670641598865
2.313118370298035
1.449472490449892
2.760454816289378
2.425253828776659
2.068602640790561
2.269731191164253
2.06812058898817
2.382113263681695