/*--------------------------------*- C++ -*----------------------------------*\
| =========                 |                                                 |
| \\      /  F ield         | OpenFOAM: The Open Source CFD Toolbox           |
|  \\    /   O peration     | Version:  v1906                                 |
|   \\  /    A nd           | Web:      www.OpenFOAM.com                      |
|    \\/     M anipulation  |                                                 |
\*---------------------------------------------------------------------------*/
FoamFile
{
    version     2.0;
    format      ascii;
    class       surfaceScalarField;
    location    "2.1";
    object      phi;
}
// * * * * * * * * * * * * * * * * * * * * * * * * * * * * * * * * * * * * * //

dimensions      [0 3 -1 0 0 0 0];
oriented        oriented;


internalField   nonuniform List<scalar> 
37377
(
0.02210570459757424
-0.8100980533167188
-1.447989991861264
2.235982340787414
20.64420727247774
-4.677172973520213
-15.97511126944297
-16.60808413123483
8.245770366265635
-13.24937776007812
21.61169152501595
0.2223536489853508
-0.007372189583715548
-0.03860382289943662
-0.176377636723126
-13.87876777147178
-12.11672817362835
25.98353326171233
-15.07019295217135
-30.32321523693963
29.13234170141531
16.26106648774395
-8.311532502187495
-27.4976284789504
23.99797047577627
11.81119050589135
22.72889968901995
-22.15591758312486
0.4833747355031219
-1.056356841263498
-11.21925163167859
-5.815411928378963
17.00004722401826
0.1603036318599241
-0.4879312386932955
0.3954949611354583
-0.06786735502295277
-0.6975891064941967
0.5592798502077129
-0.6274812413106952
0.7657904969232237
26.66476668070137
-24.23799814626764
9.075109181334554
-11.50187771498755
1.511898072432958
-14.69881681983161
-14.24542246416918
27.4323412118553
-10.13578336327295
3.633387018393282
-11.73255053507533
18.23494688040044
-1.429543111893601
-0.6521949235926161
2.209807640743749
-4.178891261375217
-9.846515990450341
-3.775304234203295
-16.89889868589117
14.59823691774848
-25.5855467434791
27.88620851187768
-15.53605059976643
30.8290034267267
-15.26893959402639
5.32211122069813
-18.76851636244964
-5.074378365329257
18.52078350719473
-19.60057814804449
18.71652798082935
0.8765056434862221
-0.824435007315217
0.3045474365708967
1.128579135174118
-0.6086915650938739
-0.2340143610433532
0.1635674143163164
0.2074053586275413
-0.1369584121130407
-16.83880468672844
21.40187110004146
-2.656621623752963
-1.906444788394217
-21.67153888830123
-14.95912311900179
17.0300838592724
-4.714648316272506
15.82361828900248
-23.87627547487007
12.76730550217513
14.85486046917942
-11.60949800953593
-0.3874146456282394
-2.857947813997854
-17.06285614097715
-9.004380353595343
14.62420349399393
11.44303300063274
-0.0302074870231424
0.01854677492613288
9.729172709666733
-20.01345584984748
-8.434875894554665
-8.427754551005874
32.60682195679981
-27.42726919091304
3.248201785236159
39.65031630863638
-16.67108818165799
0.852176480371078
-23.83140460728206
23.50771441753008
-16.21595651189354
4.201439493110871
-11.49319739861177
0.1590419384016113
-0.2662051025746314
-0.4806510207972994
0.5878141843231078
-0.1151356230282658
0.09473092877597501
0.01132544823439587
0.009079245832383939
-10.20678840677497
3.55723080109651
-11.96372210015981
18.61327970804173
-30.55523724312008
25.64416450556594
1.549776548525301
3.361296189250754
16.62190613550618
-19.00016164192209
-17.95312421144904
20.33137971786893
-26.53367381701007
-1.138895164828648
4.129649493281883
23.54291948858218
-3.48441843578968
4.940644829012639
18.19179516743554
-19.64802156060343
-0.9412828921047526
-1.522317698662686
1.350346094788984
1.11325449600967
-11.19260287059383
1.980287883069314
24.97438439499897
-15.76206940747432
14.4143309974231
7.040673621059773
-5.95370702987352
-15.50129758718197
7.341346602889972
19.98013592661459
-43.15420849047283
15.83272596100296
-1.386101492574162
-16.30302264659175
-2.827158198296914
-12.7379776037966
-10.79816146500921
-15.58024862556775
39.1163876943733
-18.91941808841418
28.59787525471743
-5.738566524526626
-3.939890641696495
27.29398561001869
-27.1785960848589
-3.789418124321276
3.674028599226442
-21.61179035285167
-16.4769282208655
10.13720049064745
27.9515180829616
18.6159166906892
13.79164729563781
3.219679457965754
-35.62724344422526
-19.51861309369901
-5.813770777095816
27.29493948057235
-1.962555608623957
11.29543213313219
-20.42957150841077
9.235360184239703
-0.1012208089815057
14.50390763162293
-17.45417158072485
2.937923000741197
-23.29856769205428
11.31464760924344
11.05065232117599
0.9332677616455304
21.52103570651499
5.139257344261714
-2.032171403950347
-24.6281216471815
31.11569056790084
-9.24842897586621
-1.013890981475176
-20.85337061027488
-2.989182417038895
17.48088029774004
11.35775700514467
6.52684632539938
-18.80535166114041
0.9207483320698914
-17.49043676926873
-3.561759085130199
21.0432867646117
10.31342038029668
-4.12252266286341
6.455861034944601
-12.64675875230339
-0.4839760389094796
0.06323486323357776
-0.8949434624638386
1.315684637320597
-14.70246839423892
-2.09777315452708
16.78910217196257
36.59047470575014
-9.068275884549392
-16.75667755581483
-10.76552126532862
0.03064656345675872
-0.09619415089419356
-0.04958803568720754
0.05060671520962918
0.1145766872804978
-0.0704524738828016
29.19516305964298
-20.05870719533176
18.49308288482006
-27.62953874926665
0.1334073748382478
-0.1211444262583927
-0.0009375004918488142
0.211308850749829
-0.0863813828001781
0.03863994626984281
-19.91261446374008
-0.03002206846647152
19.9335971105154
-23.78327169346719
23.94685991165675
5.866440330329988
-6.030028548645153
-1.477662927701779
26.51771611302637
-10.83072874860009
-14.20932443485617
2.287752086913895
-2.218590293947577
-3.672631652723735
3.603469858837345
-0.1009016998653547
-17.30619891468161
2.513421657617699
14.89367895666293
5.827301088263252
-27.35691172342942
-2.343454197135863
23.87306483233049
0.03978482165293521
-19.95971742442944
35.22567288673955
-9.119071085054211
-46.45103843064913
20.34443662905111
-7.217917487822848
-4.354252792600313
32.35050757960268
-20.7783372991781
-23.04105914040507
14.86778994624721
6.113512483221674
2.059756710893274
-17.79311726108009
6.03676550550003
-7.347958030195873
-17.86013859846962
-3.787296210912315
19.33081656204616
2.316618248275374
0.8111682924152688
-0.5511576033415428
0.2043377442001933
-0.4643484334460076
-106.0340191217564
73.58928811353444
20.55270573295146
0.07115922106415674
-0.118267274405801
0.02929214180914188
0.01781591131126467
5.449546823868975
23.65011175533897
-7.612453063714774
0.0584299713433454
-28.57688216138437
25.78105664779463
2.737395542508563
2.405626637910621
-0.4065604783862148
12.57735956325956
-14.57642572277425
24.5506907879664
0.6797187065493913
-5.802016649094861
-19.42839284501475
-15.8534814476371
-0.1877507541731316
-5.630306686444485
16.4487487078582
-18.36742331426732
-24.61499921058376
11.74928576936671
1.928192209651376
-14.98907667036265
1.311598692044958
-25.24728907457062
-0.8605104406702544
1.034633829098434
25.07316568617638
0.8947300819798452
-0.9436102583397231
-0.3274288372353518
0.3763090132281634
-13.13845233943064
0.2331713355347659
12.8962480447585
-18.26872245909176
17.23758322087196
-16.86594258468749
17.89708182436391
-1.718100782470746
0.2472898107668045
1.452127234102935
0.01868373782608553
-6.382767589952401
22.81477127306374
12.97029329889658
-24.80996175555596
25.22407893812138
-13.38441048323413
15.70517446254067
-19.41821838780731
11.00737140611484
-7.294327480794766
27.79738174289573
-13.32572444371853
3.706531739499233
-18.17818903780902
17.66416118448226
21.85769131306016
-22.26377930177195
-17.25807319568162
16.72816481660982
0.9265475588557912
0.1498386846487998
-0.002883467220447469
-0.08417316715909196
-0.06278205049368424
1.837699540586174
14.12138067496236
-10.88532987968608
-5.073750335846654
2.79959973349971
1.380773270389001
-1.43071762561934
-2.74965537969903
-11.61379544125854
-5.984897834766499
-2.629822172763034
20.22851544888847
0.006243506755565756
-0.1230342059584684
0.0342102411818686
0.0825804578463351
0.3476414684743033
0.07280403971114947
-0.414789284702117
-0.005656223730073501
0.01383675639876338
0.5956547752913065
-0.6123611965076898
0.002869664548352774
-0.7656774132120538
0.6912224489119049
-0.598893138238805
0.6733481014577549
-26.0399491319025
14.37283677228388
28.39527717631101
-13.87191040891267
-3.596315356092704
-0.02786645994012913
0.1537988971896366
-0.1248785931681529
-0.001053844253786808
24.2258382638619
-23.67343150101913
-3.541589179863615
7.98670794024116
-13.51502370809764
23.70724960286844
-18.17893383268951
0.02067439326394406
-0.04643919928466067
0.2370736566350731
4.281197546044604
-21.78136870348447
-0.3097582142667101
-0.2443594430683002
0.4141403360198403
0.1399773208958859
0.0160140691769286
0.1680000207837841
0.084441431425872
-0.1281164394814694
0.05033366713029007
-0.0066586593641485
-17.84040438515044
17.51676701979964
4.303220497814226
-3.979583132605612
-15.7960532600828
23.30559786636369
-3.525137615014259
-19.78654054864015
4.790658969805305
-19.91593134872149
1.994903068537972
13.13036930719242
-27.28551770202132
-0.7628199373866671
31.66503935275055
-3.616701713172983
-6.558832377007714
-23.89051723214949
23.807181798464
6.642167810837048
0.1065011403252385
-0.08016602260233975
-0.002039180704799508
-0.02429593726321739
0.5079419026163686
-0.7256459203614972
-0.00865498715050422
0.2263590042745934
14.89040194439999
-0.1714531621115488
7.235180859108081
-21.95412964136277
-0.4622906261343247
1.101925086961177
-9.359622442948405
8.719987982635702
-9.648289722421028
-16.84892998827117
19.74755904259607
6.749660668330926
15.54078667491011
0.1497539961081038
-15.58033631921673
-0.1102043517866553
19.83934729034791
-24.25185818530128
-8.436365905723646
12.84887680064129
13.14974557736448
18.18131517341587
-7.785227016642325
-23.54583373411558
-0.2089835728335568
-0.5418563137665263
0.3489331830671937
0.4019067033165837
-7.323040593347722
11.09625112423731
11.61578735211732
0.660844838501876
22.7993227021647
-16.19072391103285
-7.269443629675222
-0.0939681168929152
1.429373192433407
-1.327843503710322
2.40441801225096
6.049644870516145
-9.70369689313039
1.24963400968705
-24.7338141841123
14.251203002584
32.0036468872803
19.05989458280258
-8.153526059911407
3.984033421531171
-6.795229101317083
-1.394555827398761
9.507336973326716
-1.317552045916215
0.1141758644882825
-0.1242058813875623
0.01003001676419635
0.0704098930306034
-0.1429470221954458
0.08903780622799147
-0.01650067720652068
0.08729019563095219
0.1022582853393692
-0.1340215029275512
-0.05552697818387751
-0.07349703824822808
0.1125397442260662
-0.008396142652920801
0.1301899336205963
2.897160191757214
30.40688092639522
-25.17078642099016
-8.13325469718955
-5.837224653179837
2.706226150928318
-19.43208207350439
18.81795146088006
-4.950293130295576
-8.435155136052042
-5.432503194423098
-1.759824889851213
1.880640972103464
4.447806945869343
-4.568623030369208
16.01131407883938
14.20370841321963
-17.09761794388323
-13.11740454812752
23.36777738915809
-8.373274065247049
-0.8860435104925199
-14.10845981268035
14.52713563399385
8.785097543422939
0.05554421232681652
-14.48864322167038
2.85685700991393
-4.653310140450177
16.28509635302369
-16.91333098681966
20.56014101267828
-16.38478762964277
1.765213921294402
-10.50004427527011
-9.252843427275378
15.3560893651878
-18.04195223368959
11.93870629630144
2.749544978978766
23.11148817084267
1.193364282937253
-20.42394114786187
-2.445001719744999
22.85460353487489
-17.2223985716288
-13.27492641206069
6.089486507973184
24.40783847705565
0.005885449519361003
-0.1091008154144116
-0.01792906047037549
-0.1411529641307772
-0.00595663924542782
0.167783996525584
-0.1450279814843666
0.07428491033411642
-0.07384600237517577
0.01818917570942138
-0.2459251102475212
0.01451574589990786
-14.1887145960966
21.41493626759657
3.159473536716593
-10.38569520779553
10.50547115283148
9.274459755511003
-8.602251561592082
-11.17767934674221
-12.6875761753323
15.1686934071531
-19.04256853371926
16.56145130192511
22.19895957598085
-22.41502813395324
0.1514058953806016
0.06466266285164797
-0.1382092457360004
-0.005457579238767946
-27.06278022334841
16.3643049092598
1.980690062398407
8.717785252528641
2.30856027459385
-26.33640616944045
3.156205359285565
20.87164053557201
6.15737024894799
-0.9928832001261577
0.3385141933459217
-5.503001244143113
11.93809372042699
18.63709916166915
-16.71997039966841
-13.85522248242068
35.45139360730419
-13.26773906437067
3.230723175225747
-25.414377718024
2.386297697450495
19.68466528400925
3.502509272403497
-25.57347225372405
-13.34760105049186
-3.513494853249006
-2.856010932055276
5.68517827925111
-3.093652721306086
24.1525210664863
0.5153611945857549
2.396145191907919
0.2191697605943603
-3.130676148991555
-20.69192208951271
23.99196848583491
2.385131882961244
-1.029796207434889
-20.00180507266455
-0.1268012171116182
21.15840249718443
2.41647050911347
-13.07249851928924
6.673776960269436
3.982251049949166
-28.4822688465972
28.49388928207203
-1.041416642958074
2.51561746658895
-30.34729511428326
7.829872575010572
-16.62859663021451
1.080795466958287
15.53956415987743
-2.332207208334623
-19.22809351048353
21.54922055511962
8.104773474471818
-7.856504739541326
22.03874809443606
-22.28701682928239
6.16335703887871
-12.14380455904205
-17.23349781519037
-11.55981674303247
12.07782059779718
-5.435337446751888
4.917333592020845
15.55934130323898
25.15149809669291
-44.85020693075041
4.139367530957327
-21.63246923386625
22.67333072089737
-29.52313033371895
-5.535313215330949
5.555953637849122
32.45800431709771
-32.47864473946129
-0.7147794119458001
-1.130970458246812
0.02874157756692842
1.817008292172472
0.3769604357517544
0.5890703770788646
-0.7182937938197184
-11.55066015574028
-11.09254375554317
22.55440015765676
-2.736521487226663
8.183875635746425
6.681399405940385
-17.1196197177667
10.6352535850435
28.40742275528759
-21.92305662281451
0.5680972870183477
6.649288356562409
-7.679676268014568
-0.2669797322600768
-0.1576364843323899
0.195803731401407
0.2288124847596905
15.07669879478114
-8.280537916321748
-14.88663789071587
8.090477012394926
19.07845895562223
-25.7003101306079
-19.17673764633535
25.79858882175639
-4.19033326797944
18.67871164229601
-14.50059003485928
-1.88207426557642
1.668225453116289
-1.302055529676987
1.515904341327892
0.5018095826612768
-20.26651142328533
1.324163593139211
18.44053824756507
-3.56342886888527
-20.40697070769153
23.70441736355622
0.2659822129697039
7.927635688865762
13.72849907343097
-10.05500931343373
-11.60112544885549
-22.78596881261961
11.15671614426229
6.795242259362839
-21.17676323021039
14.2100678087523
1.586974968250592
22.03169094409953
2.39075682668629
-26.00942273894376
13.01727273192088
-33.60123804598825
18.06459471029368
2.519370603811692
-34.73471285882375
-2.06015261161847
22.56864215043666
14.2262233198215
13.40315601325996
-12.66777466722986
5.276541916486742
-6.011923264514619
23.73227180727954
-20.53710337032982
-7.233332423410809
4.038163986674668
30.25932470251032
3.393589985686413
-8.727045871257454
-24.92586881685088
-35.06246128148211
24.78897820132065
18.4288105940376
-8.155327515004984
-16.10641807009829
24.48721361915433
-8.409217860309774
20.7691879413824
5.951659814779796
-19.48566689704298
1.160628800342777
-7.139015822508211
-4.752467124757355
10.73085414371924
14.74116051014512
3.201942657070984
-15.52939640972375
-2.413706757454008
25.99777469249481
-3.562317406046879
-28.93490561144048
6.499448325034727
-28.78639933363165
19.60086228669973
3.95575201279873
5.229785034690972
-3.341387209214098
-20.37008645552233
3.310726745411649
12.45505266548379
-8.204763300300147
9.645320338828707
-13.89560970389603
-12.19769953867477
12.14531968531299
1.588482554049852
-1.536102700502168
21.42565636401009
-4.284760683573114
-18.41281456315885
1.271918882763683
-0.546915071891957
-2.339732402522866
-16.58257344737414
15.10048113091928
4.766563719672326
1.321969310520633
-21.18901416107592
-17.51388055509345
11.42912089842794
6.555574005194258
-0.4708143485386125
14.91589453750965
-21.02196037823824
-10.66872486791038
16.77479070895424
29.30939515684482
-8.879268626281375
1.3958587230031
-21.82598525243163
-22.13331054721604
-14.98899525171224
10.74113747772182
26.38116832155476
20.275921365316
-5.42960713150461
0.2541668971273234
7.620618807493976
16.35632248796777
-30.28705434041068
6.119660155682972
13.90001515392618
10.26737903083782
-11.11445272718004
26.42329634694098
-0.4290560375622423
-14.87978758129366
12.61816775077983
0.7392275909347731
-17.74843139152355
4.391036047308997
30.753380252606
-7.217474821631442
-21.06466526279258
-2.471240168169386
12.66819950720795
8.46115108211929
-0.563839612736142
-20.56551097660874
-3.506459981844722
-1.283484732331708
-16.41032136475752
0.822886375379437
-5.16439200883453
-1.43013358448347
5.771639214048595
-1.235790762229754
-22.11340314916474
22.89339557362164
0.4557983380125293
-21.64904028238934
-3.435467597290797
3.668737099989772
21.41577077971876
7.60551755955396
-6.523227293452538
-19.54936356184308
-2.443740836831623
0.05513256801761113
0.03105668138685877
2.357551584126217
-15.42287239660022
12.05951215871444
-11.81170444645873
15.17506468440303
20.09229042966438
-18.46038288963513
22.67439091982804
-24.30629845954588
32.69269412704809
-12.85812042794728
11.28111686895267
-0.09483695084331911
17.58041556629289
-17.49942348844282
1.92122489763282
1.720907667549986
-1.806087146134357
-1.836045420775316
4.266753894606198
-3.519812609320119
25.99830492154005
-26.74524620672625
22.61568528441027
-23.33849531850535
-4.848627973965288
5.571438008171466
20.60284903364909
5.642608582157553
-7.035348697420121
-19.21010891824564
-14.01753879918689
9.104989549750853
14.12295479050444
-9.210405541038917
18.83920120580002
-11.04732243857772
14.98056769740568
-22.77244646456961
4.253878818324146
1.241957379654518
0.6615340487866581
6.41987512182111
4.87050862565554
5.855908995947406
-17.14629274357226
-2.844361148077752
-9.550006661615225
-6.727368267543445
-20.48258466752407
-15.24930960081574
50.10473104069781
0.01794363377042323
0.2784364307574023
0.307706698664842
-0.6040867641245088
0.6236684595189097
-1.346586806631416
0.4479141102795898
0.2750042362769033
20.59261641247244
-26.94393466453062
-9.838356502435438
16.18967475468285
6.677275439737595
-4.769667583604082
2.474264044165421
-4.381871899255565
12.75517191702347
4.563132301973771
6.478145990586755
-23.79645020985298
14.98922252774589
15.67238056876282
-15.73192241246931
-12.8919195543219
12.2553728570631
12.78790082286932
-12.15135412560666
-22.99237401515771
10.48296483884085
12.4908635480294
-21.95003039298971
10.02714699051083
-0.9690361518709754
-8.91838890237325
-2.622097412743823
23.79585917245058
-23.51222062264156
-0.6321624171914586
-0.6327879972706731
24.77717103797271
24.42952232233901
-5.448844868225956
7.019079022140669
-25.99975647616717
5.867670559677293
15.25934476204793
-21.2854996936449
0.158484371975905
-11.32805098166566
13.20565509228559
-19.89162340141512
18.01401929083664
15.70081667415456
29.43674602305669
-46.36675278898307
1.229190091820324
20.46259735632674
19.57887047435668
-32.7001212277686
-16.73325234245934
-0.311035149978599
21.31104138710409
-11.08767741296131
-21.04870574180683
25.57511939345554
6.561263761618954
19.99160266873448
-1.335319487290541
-18.6686953948527
15.74371326755977
-0.6783198292224359
1.608423014803943
-16.67381645451902
-6.0476474667905
32.23623166616039
-22.39922862979398
26.46784345307183
-15.55989346927632
4.583162335895604
-15.4911123195088
26.60019752235095
13.51637539117417
-41.41127795439628
1.294705042025523
6.00745544257709
9.473032979383664
8.440527682137754
-23.92101610404911
22.58206909489146
-20.776774955761
-1.829918160546334
14.8573153564756
9.013976987394692
-10.43322118405625
-13.4380711593753
20.47776855843324
1.883143414575669
-22.28573906456997
-0.07517290848480722
-0.03890965042179748
0.07594889701624177
0.1356167967278139
-0.1726560436115342
-15.75396056159282
10.33371093426313
5.37199065215358
26.63530745853283
-10.55088741546812
-2.125130718966739
-13.95928932408268
-9.726839451864553
-9.74923899367074
19.37436744574213
2.671786461468247
10.93783621736244
-16.7575201944376
3.147897515876228
-23.33377385691902
19.72533575067482
-14.89786864173349
18.50630674920722
-0.2964009485991544
-31.51375816912757
7.805139032935681
24.00502008509502
-16.18020434537392
-12.53642201868164
-8.440401313739132
37.15702767771389
-9.168280042759593
-32.41014836563209
10.63387158038823
30.94455682806085
-2.960922788189277
19.63372655582936
-17.65167788270708
0.9788741150474723
11.98692012061376
-13.87649915817815
12.41110916740347
-10.52153012981195
19.58878425210647
0.2162067291497677
-19.81119735481373
6.059214778148796
-6.228083775490971
-4.698569375788924
4.867438373148492
-4.22093345308839
-18.87810634765182
4.026828049086072
-8.518557673155664
10.44876793317574
17.45532697277791
-19.38553723287509
-2.152199153887924
19.94364723803344
-28.40408030394243
10.61263221980685
0.06036022534918411
0.8535871449025881
-0.2902789113269753
7.873625669998464
-7.699035150175835
-12.27880894756284
12.10421842774566
17.75885297149002
-5.824630822055439
16.97928317935819
-28.91350532880854
-1.636555909933683
14.40982660403085
6.671921961419056
-19.44519265542487
-0.01528051581891658
-0.1531362170553828
-17.55226586550755
30.48893393508703
-8.786652940237994
-21.78404796611024
12.12121262234072
18.44948828422957
-26.86671214529282
-2.853930938028028
12.98739074090405
5.721829458458541
5.807677111145263
-20.47545587743611
8.945949307854839
-24.18205552964138
-12.81346941092236
10.12881279532969
0.08951715491712671
-0.07097038004911956
0.0999625120213129
-0.01044535717399604
-0.06450240964315973
-0.2374296053217126
0.127924749883664
0.1740072645610571
-7.160129615288817
6.496679432549051
-0.07111628020817039
0.7345664612873
-0.02968666946046926
0.1906528286918099
-0.08820051200848268
-0.03011991992813261
0.07027584253343967
-21.56048029753134
-16.4690292059026
42.17209342424771
-4.142583920790637
0.1369934382834189
-0.1027604411323427
-0.02420298050580994
0.08308116690957466
-11.43680128391548
15.48146685965041
13.38994392818989
-17.43460950386029
10.08936217672375
-10.26251872374568
11.71343241935156
-11.5402758723137
-0.1025272535170356
-0.8182205450177673
0.008614837760906196
-0.08246084025855986
25.02210779585021
-22.56347818451624
-6.252992658448161
3.794363047173823
15.56478078617991
-13.18359665829293
-5.656379116976816
3.275194985575744
9.710771197063012
15.53781616390603
-40.67145975752793
-0.1406871810393536
0.01944231951673135
-0.01958848307296601
-0.09604798748128711
-5.648108488686812
0.9076949896535014
-15.50185024771234
4.50456724611756
-16.76992126140048
12.71661257648258
-0.4512585614506405
-8.685576735070754
1.51266757256154
-10.36202736598647
17.53493652849812
-8.258162359264889
-12.72830203176197
-16.46294107739178
37.44940546851746
3.474686230667659
-6.640526559444014
16.47785741043879
-13.31201708282166
-22.5631838810415
29.79735916740143
-7.243431581920838
-10.88588672330736
13.76771641776683
32.14503620401856
-35.02686589790768
24.05571612279489
-17.51466512758729
-9.680359496875365
3.139308501885162
0.00511934509890802
-0.094777841080865
-12.01314225075377
-5.284436907705037
-5.173337114721575
-14.27419481275851
24.16065820144231
-17.39807592419899
7.511612535176091
-0.04307102981624077
-0.03042600851154421
-0.06265951293843598
-6.054064222121914
-0.0782845285495346
5.391842752150239
0.7405059982431661
0.02000745367222813
-0.03619150532476035
0.1307607388013796
8.449986679911769
-12.8215374356195
7.847527478679462
-3.475976723250272
-0.7779295045676813
-14.09745616914915
-4.51845394777259
10.69189413628612
-4.276322685969059
-13.60691763013364
7.191346178442707
0.8702802611314091
-54.17192935710795
67.67919955073029
-14.37755045466154
0.04208727025701262
1.219583303947107
25.14979914576072
-22.2656438203595
-4.103738628055535
-24.54408415711921
6.488917716096478
0.1969640179944975
17.85820242308704
0.6573910196514913
23.71858223844381
-24.45853662081035
0.1073185665105478
0.15986480529424
-8.408878980423593
11.55326645506975
20.1612103917344
-0.654779148158789
13.27955588176759
-24.57205446338537
11.94727772986056
10.3084662024897
-0.7119234950343656
-2.038822299703584
-7.557720407714295
-20.49334545437647
7.636341379622881
4.338446401516446
-2.784876120910427
-0.9395443373699216
20.96879067004205
-17.24437021150039
11.84740480470464
6.281811859725939
-18.15277697065464
-0.469720898529162
0.006073944672004837
0.5115115964165776
-0.04786464309418067
15.23143929720383
-9.346604747281631
9.655952125002269
0.9746998373587785
0.1444718121950894
-0.008302557839303516
-1.110869095161483
1.163659581788945
27.38648623021331
0.7592493461666874
4.157138305151567
-1.21877356501951
9.624491736659367
-12.56285647634956
-6.147697318623526
-5.289501972447376
-1.800418690765612
1.019501528166858
5.239153338474431
14.07230383130348
-20.33095869777905
-0.4306060013333177
1.454924238636564
0.9411498122681814
-1.965468051438417
17.65600259287724
4.632693608335331
6.16221413658209
32.57226346359231
-15.6776802648985
-23.05679733529516
-3.690905802548183
-0.3692278357227736
3.311400342812597
0.7487332953786395
-1.450176485990819
-14.99384438251056
16.42617555419677
0.9478615733123449
-10.90954129569851
-7.289450197832607
-0.6188254931040283
-7.745270956006537
12.48608537455728
-4.12198892521352
14.42985746199354
-9.750233368897467
-5.298449586029357
4.972990459706985
0.1873951322238119
-7.481545500060826
2.321159907833646
-0.07076529586366553
-0.00560264957084914
0.03125177912463897
0.04511616617007454
-15.87001260760382
-3.029701290235287
18.18885190245428
0.7108619954762437
21.15660549001117
-22.22814592607009
2.3381269025735
-1.266586466393075
10.96284786997573
-6.751137453683219
10.21814704569389
-0.4938949842322941
0.3925581354424678
0.08148521593165743
0.01985163152289848
24.1732402216965
-5.706281245287203
-0.9821597602198817
-17.48479921600374
4.975947560242335
19.09023995422799
-0.8809484504113251
-23.18523906310523
21.92744538889256
-12.250241119355
-0.9227753710213721
-8.754428898344278
1.250282066997993
-0.194092781427419
-0.9818349644414397
-0.07435432178278675
20.91987661333313
-13.35472770960804
4.199498512975476
-11.76464741648748
22.848935060582
4.21069293419039
-9.323574420412184
-17.73605357428128
-16.78729765860898
-15.52821885157262
30.2858583798034
2.029658130090845
0.3250075363248411
-1.008265029934055
0.5487546349764758
0.1345028578299718
13.65023225562869
31.44288457952205
21.79436444832852
-3.375849297628768
-12.97024227204664
-5.448272878439245
0.405887076006357
16.44158188060724
-18.43067722474349
1.583208268828474
-31.35108819512809
15.4275750317821
8.294924060476259
7.62858910346876
-20.269275269045
-25.06781475276708
25.89710921116792
19.43998081063491
-2.400373528122636
-8.072520123908021
19.48863979172995
-9.015746139676873
25.15066254261688
-12.33154117195041
-15.21949489866375
17.57090938692292
-0.5299946036363981
8.109747759494699
-2.560186057452792
6.681469254080371
13.44962619053878
30.51325840300382
-39.17499743776987
-14.37932010567318
-26.33502453079427
-7.581996470654786
29.65434804066538
4.262672960932402
-13.48740876758376
16.72238484563152
21.35963487277119
-24.59461095003567
28.98911624684755
-34.62126488954128
20.31049915296458
-14.67835050959062
-18.57549417824551
-8.242098327101168
22.80782625384993
4.009766253747025
11.40499393001024
-29.59439184637258
4.701989150458514
6.422392478458036
-10.84555498052725
7.009718729289085
-2.586556230651414
32.90192834548272
9.64408476013039
-1.701320572768317
36.36784915675111
-13.24597879749836
-21.4205497861829
23.31095395665851
-12.04394964610622
-11.2895944233279
-22.43536561425822
19.09359159995591
-3.027404481275314
-16.08012445213058
-1.058962312838875
0.5597522174207822
-0.2650367596374132
0.7642468554678786
-10.98546442959936
-18.66289652796156
6.178098742799834
23.47026221425452
0.1612967671640015
-0.1770411029460737
26.07945638548793
-8.892333009964755
-3.932467667356284
-13.25465570837296
12.60478538031684
9.372028178821646
-10.68138142602303
-11.20545852204601
15.82853922440821
-21.51176693002147
16.88868622896537
5.254857325841768
2.987375597232248
19.10209393909549
-27.34432686188017
0.2972762906712467
-0.4083313262926776
0.3181496090912252
-0.2070945744710637
22.10354179640542
8.876459822580857
-25.72514429214561
21.72630973778513
-17.43409109721168
12.20000976399034
-16.49222840445652
32.27609647382642
1.101652416248015
-9.4230110982403
-23.95473779211466
2.313123831813184
-27.71046979223716
26.60861960290607
-1.2112736419782
-12.21499122336029
24.37927055170205
-18.88116296394806
6.716883635498507
-15.27496853272347
12.36331803160468
-2.038642628803157
12.74311982557979
-30.72536763965917
22.58050515578937
-4.598257341817483
4.432523606016542
-5.205142491183562
-21.18151075617933
-32.83525645322467
26.660813093478
-3.572544210121285
9.746987569986096
-4.525677724094359
-22.28303592356331
13.5765010053349
13.23221264235374
14.23910992091069
-11.90038641690135
-5.8125152542067
3.473791750217184
-0.2947251647484222
-0.7237873327681658
0.5740350898315439
-23.86267840120587
26.10860857235829
-35.08118662420044
21.68381244884677
-2.16916163006538
7.146162274797144
-2.925868871468812
28.01580558021919
-2.635033391370691
-22.4549033172288
-21.97572586129664
24.55523779580295
5.41824799675765
-7.997759931054889
17.15921772391523
22.27567875191011
-28.95824027392963
-10.47665620209942
32.31272909364712
-30.168191561533
3.561228150444725
-5.705765682859055
24.31198917034042
-14.46708030095491
-14.04957880231122
4.204669933058815
-34.39903580442264
12.26355811998124
32.89493614509561
-10.75945846030163
-24.29727587229193
12.32817323929906
-22.4299331711695
26.86614993049923
-13.09069373797299
0.4358749536480147
19.9934788415653
1.668650207176973
-22.09800400242525
-5.657951083067362
-19.42792678261389
24.46280218320868