/*--------------------------------*- C++ -*----------------------------------*\
| =========                 |                                                 |
| \\      /  F ield         | OpenFOAM: The Open Source CFD Toolbox           |
|  \\    /   O peration     | Version:  v1906                                 |
|   \\  /    A nd           | Web:      www.OpenFOAM.com                      |
|    \\/     M anipulation  |                                                 |
\*---------------------------------------------------------------------------*/
FoamFile
{
    version     2.0;
    format      ascii;
    class       volVectorField;
    location    "2.1";
    object      vorticity;
}
// * * * * * * * * * * * * * * * * * * * * * * * * * * * * * * * * * * * * * //

dimensions      [0 0 -1 0 0 0 0];


internalField   nonuniform List<vector> 
19632
(
(0.01143546183604873 -0.002368298424346124 -0.006676490931540388)
(0.03106282626175364 -0.009381739662390393 -0.02880905081260226)
(-0.0004798748992303693 -0.0005443356655678558 -0.0008306670650363593)
(-1.689148535336057 -1.659070236798254 -2.631565937455328)
(0.003163368643550224 -0.04950093522890182 -0.006657879960165231)
(-0.009246428062884733 -0.003941424892444629 0.005971875872528386)
(-0.140262217131266 -0.5090665996209054 -0.09258174528160598)
(0.02679940831630317 0.006483489031585541 0.00833240361590242)
(0.05228791920408864 -0.0238309062153873 0.002306631649117044)
(-0.002789397860008782 -0.03246938750531093 0.02879235466469845)
(0.0559814549510417 0.07719417518894856 -0.06259676822075863)
(0.02354847400367737 0.0335887469494424 -0.0002586179334055708)
(0.001183753796156039 0.001090853911415677 0.0007314932102760721)
(0.00124705984505831 0.000810806715289513 -0.0005998618482211801)
(-0.01961070039338817 0.005951752270477685 -0.01386041747869255)
(-0.06751837379496783 -0.007905022216523849 -0.635805806985682)
(0.005204560422881229 -0.004880736283872778 -0.008218376563265687)
(-0.05609256131259679 0.1700175991551564 0.03695534179320109)
(-0.003028902997660918 0.002096245126589262 0.001313991572509941)
(-0.01770463194269416 -0.00116432065577198 -0.008406476210476991)
(0.06189778270022654 0.005323132683013329 -0.008092612197389637)
(0.6527873400868309 -2.48855878760523 -0.4711282841652847)
(-1.245765564583408 -1.009855979986153 0.1284955814516771)
(0.007592676183345776 0.005209061043701423 -0.01431792461823617)
(-0.004740026848321419 -0.0002699022249162862 -0.0045726007994397)
(-0.001240700209402191 -0.002397557884345745 -0.003430616304882903)
(0.0105728649353245 -0.006135139715582005 0.002998725850784526)
(-2.088648865644003 -4.602723362886481 -3.41871447990299)
(-0.01578080900336484 0.2032686959793644 -0.1169217918881279)
(0.001562611800520958 -0.0006212197853626162 0.001437743280502687)
(0.003025079136463383 -0.0002627176508249621 0.0007703687244741179)
(0.0002614587657212611 0.002054808732507192 -0.001286053902690907)
(0.00366363088408949 -0.05003136733836336 -0.006548703980405416)
(-4.041685952394134 -1.015491950536866 -0.02375280718984296)
(0.0005382404116383236 0.003908299157046761 -0.00175189517759426)
(0.0008142011713604936 0.001322817791272473 -0.0003101987696406655)
(-0.0006541602048777198 0.01020177719964949 0.007801330750064273)
(-0.003511258555049703 0.001330160978087531 0.0003111090306395349)
(-0.003208978517488925 0.0005701844084898479 -0.003070167088138575)
(-0.00582144177058029 0.0006290463992629242 0.000836309943955814)
(-0.009029041845339335 0.00196347210153451 -0.004643895894974612)
(-0.003117335154644105 0.001029868966531743 0.002915237744885019)
(-0.007631383613421589 0.01201104398482364 0.01499167271419997)
(8.20912746615446 -1.317720612354535 3.073120231394194)
(0.004515868635004833 0.0004893950975851098 -0.00321573363429819)
(-0.007866289432532663 0.002964860783712945 0.001604315090649723)
(0.001385737780664622 -0.0002084052313173539 -0.0001659337153562315)
(-0.0004077745674334525 0.001401231687921353 -0.0008509019264139343)
(-0.2387031836395866 -0.01181965038506388 -0.1421619477072845)
(-0.03911450382355335 0.01703780411492284 0.009553118869428973)
(0.05469819837192037 0.008419027444954803 0.006431898433248001)
(-0.06345138100177779 -0.001915993228580223 0.02564998356358494)
(0.1217505154246258 0.04515447620516077 -0.05443217960575449)
(-0.002508758951089215 -0.01194670496874118 -0.001271830694949942)
(-0.008652897291006923 0.01645961301600706 -0.003108172046053098)
(0.02390119688482705 -0.001185471306301532 -0.01165007229588564)
(-0.002532601452316624 -0.0006850991376044415 0.003159107357956354)
(-0.002159497359459472 0.002861740145409904 0.01476454128494783)
(-0.003373098683851238 -0.00440424439244169 -0.007005551866551951)
(0.007841270831015889 -0.004313755851544513 0.006442688923498969)
(-0.0216154934765489 0.001018477396939233 0.0001804709604404675)
(-0.0008293742290789635 0.00183571948797956 -8.732387436789692e-05)
(-1.371909256975619 4.562009382674338 -8.291055530409283)
(-0.05201856075556299 -2.11269793587495 -9.233935378571822)
(0.0001130973883759517 0.0005129238703994952 0.0005161757719772404)
(2.509799342781482 3.165993674082515 2.259503942082894)
(-0.1402460997680713 -0.6277251301079341 -1.054832892513467)
(-0.04793309325970717 0.0005658629666845695 0.02064852439029442)
(-0.002189590018133872 0.001350310299023951 -0.002365182557385006)
(-0.001540519374138967 -0.001264600819296263 -0.01265940952033914)
(0.00175533728080225 0.001524942921043685 -0.006417162144513052)
(-0.00154805244021054 0.001553643491150088 0.001095009772633847)
(-0.0002003609879033339 0.003909253641374556 -0.003831284388692531)
(0.02969292078878069 0.001287599694922692 0.01830665482687504)
(0.0003457106190281028 4.71584445081411e-05 -0.000758904435690919)
(-0.0003828829612217998 -0.000451496786220677 0.001833833924003124)
(-0.000594390857301802 -1.076837339801529e-05 0.000338170602508788)
(1.135843793099183 -0.4531411826541249 2.045118442239482)
(-3.069728469986909 7.04488442829814 -2.47654416472105)
(0.02204369497426842 0.03130440957364238 -0.036705588335034)
(25.43879381442756 -4.275620305486591 -31.11620675057255)
(0.1632875221015059 0.09451011251889413 -0.2694002883029461)
(0.001533288245114338 0.003449262899218669 -0.001471033662965376)
(0.0008406484281390154 -0.001901611582935878 -0.0006233136704296693)
(-0.004781770798593645 -0.004640154347362538 -0.000167503876491205)
(-0.02513196925281926 -0.124525266016717 -0.04013404998698415)
(0.002136706687246679 -0.00115878775868407 0.002755900882339079)
(0.004728000714261001 -0.001375536568020012 0.01293737843917332)
(0.007057169680331687 -0.0003319759875658574 -0.002040680706745393)
(-0.07318763575380915 0.03468451492704348 -0.07324917085670662)
(-0.01219475818096064 0.005654712833753617 0.0184896271514779)
(-0.03068527803481114 -0.004959880150616419 0.01978096223255749)
(-0.01544427739751726 -0.02229333261275875 0.01078909276940064)
(0.01445271141010592 0.03592548710268589 -0.1054007718181543)
(0.02321149162300664 -0.005559103329357639 -0.008333141079733694)
(0.001746878186039786 0.002399725165498353 -0.003217988722151011)
(0.007395887081776264 -0.001241330027651284 0.01205508443780543)
(8.578108502989941e-05 0.0001343125021754975 -0.0006146362803110298)
(0.008137376599848404 0.003951905687083992 -0.01047921094101208)
(-0.01722718496073931 0.001565769699167992 0.001682065933130401)
(3.838343557167936 12.73047296136335 -1.949876552920158)
(-0.01215958346915888 0.00183389985562102 0.001609534607819475)
(-0.01077202752909145 0.0001636768377822131 0.002137650390383826)
(-0.009687979036090576 -0.002088510644591693 0.002813088914695426)
(-0.2115314062067053 -0.347744325838151 0.0985929927287595)
(0.02728677892670234 -0.02218828386429668 0.02710854963684438)
(-0.1277634006122562 -0.00277568580827578 0.04862810608736759)
(0.01873577790623757 0.002963318000741143 -0.05396888881520023)
(-0.01411215477139871 0.0006449965387841892 -0.01864066570897528)
(0.01826364372707898 0.0002510653867712248 0.01863389736403741)
(-1.709930667657227 0.6424033069207755 -0.7591391141280615)
(0.02123329131628332 -0.006390761613693047 0.004745641570586608)
(-0.0001631196123365563 0.0009329265485655371 -0.00451924923010746)
(1.004235034386088 -1.051872252833931 -0.4263226196460732)
(-0.01525412898264623 -0.005735123869426637 0.01817329465991496)
(0.1308761639885617 -0.04036370034948107 0.07808728830412845)
(-15.28922814665706 13.03530442371813 -5.890720561780562)
(-0.4602868155593512 -0.4822194070900335 -0.2225948470282899)
(0.007333899770396916 0.02498405064754309 -0.06681017261291136)
(-0.005563289830142359 0.002328999328752875 0.0008730188427770614)
(0.0126092139764071 -0.008860040742647254 -0.01136386084969001)
(-0.00846094405680564 0.00536077509764133 -3.084965175109125e-05)
(-0.001841937166996523 -0.0003228662601358955 -0.002677545348806913)
(-0.001373287636654741 -0.0008758945634975123 -0.0006466723422171861)
(0.5361792490544014 1.551205755403066 -0.6121932724094108)
(0.03053205990846228 -0.04493420367366512 -0.04656695775914982)
(-0.008923078107668021 0.009716778825882792 0.001005898650370383)
(-0.002352372417352538 0.0009899581244166645 0.003168515773727752)
(0.008289830232287677 -0.06930501186630873 0.1103929357778537)
(-0.02242915283888377 0.002243629117164519 0.0001728188272963819)
(-0.001879693154980371 0.00283341154781502 0.001700428093599824)
(-0.001217762856856079 0.006821446090564178 0.0008088634853359147)
(0.02619273282789151 0.02214467781222878 -0.0113490458287795)
(0.0008264143896070608 0.0002662653919615677 0.0009134113694552207)
(0.02362814117633141 -0.03750465756589986 -0.0963245122686415)
(-0.01994607629188452 -0.003821908208912424 -0.004208655538824754)
(0.0006094606916154608 -0.000409152201497912 0.002332895523273134)
(-0.002521765307414774 -0.002385849381101108 0.004380237530584643)
(0.007988966999584809 -0.004368144049239065 0.000510122229213699)
(0.006734576687169081 0.0003900591472517758 0.002116185314948742)
(9.393509064143121 -14.0655719824879 -47.28148586564502)
(-1.771958654725217 1.26312295636064 1.274130059771535)
(4.256425951460537 -6.91173729210621 -7.756056741151169)
(0.2152958105859264 13.70386074923034 -3.898053342227094)
(-8.819789453732968 8.163824137945182 -37.62409344033063)
(-0.0004519527369033662 -0.0001847686978790052 -0.000760594017152487)
(0.01074175164881181 -0.05918187189709043 0.004367420289312255)
(0.5107349129098452 -0.7184106498778007 -15.18898460340475)
(-0.003732521846535326 -0.004651382630391256 -0.0097566897864972)
(0.0009341605871735885 -0.0006727694772152168 -0.0003989857362748379)
(0.007589905412255414 -0.003684728070385541 0.007128704488671068)
(0.01797300655431035 -0.004156025558851657 -0.007801659333896444)
(0.02004765209004526 0.009163740153148156 -0.01185661090252012)
(-0.006236780773628721 -0.0002522467917092622 -0.04054526550456398)
(0.04803634175117256 0.3555841047375219 -0.03863983368482921)
(-0.03005904774263183 -0.01325476661759194 0.005928178173275851)
(0.0007196337875198277 -0.0007100162268612277 0.001001954473029405)
(0.0004427497940320633 -0.00249630694217174 0.02379717716290865)
(-0.01901202661853891 -0.03888161557869588 -0.00668180936362978)
(-1.802663057363387 9.063498929784792 -2.486614408228879)
(-0.4729467497092055 -3.836397862650045 -3.155454674649095)
(-3.739087784423761 -3.651261415648488 -2.694720683121912)
(6.09120574729087 -2.718243144662226 -15.53244816446846)
(-0.9098648851790592 -2.06263931294635 -1.386689232310848)
(-0.0006445174747359917 -0.01201655595465074 0.01113410535562027)
(-0.09626588074215531 0.06926528801397805 -0.1310600218026764)
(-0.001308557744753551 -0.00480196159704554 0.02174279673359004)
(0.07865723676528451 -0.003685562079153049 -0.04174807915598868)
(-1.118859076478719 -1.22998361647129 -2.541720319822213)
(-0.0005235900251167257 0.002760361867802584 -0.00164110601676403)
(0.001974941663326191 -0.0170939178315793 0.003798461727277974)
(-0.003877532267371624 -0.007530863760380174 0.002607939242551615)
(0.7520201796485217 -0.5720675851443223 0.3858772565698039)
(-0.0003508733685746359 -0.001491360814619048 -0.0003628677004864817)
(0.004831932242685767 -0.004763493605673129 0.005483033998063496)
(-0.01672532633110992 -0.3713539952885507 0.6451562306238189)
(0.01692771463014897 -0.009228260615103245 0.003949960139493254)
(-0.0030523000995288 -0.0007461445431867552 0.002345266556043815)
(-0.000475072318837793 0.001101803234965359 0.0002643276723692869)
(0.001147659798733507 0.002261483897459321 -0.0004757494403067491)
(0.001291417278531419 0.002461162056201124 0.001696408717462416)
(0.0006989011490302711 0.0002382059627878157 -2.410940316048126e-05)
(-0.0003042489048022234 0.001128168915237442 -0.0003333056494726256)
(-0.01332432948417114 -0.02929217617730323 0.006887622570295883)
(-0.001394196767741161 -0.00283202635035991 0.02109265217697528)
(0.0003136308226358322 -7.660760101475499e-05 -8.756172595361655e-05)
(0.0005893255843682094 0.07138821923280617 0.01257168427366471)
(0.002584501630674394 0.001066092765453122 -0.001060441932331609)
(-0.004407997202891656 -0.008341540585693304 -0.0001109261780923593)
(0.0003732992586697087 0.00124166485439419 -0.0006959251150417725)
(-0.005524867090023225 -3.48436942722288e-05 -0.0007070144333534997)
(-0.02372977142673881 0.009420152926580914 -0.004556833245615953)
(0.03378883056370484 -0.02912129997349934 0.01498279520558585)
(-0.1743342335857914 -0.04697745551849256 -0.003835462090457551)
(-0.00447495348044626 -0.001352624220434244 0.01111114014058867)
(-0.0006598787279714149 0.0002841557822024123 -0.000305533402967416)
(-4.679522752158775e-05 0.001268172055053128 0.001306365167078238)
(-1.124569593417975 -0.7098458077099582 -0.2211162152284371)
(-0.008885052991104248 -0.008778038249951766 -0.001747554518100606)
(-0.1288387175297526 -0.03591004726051485 0.03042186731769812)
(-0.01456721760121644 0.004528355521028964 -0.01306907295173771)
(0.005147343926158243 0.0103140779735196 0.0002175321029244262)
(0.001189207640365341 -0.000684800883202521 -0.0006440954248317594)
(-0.03799854157044127 0.01416360774901456 0.004552558076034636)
(-0.5899557716701254 0.5986423261174291 -0.4043660396406657)
(0.1351516659242203 0.04823022508766633 0.0004071946489876167)
(-0.0005450043901063023 0.001776815263784377 9.132229408007693e-06)
(0.04460034829143217 0.02754571818184848 -0.009628304757572568)
(0.001433390441664825 0.00127969960276961 -0.01330486447941984)
(0.0007404660685522046 -4.271246864380563e-05 -0.000239492490756495)
(-0.0007558402384688289 -0.005258010329450192 0.002695124286734449)
(0.00196734392225941 -0.0007401122035288399 0.0014600895507897)
(-0.000393176583397932 0.0001272674414139005 0.0003357656943564204)
(0.001272093892661742 -0.002371985167462432 0.003348161345724288)
(-0.039667552439359 -0.008608044045400479 0.001460848799245011)
(0.0023157918583881 -0.01395073526785925 -0.0004585314178622393)
(-0.003772772050384764 -0.001273618110321381 0.001245811913564492)
(0.002389014628453139 -0.00233473785160608 -0.004407637220021374)
(0.02052522489049281 -0.01103543935581569 -0.005863101514616522)
(-0.1057528518209281 0.06551680091168471 0.01139175438840853)
(-0.08075327207215813 -0.06724362100563283 -0.05428670960677261)
(-0.004386857285912853 -0.01696440584553666 -0.009320949228472186)
(-0.001095076957545394 -0.0006577278875804752 0.0008010484641674514)
(-0.0005947028857281182 0.0007897233109497587 -0.001057589182076882)
(0.1932446544463543 0.5316951549964067 0.03204826315193766)
(0.01831545217277977 -0.01092710187631447 -0.01231450640878698)
(-0.0347844432156665 0.02715793810588087 -0.005467318876182351)
(0.01290552308142346 0.01788226169360929 -0.003857247160639935)
(0.0002672178483181646 0.001274667586614364 -0.0001430310664111277)
(-0.002134429691226006 -0.00219412015116596 -0.0029916309443136)
(-0.01789203915234625 0.0128947968696215 0.01581703744295965)
(0.003873086015234351 0.001400747703376959 -0.0009980405616541971)
(0.02099759602042395 0.004573496854715153 -0.007912922868355942)
(-0.0008830185364147242 0.001789491000853575 0.001496926680095926)
(-0.002848656431081778 -0.003011737212354022 0.005803153765695129)
(-0.003574141927333676 0.0008138574277824411 -0.00213218076122091)
(-2.576675777538756e-06 0.0007214452950026111 -0.0006113283641566928)
(-0.005233152075062961 0.08485254627491565 0.2993205442997495)
(-0.006672649127724415 0.0001730699216308542 0.01154359179095932)
(0.003559696905527202 -0.01133871301353084 0.0009155951240560631)
(-0.005136766154363471 -0.0004008132142438362 -0.00462465739520012)
(6.534447736453358 4.349219786262823 -0.7406877141426172)
(0.01877524555864555 0.003706261273431666 0.0009253679375071534)
(-0.07157199984273882 -0.06294865452842403 -0.1487134370835562)
(-0.0007663515590667088 -0.001476998152765847 -3.447864546694173e-06)
(-0.03949961410336036 -0.01730380068599595 0.004536176255565738)
(0.007248403572790618 0.002934439833336886 -0.02042787574210355)
(-0.001044592615383083 0.01833174477476272 -0.009300016565626963)
(2.09318619652602e-06 -0.00053592416683094 0.0006659449627923666)
(0.002844003806254952 0.001699261203074026 -0.0003957675825991266)
(-0.0006059489770892066 4.775054941360868e-05 -0.0005480991434395659)
(0.0007251605586923903 -0.0007492534361535088 -0.0006073741864293267)
(-0.008642770339762955 -0.04453006960919866 -0.006119632535611385)
(-0.0007392835226200196 -0.0003662798483993752 0.002528083460521404)
(0.02161689162643038 -0.01315835803988679 -0.01420986113557481)
(0.01129328912790875 -0.1155802186221378 -0.2387543774372295)
(0.0008618726852826059 3.229293282090327e-05 -0.002862428724457784)
(0.0116896943490243 -0.006250333014820191 -0.004179613973594712)
(0.0353730666012032 -0.03399360264688499 0.02878917130129884)
(0.1981695568281473 -0.04508569803577644 -0.1087148138804986)
(0.01840686778014245 0.008425917739233084 0.03234995388433763)
(-0.006683153685562015 -0.002778922822746706 0.001941298933971427)
(0.01475817056091518 0.01281196319580238 0.01557581768792218)
(0.0003748296869823094 1.473481893918825e-05 -0.000359563511651301)
(-0.02847041748693329 0.03839349188994416 0.04883946504757032)
(-0.001253964220884628 0.0004593932450227173 0.0003026982227640997)
(-0.0006320182547831603 -0.0001952061964147529 -0.001387091277609436)
(-0.002364254424380218 -0.001690289922350264 0.004572897075694386)
(0.0003380866009667597 -0.001420607149531984 -0.000261988955074022)
(-0.002243384483537549 -0.0006276198114675142 8.077599893845417e-05)
(0.003920289401827803 -0.001412525134451909 0.001058339308343253)
(-0.0007919075421877857 -0.001672353208945239 -0.00196341414086717)
(0.0118513178134734 -0.05565813391924741 -0.01555524683318873)
(-0.001610498794594564 0.0004990204235651862 -0.002173753401125233)
(0.01385132723889746 0.1763262250394595 -0.006214419782205246)
(-0.03684176174508563 -0.0002230110593458134 0.05295154131726533)
(-0.001466660378331628 -0.002138694286557202 -0.002303904138669193)
(0.00832813770971535 -0.002517009367014703 0.001935580099572189)
(0.0004316294121025995 -0.0003552373270224321 -0.0001677908897412058)
(0.1807706918072021 -0.2064029418382398 -0.6788985900435112)
(0.02128504755120291 -0.01592202013641713 0.01190476847303764)
(0.04335868141346966 0.03917022485099722 -0.006126557310983157)
(0.02568994720827034 0.001887397823688662 -0.007454932694274085)
(-0.002340076519509247 0.0001232230726178959 0.0008101501734998205)
(4.272973907030512 5.934972134918357 -1.380924776664686)
(0.04028429026914926 -0.07219310569765662 -0.02373627370404194)
(0.008988827408816655 0.01082385377122955 -0.006590464402887731)
(0.2177095798578998 -0.103234025091446 0.009763450431287131)
(0.2120128734421901 0.03862979454081349 0.02795288056084211)
(0.006665539555883495 0.002459680219964706 -0.0004825448981124376)
(0.002838562854011666 -0.0001114643130286339 0.0007847574886549173)
(0.002606301389872432 -0.008737419686950248 0.01149141889695181)
(0.0345241750695753 0.01514454677876305 0.001939821093103191)
(0.003629951935290481 -0.001219090517431819 -0.001572969730246606)
(0.007176579793855086 0.004628561023372321 0.006248382705721532)
(-0.01819666383481223 -0.005387843306149757 -0.002616578808030918)
(-0.03109347712302136 0.06614177700525033 0.08106695421021735)
(0.5303431758692132 -0.4445666563834817 0.2379237662268921)
(0.006068906074330619 -0.006428951319836599 0.003539895932822836)
(-0.02310789564428044 0.03121661160452637 0.04490265557967746)
(0.009693436565181738 -0.01466605283340992 0.07594170168580228)
(-0.08664658555024644 -0.0181448180075766 0.03741982557623971)
(0.002584450855786447 0.00249219190394739 -0.0008256409890486378)
(-0.0003077918576660061 -0.0006905714163002143 0.0003725138349265755)
(-4.859136730667402 -2.73880936475727 -0.3953776132985145)
(-0.00127166053457185 0.004279437632732075 0.002016858292722824)
(-0.005955207982532239 0.004712508544428623 0.003473312298406206)
(-0.0003116930437479297 -0.0002393367671721258 0.002061583372117323)
(0.004267479824790749 5.612071949203756e-05 0.002371645151268386)
(0.0005124126943899331 -0.001119438144487998 -0.0003194633246262701)
(1.772333487981392 -58.70488207981813 -4.120242482838579)
(2.658971899038946 -51.01360733143339 -3.245751451631595)
(-0.1827216064264356 0.01889025353707634 -0.01822632671063242)
(0.0006539534295548332 -0.001645983329641367 -0.003109610690110924)
(3.267995605026783 -3.887695911637497 -6.348010860536528)
(1.251190020273252 -1.704454897067876 -10.87703542465298)
(2.876869534989557 -56.93508843047795 -5.749767944790663)
(-0.008549955911467134 -0.002911383574015736 -0.005059188563253688)
(7.397234127334678 -6.832564332125623 -3.445671546562453)
(3.563800662016317 -11.70677036772238 -71.32760866419439)
(-0.01671513242828918 0.00269661781315802 -0.02735597199274415)
(0.05514013183777799 0.01885595985196806 0.1010432105609055)
(0.2124311127402196 5.943906302651317 2.093021899803567)
(-8.784990968049746 -1.813208392330563 -59.79089934801807)
(0.0008558993627385174 -0.0006903372505400466 -0.0006419977703362732)
(0.0006536467853239998 -0.0002312866360165641 0.004215180016170699)
(-0.02802828470085538 0.01725447736396257 0.01046772915818303)
(-4.071257770753213 -9.731854424871297 -5.462417302015376)
(-6.297325778084811 5.003905474976573 -7.541022467365345)
(0.01845568062963148 -0.02334142231036466 0.1073963663665914)
(0.002630091628011653 0.0009178973851767849 -0.002026449031240071)
(0.0001554595790032536 0.001013106780503916 0.001404223634915885)
(-0.0006187782816614898 0.0001886914894066321 -0.0007769727492640223)
(-0.006611985411582516 -0.002734692784926368 0.002045092197235677)
(0.02373583399871021 -0.01798775279655125 -0.001257540201732233)
(0.01804082624074215 0.0245707302040512 0.009467827164885416)
(-0.007834393102213039 -0.01545714172783835 -0.1131040825416476)
(2.494704202295164 12.82617736083037 -6.397910987674924)
(0.00408075346124058 -0.06463986809449417 -0.02338732260957557)
(1.9119119549221 3.883875550736628 -60.08140877590328)
(0.001224390690173649 -0.001507890342077026 -0.00176722911860469)
(-2.015129178117295 59.37793129390835 -0.2610553766920038)
(-4.828524671889477 75.73940138149514 -18.13390518936124)
(0.002122094109744677 0.0008675988789145304 0.0001291998270931012)
(3.279035837516668 10.25435812359165 -7.630672544744009)
(-0.0006026413843794068 -0.0002271071715018865 -9.746269184241602e-05)
(-0.02992858600877026 0.01961266664599812 -0.2456335743929627)
(-0.0002498800180213914 -0.0002386036584192076 -0.003658044049231199)
(-2.500783953499832 -1.357952759349591 -3.632008673200899)
(2.153020837226105 42.72433013048336 1.013719259227464)
(0.02533219849650545 -0.03884694537097994 -0.04894158731795274)
(-7.545183440342139e-05 0.002762909901940289 -0.00204518811538986)
(-0.0903456284683454 -0.0189110326234201 -0.01137980026845414)
(2.899074390647185 -4.742872484627227 -3.522714742956299)
(-0.01638565428871577 0.03959830542556037 0.01908641636254084)
(0.002413796919963041 0.0005808594138766013 0.0004250885153362376)
(0.0009381551879706193 0.001014582698483677 0.001188492097780053)
(-0.004559233697512989 0.004169875144643886 -0.006256216685238901)
(-0.005476905029100098 0.001219983862703203 0.002420196570988909)
(0.04882886400805059 0.01423343895838834 -0.004255855031990742)
(0.0135903764175071 -0.02592593945657631 -0.02570338302795357)
(-0.002582764205630309 -0.00307120345634737 0.002383191682053937)
(-0.03223359910367745 0.002867917604594691 0.009920988506561628)
(0.0007918533396646535 0.001214307146929991 -0.001464579337511818)
(-0.1619971635298238 -0.01709156725522275 -0.8293529907310343)
(0.455870116260556 -0.02804558942948066 -1.227445804122601)
(-0.006348080654745353 0.002871188898661791 -0.0005242786190342024)
(0.007128049974292679 0.01164533037172136 -0.001667900111830795)
(-0.01171011651638526 -0.02188505722622255 0.03116219112097322)
(3.486276348913332 3.166798202870433 -2.406889253401689)
(0.002413402035454646 -0.0002637111064818249 -0.005572682174781459)
(0.01684017410300688 -0.02419253103065925 -0.002649159196377491)
(-0.9664951112984754 1.007803047376892 -2.376058821477608)
(0.002206094727588326 0.001663040076608531 0.001822091870523349)
(0.004231703386786789 0.001275459486228286 0.003520816063941862)
(-0.000987905921873004 -0.001001722595108284 -0.001820356478903273)
(6.779380273642643 27.77687054067023 -2.834781853297676)
(-0.0002572121159484825 9.748306042953414e-05 -0.0008935688461877229)
(-0.002280079577208328 -0.0004381244265651387 0.0003023673073691937)
(0.01034427417121269 3.273086805489697e-05 -0.005360911244512328)
(-0.1073246254556518 0.2249900416513814 -0.1355686741762929)
(0.0006811949442406965 -0.0009786674578738169 0.002208975070933728)
(-0.004895159264171255 -0.0009599202515416462 0.0001444124447521678)
(0.001372992244681981 -0.000715106644962837 -0.0008676303814919709)
(-0.01689770280721964 0.004787960738123567 -0.009272560159583948)
(-0.002329889584124476 -9.073240629669241e-05 -0.0004923274736921867)
(-0.000311478359551532 -0.001438823825997373 -0.0008988968595474889)
(0.01203938051801078 0.003855482552903201 0.02995839263584167)
(-0.0787487469342996 -0.03341880181764292 0.03378465591724773)
(0.001425185388482607 0.001284331785326792 -0.0008378267621589215)
(1.079641283473762e-05 -0.0004795618268257024 -0.0009619195350758642)
(0.0376085040928226 0.03527871530579048 0.05764178817055213)
(-0.0008885841838541064 -0.002446946027689506 -0.001955195330261636)
(-5.567487438893931e-06 0.0003775999340150012 -0.0005040420876702723)
(0.0003699627987098083 0.001303927779285805 -0.0001023855258500792)
(-8.525378237109665e-05 0.002118395625010015 -0.0005593736417128852)
(-0.004217830258603443 -0.002409599307480496 0.00335912667913422)
(0.001589780141559105 1.734201648667525e-06 -0.003147346459907573)
(-0.0005152527226385369 -0.0009966722394659728 0.0006710552366021328)
(-0.001489226990022726 0.001604837870570896 -0.001126695472774313)
(-9.096608656988781e-05 0.0008785410348760545 0.004508112069320163)
(0.004134605902267332 -0.003511037238914156 -0.001986934414721354)
(-0.0892168827228897 -0.01649096699891957 0.07683348603285038)
(0.007549366499691547 -0.001060209160066282 0.002817547726101821)
(0.0002342560774757025 0.001309032798486616 0.0003542718525756194)
(-0.0005323804624602799 -0.002047306181624377 -0.0005919575234646544)
(0.0007669515468867466 0.0005757641288508701 -0.0004367458604954979)
(-0.01206391116643301 0.002069198481894557 -0.01340473772049538)
(6.086200593813325 -0.6436765245595062 5.737500707373324)
(-0.03987601380711355 -0.004988697528364229 -0.003172692975225263)
(0.0309327783332469 0.002470773372960998 0.0334095446819268)
(-0.001047653865761475 0.0008149848197287648 -0.0002937550155413994)
(0.02122857203742718 -0.007220450231918538 -0.02834231105518559)
(-0.0002431176700303989 0.003093955072253385 0.00135975744950353)
(0.1105213248288109 -0.01133166072891982 -0.01727342993899061)
(-0.009341672146867881 0.003949628809420984 -0.009769389414802786)
(-0.002961597769671128 -0.000479561499323554 -0.002772645949727454)
(0.006322491839917843 0.0725137852194418 0.1450811999506803)
(-0.000726935668212077 0.001764666541855221 -0.0009000649725060704)
(0.06993206800157395 0.01505354603368814 0.0279606829008021)
(0.001673259818634996 -3.163191711225534e-05 -3.716554259265685e-05)
(-0.001120665059212523 -0.003509541677857903 0.0006459327070821035)
(0.0007642269892077789 0.0008777599993902217 -0.0007072468577758224)
(0.276632545611763 -3.646950527203443 -0.917529932420548)
(0.01134851595539516 -0.001661048855252207 0.006269981238210071)
(0.005623407821900117 -0.005504241040120847 -0.002900951976901442)
(-0.0009725520667073885 0.0002767290559121333 0.000729156230799948)
(-0.001411104911563685 -0.005678172083021804 -0.005735771190378402)
(-0.006427422036274529 -0.004807406470596077 -0.01711896470541588)
(-0.1546058697183756 -0.03727502177649561 -0.07988596033515438)
(0.0003609578809031996 0.001126480777421813 -0.001107409851112603)
(0.0001010503186590178 0.0003159649602949371 -8.035054856337059e-05)
(-0.0007586138721811097 0.0005107288215812435 -0.002057621936455668)
(0.0003271742566331305 0.0003985411514289585 0.0004678156542050722)
(-0.001569267932334959 0.0003594082553835609 -0.0005262150821007674)
(0.0002419200542905768 -0.0009791810592818914 -0.0008834522714260896)
(0.001101051556942549 -0.0006987671447478365 -0.0009832921178724589)
(-0.002184246669378072 -0.001527251653285108 0.0001269699033165377)
(-0.001033606118533734 0.001200142066197797 -0.0009320411867371145)
(-0.001926560170624423 -0.001604314441093741 0.0007807373574820352)
(-0.01627656411385232 0.01972635779211812 0.0006057924568232311)
(-0.06963358370107552 0.06368727767527191 0.04556250984188245)
(-0.002168260779066498 -0.004977428465648409 0.008415267793525074)
(-0.004862121701852182 -0.0004467355266901379 -0.001216944937650277)
(-0.1206657038676191 0.03069025183071328 0.1466135461163856)
(0.01016664852977607 8.532641918540659e-05 0.00694639682548514)
(-0.001799551211642466 -0.001343126850545652 -0.004285871828842566)
(-0.0004230806357836039 0.01413804163223022 -0.00197766209749544)
(0.003549021894813128 -2.824549703658847e-05 -0.001024818537493428)