/*--------------------------------*- C++ -*----------------------------------*\
| =========                 |                                                 |
| \\      /  F ield         | OpenFOAM: The Open Source CFD Toolbox           |
|  \\    /   O peration     | Version:  v1906                                 |
|   \\  /    A nd           | Web:      www.OpenFOAM.com                      |
|    \\/     M anipulation  |                                                 |
\*---------------------------------------------------------------------------*/
FoamFile
{
    version     2.0;
    format      ascii;
    class       volVectorField;
    location    "0.5";
    object      U;
}
// * * * * * * * * * * * * * * * * * * * * * * * * * * * * * * * * * * * * * //

dimensions      [0 1 -1 0 0 0 0];


internalField   nonuniform List<vector> 
19632
(
(5.007698266965074 0.01403902060052043 0.005955780887288231)
(4.999994609294988 0.0002276837578161973 9.100372521118136e-05)
(5.00017317544217 3.781940159496005e-05 1.080723816631687e-06)
(5.000036462258437 -9.120271683702347e-05 -0.000123396238599854)
(5.000055946664557 0.0002144379059378527 -1.991364260936966e-05)
(4.999724164200117 -2.110140480971921e-05 0.001447773121341584)
(5.000077591923932 0.001978656732057386 -0.0004709590316960201)
(5.003122111539874 0.002263313818616365 0.002419432765022544)
(5.004747496482457 0.002604526022574742 0.003536153744848379)
(5.005301560955107 0.0005528430839602451 0.00203135605632748)
(4.999953918272719 0.005149518736950884 6.704417024996265e-05)
(4.999865885406162 0.0008406523977902644 0.0007352764571821428)
(5.005014108978894 0.0006058300594971694 0.002588681298797058)
(4.999975560928319 -0.0001272993575017422 -6.757182566098192e-05)
(5.000003075550143 0.0004681201778807241 -0.0001966527329968677)
(5.000206713844438 0.0005924255327180253 0.0002356805507797554)
(5.00003241142692 0.00047089667001242 -0.0001290345150303553)
(5.000067226961282 0.0005348257476798982 -0.0003432311381363856)
(5.000111720527718 0.0001229610201141367 2.060310359581267e-06)
(5.000323616414353 0.001575872701780904 0.0004512982759450593)
(5.003053130972817 0.0009853706243725658 0.001782384251560757)
(5.001088317369188 0.001951001278992666 0.003340119259055138)
(5.006554428413006 0.0007938559119626604 0.002717412868658011)
(5.00013752163802 0.0004726090857550929 -0.0001995956240712288)
(5.000494279735728 0.0003108873563029933 1.202247135870502e-05)
(5.004946030782871 0.001784467548869599 0.004166127587188768)
(5.003451601204466 0.002994125539627579 0.002136201427201055)
(4.999732257926916 0.0006500828209427641 -0.0002215005367227613)
(5.000210751374997 0.0004273874806883835 0.0004434030038734186)
(5.0000187437677 0.0002043594144302465 -5.599328587018778e-05)
(5.000117400301235 -7.272301051722307e-05 2.74604973801748e-05)
(4.999780569307491 0.0005904087848001017 -0.0001889105068965618)
(4.999969346967272 0.0005498143009450659 -6.747288701710245e-05)
(4.999777642933991 0.0001882720300074508 -0.0001316591275915151)
(5.000086637867975 0.0001435095376694491 -1.136883661933512e-05)
(5.000467436377798 -7.371891038078909e-05 0.000515737973398101)
(5.00083139217798 0.001356153677774893 0.0007975489940672884)
(4.999799285381363 0.00255402987838969 4.598618299422161e-05)
(5.003061451877857 0.001476102460592374 0.002933883475633994)
(4.999933926721761 0.0009472783957942327 -3.790976681144799e-06)
(4.999905650616692 0.00103480772535255 -6.15947913958251e-06)
(5.005201942372896 0.002354983909215666 0.005441279040202101)
(4.999662040684496 0.001667443655417639 0.0008505525180737043)
(4.999814578474301 0.0006362698364786051 0.0003899734388565721)
(5.000038919802813 0.0001431160780967489 -5.204869307572808e-05)
(4.99892783608862 0.003196846552391257 -0.001133700754945767)
(5.000390194808596 0.001318379281913217 0.001200604646071635)
(4.994340382371957 0.0005854226785884665 0.0002073818989790863)
(5.000236091101518 0.00186873405690347 -0.0004586084704923571)
(5.000215656094391 -1.255100806995425e-05 7.014512451624884e-06)
(4.996870812197506 0.000466400438670986 -0.0007595654968340289)
(5.000102013713116 0.0001311315409368756 0.000281873018527196)
(5.000056597984874 0.0009424819102673377 0.0003218943514653689)
(5.000057341902525 0.005079962093688573 -0.00210603396105133)
(5.000091157293705 0.0006945692010046289 0.0003144436879770682)
(5.002137768041917 0.001066183895577413 0.0007381858559848132)
(5.003654059426312 0.0001696045655121108 0.001280749029507355)
(5.000684671704509 -3.299073748287718e-05 6.440009294189341e-06)
(4.998908176267353 -0.001231310636540672 -0.002370867235211384)
(4.999952997381546 0.0004846909671619091 -7.665228012775974e-05)
(5.000012019823572 0.0002008374392737471 1.314491246364149e-05)
(5.000245725963464 4.094606895948348e-05 1.577983405017517e-05)
(5.000141573354442 0.0001476638164210281 -3.418883380785252e-05)
(4.999881431422693 0.0004201267184266738 0.0009785474915520076)
(5.00036293209768 -6.570286838315751e-05 0.001010586836380512)
(5.000010366632415 5.670827096505461e-05 4.606485210785462e-05)
(4.999845060443673 0.001035450022208864 -4.922845375991903e-05)
(4.999838085429956 9.223768164210731e-05 0.0002547207704356906)
(5.000314243780798 0.000206333399988243 0.000588607274382521)
(5.000164329013753 -0.0001633209181611164 0.001587065243574194)
(5.000059838881719 0.0002007709580712561 0.0001129956473261952)
(4.99477611710419 0.001564258890388504 -0.000179518873907644)
(4.990527894587903 -0.0002023652938072983 0.0003838896129473377)
(5.004018183053375 0.001556108210867173 0.002760301039401365)
(5.000568475654788 7.453211583110843e-05 -6.609471257770266e-05)
(5.001224424068575 6.986759562552594e-05 -0.001377446331073733)
(5.000096697516584 0.0002619490097413436 -0.002443677088126813)
(4.99820963521399 0.00105402743936766 0.01850832073202148)
(4.999918771079999 0.00108255711982656 2.35707616114867e-05)
(4.999657842684519 0.001181420012856675 -5.891307007533556e-05)
(4.997722597927377 0.00392238068529654 -0.003402891676144104)
(5.000382616234019 0.0008125519535489168 2.554829170992442e-05)
(5.000628999037144 0.001210970353314998 0.002512331751255401)
(4.999664221351934 0.0005194020207414384 -0.0003202156844169852)
(4.999552594560638 0.001479713950481431 -6.362844831966185e-05)
(4.999395449238001 0.001467911586847885 -9.035239379157253e-05)
(4.999978510499563 6.386972813220408e-05 0.0003123606966819851)
(5.000789066120193 -0.0002886383823057651 -0.006574145776274066)
(4.996298820753702 0.004869422118746065 -0.001616088376133526)
(4.99993184335145 0.0006035860052156337 -0.0002699560327977863)
(5.005726612777385 0.0006353802498996069 0.006355788506226152)
(5.005216622603948 0.003033578266261907 0.006975626755144773)
(5.005516595068285 0.001988205998176291 0.003686697550726656)
(5.000085398795838 0.0006021085334906253 -0.0001816949941431426)
(5.003108529690627 0.0006443898925682361 0.002209099890107129)
(5.003338595265175 0.002391252501103063 0.002332434755490749)
(4.998923903360911 8.527550733618024e-05 -1.098054255518839e-05)
(5.000023810218157 0.00325896823814957 -0.0001984192054746348)
(5.000809800998399 0.003256833847325486 -0.005892591220839767)
(5.000179057359617 0.0003015690683173913 0.001483811692115856)
(5.000037688841203 0.0001065317187607795 -9.137455188824949e-05)
(5.000337193815535 0.0007778382282532559 0.0004705501467844411)
(5.00005574607528 0.0003499687111039877 -0.0001084087852327788)
(4.999947736051387 0.0003484041562369582 -0.0001388323729439878)
(4.999228639712813 0.003792320451124635 0.001078304325787919)
(5.000103461998205 0.0008124368816167822 0.0003030822275322644)
(5.00007018596459 0.0001972627321337699 4.276798467242714e-05)
(5.004290624908924 0.00225096271891259 0.005399309882931566)
(5.000530499559225 0.0009729990679714154 0.0007116117102134756)
(5.000030798675076 0.003716205571713161 0.0001954282413975126)
(4.996553564350824 0.0007869450385625237 0.0003084575798844095)
(5.004350324833996 0.000222939231623829 0.0005863929388003814)
(4.99954555641367 0.0009277144614192149 -0.0001961908563733257)
(5.003644997653457 -4.794048832125848e-06 0.001653229076100237)
(5.005090796379386 -0.001392577621453445 -0.0004414787823865511)
(5.003631748097312 0.004876683860191409 0.008748960201714695)
(5.003512829414869 0.0003490214323522319 0.001237505515013044)
(5.004046071162433 0.0004094722489919166 0.001147715689434037)
(5.000005896525813 0.001865027861259444 0.0008923508986550864)
(5.003468897987619 0.003363032107718136 0.004253294582107043)
(4.994536817772073 -8.119448162419918e-05 0.0004406606416875391)
(5.004187709924111 0.002642748572881499 0.00527049390642178)
(5.000055403602354 0.0001523176955421269 -1.914762938856384e-05)
(5.004353380370625 -0.0003344146773563384 -0.0001631712629576463)
(5.004513550543949 -0.0003079727474855445 -0.0006696457366723958)
(4.99987601855554 0.0006436902506502905 -0.0001434451666346288)
(5.002921524324973 0.003387981871988053 0.005184532935794615)
(5.000305682669807 0.0001530554336058528 2.288347067517491e-05)
(5.000155290237638 4.641970966665535e-05 -0.0001554468297999917)
(4.99796666434154 0.004179411982612606 -0.003689481009131212)
(4.997011802615803 0.007310660486903279 -0.003785254988059362)
(5.000185983394377 4.612973907645844e-05 -3.617401494840517e-05)
(4.999900041374164 0.0006942659515605764 -0.0001654151108458524)
(5.000109229564378 -0.0003500794683744814 -9.637591274402761e-05)
(5.001461856708133 0.000161718875628364 -0.0004421879863310593)
(5.00048200192665 0.0002035535629410864 -6.057155039491839e-05)
(5.004588765969159 -0.0007425963467157085 -0.0002833648360051239)
(5.001170926305624 0.0003603146864831153 -0.0005423489327738631)
(5.000235126595635 -9.232789470805399e-06 -2.894686783701559e-05)
(5.00058491155664 0.0006768417446305304 -0.0005797457212834482)
(5.000077553056395 0.0002223829996866904 -9.857926251608307e-05)
(5.003042313290035 -0.0003133469184227402 0.002864062913693395)
(5.000141379477507 -2.346396086846905e-05 1.962881474960294e-05)
(5.022311059804061 -0.002556461143265775 -0.01562529829886345)
(5.000158823745895 0.0003268347399509357 7.516895753847387e-05)
(5.004244169127714 0.004341617599724264 0.005364226116863998)
(5.000166262412693 3.56181053563567e-06 -7.270236956561014e-05)
(5.000821092488402 0.0005878217875839191 0.0006926232089920235)
(4.999797184041168 0.0004739568143685506 -7.624249218121257e-05)
(5.000364533725206 0.00100027309763275 -0.0005051906991891453)
(4.999998759958367 0.003176538265362355 -0.0001713385731770651)
(5.000956089333703 0.0009649544512644755 0.00100974477604431)
(5.000039473823447 0.0006003992481277968 0.0002288441994326042)
(5.00013716917998 3.894032103965823e-05 -1.733358272807148e-05)
(5.011257955288659 0.01793882207631508 0.01479191073770568)
(5.003758463512346 0.0009448239918933408 0.001517040852821401)
(4.997521272808583 0.003117643468200768 -8.287447297600707e-05)
(5.002702960532286 0.000831991646431242 0.001621587436417812)
(5.002285445614721 0.004912384705213888 0.008765467575756417)
(5.000139191221688 0.0005637247873228959 -3.843042872479226e-05)
(5.004523394069975 -0.0004447399053136883 0.0006443952635319844)
(4.997706789909422 0.0002691252208381283 8.334131466668496e-05)
(4.999225318283958 0.001273405861479064 0.0009659076988445135)
(4.997388065097802 0.0002351875991972591 5.39473327771008e-05)
(4.999949117282893 -0.001265224084999676 -0.0004223654130100265)
(5.000577160879954 0.01035858779010926 -0.01012922570537997)
(5.000154362666735 0.001305465655431886 -2.5467415485383e-05)
(4.99725054234134 0.000402897470083382 0.0002354186417845645)
(5.000158810141939 -2.569318819277214e-05 4.653929095233296e-05)
(4.995402973629532 6.080049080760554e-05 8.845139342264566e-05)
(5.000339968086571 0.001192865847117542 -0.01026576872204857)
(4.996854711572767 0.0005048417041288095 -4.261710288751324e-05)
(5.000581604862269 0.0005064571554244093 -0.0006776535601097956)
(4.99975387926122 0.001667252513727137 -1.557767150868481e-05)
(5.00117986544074 0.001607020549516445 -0.0006166719070425549)
(5.00047216118865 0.007773433735388616 -0.005785269507663231)
(5.000002512859124 0.004685204670343436 -0.006868507713455751)
(5.000054219338018 0.000126758308300657 -0.0001533911815534682)
(4.996476989886074 0.0002361710010953957 -0.003568673060018054)
(5.00065908898168 0.0009060534417353399 -0.0005221144792819539)
(5.000162444361409 -6.193059116529567e-05 4.116542474038078e-05)
(5.000227853293286 -1.156580624114825e-05 -4.911540414673759e-06)
(5.000112813174519 0.0001369215448954206 -1.506616053078087e-05)
(4.997638676456891 0.007427217502943992 -0.001571226734775731)
(5.000655704608406 0.0006736732375704439 7.876134978165334e-05)
(5.000150512637064 -1.067054800846762e-05 2.640347390708111e-05)
(5.00017654809534 -4.183815763405798e-05 4.170480624160292e-06)
(5.000156697929122 7.091640123786519e-07 1.485407247612357e-05)
(4.997348016070308 0.00534074309722582 -0.002275735896102219)
(5.000140097804927 2.564176649275686e-05 -5.548104345952959e-05)
(4.990590057140857 0.001005907526137307 9.340736309845753e-05)
(4.998560744121822 0.0004992759721322761 1.545719703622681e-05)
(5.00019392180015 0.0001010974402589977 4.272894973493782e-05)
(5.000191584123404 0.0001159922534759326 -2.278593869099044e-05)
(5.000268156288788 0.0004532263530368213 -0.0004242988817055066)
(5.000227941558846 0.0003876927511696675 -0.0002975555940385045)
(5.000211963603691 1.269357280851077e-05 -6.678994583280353e-06)
(5.000108250404175 0.000175606533529276 8.275608536737555e-05)
(5.000142192308084 7.40395490593558e-05 -5.765692211146524e-05)
(5.000326979538087 4.736247574826437e-05 -9.45332908324049e-05)
(5.000026373632407 -9.580261451293376e-05 0.0001350063741076674)
(5.000238174631461 0.0003417628340985614 -0.0002133494209710654)
(5.000244644948864 -0.0001676489880215548 2.821163491808153e-05)
(4.998453899651014 0.0002642767842220418 -0.0001695881756933336)
(5.000138175998282 -0.0009676648900381854 8.616222452937399e-05)
(4.999953545246242 0.0001516698944371561 5.74471532600846e-05)
(4.991153496123152 0.006491524721314404 0.03004609907425572)
(4.998409230433227 -0.0001555437927248982 -0.0001354232020396201)
(5.001057438282137 0.0008055005050339821 -0.0002610774738689386)
(5.000051183281744 0.0007659554185392875 -0.0002001281018692782)
(5.000260103765243 0.0007423975182186856 0.0003646819032223489)
(5.00176929667994 -0.0003153574190804001 0.001721456886393055)
(5.000174013281997 5.204763754064487e-05 -1.702903075507677e-06)
(4.998624127690062 1.375719167553068e-05 -4.854211488729205e-05)
(5.000444778808057 0.001139691199830844 -0.0003003811672290283)
(4.999945228067612 0.0001757631862744773 -0.0001172876791216745)
(4.999832137392584 0.000672289651194541 -0.0002191632230173393)
(5.000493466813927 0.0003210783150797452 -0.0001520619524304154)
(4.997814256374524 0.002567427926251079 -5.401302497688239e-05)
(4.999376771846281 0.001127727012756274 -0.006308622892496766)
(5.000018266956718 0.000129934915640131 2.736212340242649e-05)
(5.000311940634893 -6.153544650801027e-05 -0.0003740482144168727)
(5.000523761754579 0.0004480562599049494 -0.0001815710540643099)
(5.000152964174223 -8.817074932152421e-05 -0.0004125708356654486)
(5.00009646088014 0.0003846038045966313 -0.0004025202066195093)
(5.000163988459608 0.0001245996634683593 2.871744982606127e-07)
(5.004174021845055 0.0002907710131228231 -0.0002012574542805256)
(5.000064874197038 -5.07945604938306e-05 5.125299675306244e-05)
(5.006799734934066 -9.451977357162087e-06 0.001465790075082341)
(5.000308985888669 0.001084251550061148 -0.0006159634166394914)
(5.000023953879762 0.0006179775646065605 0.0002081224984050012)
(5.000886358724785 -2.713531511172339e-05 -2.997954328499448e-05)
(5.000189041676635 -1.659285864717735e-05 -3.3137081026495e-06)
(5.000226712298049 0.0003057814268086613 0.0001204970780471202)
(5.000069843511304 6.043169171813851e-06 5.819988262546147e-05)
(5.000175009509845 1.132953726256314e-05 0.0001203272494441751)
(5.000200968397083 7.530733584845388e-05 0.0004632722200002871)
(4.999798563387061 0.0006243355827223726 0.001605386173056836)
(5.000037062704627 0.0001487424446718432 0.0001059877240227774)
(5.00012721756888 -0.000136671970253364 -9.78817249141996e-05)
(5.001027172079718 9.525356540773637e-05 -1.609486739759217e-05)
(5.000665335936891 0.0002427200621471871 -0.0001004847093324072)
(4.97943561248206 0.0006098299163598594 0.02053999356852209)
(5.000222070421303 0.0005465412520095416 -0.0002471900321919943)
(5.000106380195811 0.001015209984804008 -0.0001271344855958904)
(5.000191586168879 4.459281231292255e-06 -4.068752220621495e-06)
(5.00030863903536 0.0006363872164948048 -0.0002091285232340125)
(5.000252646785173 0.0004535045759361958 -0.0002592684991230444)
(4.999896447165887 0.0001890527327543775 0.002392496450361571)
(5.00103948557969 0.0005351257039873073 0.0004127607086203376)
(5.000176106140975 -5.871913186237942e-05 9.100730090628979e-05)
(5.000384595810776 -0.0005830948435459067 0.004703252755400361)
(5.000186126753836 0.0004330327751351781 -0.0001367134312844211)
(5.000229192897137 0.0004919817741149558 -0.0003796285568838142)
(5.000123973685622 -0.0008087601338960572 -0.0007467416922243485)
(5.000290251400238 0.0002608896647724244 -0.0003002673204679688)
(5.000200992326583 0.0004236962385395566 -9.581293545873091e-05)
(4.998981079174794 -0.0001625478546805186 4.325255098326453e-05)
(4.999785869990644 0.001333123583774292 0.004423072205082167)
(5.000351920162847 0.0005897214864301601 -0.0003842187418727233)
(5.000477724581898 0.0006436116172213992 -0.0005044644953164046)
(5.002672331368549 0.0006471886769495133 0.004591828947898287)
(5.00042823447696 -7.00689180241222e-06 -7.949465631939469e-06)
(5.004902522282233 0.003794874819203588 0.004263209698316423)
(4.9999889157861 0.0002919154919215872 0.0001712310285136423)
(4.99981419462884 0.0005194288452627689 0.000678023503778585)
(5.000304686746308 0.0001456854857298613 -0.0001844690034311768)
(5.005480575743899 0.001990476582568806 0.002466900560284916)
(5.000844240465444 2.434661939028754e-05 -0.0004697417920612651)
(5.006423101196772 0.001196896538904705 0.001345575406091676)
(5.000422692204162 0.0003063001672450679 0.0002054114908227373)
(4.997687031834149 0.004296590146142146 -0.004141124323583172)
(5.00019900681924 -2.352524421633916e-05 -1.476554310140684e-05)
(5.00675707985949 0.003009960897585636 0.001732520621851987)
(5.001231112600412 0.0003522851617874051 0.0003322092583793914)
(5.004254136908206 0.001149381503848413 0.001906344594856264)
(5.000415374774242 7.765413192395642e-05 -9.925317033517592e-05)
(5.000472587114167 -5.788496449462334e-05 -2.862307930617301e-05)
(5.003600819420025 0.001161387670580374 0.002307500603658314)
(5.002785431024671 0.001503309846612213 0.003143981717775053)
(5.002412840252408 0.001826909616906609 0.002923272043581211)
(4.996956856565278 0.0003352725404852704 0.0002307500366869208)
(5.000179699446961 -4.95847628499782e-05 -1.751048878105064e-05)
(5.000238313589402 0.0002540798609625977 3.313712761041141e-05)
(5.000151548958077 2.587125758795345e-05 1.204389283505496e-06)
(5.00013244235128 -0.0002608965174392812 -0.0001209154046650434)
(5.000074105149161 0.001349498214487309 -0.0004469162960032108)
(5.000471169208498 9.078467152238222e-05 -3.551147637165482e-05)
(5.000197462023211 0.002537316268929164 0.002553951464113416)
(5.000150912793168 8.899775728156387e-05 7.993047326248342e-05)
(5.000152775684962 -9.14836423141171e-05 -4.116743281645364e-05)
(4.999939353492571 7.72286860878685e-05 0.0001186025323163011)
(5.001638316380745 0.000592202606006249 0.002207485883280038)
(5.000117263125908 0.0001222871548546064 4.254381885389029e-05)
(5.0001743221528 0.0002835050230287412 -0.0002755788942271663)
(4.999864314724509 0.0002730481726572537 0.0005066348772390139)
(4.999956193319179 5.279924674345583e-05 -1.896396807200955e-05)
(4.995122641149847 0.0001411752634024953 0.0002456866490638112)
(5.000906301705882 0.0001911809431534683 8.967920164106099e-05)
(5.000134348201889 3.263499791955831e-05 1.48964596554954e-05)
(5.00014477589246 0.0004327636591717801 0.004886450255308843)
(5.001051037895605 0.0004249499784964193 0.0009676569920054808)
(4.99997593913276 7.119771874033517e-05 7.285243167059575e-05)
(5.000195105479742 1.795483765177579e-06 -3.38636674407071e-05)
(5.000626304817163 0.0008000820948086561 -0.0004253631419392859)
(5.000643858435663 0.0008300390043468576 0.000774453373361949)
(5.000152847021145 -7.120980903570489e-05 4.495833052274562e-05)
(5.002117271872967 -0.0001445570190075027 9.057210628343823e-05)
(4.999772430964474 0.0008553179432050979 0.0007782810168593546)
(5.000121059161047 0.0004842907182598367 0.0002758637773490293)
(5.003040085588595 0.001184398425554427 0.001139912686557623)
(5.001819863867632 0.003143394298338796 0.004656947774109687)
(5.000399660556905 0.0006724770442382322 -0.0003568745522711971)
(5.003775587957546 0.002358806282378526 0.0051192642848494)
(5.000081728281507 0.001291014775422925 -0.0002571362960598154)
(5.000278725033692 -3.924853977774277e-06 7.164182992662258e-05)
(5.000609996356737 0.0006188879740029713 -0.0001467411517211016)
(5.005192755184698 -0.0002770103549112343 -0.0008884456148365248)
(4.999547013697912 0.002419006190678902 -0.0008081508330998458)
(5.005285546139011 0.001380539847101818 0.002039722249209878)
(5.014133557534012 0.02961176127816785 0.00494253902110628)
(5.004077933713992 0.001000528014346576 0.001904138382692824)
(5.003909959029554 0.001579839598014594 0.001397697835222212)
(5.003339760502537 0.0008156115311668096 0.0009110336361168403)
(5.000619543164273 0.001332753135561774 -0.00113058344915965)
(5.000383822856031 0.001381485868023359 -0.0007020876238995635)
(5.00038912302442 0.001069816313191997 -0.0008519900505628675)
(5.000318990779011 0.0008410599392764324 0.0001859565327294714)
(5.000255033613828 6.643059409577998e-05 -0.001035124633720539)
(5.000292552315289 0.0005216053523364666 1.29377216883602e-05)
(5.000140806410717 0.0001948469486610085 2.235775047813129e-05)
(5.00031717193765 3.343282742594001e-05 4.830388175931279e-05)
(4.999893678201068 0.001606054900289751 0.0005692373289000298)
(4.999588236807186 0.001345718770350299 -0.00127298165240187)
(5.00009058622149 0.0002761513267060496 0.0001135982005609041)
(5.00000691362288 0.00123687568593143 0.0007839130109886721)
(5.000010273511109 0.0002521063046470339 -8.982467119535697e-05)
(5.004979299501239 0.01048344036980628 0.01324873617706435)
(5.000075988977049 0.0001911274231254932 -5.746035553878331e-05)
(4.999785810171672 0.0003550895247684681 -0.000321464175432392)
(4.999872540580958 0.001658855374737936 0.0009562634330308771)
(5.000171458807924 8.462064350571352e-05 -0.0002684049011986602)
(5.000277071896237 0.00101281532015848 -8.365755017474162e-05)
(4.996844071869381 0.0007812441566202008 -0.0001725103334335107)
(4.999683824062097 0.001821959657007037 0.001000538075368238)
(4.995049296195422 0.0008218461191282801 0.002307265351005942)
(5.000176127665059 2.968108331532261e-05 2.513649057489686e-05)
(4.999715487780688 0.0007579893127652694 0.001561719948349052)
(5.000105279511777 0.0005146114498205131 0.0001629481898877527)
(5.00029758294132 9.29913352152365e-05 -0.0002120847935440988)
(5.000545345820811 0.0002181136300536459 -0.000124664751612573)
(5.000840455777403 -0.0001267064006463529 0.002750430709827134)
(5.000047307454843 9.597666684842371e-05 -2.802248256467569e-05)
(4.999949058226312 0.0002240229536344243 -7.680428987378417e-05)
(5.000518186800406 0.001163209697417921 -0.000527434119494481)
(4.999773629284751 0.0001820099532614092 5.942966428477627e-05)
(5.000135399974925 7.762474795667189e-05 -2.61212677555203e-05)
(4.999862067768762 0.0003022902207397183 -0.0001668777699685037)
(4.999910521907616 0.001682424019394713 0.0001133335542312424)
(5.000195667787629 0.000376187642167768 4.981889490928151e-05)
(5.000517490769203 0.0003261206606946266 -0.000197969451109226)
(4.999997484064489 0.0001328076442562578 6.311525304412932e-06)
(4.99980786662722 0.000674642785219806 -0.0001907019884173578)
(4.999951921994589 0.0003385041634103762 -0.0004844803379414976)
(5.00010895141501 0.0001211839821824965 -0.0005265061827346522)
(5.000026975807315 0.001023188248984499 -3.79444696363024e-05)
(5.000022593299049 0.003110894139756864 -0.0001513863458495651)
(4.999952902311894 0.0005185623440666284 0.0001660231860104801)
(4.999771921867367 3.141890418443452e-05 0.003154467365937233)
(5.000205369135432 0.0004981756739195814 -0.000204133399104916)
(5.000299623934037 0.0003375046139383836 -0.0003116874072543662)
(5.000058893218858 5.454873343996402e-05 1.851634012233366e-05)
(5.000333820256243 0.0003251566856442977 -0.0002734689831321647)
(5.000270828849411 0.0002709568710751004 -0.0001520610240726732)
(5.000060222393861 -0.0001269524829463586 -4.970725386000695e-05)
(5.000186281100131 0.0005999364571653337 -0.0002501710382206652)
(4.999917083378558 0.0001372534064617589 -9.906782843054736e-06)
(5.000121825957363 0.000444081849914147 -0.0001923958634909352)
(5.000226972478963 0.0004089867490241508 -3.621976265890746e-05)
(5.000067383354929 0.0001574238958459434 -6.791296646091093e-05)
(4.996901481692449 1.43368222524269e-05 -8.499384598179546e-05)
(4.999987821241533 0.0001856968651541876 2.643256458476161e-05)
(5.000608090708463 0.0009660383969796108 -0.0005569339274130896)
(5.000246157149978 0.0008319883425001478 -0.0003672624657557034)
(5.000208533203263 -2.500325489560602e-05 -5.18402136125735e-05)
(5.000990540357589 0.001380961124689671 -0.0003863672430625227)
(5.001044984435468 0.001000968724945812 -0.0006847899954962073)
(5.001256570080454 0.003829113609198964 0.0005001350108470402)
(4.990378275299903 0.0007894721182767434 0.0003486039413282224)
(5.000784964431849 0.0005846610172119809 0.0005585940757140662)
(4.999852909342277 0.0001779825222538941 -5.112104245080344e-05)
(5.00081603400946 0.001456631290938252 -0.001356713058573654)
(5.000572937555178 0.00111303711898003 0.0002930266714281121)
(5.000127163806804 0.0002204088720859328 -0.0002664962358891077)
(5.000391806040011 0.000927472039181401 -0.00040150027359265)
(5.001319531946157 0.0002701304444055755 -0.0003694481903167277)
(5.00020392585252 0.0003202879778838643 -0.002003152786009464)
(4.992620346318122 0.0006628919905643562 0.0002023640332986335)
(5.000213351694843 0.001162036820462348 -0.0006357074564743267)
(5.000319956688552 0.00147523437413347 -0.0006216219851749969)
(5.000289877723861 0.000727301986644408 -0.0005513625459452117)
(4.999994753415922 0.0001177512156778712 5.608889971626045e-05)
(5.000028318218136 0.0001997192262517975 -4.898252635306225e-05)
(5.000035236820521 3.425575235437335e-05 6.826365222173211e-05)
(5.000101919212419 0.0004839220334778076 -0.0004350421852558124)
(5.000093753665502 0.0001049899634149077 -9.519073684368767e-05)
(5.001624953383993 0.001758061451739003 0.0001185067188011609)
(4.999994806261438 0.0001871174339026149 1.223141684730831e-05)
(5.000540452500306 0.001514596707322954 -0.0004826201189330116)
(5.000243245195854 0.001129394843149822 0.0004850484341923458)
(4.997599559425647 0.0001100319128551911 -0.0002782423611225613)
(5.000040971507876 0.0002871732825826074 3.863822986813211e-05)
(5.000090098164977 8.468587128782942e-06 3.372405662536282e-05)
(5.000341397059873 0.0004519956886954794 7.052013584644886e-05)
(5.000042188674618 0.0001409090047113001 -5.100998282524858e-05)
(5.000278150935441 0.0003246524991818575 7.142889077288406e-05)
(5.000318029077176 0.0002752059225939965 2.62981479947374e-05)
(5.000070631784818 0.000221612754267847 -4.033838420361318e-05)
(4.999810616805012 0.0005737879267053073 0.0008287824840727141)
(5.000082171661338 0.0004482922021836684 0.0002171739187653107)
(5.000145656280494 0.0004838505043943585 -0.0001398346656292171)
(5.000277244685543 0.000251977454603543 3.779589819796137e-05)
(5.000072427262888 0.001033114422710446 3.98969802484134e-05)
(5.000432220105831 0.0002733254680283079 -0.000119580693167547)
(5.002118727706636 9.784473072712416e-06 -3.663488033171069e-05)
(5.000124102506937 5.613328780852076e-05 1.00494349275454e-05)
(5.000411107615926 0.0005991603914803054 -0.01001703068947094)
(5.000263298342949 0.0003675464871401832 8.257103770600349e-05)
(5.000297593320443 0.0002215787943471042 8.749926674035872e-05)
(4.999697092411364 0.0006174079532514819 0.0003511689353136328)
(5.001385941340023 0.002085209327819484 0.0009200793447534444)
(5.00034103312137 0.0002465437147797301 3.753982852127695e-05)
(4.999769769401742 0.0005640005864363368 -0.0001446884751936951)
(5.000142825973795 0.001735929472196073 0.0004346565073878897)
(5.007988695419445 0.01038866714446327 0.003070965228805055)
(4.996860472514999 0.0001838091496972138 0.0002753795506825608)
(5.001533905717981 0.0003825554922205987 0.0005307610245147638)
(4.999707107474829 0.0007996441427794626 -0.0001117209073438459)
(5.002220516736417 -9.036334313138454e-05 -0.0002513935837420471)
(5.000323005661629 0.0003709955354487886 1.127286565499402e-05)
(5.000230295583331 2.490479348344862e-05 -0.0001941760705296783)
(5.000187336144896 -6.122832256467522e-05 -7.7779480192746e-05)
(5.000169688984101 0.0001855436967151255 -4.349356154781408e-05)
(5.000228415653735 0.0002570875274975411 1.058665123793563e-05)
(5.000258931428535 0.0003698827960556614 3.571044632339776e-06)
(5.002039679590863 0.0005206854211127744 -0.0001621897714973348)
(5.000382466216982 0.0004121193491017664 -4.050470643079391e-05)
(5.000591644930277 0.0001620964650394953 0.0003567474203227359)
(5.000013269107296 0.0001605247855062668 4.525388458125578e-05)
(5.000197011457825 0.001164663338427403 3.293654535887483e-05)
(5.000121141030195 0.0001719492020789578 -2.969361279618343e-05)
(5.000126985309651 0.0002404670858662915 9.499534749763492e-05)
(5.000206982614269 -6.641055750938943e-05 -2.520301997564688e-05)
(5.000294391708561 0.0001742462301173692 0.0001463224181402093)
(5.000379305373457 0.0003090979342117504 -3.681896116101361e-05)
(4.999935079112065 0.002517274407829655 3.113392137888054e-05)