/*--------------------------------*- C++ -*----------------------------------*\
| =========                 |                                                 |
| \\      /  F ield         | OpenFOAM: The Open Source CFD Toolbox           |
|  \\    /   O peration     | Version:  v1906                                 |
|   \\  /    A nd           | Web:      www.OpenFOAM.com                      |
|    \\/     M anipulation  |                                                 |
\*---------------------------------------------------------------------------*/
FoamFile
{
    version     2.0;
    format      ascii;
    class       volVectorField;
    location    "0.5";
    object      vorticity;
}
// * * * * * * * * * * * * * * * * * * * * * * * * * * * * * * * * * * * * * //

dimensions      [0 0 -1 0 0 0 0];


internalField   nonuniform List<vector> 
19632
(
(0.007377099952655728 -0.0009338073826825133 7.043527805799697e-06)
(5.41021892623945e-05 -8.286644306709231e-07 4.437063578439317e-05)
(3.97160615454843e-05 3.86942547729413e-05 -6.640895901940346e-05)
(-7.306658825308345e-05 0.0004286135201840458 0.0001192688938262108)
(0.0001725409911178864 -0.0001720292690831575 -0.0001774338657751038)
(-0.0003415603347374988 0.001784384659068764 0.0005050217346578541)
(-0.0001415561132385357 -0.0005558867657488275 -0.001437316132955059)
(-0.0001920698278177766 0.000570954199585809 -0.0006709172821836393)
(0.000218266298909784 -0.0003376042728276977 -0.001118858839954964)
(0.0007487416756684932 -0.0006952972098399009 0.000462331101114998)
(0.0005647777546077182 0.0001373897575075908 -0.0006426707049996041)
(9.475203877342352e-05 0.0009143925248718836 4.851680738804073e-05)
(-0.000810384699928236 0.0003228607390577442 4.902873219494444e-05)
(-0.0003492671139819289 -0.0001885893336603338 0.0001340366790664053)
(8.948991776389871e-05 0.0001180377228925349 6.064899038632656e-05)
(-3.960627828606146e-05 -1.152513607949321e-06 -7.031466970763203e-05)
(-3.069582101609428e-05 2.345227705883411e-06 -9.530699099502286e-06)
(-5.859685279559541e-06 -4.283873398940089e-05 -4.454451988874998e-05)
(8.503650160306346e-06 -1.848449689323098e-05 2.17451459526638e-05)
(-8.259357176294444e-05 -6.32621668620399e-05 1.915315666776952e-05)
(-0.0003837017756354379 0.0002380502914518534 -0.0009612572709171901)
(-0.001484444219098825 -0.0007478572387818612 0.001607010998901547)
(0.0004735297346303601 -0.0004627521579212042 0.0002507634664123056)
(8.939297733086034e-05 -5.894365216239584e-05 -1.116655557356143e-05)
(-0.0004269519156331635 5.136784098176311e-05 9.641752865192285e-05)
(-0.003415636541752264 -0.0004082681285065212 0.001431439611411293)
(0.0009648789201641358 -0.0002020535888551424 0.0003622023910943933)
(0.000269452457567973 -3.341777316352871e-05 0.0003689048869702413)
(-0.00129354084059458 0.0009714866962359348 0.0001258613821187487)
(-1.640027104759088e-05 -5.608287884635397e-05 -4.996732184317581e-06)
(-3.507387840902068e-05 -1.180628327935402e-05 -1.70889920948037e-05)
(-0.0003347973251834329 -0.0002295580687638162 -7.578758637796365e-05)
(9.778412191939385e-05 -0.0001437950061819766 3.993381495706022e-05)
(-1.407034717346702e-06 -4.970947121100476e-05 9.026347986839249e-05)
(-1.756905373813227e-05 5.136796815602671e-06 4.119993539193555e-06)
(0.003732241555484584 0.00143993067870209 -0.0001771746758094149)
(-1.952750912371615e-06 -0.0003773186599686823 -0.0003524540296700742)
(0.001155848620062392 -2.126348014474144e-05 0.0008464062829660404)
(-0.000601481919381442 8.48706160367396e-05 0.0003028168795713022)
(0.0005421832970924832 -6.241633583925978e-05 9.048130254544725e-06)
(6.782300132708417e-05 -5.10741986230816e-05 4.11661023344609e-08)
(0.000121874353134749 0.0001285354141962887 0.0007572821854154527)
(-0.0003256959542443416 0.0008372155733601216 -0.0009527331764178954)
(8.528847725747063e-05 -8.346998982259648e-06 -2.466215775446526e-05)
(3.740711388962262e-06 -3.314974032756273e-05 -3.802568030281997e-05)
(-0.0001064441516268465 -0.000412633960388615 -0.0003630034293845482)
(-0.003929077123120492 0.0003526369665977846 -0.001465830589847973)
(0.0003228764142107708 0.0002913496371824221 0.0003439780798326149)
(-0.0001518476584507338 -0.0007886417466051055 -0.001004588669178883)
(-4.865274020151345e-05 3.878346684896726e-05 -1.071227279874287e-05)
(0.0003597379285615772 -0.00078485797402744 0.000688320245677265)
(2.05276467898522e-05 -0.0003892554043144897 0.0001314033257917359)
(0.0004516769304256738 -0.0001154826640446882 -0.000874744357129457)
(-0.001727730185034759 -0.001204087095937331 -0.000912160178912374)
(-9.541130200409262e-05 -8.822196859872689e-05 -6.714740881306264e-05)
(0.002840049629760867 0.001593118089749568 0.0002025916332865533)
(-0.0005980306108404139 0.0003781815618980596 0.0001233310869826403)
(-0.0004855528016368202 3.53976237913074e-06 4.705631253783398e-05)
(0.0001093849709497596 -0.002250485874968785 0.002802564545600711)
(-0.0001772898855966512 -6.669753534577597e-05 0.0003043572926919745)
(2.821389304864373e-05 -6.147052136713595e-05 2.266083072425537e-05)
(0.0001880384692795428 -1.779494969983376e-05 -0.0002543748251409727)
(-3.727925574327788e-05 4.5595295555897e-05 2.944213833151592e-05)
(-1.556547684610373e-05 0.0004767058896063405 -9.715947450581436e-06)
(0.0001272164994252915 0.0001560261467660794 0.0003534616927875695)
(8.926663399354699e-07 -7.372780210302055e-07 3.73527246190194e-05)
(3.498080204012325e-05 -0.0001278892441010392 3.265335578464515e-05)
(0.0001338135162103977 0.0004106218816300326 2.893742569538647e-05)
(-2.838950169753844e-05 0.0003855659725010804 6.127954500084013e-05)
(-0.0007809978097379366 0.001865777527936377 0.001854854847023647)
(-3.702831845991082e-05 -4.849173190852644e-06 -7.834003662961246e-06)
(-0.000572203732013076 -0.000615375275563894 0.0004545739660776996)
(8.640493724735015e-05 0.001195615159678233 4.279992450044554e-05)
(0.001442119122865356 -0.0009035122856276982 3.62237707776496e-05)
(-3.042698736912977e-05 -6.466245245418012e-05 2.752855178184939e-05)
(0.0002809698625369804 -0.0002736643788074935 0.0003169811881747502)
(9.732418888448616e-05 -0.0002649100696377844 8.557383190865811e-05)
(-0.005433347406273181 -0.007584402049627378 -8.928897076960449e-05)
(0.000153173397312386 7.586475337521464e-06 4.946564528903106e-05)
(0.0003558793696422992 0.0002203918816949561 -0.0003575640698450449)
(-0.000719624865260426 0.0006838393435134311 -0.0002912465473609816)
(0.0002311156265435659 -0.0002807318501861914 0.0001255438908355248)
(0.0001848933204832287 -0.0005891282099733433 -3.939701382178852e-05)
(-0.0005616160318861398 -3.763930418726618e-05 0.0001494450735828127)
(-6.682644567988093e-05 0.0001769700913795213 -0.0002102765812604884)
(6.105885641747942e-05 -4.402929108666617e-05 4.153730447685843e-05)
(0.0002748206947978899 0.0005611602489713173 7.280677441070198e-06)
(-0.001117568980461008 0.000319637661340411 -0.0001065161618379168)
(-7.822302951378455e-06 7.019131411880437e-05 -0.000674128079183915)
(-3.542625721906898e-05 0.0002835254666113429 1.675957289306494e-05)
(0.001285337773996777 0.003170972412968666 -0.000753368622537864)
(0.002117812879815536 -0.000105975304909423 -0.002147295550391735)
(6.683298246253744e-05 0.001478956451820282 -0.0003967048397059964)
(-0.0007031670838276111 -0.0002313208914887248 -0.001191404669302665)
(0.0007338355900913269 0.0001974716604080678 -0.0004254086926771122)
(6.162303827552751e-05 -0.0001594646790010337 0.0005778416261450891)
(-5.453814464469601e-05 -1.719254378029706e-05 0.0006365726904175553)
(-0.0005468217357347414 6.732606110598935e-05 -0.0001606432874343079)
(-0.001984818231663473 -0.001639975717297992 0.0005460190475438433)
(-0.0004113421468402715 0.0002715121644418463 -1.582471233586462e-06)
(2.657812188904811e-05 -3.772499498240337e-05 7.391949450978838e-05)
(-6.499094119843545e-05 0.0005399190644175697 -0.000682634771866543)
(2.184884093811111e-05 -1.660835096914779e-05 -6.836034408660466e-05)
(-9.999519096233237e-05 -3.69987748733463e-05 2.678829906446894e-05)
(0.0002704134490912291 0.0001541055411818387 -0.001132861420215573)
(0.000233943400786981 7.303983908184214e-05 -0.0004412230023017561)
(1.871066406591581e-06 -1.554253949154255e-05 -2.751934903733428e-05)
(0.001009690643795137 0.000316422441580933 0.0001367026925561957)
(-0.000194015554299416 -1.966329961090524e-05 0.0002420444653818576)
(0.00109253044329605 0.0001466577231311296 7.011488335851698e-05)
(0.0001923976129202024 0.0006290430870189538 -0.0002369507049331919)
(0.0001006918961312108 0.0006448514723093711 -0.0006593723201878828)
(-0.0002679500862059154 -0.0001960751332515203 7.703169789232634e-05)
(0.0007025639429344577 0.0002848429203750953 1.192778919795938e-05)
(-0.0007299229369944621 -8.552344258754008e-05 0.0002726613462938269)
(-0.00140161922071522 -0.001964664771720312 0.003395992570510497)
(0.0007096339489266339 -0.0001947638938773714 -0.000101011400524376)
(-0.0006001387026185079 0.0001864226547147478 0.0003011358830702133)
(-0.0006997920978185532 0.001156872566684325 -0.00144503209372824)
(-0.001292516187067005 9.974766689661613e-05 -0.0006529457957273972)
(-0.0001963206821805641 0.001091584470530631 0.0004956801123916629)
(-0.001510758164970652 0.0004289682078229916 -0.0001256135519210548)
(-1.917887063274653e-05 -1.564760994514013e-05 2.703178652160265e-05)
(-0.0002892679103644859 -0.0002052543607756162 0.0005834725959551483)
(-4.527705400459594e-06 -0.0005943295915610602 -8.69411403062029e-05)
(7.330042644539581e-06 4.795297376024905e-05 3.207058640771707e-05)
(0.001967875545078696 0.001065136355290286 -0.000639853635730969)
(1.229914504218119e-07 3.677211672113117e-05 -1.99208396592652e-05)
(7.43675787232978e-05 -2.474893240411361e-05 -8.488670116438626e-05)
(-0.0009168722030013784 -0.0001193169972606506 -0.0002056753858538362)
(-0.001283620980640062 -0.001019001404204409 -0.00143152723292715)
(-0.0001202846606155701 -0.0001559996478638811 -0.0001144688475953391)
(4.656257760563901e-06 -9.779766155017791e-05 1.682439586496966e-05)
(-0.0006635951644416215 -5.740319339246767e-05 0.0007939282124297873)
(-3.255290744818781e-05 6.764935271823083e-05 -0.0001240381497568962)
(-1.653173601418574e-05 -0.0001963880091981795 -0.00017128809780889)
(-0.0004091152021055135 -8.098304098325322e-05 7.995572387900095e-05)
(-4.731021003338343e-05 -0.0003701662556437891 -0.0001127283293649478)
(-1.301016857466726e-05 1.293535346370257e-05 -2.436342753761483e-05)
(6.520337210823224e-05 1.386062562903846e-05 -0.000109410764339556)
(0.000165823578856551 -5.898001106228142e-05 6.201276691118353e-05)
(-0.000236661540105338 0.002946336437844676 -0.003446439465674896)
(3.11109908670999e-05 1.518156156637996e-05 -2.192188367910978e-05)
(0.007778088953389016 0.01108882555384968 0.001961512269704011)
(-0.0001980230845834299 0.0002846815779081076 0.0001553838346090055)
(0.000139483600625013 0.0007103762631356573 5.598371296399422e-05)
(6.013329244595582e-05 -9.600726810254828e-05 -6.483888447815075e-06)
(2.821584352629797e-05 -0.0001513537594655885 8.240832377421412e-05)
(6.685167247518478e-05 -0.0001063793476891291 0.000166631947930964)
(8.855505213476782e-05 -3.80443523783027e-05 -2.602245113333791e-05)
(-0.001166218767694003 -7.448222990291144e-05 0.0001028338799523998)
(0.000400340456403656 0.00034278173521497 -0.0006497405856849911)
(-4.387874065589545e-05 -7.412909363303886e-05 8.866615481008738e-05)
(1.216037094468162e-05 8.34023010584969e-06 3.69257502761017e-07)
(0.03194591068503716 -0.0026865316975896 0.003177936015020519)
(-0.0002605878847405193 0.0003286432507047309 -6.353365672901387e-05)
(-0.001644860884643142 0.0004949005397240439 -0.0001183771375894431)
(-4.721951706611756e-05 1.873154597873145e-05 0.0001551196722605506)
(0.002517167813280122 0.003352742953196939 -0.00164927401579405)
(-0.0001244585020556384 -5.761313630973969e-06 8.943088797873114e-05)
(0.0005306919664980249 0.001283193938970523 -8.230627819710287e-05)
(0.0004383949325351439 4.266521983254564e-05 -0.0001934578207631769)
(0.0003177115934339613 9.670702547592621e-05 -0.00033003483710787)
(-0.0006537403443764192 6.079819778504321e-05 0.0001092899593023396)
(-0.0006388814084046275 -0.00038584353799688 0.001432153443275748)
(0.001652979365257749 -0.001635947724073606 -0.001071046974382754)
(4.929860028153282e-05 -1.632253717222487e-05 -0.0002045427059002418)
(0.0005169643677107985 0.0001184964238410073 -0.000142726835933886)
(-2.302851313724005e-06 2.328568019028398e-06 -9.417072303301511e-06)
(-3.895422937969005e-05 8.104393868139686e-05 3.953497727110026e-05)
(0.002375800244611886 0.0009171668253381601 -0.0004629611692853067)
(0.001044180665950389 0.0001955847742245109 -0.0002207788292913614)
(0.0002978811157526495 -4.420170042739217e-05 0.0001990755168361279)
(-8.361334628815057e-05 -0.0001008984737242344 0.001731994477432357)
(0.0002792587212908061 -0.0003076433427589737 -0.0004981310283006859)
(0.0009402271664581681 0.00251819181827467 6.986225605691001e-05)
(-0.001679261546313071 -0.00137328845531337 -0.001090548234822165)
(0.000157286140043302 -0.0003617546713039037 0.0001415342415832617)
(0.001798952369982124 0.0001134794497231386 0.0008117651362545342)
(0.000223465628751078 0.0002018658489836914 -2.225342073659502e-05)
(2.731855067963142e-05 1.478303419362947e-05 0.0001105914757865567)
(-8.681136980018904e-05 9.151560157071489e-06 3.699179209485811e-05)
(-5.376483428589442e-05 4.76820988266976e-05 -1.736930520231707e-05)
(-0.0004287216967312963 0.0001689530389905827 -0.0004458400193129397)
(0.0001307750449943257 -2.462444498590287e-05 0.0001082681204880895)
(-4.165773570820939e-05 3.788403528458762e-05 -1.9786013893584e-05)
(-3.077482742434847e-05 -6.589838465002496e-05 -1.003833819636799e-05)
(-2.164400491416736e-05 6.265825050990187e-05 -9.855793295957694e-05)
(-0.0009045005123690113 -0.001063877459483736 -0.00085113918111092)
(-2.014081129814385e-07 1.213424483304857e-05 -4.339722089664473e-05)
(-7.631049175250201e-05 -0.0001902788157362572 0.001113394187077578)
(9.124148027023771e-05 -8.418925689875955e-05 -0.0006623526260211647)
(-1.961703238615529e-05 -6.385395675030531e-05 2.408742928965694e-05)
(-7.136996698221021e-06 3.155819887893189e-05 -1.362977545111392e-05)
(9.493404118159165e-05 -4.546336557655439e-05 -2.417695466274504e-06)
(7.092282007480004e-05 -0.0001756571236876907 6.160485094107161e-05)
(0.0001493668535454343 9.642324949814778e-06 -0.0002620279924952115)
(-9.308767476075015e-06 4.085236526990827e-05 3.394603830173561e-06)
(-0.001331896493058239 4.416597226867549e-05 0.001129643119433407)
(7.324270886330036e-05 -6.180990943112648e-05 3.398244375771412e-05)
(-0.0001044222041554246 -4.434844067661597e-05 4.50828761348538e-05)
(5.571856861669e-05 -1.270495607720491e-05 -1.752046686322783e-05)
(-0.0002449500349901669 4.022341882945885e-05 -2.879270681687439e-05)
(1.34256683484482e-05 -0.000368342198079775 0.0005719728653514837)
(-0.0005433871306387704 5.841421577415783e-05 0.0003631332166773218)
(9.952074688370691e-07 -1.873223923758288e-05 -3.625986688407052e-06)
(-0.009977400446804351 0.005660737475232294 -0.004712039491316648)
(-1.043586099335761e-05 -0.0002073100802798004 0.0003661707223806647)
(0.003502770841170532 -9.158306615389866e-05 -0.0007675812269747914)
(0.0006787241206955246 -0.0001040215300637596 0.0002690133893395747)
(5.180692527444507e-05 -0.0001049844163548079 -1.58570733569033e-05)
(-9.428298960128915e-05 0.004708756377483725 -0.0004245339222758596)
(7.495932590311737e-05 1.884480973898489e-05 -0.000200442278455963)
(-3.165067012117553e-05 -1.060290081839249e-05 -0.0003350994022858723)
(-0.0003669960252227399 -0.0002666680649880317 -0.0009640726024522331)
(0.0001717315458198818 -0.000198866840763246 0.0001061465014381456)
(-4.153734631687228e-05 1.594417503150023e-05 -0.0002180609191758562)
(2.720176684535506e-05 -6.922274760316654e-06 -5.851961175069413e-05)
(-0.001276772511545924 0.0004655411043698578 -8.910677322535639e-05)
(0.003184488893372744 0.001704651098451106 0.0003861073422180768)
(0.0001700084871118349 4.18499526609346e-05 5.782783815264317e-07)
(-0.0003504192798164635 0.000168742137931998 -1.574154142493272e-05)
(-1.016355548053857e-05 -4.530107295281454e-05 4.821530495056857e-05)
(-0.0006631383597074917 -0.0004311957584536959 0.000223173550322499)
(0.0002018014456262212 -0.0003342059519758032 0.000185912971400762)
(-1.26711871141284e-05 -3.266322539530566e-06 5.703685684000794e-06)
(-6.508476462903406e-06 -0.0002963400185778318 -0.0006591845968426239)
(0.0007009991011816768 -0.000185764121294516 0.0003141755280544116)
(-0.001998448189711152 -0.0006899733602274838 -0.0003097590777250287)
(-8.886733803149176e-05 2.533678736704072e-05 0.0001284750817251946)
(-0.0001465443686885683 -5.429783656140294e-05 0.0004099073479864898)
(-9.410482156367507e-05 9.583300374052699e-05 -0.0001595694964342096)
(2.528489027186955e-05 3.519298386612766e-05 8.019049199897268e-06)
(-1.223672856320514e-05 8.888365992520457e-06 -7.434066081063908e-06)
(-0.0002924474078628525 -5.026432700927397e-05 8.203619885140532e-06)
(0.0007637911202094296 0.0001212856610871199 -8.703797910343471e-05)
(-0.000219967912961117 -0.0002288293532439136 -1.481358470631488e-05)
(-0.00126381161910237 -0.0006178830197276405 -0.0001246275642288397)
(2.201007831403418e-05 1.416755244730575e-06 1.074814255711555e-05)
(-0.000715284663433871 1.081927883637578e-05 -3.882262558682852e-05)
(7.563186879093418e-05 4.932776314246732e-06 -5.259812435455021e-05)
(2.345054591287856e-05 5.42762106195685e-05 1.495687770079002e-05)
(0.01138975367212661 -0.0003534633948650417 -0.003421188002386793)
(1.892772233985103e-05 1.223029406895582e-05 -4.055928672113589e-07)
(0.0002269130608006816 0.0001629197069841167 -0.0004265372116353847)
(-1.068755228978861e-06 1.184189846595072e-05 4.047143728409579e-06)
(4.869590006346014e-05 8.967517024802282e-05 0.0001466588552228655)
(1.004621548071162e-05 -1.064160782271589e-05 5.851794439850549e-06)
(-7.500746478802066e-05 -0.001823659738653029 0.000234974357503056)
(-2.671175501574525e-05 -0.0001039210045456347 6.057381508689173e-05)
(0.0002794828114294263 4.136988842475385e-05 3.610524252071565e-06)
(0.001668262943011771 -0.000113896271233617 0.000174451108892323)
(0.0001628915108920223 -7.571321922956434e-05 2.004589763815296e-05)
(-0.0001280237672008496 5.16001351664259e-06 -7.299349018147624e-05)
(1.677394475735079e-05 -0.0001164251741346367 0.000134111527001053)
(-7.384611398452249e-05 -0.0001142623294265082 -6.081672116421559e-05)
(-8.152605407193521e-06 3.209874227625736e-06 -8.168167745574779e-06)
(5.667175507963072e-05 3.948070596270335e-05 -5.269389387792658e-05)
(-0.002998766701065708 -0.0005435035361031764 -6.855682222855289e-05)
(-2.271189411594601e-05 -5.499291532732968e-06 -2.934099132410429e-05)
(6.016009932143167e-05 -4.306369322709851e-05 4.269626262492238e-05)
(0.001132793476342435 -0.0003499523567728226 0.003075973685666876)
(2.453339255995168e-05 -3.626082215879522e-05 6.316091122336393e-05)
(0.001136242612558909 -0.001530130047179144 1.561950344094274e-05)
(0.0001246223625104063 -9.058776410510008e-05 2.421267094036411e-05)
(0.0002312278904168258 0.00100314535968311 -9.101082423729271e-05)
(-2.123402048854902e-05 0.0001555281199754426 5.122618427424486e-05)
(0.004126820539469894 -0.0006699872435618802 0.0008439652836294608)
(0.0004164123095817214 0.0001476993096258261 0.0001219561547479198)
(-0.0005840754039776882 0.0003740793763930262 0.0005291915757161053)
(-0.0001110975504456969 7.759762106468075e-05 4.30477395677418e-06)
(0.002460842501850259 -0.0005486756555542034 0.001752928908162904)
(-3.829480023245815e-05 -2.238405494093254e-05 -7.395914828709811e-05)
(0.005236571637064382 -0.0002768047267609824 -0.001204912192581428)
(0.0002669587828452969 4.496795972064531e-05 -3.340497260110743e-05)
(-0.0004569002349502934 -0.0005866384706173819 0.0001115478489610602)
(3.645398398848769e-05 2.792167787966644e-06 6.535945099502137e-05)
(1.322011882279918e-06 -2.623261951031592e-06 -6.785035601289833e-05)
(0.001368591466532217 2.421991996878581e-05 2.528563146317141e-05)
(0.001553135633772224 -0.0004078999754835405 -0.0006044066005436138)
(-0.001389712744352025 0.0007180615434689914 0.0002812343680596226)
(0.0001739052242459438 -8.594239004318643e-05 -0.0001833731306835115)
(1.523143170875938e-05 5.419412098632183e-06 7.288258554320907e-06)
(-8.526464945625396e-06 -3.976114448757224e-06 2.525647634112493e-05)
(-3.931463092216076e-05 -5.785920604834408e-05 2.617758156949918e-05)
(0.0004609547591928005 1.017681655979693e-05 -2.241111619995002e-05)
(-4.119366834563504e-07 2.790693714654556e-05 -0.0001209208716013538)
(-2.986864442315853e-05 -1.077998103727242e-05 -5.881522428424787e-05)
(-6.971300224105337e-05 -0.0001455329078523644 0.000279551879157917)
(-4.087109714215707e-05 -2.17312284886149e-06 2.496282143186682e-05)
(-0.0001341609899988007 -2.046741456775192e-05 3.163848427485319e-05)
(0.0005239754325833603 -0.0001147808739854043 0.0002562186479493884)
(0.001109134882289309 0.0003315515914373564 0.0004993513775782494)
(0.0003313186004272685 -6.449044691911036e-05 -6.951376706822876e-07)
(-0.001678199931721151 9.943117139167825e-05 -0.000836033146128826)
(0.0002017571753433837 0.0009951677749250811 -5.083614625274368e-05)
(4.816211522255011e-05 7.672085385114242e-05 2.263296691483389e-05)
(-0.0006437950394305395 -0.0005273048308777716 0.002133735832998105)
(4.709833849828942e-05 -8.46652090891721e-05 -8.821892196722621e-05)
(4.687011954987247e-05 -5.560725064307962e-06 -5.839418793408836e-05)
(0.0001765209797044836 0.0007767087364615858 -0.0001736330848129608)
(-0.0001197240031345014 0.0004736112477732826 6.642697892418831e-07)
(0.0001306614059537298 -2.075602337122368e-05 -1.543060324377035e-05)
(-8.709607698173257e-06 1.494010304717591e-05 -3.980971289443394e-05)
(8.697264334843505e-06 -9.156242875769228e-05 -0.0001440870327694209)
(-0.0001114280251575236 4.886006771347495e-05 -1.274839152677972e-05)
(2.864022259778888e-07 1.614616034236072e-05 -4.355471082012802e-05)
(-6.632795744947846e-05 -0.0002124668219953669 3.627435446836692e-05)
(-0.0002043715774386128 0.0008544790909060427 9.448308940092459e-05)
(-3.074227535602447e-05 0.0002323214372511142 5.077094908791713e-05)
(-0.000151718744235258 -5.916754860574996e-06 -0.000238043763293326)
(-0.002631429749514967 -0.001285219068405214 0.001075470867710058)
(-6.927044245650803e-05 3.1195161879325e-05 2.21896025847574e-05)
(0.0009924556076431087 -0.0006475084020867098 0.000224213658542513)
(-0.0007579111981601519 -0.0003026521875877905 3.280726598412135e-05)
(3.918257207875013e-06 4.383544541535838e-05 2.504258852768948e-06)
(0.0006637722455310636 0.0002720781064080089 -0.0001819432899032379)
(0.0007592211572476769 -0.0008429114289239815 0.0009791043963480433)
(-0.0001919627727928374 0.0005766246845307748 -0.001176175998792418)
(-0.001129632349964916 0.001369047769481083 -0.0001629198768896021)
(0.03224077728453893 -0.004020379107327805 0.02214467974087479)
(0.0004126114365832762 -0.0003369057531974721 0.0007579828672286444)
(-0.0007889583503958735 -9.490273033878295e-07 -0.0002384908648852722)
(6.457066141725499e-05 -0.0002589449029505695 0.0003693779233992065)
(-0.0001926440412148948 4.085900554229583e-06 -8.310940498938233e-05)
(0.0002442126846283563 3.06810164063248e-05 -6.152035504160455e-05)
(5.135727336420951e-05 -0.0001159332823285821 5.052640344115697e-05)
(0.0005747763215416499 -3.166909188263297e-05 -0.001301411879926598)
(-0.001067534157695524 0.0001351922404278662 -3.424674314029128e-05)
(-0.0001204821600987222 0.0001231616248473221 -8.784054384377264e-05)
(-0.0002737209429718795 -0.0001766473726111716 -0.000616845665881104)
(-7.624874056904366e-06 2.040366635412411e-05 4.271649754851219e-05)
(0.0001957054922596176 -0.0001331396332668202 -9.066529940505904e-06)
(-0.0008738665997878718 0.0001636396368823246 0.0004780370794788305)
(-6.97058325492469e-06 -2.12147600666358e-05 -2.580960080337855e-06)
(-0.0001925408519073038 -0.0001101826077479286 0.0003690081568478161)
(-4.852976991379632e-05 -5.872407546290581e-05 -3.388698281262428e-05)
(0.0009647233004391801 0.001338641232606005 -0.002030473020773515)
(5.697489502260616e-06 -2.063197495633157e-05 -2.835347831184067e-05)
(-1.024199886403666e-05 -4.570986203279553e-05 -8.062348179301471e-05)
(-0.0001165508408715991 0.000166306897903523 8.383165071584876e-05)
(-0.001574664703276142 4.941101490268146e-05 -0.0006834754575407184)
(-1.614714524148016e-05 2.903782748478606e-05 -0.0002154708604714053)
(0.0003110522399142535 -0.0001316669513005463 -0.0001612767725377314)
(9.325179025343531e-05 -0.0001403559888354144 -8.437480239691844e-05)
(-1.299819513100138e-06 0.001867187509928945 -0.0004903891650319082)
(1.052085072519004e-05 1.917963636960388e-05 -1.566572251419943e-06)
(0.0006645817748638521 0.001713092629543607 -0.000574231540147934)
(0.0002205592614112367 0.000154318600862883 0.0005269992741164652)
(-0.0006013918435075709 6.398386937247855e-05 -0.0007648812710457264)
(-9.542436008324314e-05 -8.173798120325464e-05 -3.011314079108414e-05)
(-0.0006436849985279932 0.002173927729650254 0.000933646940558332)
(-8.018591610122223e-05 4.608714192384034e-05 -3.840698973504132e-05)
(-1.169915984885723e-05 -8.451711037667113e-05 -7.07909863393017e-06)
(0.0001952782116492017 -0.0001975595245333467 -5.807007459279726e-05)
(1.678272686565523e-05 1.626591324037992e-05 -4.367306389344145e-05)
(-2.707942235021157e-05 3.056979662250896e-05 -1.42409668657323e-05)
(4.415549898849774e-05 -6.225661562752408e-05 0.0002540519044561504)
(-0.000290122789566135 -0.0001028289536920824 7.535766353668365e-05)
(-0.000160127733317962 -5.556023958949222e-05 -0.0001861080227088296)
(-0.00014134301147137 6.208357173062231e-05 -4.192093453863101e-05)
(-1.772159329481871e-05 -1.27757528977516e-05 -3.216912401341768e-06)
(-3.229236230425841e-05 0.0001965282296820545 -0.0001766175136696047)
(-0.0004600313327986163 -9.113510059072472e-05 8.453142375820143e-05)
(-0.0003519659753926266 9.000175765176984e-05 0.000251586221953725)
(-0.0002566155538492349 -0.0001695806914588914 0.001458599009548083)
(0.0001042900002143218 2.457054082679372e-05 -0.0006028153917279539)
(0.0001203302745636689 -7.743796933682486e-05 2.150502497418701e-05)
(0.0008521905449101906 -0.001538617319283247 -1.828190468596786e-05)
(4.661317457164695e-05 -5.225944199457333e-05 8.290570564474924e-05)
(-1.556563005535986e-05 1.469240434405872e-05 4.11399086017495e-05)
(3.200957887391775e-05 7.213205920426478e-06 -1.9420983742493e-05)
(-7.875147868325846e-05 -2.26972908324396e-05 -5.716198192107047e-05)
(-2.616587670184267e-05 -5.513796074238688e-05 4.076074652376484e-05)
(-0.0001240121930092004 -1.743743804620443e-05 4.481664534614799e-05)
(1.203796296601401e-05 0.0001668623986752942 -4.369767690348796e-05)
(0.0001062704816740005 -4.596818241626776e-05 -5.666305339780194e-05)
(1.846035408270109e-05 2.231278806282274e-05 1.22380864811859e-05)
(-7.542804277566869e-06 -0.0001501054991857879 1.897554598124126e-05)
(-1.389840374672616e-05 -2.245020162857298e-06 1.336609375020366e-05)
(-8.934250064511499e-05 -5.042236367569963e-05 1.961117360574984e-05)
(-6.563071557277666e-05 -6.530666334002805e-06 -1.980427467881343e-06)
(0.0001996342498506604 -0.0008254166580510529 -0.0001758588035715345)
(6.547202341792175e-05 8.741366946420609e-05 -0.000108548946069694)
(-1.678750320808516e-07 -6.561761551389419e-05 -3.048912800535715e-05)
(-0.0002425034875088464 -0.0001442772101756534 -0.000103083073116739)
(0.0001987879364697471 0.0001414573335564408 0.0001257075399332023)
(-0.000339635295099856 0.001904435602405482 -0.002120388482105914)
(-0.0001590372468640926 -5.487970606823531e-05 -8.177305271790387e-05)
(-0.0001080251995593697 -7.750490826942807e-05 -0.0001554424003268353)
(2.491511752060515e-06 0.0002058151993348787 0.0001195435239618806)
(-6.086947793529021e-05 -0.0002430601959150422 -0.0002755429358136224)
(-0.0001751969223181872 3.632998479451164e-06 4.291873210645429e-05)
(-0.0007770464756454947 -5.233679981460923e-05 -0.0005590744193855058)
(-0.0003250896290601285 0.0002026067995454981 0.0001644406642840354)
(-0.0001367906521233884 0.0002176680475544424 0.0002401042892526468)
(-5.240328905745138e-05 -0.002470538493012033 -0.0001312485043869749)
(-0.0003222042131949765 0.0001177736851293623 -8.810287574110144e-05)
(0.0001819446512278407 -1.645363408510928e-05 0.0002250506858769851)
(0.0001016812819806618 -0.0003727558698755107 -7.7955342220943e-05)
(4.110924354974311e-05 -0.0001502667549832715 8.259348947225713e-05)
(1.530252089087773e-06 8.004244330745921e-06 -2.476337672744277e-05)
(2.666770252555291e-05 -1.085292218840943e-05 1.802456849563503e-05)
(0.0001203884601149233 1.440170706199325e-05 4.240544223532419e-06)
(7.607443631451966e-05 -4.435015457959459e-05 -0.0001698215616000781)
(4.609312857419524e-05 1.23279278614268e-05 -2.858197682758698e-05)
(-0.001546985747306566 0.001950882986185326 -0.001259916849368847)
(-2.07516245511765e-05 7.233765796588242e-06 -1.004005990938696e-05)
(-3.804266281161699e-05 -6.945281672028381e-05 6.756086659415403e-05)
(0.0003054207534686468 3.463067143040688e-05 -0.0001904695591529841)
(0.0001862845651838319 -0.0003581624501321562 0.0003472092694422154)
(6.02727712223142e-05 4.289815385123212e-05 -5.38067043712993e-05)
(-5.174996054609938e-06 6.865755270358417e-06 8.940115265171904e-06)
(0.0001059269907037804 1.238272369255667e-05 6.152659114482599e-05)
(6.104390421172748e-06 3.702025295853836e-05 6.079847674322383e-05)
(2.849803882001857e-05 -1.76626491667691e-05 1.004339065562431e-05)
(4.571998602759914e-05 6.769172111432614e-05 1.04845380403817e-05)
(8.13960073931393e-06 2.689674196118101e-05 -3.228734083014865e-05)
(-0.00104080127737159 0.001413885070446028 -0.0001527006307909949)
(0.000458188818639 -0.0002225510589658223 -0.000122338112371323)
(-1.803117213417914e-06 -0.0001377119872625767 0.0001399328614343483)
(0.0001430058107680168 4.353954901882959e-07 0.0001005242725990075)
(0.0006943499643077131 -3.553277372376469e-05 0.0002721579184359032)