/*--------------------------------*- C++ -*----------------------------------*\
| =========                 |                                                 |
| \\      /  F ield         | OpenFOAM: The Open Source CFD Toolbox           |
|  \\    /   O peration     | Version:  v1906                                 |
|   \\  /    A nd           | Web:      www.OpenFOAM.com                      |
|    \\/     M anipulation  |                                                 |
\*---------------------------------------------------------------------------*/
FoamFile
{
    version     2.0;
    format      ascii;
    class       volScalarField;
    location    "0.9";
    object      p;
}
// * * * * * * * * * * * * * * * * * * * * * * * * * * * * * * * * * * * * * //

dimensions      [0 2 -2 0 0 0 0];


internalField   nonuniform List<scalar> 
78526
(
-0.1008140568489414
-0.02486427037728725
0.001973122404646599
-0.0293494934310229
0.01810287061519829
-0.002155970424508595
-0.3915125950651168
-0.01300208912331981
-0.1052945771323099
0.004431612976894253
0.09800264094017606
0.1998396018967576
0.2170652327430319
-0.3866766013698471
-0.09859287402634757
0.007343305904604512
0.049415047560994
0.04689433018056183
-0.005405919770281094
-0.04145252169706234
-2.169133783942687
-0.7657196045460398
-0.03409422527789343
-0.001717334862873288
0.02658749340319259
0.01829721782609529
-0.004420093299970373
0.01703809985866731
0.05041475420317901
-0.04492021915726065
-1.554603369211029
0.007017424100632818
1.578076265939629
0.007148821773291734
0.01844943676103067
0.05599546792528264
-0.3839907866385583
-0.01867822624584483
-0.03056471539898845
-0.01441193128347898
0.004821666399498662
-0.01136210103848085
-0.02614636081470461
0.02782049700607655
0.01824595208892931
0.01775285630742666
-0.0006353997355542548
0.0040953138957806
-0.01188722169788803
0.09491620977372714
0.2208358434999473
0.0145630935773334
-0.8760998837941166
0.06297429335158239
-0.01937947766727494
-0.3050489836268221
0.3607907548233153
-0.9757674667124602
-0.1001644287401457
-0.4233717249871459
-0.02559072850203627
0.01618113126992786
-0.01483537194510966
0.01731703534617892
-0.01592288396591814
-0.0161212363736981
-0.01164750748117088
-0.08707331661879521
-0.01445809276448353
-0.8549802082591398
0.01259124048582289
0.3068021773091887
-0.2772481634045329
0.09951949649955515
-0.01941212529919326
-0.2376929710216919
-0.007829384082521334
-0.01404673956575478
0.01173714595237516
0.006135283444911597
0.06454810292775341
0.02336142390028847
-0.1477362021561141
0.09818564860414006
-0.05665662899394561
0.01039509993873885
-0.1003586575951666
-0.4316424500490739
0.008063142465997174
0.01255407100676404
-0.008869254929855753
-0.2390860969066575
-0.01875445195015166
0.02187747498673534
0.02071462533169363
-0.02183360331068439
0.02652712344446833
-0.01081777155905716
-0.1080814721338105
-0.006783930288416189
-0.02384644238147905
-0.5489931724466622
0.007304176268356818
-0.8300017179499788
-0.01191268474395959
0.02736499676917083
0.2022250313431906
0.05399436748180576
0.007419241987950297
-1.243837553769268
-0.04218477921841956
0.03213796905244438
0.008676702129688074
-0.2974557402345642
-0.204943053462792
-1.520896816552222
0.01108551045193937
0.04801746958985219
-0.1822577598883892
0.01452084882472571
-0.01661115420186253
-0.03676788581213293
1.829375713875529
0.04925488083594835
0.09907681160281247
0.03876479737191393
-0.008371218735859751
0.007738967396807392
0.0664140447241615
-0.1575476692386418
-0.2097504021689895
0.01870679915037175
-0.02786904035407611
0.0007134246474149956
0.08226274468306033
-0.002981625210174646
-0.7474436136142817
0.04508451901579284
-0.001382885043908546
-0.004624782715495558
-0.1603210633647118
0.07007890403561021
-0.3854009177057811
0.00159315226441799
0.02781525232819043
-1.630980400569575
0.2892036011620827
0.09679327421221803
0.0467898928723315
0.0543347592458617
-0.01307623193442867
0.04435363278560755
-0.02396763550091122
-0.006751415959173647
-0.07198560926462803
0.016358066477464
-0.01581373276622489
-0.001007694598890636
-0.04983125836221521
-0.2546363591165892
0.07228886451379661
-0.005745366113264779
-0.0630736398062815
0.009073517224004467
0.01122247991806771
0.001357307912845201
0.006435956190453853
0.02240415666636567
-0.02581220888190159
0.05108549605091462
0.004361695669404596
0.04697088445868026
-0.0451276863692406
-0.2725543695063276
-0.227481169615132
0.01259530005924581
0.009033527725967267
0.06093316613466199
0.01359158513948185
-0.006129075364084036
0.08612241018119952
-0.1915402800426271
-0.2381137350354316
0.08979993161773218
-0.1543311668667587
0.00429865824373328
0.1162612339262673
-0.03630046664897147
-0.04138767268520256
3.209633669644128
0.02426858387843863
-0.2270871077948728
-0.02924070590662303
3.21413604406514
-0.009988143647656392
0.08048771007120226
-1.588205577024232
-0.08954040864746735
0.2236957865721106
0.01789817114231837
-0.3924458764899966
-0.006233056938709323
0.0152944377261495
-0.01149781001351672
0.01049557372921019
-0.01345983203166437
-0.2523627053148068
-0.5780862138187964
-0.6755808398308707
0.09324190597549205
0.05095117545809452
0.05080254900995562
0.3678420639200595
-1.222403104569086
-3.234251932469151
0.07622852038355775
-0.004698105282092312
0.02192168447069391
-1.186100032315562
-0.05751958232848647
-0.6181350493225859
-0.9619633429556536
-0.03500316382187649
-0.01107798871721825
0.008726262588904703
0.02272757711358211
-0.0502448477080648
0.8956088775096007
0.0673858412362196
-0.1890945221026348
-0.08101546591883546
-0.007274796035262477
-0.006034529680546331
0.1156095178622166
-0.006796858609339864
0.03602821271589347
-0.005906418071940693
-0.01215130092537055
-0.1831163088753397
0.8087542214079275
-0.4085351974603105
-0.1612468555509989
-0.3074974671627813
-0.06444787445966565
-0.001941322827859327
-0.245236216928129
0.09327887339538142
-0.03136492560588328
-0.1188000736059039
0.06682262763014168
0.07477542876790252
-0.08732123921848525
-0.1747306196700351
0.03810483146189567
-0.1216079213008203
-0.1839256962889742
-0.2173728715410704
-0.4970821319009642
0.1888864632939947
0.01881784034475461
0.01324317936673307
-0.01736714833158789
-0.1803907656987352
0.4566635227754156
-0.03532928961891638
-0.01557780330421408
-0.2876126882697511
-0.01697527752791657
-0.3147587647854446
-0.5409577979151386
0.1409758771883137
-0.8706710862681547
-0.01221222435403435
0.04694459812383517
0.02439840473904399
-0.01046464411670061
-0.2025583806871636
-1.646120928085822
0.04675728445383913
0.004171783631287535
0.01708113197397894
-0.0102198021045166
-0.03000511922628871
-0.3610521449730578
0.03960515915280227
-0.3003095268545687
-0.2115013797166767
-0.005354920155542768
0.0946602092068838
-0.02182860728177657
-0.01460354841614092
0.00357929349587379
-0.6168927352340511
0.02893511522107923
-0.5582748837446947
-0.04390456314357323
-0.03174868836936466
-1.177360693070597
-0.245475894307203
-0.9738252594813643
0.0329095521258398
-0.0132717036046484
-0.4028130774098319
0.02581961796771704
-0.2235226984943314
-0.9406907233806355
-0.2396587302305049
0.008229432382201146
0.009932400506031447
0.04500190290278822
-0.269479306629146
0.01034130963030546
0.004252718880757437
0.0167789872724171
0.01188767009145305
-0.03309186881117213
-0.2772799315337131
-0.1384189794608119
0.03510886057391324
0.01304895734978352
-0.2110884049665334
-0.01432668541708983
0.2183704864135282
-0.05389678143313011
0.1399301341677985
-0.005307449656474214
-0.3034357879390698
-0.01246859557655739
0.5167970361401588
-0.02258461494631748
-0.001169945731208743
0.01955465399342292
0.01220280044683658
0.06596600953533571
0.008952631064416386
0.07135202524058729
-0.01305825797521066
1.455697246168225
-0.2491249591447176
0.01142573982278368
-0.005169761633743298
0.1553282065028336
0.06377433602381795
-0.144480617403831
-0.004474469365270187
-0.3113788300865231
0.1793602149307191
0.0429235940792958
-0.3674245562707683
-0.0002074910899128103
-0.3762459648722682
-0.01983225471802147
0.04918074574593258
0.0897698071144777
0.004666897837320246
0.3689293265080925
-0.08510725139839287
0.003101029738609999
-0.01482809611659068
0.164931295766906
0.04996433991636332
-0.1772614900677647
0.442008806078676
0.04207454392729117
0.08736070178697987
0.02393559159362209
-0.1359249830492173
0.00857405332117317
-0.01933834474557406
-0.6484071550779954
0.4491341696125588
-0.004512298809831069
-1.153694939818849
-0.4282549033443854
-1.795692178466648
-0.02899734524303431
0.07180303489780038
-0.02785798854061143
0.1763635758383826
-0.01607167414514953
-0.4648979721309227
0.02117397094308799
-0.1587951543096844
0.02267576263325529
-2.043598046386509
-1.067224572105594
0.01716756649886973
0.03228861982960357
0.05771033994598661
-1.032351766829657
-1.12076894622798
-0.06781102176459103
0.006787130028605716
-0.06920227418692708
-0.0246821249028267
-0.2372292450059334
0.0809446332258012
-0.0004655614479297596
0.180656654909705
-0.2737991180107823
-0.2135906829411917
-0.8368861319081876
0.08265437790043793
0.08727124256800597
-0.07943069405427429
-1.144321479739479
-0.5160225823669181
-0.4655853279204571
-0.2449698213039595
-0.3018287046478462
-0.8757939439877431
0.0940062767853284
-1.534713741341478
0.00269165155763462
0.02977245261519732
-0.3475604449109769
-0.2144245034209556
-0.365402176413212
0.003342793365534651
-0.1097362909513828
0.5386609846834141
0.1424682119385198
0.002412299796889944
-0.1232320823034863
-0.3691745676684894
-1.233229507492627
-0.1802440740036168
0.01120902370638171
-1.601551103429094
-0.4643255411976661
-0.01413679249167652
0.1159105505702045
-0.06116864883809159
-0.02986208511796452
-0.5440906890355216
-1.506355644141377
-0.4348148145324577
-0.06719492970179783
-1.022534535891899
-0.2414108410432557
-0.173643626142988
-0.1803726740741779
-0.4905577747124846
-0.05625397460425934
-0.07486741257161648
0.009049178846299568
-0.6717449527899323
-0.4732873692281372
0.005458653580147401
-0.9302647924941519
-0.2509947425332743
-0.003125010177156265
-0.1701247047447221
-0.7219353605917675
-0.2357218051399454
-0.02138239105384239
1.582076637070528
0.01073620176413983
-0.001901702773574438
-0.01482776534235526
-0.4416955937823361
0.01880236346301379
0.9722591790453399
-0.1328120094896086
-0.5813028835233761
0.01462812431685737
-0.6497660198582916
0.0601863537322685
-0.3812156762363711
-0.6595614320857494
-0.9984733364573678
-0.7311657919038149
-0.004603788876142936
-0.1138110705890133
0.008759102120183658
-0.01654947141399625
-0.004805197021280112
0.01662102249474559
0.04488464039180789
-0.7629537154150065
-0.5652619088269029
0.0426849861462264
-0.5754242619002387
-0.01014950186800035
-0.3399166930576495
-0.7158558045441612
-0.19370409841066
-0.1962957076332381
-0.3643644238279599
-0.3662405040846937
-0.05097830629753759
-0.4454084530142933
-0.3507029957058277
-0.1466272931877881
-0.4713284311642559
-0.4781319112475125
-0.005077509133847713
0.06546162906027882
-1.326661320329219
0.4180791175810039
0.02122652504825998
-0.3345063034247713
-0.001412955458636967
-0.00675730593206791
0.0316237690206178
-0.0467139819497975
0.2555619694656937
-0.1716833939756817
-0.120627174400606
0.008081764868398594
-0.3567930168788823
-0.02184841104885103
-0.01602835764665777
-0.02618144627351808
0.001327651159840568
-0.001975680991472283
-0.02938674754863943
-0.2149146661969748
0.07586965445225057
-0.3681866091174847
0.04186982614283157
-0.0009895576006830617
-0.1279857973595219
-1.347359195893186
-0.03193851155367438
-0.09698300002462643
-0.1759559614551901
-1.838983898977134
-0.7172972768891059
-0.6740146279122469
-0.2262327753680514
0.01002154222634261
-0.8255187876325106
-0.105258165528552
-1.679237266446884
-0.3544370110172078
-0.42714522979068
-0.0657569595199636
0.05662355572168729
-0.2300449726429376
0.03380716349751439
-0.1216854590694467
0.06275271505079034
-0.002123531984541328
-0.08259127163193374
-0.05528378010863031
-0.0595803780399133
-0.01312834411708165
0.04160682521302444
-0.4594349144377221
0.0814456755110862
-1.555358493721807
-0.7753219203772825
0.04655586834433056
-0.01548480859243643
-0.9250968354679853
-0.05280300718572515
0.06010058357839396
0.04075680488202165
-0.09012120991615939
0.1866359321912935
-2.420765915919774
-0.3780318737013654
0.6814537048265763
0.04279477608672975
-0.3917753672960197
-1.236158361183171
0.07164712384266494
-0.9882952180875463
-3.43768139131055
0.001407525427852978
0.05724388384022686
-1.086530525563083
-1.250459812346683
-0.6536797815247231
-0.178070772705788
-2.347256323075055
-0.2082384068696674
-1.525340523342101
-0.007049148564329428
0.07094209042430923
0.05174043515089482
0.02244104416390317
0.0627494474050749
0.02767718245454235
0.01147084318000813
0.02456401064244731
0.1803534838605785
0.05842042924081441
0.05175636909486525
0.003933810276136094
-0.001907279869072459
0.08729517283829412
-0.001635469974803109
-0.008091533044392033
-0.2124478722729318
0.02301944106625979
-0.206182851920182
-0.001285622219894019
-0.09116825582773141
-0.01126837646679639
-0.005325514440073661
-0.00600173356864949
0.01188064165681707
0.07523972240994853
-0.03743878272976033
-0.03880190206052867
-0.2345180357373277
0.01859782083531857
-0.2764175880498882
-0.2017567754362699
-0.03147032534728385
-0.00557776392514547
-0.02147756944673579
0.01290351059160173
-0.03400112908389877
-0.006383624817204153
0.0008860709116247003
-0.01568407381269224
0.00206008341206711
0.09062730525551557
-0.001346148217322001
-0.07457717825874195
0.1498527531633508
0.02447903072131039
-1.344659856228288
-0.04241756368474342
-2.087680032944906
-1.468843486704597
0.4068248708443358
0.01050319170868788
-2.858880265147517
-0.7349866416321348
-0.0789698098786434
-0.02369106021690607
0.005126278336182969
-0.01337238582765291
-0.01566742345616286
0.005085016279258591
0.1024353256653511
-0.5786832496300917
0.007129321002677939
0.03920260692347097
-0.004952160704764993
-0.01736039547936531
-0.004616037244944532
0.009243365368503184
0.002559898362514499
-0.004528788449244031
0.001070894049100571
0.007195515068948171
-0.01170555578018914
0.1696513991365414
-0.01686732795818745
-0.01868513964010455
-0.1267195704453305
-0.2543450740347488
-0.2676348480446868
-0.05425158824980314
-0.01181794709100309
-0.0402437576300707
-0.0110332823215375
-0.01105513718221609
-0.007150156883064496
-0.1859461165746654
-0.009237979175347934
-0.2409828346327489
0.03323397791097844
-0.01084181014014095
-0.01063631506968252
-0.0229297359215793
-0.01525988560486466
-0.3606232184456297
-0.1894910042964716
-0.005391533088928778
0.2147001768029139
-0.003241668150252302
-0.135030091316355
-0.01353719619341847
-0.008508146269949772
0.009180896938602237
-0.01255853933732145
-0.1758293932494744
-0.1381200232104197
-0.009684373180200923
0.001439229662159851
0.09274837235660541
0.5032398146101069
-0.01135322601475135
-0.05825063413202949
0.0216645000731478
-0.009380804943213255
0.0484717441498295
0.005127560939120306
-0.0001091413098551698
-0.05907447627156905
0.4240270667560981
0.04849200134782657
0.0152791468832818
-0.03141415011375343
0.1152996516384136
-0.2068500220185643
-0.02054616521220722
-0.2076421915536975
-0.003078747873202749
0.05830353773251675
0.4222994903826254
-0.8740863522742666
0.02053170511880023
-0.007006593047697734
-0.04335385795563265
0.0249086421851059
-0.01320479628955484
-1.220995235911645
0.01034301725761954
-0.05603422304548439
-0.01166957253053088
0.1678390913294846
0.02608688091444463
-0.04440396998962792
-0.009843966887609502
-0.1890303939961764
0.005663382269518665
-0.01017154759819681
-0.319952167746322
-0.658078246849352
-0.0125011291500081
0.04837787167786882
0.02369557718703779
0.008491937992298635
0.002433694661943347
0.06123955172942586
0.01123667820460852
0.001695600691820208
-0.005729392538960725
0.04906069458981285
-0.0516742896865115
-0.02437156361290222
0.003682560784929634
-0.3855038017541456
0.01387449453362515
-0.01152839616924875
-0.01771575148228359
-0.1884703101590076
-0.01313041464131252
0.0008066361431784022
0.0006030536933114295
-0.2555937986270641
-0.004955347875058119
0.007859415406468328
-0.02308855498355604
-0.02807981233637368
0.02956752611425658
0.0296137283928404
-0.4335168115742511
-0.00694425506432015
-0.01279503826219999
-0.01651141718889059
-0.281095152041607
-0.004530730969816799
-0.009184720570956262
-0.004836200654177851
0.001069420986013535
-0.3009784511062235
0.02155778438108343
-0.04749542158584907
-0.009789646698172057
-0.0106949988167266
-0.0299294675921243
-0.008721614987656921
-0.01526643688185145
-0.00958810953339014
-0.1857678732861566
-0.07354891344607492
-0.008494257110906527
-0.4167033374699581
0.001577673639566814
0.01306841046435855
-0.009329227157581476
0.004437741435706121
-0.2449867864971517
0.01642430107349369
0.009579987980699589
0.04384970337175478
-5.876969019801698e-05
-0.009392454842745975
-0.01206594432402474
0.001293008711292319
-0.2944467510246003
-0.01841162555828484
0.58200965634843
-0.2884509692080313
-0.1670662392721417
0.01623540466893626
-0.216656816227179
-0.004751215686752711
-0.01348016811070014
-0.0288746514154379
0.006911011994708772
-0.0512580254177671
-0.1211292057593749
-0.02301226794716816
-0.01720325330725386
0.1134714509063271
-0.2457114290844357
-0.005277864458830678
0.0006235755139537457
0.06477843338373164
0.01848004680335064
0.01534135944808018
0.02580069340114481
-0.2142499333506755
0.0588092460379193
-0.1640493980463248
-0.009263925431954607
-0.002679873461573798
0.06719140015290503
0.01393374071575515
-0.7848098355394036
0.01278891018863494
-0.006251468725726942
0.0108536748868628
-0.001318994296399108
-0.2975487275772538
-0.01993344717364922
0.01373708216492699
0.8694494829384299
0.0184938032938286
0.05022905515154269
-0.2676512466585115
0.1316989047611735
0.0802401904271635
0.01735963316312828
0.09394598216302019
0.01292673981521188
0.05980432921340849
0.00947391993254966
0.01483081173067444
-0.005740928930473649
0.4625850073524587
0.02845758968682598
0.03833419186728551
-0.03385105357824995
0.0800948612947074
0.01320511923349238
-0.007332917792656613
-0.03666138522149596
-0.006549456352986177
-0.002407751260420748
-0.02151104009613306
0.01751612996133216
-0.001201770870172633
0.080041747929001
-0.003992120397379722
-0.03379793624745663
0.08146318098256362
0.01955452423872811
-0.01315678066995194
-0.004077635925601606
-0.01395823423452229
-0.006503322932044886
0.02335482542239343
0.03149343640532015
-0.02644610612447117
-0.01014835112756499
0.04417025160222479
-0.003536293202712424
0.04843091041498327
-0.5273554683647059
-0.1318721907989327
-0.3166513221979504
-0.2258792132660397
-0.2184409990217631
0.03974839731149877
-0.001044659415098592
-0.2302124506834001
0.0007472112599277962
0.1758637420843531
-0.03610918895132801
0.08309250231108403
0.01051143974014834
-0.003158019724189712
0.1157425190768553
-0.3772650088441591
-0.20836096855803
4.930737553124326e-05
-0.007849497848190634
0.04389246717757328
-0.00706764265459487
0.4706537676454206
-0.00509262139876977
-0.2247424741095739
0.006505122426474703
0.3717392892110007
-0.004093391171409983
0.2820176578492894
0.003773614638277844
-0.1748027945602609
-0.008817644241016222
-0.3205240821846993
-0.3215132640155702
0.0002572848732502175
0.04298009818357975
0.006565160436868048
0.05928385252370737
0.002025050547884649
-0.3814486251937708
0.05319740570779732
-0.01120533854850574
-0.2243737182354749
-0.0392974901566704
0.004224734661835523
0.04007597844812461
-0.251703643005784
-0.01026449994557707
-0.01322000397609835
0.005911284199105298
0.02204541764749342
-0.2261257913893145
0.1182278343138299
-0.01490268522540299
0.08589257394281281
0.035029404599583
-0.007185135873629274
-0.012925452696528
-0.3490881138655363
0.1078615179032874
-0.0115311532831226
-0.3459657484747761
-0.007136208752794621
0.02907106092130024
-0.1454765443332275
-0.1459284583843097
0.1311622503626386
0.006073704424182346
-0.8883096418954917
-0.0239844275953128
-0.8546638654681716
-0.007716658710220869
0.0003682658794972777
-0.02324600937415015
-0.07033268650998668
-0.03461244492208591
-0.2138158583145518
-0.2113642316475845
-0.4688546510090917
-0.004671393514433266
0.05278915007511324
0.02042698745659057
-0.002389059644624361
0.04508363571450248
-0.2046935607671204
-0.03447864400249443
0.1249734416694834
-0.007006593458384976
-0.009989198969590017
0.03577939801336656
-0.1764846475432407
0.04242509668678597
-0.03006241288255892
0.03345168066714326
0.0571053443083753
0.0332292218765068
0.02788267417849127
-0.008777421264203203
0.0551655238102117
0.01624005593562238
0.02472865848397848
-0.08245733540033565
-0.2341345181833512
0.009443654984669125
0.4905189322250587
-0.2658792591667237
-0.3394156612156657
-0.2262531645920286
0.4240783648711811
-0.006336086400513296
-0.006983785098721243
0.04591413434636761
-0.01022028769332924
-0.09413914253770353
-0.6838942242146234
-0.06436109987095986
-0.02277800967449523
0.02117775912016428
-0.007103499222183458
0.05660452880594607
-0.03378902713207722
-1.310863478953073
0.1121386746009769
0.001013841600142386
-0.004138623247077682
-0.06255891433861262
-0.04240209426091943
0.002225967147198968
-0.03649625444255043
1.040619555577665
-0.03169532054143579
-0.2064364280548848
-0.1956875939813759
-0.1859962058486415
-0.006596168966297571
-0.1480260064502164
0.2923244102789799
-0.02318129437661956
-0.002599954041832195
-0.0009248132578179548
-0.01885008132356976
0.04957956094490695
-0.009772877183548242
-0.00955057723980909
-0.01197831169854423
0.04459992674054215
-0.01084029118421375
-0.1595808801658545
-0.01542635025200697
-0.006810228963933757
-0.4821259087110287
-0.01412872696330047
-0.4775188916292181
0.03814008182093558
-0.6685985796174095
0.04635405188523467
0.04568591463150368
-0.5956245230917097
-0.09469080227530223
-0.01320421348488176
-0.01499099730701675
0.1726897750573918
0.003603845835627235
-0.268226586131264
-0.001243204166884244
0.02294654670919253
0.001040113310934049
-0.3262873259405645
-0.01258395345580072
-0.8028907441816593
0.04318398151710762
-0.05157367102252467
-0.01994004934869649
-0.8410469142155661
-0.006386159048849336
-0.1353485288554248
-0.007538710271066842
-0.2502200555899777
-0.005159283979733877
-0.7123342441540628
-0.5890520520262634
20.89861412251752
-0.01736619774099193
-0.6814845514076292
-0.8826513545487331
-1.351069083163194
0.005818515703453313
-1.036554233564038
-0.001636166823679197
-1.417047815645514
-3.618507667201317
-0.006630588936306012
-0.009668279346328789
0.0459096292146358
-0.2251462299448962
-0.01396462488583669
-0.009094880129953319
-0.009800182963659964
0.07561964250758409
0.06398732758721135
-0.2978187614044406
-1.232481737922421
0.005970561773759577
-0.01312320361179883
0.02515981385141428
-0.005969853504900958
-0.006454738035127701
-0.01423341403842239
-0.01881125931971762
0.01912583977398725
-0.02808669625612713
0.2048744685584724
-0.05929285654280991
-0.04128733287105269
0.076780935399272
0.008726076541172077
-2.074260433587729
-0.0144202601048874
0.02649015099598792
-3.362273423187411
-0.09451042438808759
0.003342104227328209
0.006315990718733481
-0.02782804249056241
-1.361248741770696
-0.1918548930610533
-0.417003119629729
-0.04435939828035009
-0.001615020025569232
-0.3572580454923174
-1.236438921788187
0.02651826505152461
-0.007262862637710752
-0.07599702523534987
0.01345511740497651
0.1259506905495236
-1.260276237315541
-0.7036845757880029
0.1861957801659098
-0.03138358548653891
-0.01702631945814776
0.01780405619662784
-0.844996947512297
0.07354742812180932
-0.01739544161527511
-0.01191203331675962
0.006275121193957572
-1.379945587939625
-1.636994259926443
-0.008151894822452968
-0.8035614469857923
0.02885337209824939
-0.005149086557045153
0.06226796857966866
0.0721173899618088
-0.3280178480858855
-0.0171107607007701
-0.038011097167845
0.07491700344532377
-0.4864305824207806
-0.00715834097873012
-0.001376271041802206
-0.4930647027037773
-0.004022307211734538
-0.009986178932484305
0.05009425425502489
-0.0003249122829987337
-0.001812811872459991
-0.02459151008250223
0.003113526531228384
-0.09846078476171072
-0.02669386377589995
0.06001419750131877
-0.01334603110521697
-0.01979109892349175
-0.6329644054630127
-0.03929916637640591
0.03168851023520625
0.0009098127920600937
0.08869963212463322
-0.3245895667456696
0.008855907513971943
-0.02770831833895395
0.0481177693512202
0.01345320034422599
0.000555496871510443
0.02166014884380274
-0.1159355361312744
-0.01015544494055863
-0.2411167269315584
0.07656031549806543
0.01115108445832804
0.003321752240828658
0.008277169314709284
0.02961241617895441
-0.3069896473643766
0.02830468675515574
-0.6732867093813464
-0.0257124884836763
0.02009977189785999
0.0003445919621600639
-0.02630954734756377
0.359441038708294
0.0112536214268826
0.02966033670405583
-0.5619516718748917
0.0179069723195736
-0.04553989343834785
0.01496045279555483
0.1988141408813552
0.007703438031613423
0.005541151541168454
-2.042617499498849
-0.5684504709135486
0.00808739059901287
0.3030742342286014
0.006536054925037536
-0.2331059079350114
0.002385343656329651
0.02058332750247646
0.005764100149746854
0.01448692782821114
0.01041380971235183
0.002507283956801325
-0.005851582469431869
0.04173600161692292
0.0129880326293726
-0.3822770430258343
0.02563756418246289
-0.004376702352065229
0.02448585228052758
0.03799893850021151
0.0008793706089299568
-0.0789811753099698
0.01540859467517428
0.2012366853177777
0.009238233005438726
0.6314087568754142
0.06372276391021196
-0.02780454720129305
0.1392323243716405
0.05952246070621146
0.01099655140674048
0.01846238886847881
0.1524497494866645
0.03024037910530659
0.05923205790557425
-0.1020068162874973
0.007434009165179154
0.03053902456248141
-0.003818119196923674
-0.01276214608707563
0.005804903316806964
-0.4418413574733165
0.01960913307662874
-0.0164461545069235
-0.1400905975394422
0.104268699654359
-0.01157023933613374
0.03296047731515268
-0.6387810330932443
0.1180126736575201
0.0504318955218135
-0.01224570817990707
0.03181393799731829
0.006953443910554683
-0.01105547011640904
0.008404131941490478
0.003613971658166377
0.01772642697280843
0.004252169511677443
0.06711134841069989
0.009738604690777683
-0.02821707115267304
0.04920242339363916
0.03230880569778694
-0.01317074650451555
-0.7255674880184804
0.03982498521953952
0.0362786431020738
0.01117033727048696
0.005977637986665642
-0.01033781028548134
-0.7700126086317917
0.01851284654634967
0.007415308131609425
-0.6018151633576665
0.0179691809124473
-0.03604203869829697
0.01610279746582534
0.01074788247640801
-0.02555807342545206
0.05821292984103152
0.027233655964776
0.01396733573704372
0.2512700826190391
-0.5268061300144059
0.01221320162783856
-0.01370475940655116
-0.02015285786642994
0.002337712204740344
-0.02053402055014789
-0.0220782067974385
0.01577688536625072
-0.02246193487054943
-0.002098368373118816
0.003670536022300271
0.07022245478273854
1.204894919981903
-0.001565744869102531
-0.5268106298494303
-0.3057051294057813
-0.04754432821199004
0.05481041068323604
-0.01929463593801637
-0.4767066804407715
-0.0116379598047804
0.01755593170464838
-0.01493473109350249
-0.01933349018194198
-0.012026424025977
-0.3774561490763859
0.3002051175722621
0.01152740787282956
-0.01258442710164841
-0.003517109816552007
0.02605243882914091
-1.174242843566724
0.147315418276877
-0.4523867688792296
-0.002072985063078129
-0.01360175835993288
0.07746588250822173
0.01362599427084625
-0.3013023979163262
-0.015337448200017
-0.07632482599305739
-0.008010855360861142
-0.7174879418659396
-0.4473683599068172
0.03559825536479096
0.07312476849548988
0.2760891691167809
-0.05410500998222029
-0.006060842148507708
0.04414974292835078
0.008807848318566252
0.04212143057648984
-0.0008911635742282566
-0.03374855313652102
0.01398742334168527
-0.02719324196909101
-0.02469330099328686
0.00286993659179519
-0.6258564485996512
-0.02979620059878916
-0.02631349495128443
-0.0004720331450539583
0.001834095084134521
-0.02206755511581402
0.004916745523376313
-0.02212869637398542
0.01359998459266323
0.01445836537475793
-0.9007669016483513
-0.005497140899854588
-0.01314195983952244
-0.01934677703102855
-0.01051523306443738
-0.002706734903176638
-0.08849850001317817
-0.01591749985793082
0.01471516105286291
0.01071909959558364
0.009977167399936185
0.02847365705147051
-0.01230887456574941
-0.008289422534905218
0.002270568964565303
0.001868695520475438
0.01267668777243384
-0.3031862969317775
0.001316914527811048
-0.0008700097810932103
0.01409119162492637
0.0178224264708325
0.0801950035278335
0.04085777252190732
-0.01614045879677281
0.009338228542646822
0.0005397451391701196
-0.01649917036838511
0.2067124335293537
-0.7897974213519121
-0.01885370712943888
0.01522757017247617
-0.01654248201802326
0.09046471898186895
-0.006986002610524585
-0.3436934938517612
-0.005504685576212761
-0.01697694406232346
0.02023037469751023
0.001651982007022395
-0.01909319734313967
-0.01883763261818809
0.03483022437835943
-0.4810219790686733
-0.9983664855190906
0.05436560641785568
-0.01882811513021183
-0.03048296531164307
0.08915780932313179
-0.9430250443339336
-0.03277126398726229
-0.9190493352124131
-0.0853689442618619
-0.009808739707241994
-0.02305983664113977
-0.02649479548360376
0.1013671655793262
0.008338804437402248
-0.01826083105588856
0.005734861337084523
0.001396341046399838
-0.02495204924696083
-0.01912145599312863
-0.01989442124299396
0.01948683731365268
-0.02756310610517058
-0.02395905612922772
-0.003508832092557299
-0.02537970449634366
-0.110960576299996
-0.02031987453665611
0.03825881714044452
0.03228487554814216
0.04115930001446794
0.04012637042840689
-0.1603933228738547
0.01658602959816098
-0.01476894616185755
0.04136311354596227
0.0468350049301669
0.04411247981335262
0.0399554607630891
-0.005110851494885141
0.03279193932115954
0.004971026672365031
0.03980852015987998
0.0723808839972757
0.01788152667605241
0.02791764952808725
0.05035528141576826
-0.02725761073086183
-0.2014215156923967
-0.007449327330909554
-0.02766323428528412
-0.1518903596529996
0.04139276302069263
0.01172723119626354
0.1086081451815757
0.02759778848609406
0.1927077613860898
0.007504804829597492
0.01622834474770015