/*--------------------------------*- C++ -*----------------------------------*\
| =========                 |                                                 |
| \\      /  F ield         | OpenFOAM: The Open Source CFD Toolbox           |
|  \\    /   O peration     | Version:  v1906                                 |
|   \\  /    A nd           | Web:      www.OpenFOAM.com                      |
|    \\/     M anipulation  |                                                 |
\*---------------------------------------------------------------------------*/
FoamFile
{
    version     2.0;
    format      ascii;
    class       surfaceScalarField;
    location    "0.9";
    object      phi;
}
// * * * * * * * * * * * * * * * * * * * * * * * * * * * * * * * * * * * * * //

dimensions      [0 3 -1 0 0 0 0];
oriented        oriented;


internalField   nonuniform List<scalar> 
153371
(
0.0159871594528729
-0.8065735676757068
-1.450170693700477
2.240757101918478
20.6197343048009
-4.648202678436634
-15.97114975679408
-16.56081334775818
8.220599929718277
-13.29070940662754
21.63092282466931
-0.3774103732848093
1.002094598325469
-2.775368459098902
2.150684234049602
-5.161501886376591
0.8040330833912704
52.37087265069788
-48.01340384771138
-18.28154847056375
21.92188267915251
-22.79654218432356
19.15620797572274
0.2281632205012094
-0.007550506075492099
-0.0424472661916812
-0.1781654482235779
-13.914504369426
-12.07799806695457
25.99271163591462
-0.1097517738025593
0.4239843452045582
-0.4558413793123509
0.1416088079074465
16.79429954099086
18.26621780415335
-18.54278750579673
-16.51772983934777
-7.331359766809292
-11.01824347448893
26.12133250663007
-7.771729265451881
11.04426450206415
4.732667049971635
-15.7769315520993
1.581773435924942
2.846571454509045
-1.482093846618029
-2.946251043801488
0.5934079983924864
-1.12209710779709
0.5286891094723469
0.1191276854204059
-0.1668847138564528
0.02965262615217742
0.01810440229673045
-5.078316880739532
16.72727484200484
2.821954961402721
-14.47091292266967
9.388954005035128
28.05339134479043
-20.95051714108214
-16.49182820874952
-10.19416991880816
-24.85870739682407
44.4418313206649
-15.07984857084585
-30.35314157393445
29.12936960987158
16.30362053490592
-10.54509162629785
4.565029783307383
16.51079124110725
-10.53072939817353
0.02875829138941248
-0.5066367036175105
0.8327541006437911
-0.3548756884182992
-0.1028261449689609
0.1281242380945168
0.005849780763659301
-0.03114787388252734
-8.944274599417161
-24.34530614347009
21.24831240803782
12.04126833482037
22.75604242879173
-22.15946430318549
0.5021613239625975
-1.098739449576568
6.969537108481176
-2.97873656513682
7.608476921212259
-11.59927746454054
9.652371252663183
0.4378089511384667
-7.436443370178486
-2.653736833635508
-8.916308825834317
7.614689729033883
-3.178887584111223
4.480506680959905
-7.538910477053954
-7.297271366784774
14.83568307907891
44.35937101041644
-10.64686522742254
-22.34040909834176
-11.37209668465553
-11.27145387212138
-5.808042305966391
17.0808906711322
0.162291971544048
-0.4982794845163572
0.4180802616384399
-0.08209274862914262
-0.1017790225366467
0.8378414494210463
-0.6592879605678381
0.4287342033205384
-0.5692484082694956
0.7998021655514289
4.851216713366613
6.943834937408574
-24.12796303316787
12.33291138239205
-14.94179596854436
23.74737385527499
-3.415108527853302
-5.390469358872545
26.58725487878258
-24.13405535694969
9.191960159683749
-11.64515968156076
0.05234151137843952
0.1431979671361662
0.3002165438558072
-0.4957560223326487
1.511661602840329
-14.62292271489657
-14.31296155876717
27.42422267080728
-2.284380756266296
12.38864647810443
7.186403925186607
-17.29066964711736
-10.10290711962629
3.662612867166048
-11.81830855577669
18.25860280821273
-1.432472940974928
-0.1289473249817394
-0.6501416754675708
2.21156194149535
-4.877835158155018
-9.485246684726038
-3.428521794109771
-17.14169599479445
14.55310534892577
-25.46345810476238
28.05204875061637
-1.497421276768747
-0.9626881514227573
20.45446327845553
-17.99435385031016
4.407917339942171
-0.01609764186086009
-19.33361566662539
21.12622729419794
13.41307041119311
-10.79192385011737
-14.8895222224965
29.47116747587111
-14.58163628384078
-14.16060910415677
-9.921739010180602
-1.580768166192794
25.66311628052416
5.336616807793
-18.78013790522821
-5.077611281577574
18.52113237900627
-17.9497238207985
2.310068352498255
0.3202625551043176
15.31939291322239
9.143130827984791
-4.641988115738739
-10.83685595001296
6.335713237764764
-0.08080394454756494
13.59677445881812
-6.546433405769023
-0.05693491399602231
0.06382142474841837
-0.008952158678836093
0.002065647946329134
7.277202098725678
2.767361441040666
2.520343001395035
-12.56490654102688
-19.60274336597855
18.71877178240701
0.8842841811882681
-0.1774297798394241
-0.04517972785164159
0.385789359736965
-0.1631798520281933
-0.8169781481692213
0.3056358012692696
1.124799672263464
-0.6134573253303667
-0.2376466447408218
0.1631523244199944
0.2129195264344177
-0.138425206102699
-14.07667589962507
17.89766815263221
-2.551116553941424
-1.269875699126462
0.6047294824175107
-0.02222870895302292
-0.08567289752458578
-0.4968278759311415
-4.449875160129436
13.59159320912681
-1.527028319863404
8.275598769209799
16.64803589132779
-3.797407366346836
8.638233533536733
-9.417202386949308
0.6771898308425324
-8.330628200257188
15.13560812011211
11.1001694662352
-17.90514938603316
-21.67503651473639
-14.97736117255608
17.04965432131313
-4.70916261519426
15.79222302406588
-23.88877392169211
12.8057135128185
14.84924217663537
-11.62237867513317
-0.3801468798289304
-2.846716621674275
0.08364528641178612
-1.610297097074934
1.577137373286175
-0.05048556258664309
-17.09417317318733
-9.022883467509741
14.70296481517841
11.41409182551555
-0.0303750637279005
0.02089163949000893
9.726014707278313
-20.25804815496756
-8.176850581083661
-0.4597542408867735
-1.423007795256271
0.4306522844910259
1.45210975166972
0.3011094393184006
-0.5525465636123832
0.7680466665756746
-0.5166095422087782
-1.069871324813409
1.286161410962876
-0.2162900861232646
-8.444475014918286
32.55810385376214
-27.41703668046809
3.303407841617782
-0.4597285906784127
0.4961979616683935
0.6068453924784063
-0.6433147634049827
39.66663330041171
-16.63534135491231
0.7781432206206964
-23.80943516612388
23.53025270069863
-16.29062390347661
4.246507444672522
-11.48613624190218
-6.219262040681786
-2.202012006730685
8.859082998578314
-9.725824653808823
5.606764133089104
-6.40685400547409
10.52591452627915
-17.21163782226128
-16.2902499012022
24.55759157121366
8.944296152199751
-3.231729827140013
-15.90685761484213
0.7838187577732897
18.35476868421599
-0.0593087208435868
0.003759710425936725
-0.1229343713955172
0.1784833818273556
-0.6638421420289355
14.53670790555573
-13.8728657635527
-7.694787955914666
-5.791384999511801
-7.842989538776915
21.3291624941207
-5.092381924915549
-16.7295945946484
6.426856232400486
15.395120287161
0.1612913296881382
-0.2647959472332873
-0.4856376262405578
0.5891422438151425
-0.1217456493035622
0.1085200623394121
0.009849368278886918
0.003376218694359878
13.99465190845337
19.5349630473431
-0.9043683122616705
-32.62524664353429
-10.20480506243305
3.515831898447198
-11.9944993744215
18.68347253828492
-10.15229986451907
7.738329890969253
3.935178972147408
-1.521208998599404
-0.4727197993881828
0.8182377492642682
-0.04440851052180151
-30.5413973260005
25.6749440377076
1.53075769041262
3.3356955978678
20.81297708772123
0.3777979935137479
-24.42250490837474
-17.58962885123087
-25.34449311825488
19.08125896744627
23.85286300201721
16.61146189613889
-19.01192932329564
-17.95742966784792
20.35789709500444
-14.33537544199757
15.42516616178667
19.72318636792816
-26.55986165443198
-1.130917803352022
4.120790137510884
23.56998932027166
1.794478021578995
-3.126241664520394
1.486706969755615
-0.1549433267827269
-3.482754038970317
4.907354588384925
18.21472530376552
-19.63932585318327
1.472109369631672
0.1874931164967335
0.4093796690329805
-2.068982155178457
-0.9412275379080025
-1.520534543651553
1.353143405580155
1.10861867598709
8.56225121243552
-8.748593643055981
12.97384054428236
-12.78749811366662
0.1833272452604076
0.04743038338992595
-0.1829521581225211
-0.04780547049847148
-11.21916193521629
2.015472779912763
24.9501060894845
-15.74641693418096
-8.053980095592005
10.60398936836179
-12.91617861015143
10.36616933737775
0.1034189240655521
0.02065695262908409
0.005469125951398817
-0.1295450026286793
-23.75698389909844
7.42160397080633
-9.02013072255793
25.35551065075451
9.290114716732381
8.778061188774497
-18.06835038171618
-0.02011733942693874
0.0722285815682874
0.02187393948005367
-0.07398518160360419
14.27405048617162
7.285739063968816
-5.891005925805137
-15.66878362440785
4.579496082643205
2.629531939010048
-10.18776458676686
-0.2210141220310817
0.3798514094313579
-0.4239408765293685
0.2651035891407034
0.4092489486335707
0.6839325805317988
-0.2672937637478267
-0.8258877653652481
1.718362334631985
2.109045316697265
-2.715899760552347
-1.111507890846335
-0.02916961208505633
0.004170249611829139
-0.0300068254773178
0.05500618796064545
9.074933163591522
-7.308261593257552
7.523443146397673
-27.40633912102912
1.955964482510528
24.24259144705964
1.20778319146932
1.098428252062958
-3.571903452825629
-1.015002668413378
3.488477869058746
1.463173187786609
6.972198417356446
1.292946378853643
-9.728317984238707
7.325604770816284
19.98031982713296
-43.19252181011295
15.88659721216169
2.952373941035204
-19.37311872140171
-3.966969695913637
-0.1200982409750844
0.1277035463199573
-0.1111600738233359
0.1035547684978796
16.3824862359048
-12.79930664195187
-3.132207115017773
-0.4509724789367928
14.76515441702745
-17.68508560129146
-6.354146297458193
9.27407748158271
9.114076129010533
-23.36700092355475
14.85776788991396
-0.6048430953697796
-12.71820158425272
-10.77191637263562
-15.57486644434552
39.06498440123388
9.211955153994539
-11.83711769663695
28.13134267024207
-25.50618012760313
19.29754775997585
-8.683707902019405
-8.238193915357469
-2.37564594262597
-0.8876776033820546
1.963053695790102
-2.774467705822295
1.699091613340832
0.5932598786485439
-0.07114836405410499
0.09235974707727816
-0.6144712616654042
18.89138587729881
-18.96640768359459
-0.8278851703251541
0.9029069766029687
-20.41701491918497
9.337975972584053
11.07903894659299
4.252600282275536
10.59460526827421
4.529035348168285
-19.37624089866655
4.819350434310672
6.972372147133532
8.368575723234155
-18.93693289465196
28.59573002355613
-5.702698108330319
-3.956099020578363
-0.01115264892331831
-0.1648833829295354
0.1453095634567972
0.03072646841635344
9.441207283832558
-16.67999933688917
-1.055455073244044
8.294247126289726
-1.891624420426865
29.90240738114119
-2.91937503565213
-25.09140792506937
27.32158309167053
-27.16877528355816
-3.800242735051918
3.647434926935941
2.091426295096142
-4.63840530659404
-1.985725001366194
4.532704012768712
-15.57247530801929
-9.505602331804479
10.23806232105768
14.84001531876213
-0.1845145836201976
0.1379396497564374
-0.4261448654958406
-0.1408248102181132
-12.27796326540762
12.418753689913
27.85944083615121
3.22247603373516
-10.75906191772513
-20.32285495216219
0.08538836015600522
-0.09419626276079955
-0.1744209019524998
0.1832288045721087
0.1642771710173308
0.01217132029629075
-0.179831037813511
0.003382546528980111
-31.89446552190931
-0.4588627716616401
33.63383699269771
-1.280508699235942
12.31929988958589
-6.316322794553939
-4.65667394097753
-1.346303154064006
37.09049930440595
-25.54903440436182
-34.52454665621918
22.98308175615537
-4.258241554492862
-22.44982923108369
2.756744626274315
23.95132615911145
0.1513149773714673
-28.55951502107303
-1.041456415784479
29.44965645947327
-16.67680360267809
13.1138545155023
-14.40430976349075
17.9672588506543
-21.59080489480218
-16.49655090333638
10.12472570067962
27.96263009746507
-20.76993144863727
-6.646648207164343
14.16117512369991
13.25540453207978
-16.12122055594957
13.55853184356492
6.850535123606941
-4.287846411189244
18.59461183603959
14.13908673466178
3.002404546750316
-35.7361031174554
13.93604655450183
0.3541851460891617
-17.24255476812235
2.952323067500957
-20.22667358793769
-6.320432418936034
28.07989283857332
-1.532786831759275
0.215054291942253
0.3997962529815827
-0.1544218168163749
-0.4604287280821115
-22.19447781331044
15.41334223214819
9.941572676387032
-3.160437095234247
-8.120475219728565
6.963755498082839
-8.160739251141786
9.317458972748089
20.02400975939192
-25.71625409192673
12.02877169276691
-6.33652736035955
22.83441855455655
-22.06660023646744
-15.38074480150352
14.61292648341194
0.3903513154797184
6.646647435421571
-23.83887049559425
16.80187174468937
6.199901362970283
-8.321770178249771
-16.82252964109975
18.94439845637676
-22.6407585162363
2.170375302556391
20.07345186402964
0.3969313496568963
-6.759626386177559
-11.49080716270176
25.64288664587162
-7.392453096993885
11.48702646705633
-20.38192854252295
9.050143734727975
-0.1552416592601882
-28.98912074864317
-16.99208198385074
16.95481651466285
29.02638621782056
-21.7788131584141
7.073392506701389
0.5963717633855182
14.10904888832533
13.88216148159716
-21.00499752240096
-20.28350308020502
14.57780775609779
-17.49313226712318
2.916198367321092
-0.084741888475099
0.7090451290633951
-0.06058154704593853
0.464516071521804
0.02196199793667702
-0.4258965224074819
-11.08662734436375
16.29848099051989
-9.214259284551991
4.002405638394945
13.5815658976716
-18.67652041566246
14.90899782686338
-9.814043308883351
-21.8610363145059
30.73735615750119
-24.927166276462
16.05084643345192
23.17837055370221
7.010624686338419
-27.7019295945192
-2.487065645521031
-23.26456081317213
11.40058448948351
10.94445833319943
0.9195179904885695
21.60975763451585
5.187506503258843
-2.027520406842609
-24.76974373091172
-0.4502882236801739
-2.180459088167938
3.729175563840457
-0.01719144579732034
0.110063662901755
-0.1041440394081523
0.01127182232013172
-16.79446116823517
-3.720410150235967
12.21471614284941
8.300155175617006
1.397744712499312
-2.669098084354711
0.3836757684197252
31.03940608726213
-9.155818493957492
-0.924812384886766
-20.95877520843417
-1.323694666629126
5.206036889977712
0.06070100250838782
-0.6379498063667299
0.3331607419647835
0.2440880619311983
-2.966676978993414
17.5453295533573
-0.01860219328684079
0.05139884935323439
0.1004194224478726
-0.1332160784807871
11.35117223041822
6.689695822134628
-18.90866947154147
0.8678014189075615
-1.442947218160062
1.912678306463322
2.212811323956628
-2.682542412350399
-17.51239798171264
-3.566557902316665
21.0794296025249
-0.03926351339236696
0.01284793993180562
0.1249278790255285
-0.09851230555006503
10.32036232894405
-4.163886385566923
6.501744633694354
-12.65822057707574
0.2376041372778189
21.5123655471854
-19.3764812248954
-2.373488459576531
-0.4968492198994737
0.05553138116365775
-0.8777747323318532
1.319092571110798
-9.704312743914242
-9.525990669250797
1.225094777581733
-10.37763824811129
9.190340993064947
-0.03779752266010868
6.174921594881001
-7.814687552905429
0.2475500882812174
-0.2871017977191886
-0.01924474973446985
0.05879645919535256
-0.09997639925637704
13.08247159663797
-27.28285641557125
14.30036121816674
6.984289470918586
-16.31598507754351
-9.490400423797364
18.82209603034317
-14.69425681012287
-2.096000874648551
16.79053355668656
-17.15038107415657
26.8835992825901
-9.73340316702426
36.66847088092875
-9.098040807571966
-16.74846743182154
-10.82196264153848
-2.303383847006977
0.4498427287781516
-0.02462533155852026
-0.04522272324738327
-0.103333168723467
0.1731812235488903
0.02662372694346946
-0.09699929534748897
-0.05137008089464228
-11.31223006258113
-10.42284116129981
21.73325959648112
24.59288671113208
-10.46845342808702
-0.2422718014445834
13.54208088641394
11.34233091595645
2.625739083660152
-27.51015088603706
1.625449443220671
-5.646987284398207
2.311694100642113
1.709843740628458
0.05542084706739425
0.1184231553376106
-0.06532394005697638
-0.136554128483962
0.01998139394788073
0.1474442649730955
-0.03087153042555592
-20.93270662798658
8.144336646071805
6.579543973173139
6.208826008641405
29.21872322440635
-20.03678336933556
18.46625202974124
-27.64819188480428
4.421429913640268
4.842922892233172
14.41160623307492
-23.67595903894409
0.1321563516215571
-0.1217127566017747
-0.0005942267327936519
13.09821479455215
-16.18665729404201
-23.76719393210163
26.85563643168125
-0.1517701095495969
0.1288527103843299
0.07673498570297771
-0.05381758652408522
0.2109207011181213
-0.08921218044899198
0.04144380375580811
0.5560114537310286
-0.7021911705928947
0.1937371172501733
-0.04755740037122601
-19.97733565052625
0.003248727288525658
19.97428777417807
-23.79665269605843
23.96523808870538
5.817088037185154
-5.985673429825175
-21.01327129807351
3.668408573192267
7.174897267562784
10.16996545725277
-1.557124906198985
26.58114375842818
-10.70234546148416
-14.3216733908409
13.94427925401103
3.751625783965834
2.141652690046546
-19.83755772804754
-7.847828736566307
-12.41700422105354
2.355065612871028
17.90976734468893
-1.548601488564593
-0.9990228592477434
2.097336124042174
2.288151245723169
-2.214515851767923
-3.679795152783437
3.606159758879135
-0.1434232658945497
-17.28584876723512
2.527473404848563
14.90179862829671
5.843153302872276
-27.41664109940843
-2.277936741354634
23.85142453788916
-0.2191634381529034
-0.925191638960998
0.9967482778668675
0.1476067993290399
0.02031256806151686
-19.99752367180762
10.46135539644666
0.7847254369315353
-15.84779628050735
4.601715447135664
35.217662334773
-9.092266562771432
-46.46860663969431
20.34321086768776
-7.245793995644576
-4.339944793689635
32.36346952777361
-20.77773073843945
0.3572030647045029
-0.01781146263463606
-0.4960330715822429
0.1566414695097632
0.07637293091616944
0.6586876697807031
-0.1197346031974386
-0.6153259974496638
0.2254555883187651
-0.01932985034322462
0.2072470756366512
-0.4133728135903322
1.326330941009146
-1.184589774048412
0.5147241870807261
-2.05243487105692
2.722300457954598
21.43353333028251
5.091684837849016
-4.452546701495157
-22.07267146673561
-23.05806530567953
14.84829893626236
6.140760806730651
2.069005562689048
0.05358268557600607
-0.3120895971850733
0.1175569715192957
0.1409499401158679
-3.588383517212081
-21.74126985173133
22.61174124255167
2.717912126378354
-0.9517549973857282
-0.668608696859645
0.1745424332233028
1.445821261024533
0.5177434816308202
0.2488505327533562
-0.5238085731994304
-0.2427854411695522
-33.1201611706519
-1.714615994102331
8.334889914676383
26.49988725012763
-24.37630549741596
3.869807951252696
-12.61366362447967
-14.384245288271
0.9924209063436172
-5.756384145618551
0.4238678012784271
-0.1808134501317908
0.3725104213990506
-0.6155647725197315
-18.49003590565928
-8.587389250890446
13.86882241564317
13.20860274085653
-1.088727305355704
-9.782399448317529
10.87112675353911
-0.6988048950088994
-2.748829159113489
1.128716227698159
2.318917826705186
-0.2513032202229233
0.5904291330330852
0.8089840703097614
-0.5483068974094171
0.205632288933226
-0.4663094618226902
-9.644612180329048
-20.28735506201904
9.295100609514201
-16.20883050372985
-1.053882249523436
30.44512847232228
-13.18241571907115
-15.4443353931666
15.93781825285289
-0.4938681777627094
0.04625597307597103
0.1676460811822686
0.04149909894883213
-0.2554011531777501
-0.1307492481263494
0.04383550525233798
0.1073876404439378
-0.02047389755622666
0.07220576755920287
-0.1188977780314003
0.0298142592889243
0.016877751196575
-0.5233706228224023
-0.0804501159770471
0.09682791851845798
0.5069928203625348
5.396208023616442
23.76844530442927
-21.51269751601052
-7.65195581206259
-0.08733547626232721
0.5930306864334302
-0.874549259836913
0.3688540496952595
0.0507244210511159
-28.53231075979318
25.79155182528294
2.690034513444246
0.3021225392244449
-0.6128889799293553
-2.143704835545983
2.454471276300023
-0.04680333394973837
-0.2257765886748767
0.3823067161326189
-0.1097267934932394
-4.153164812210171
-12.63796848347306
-1.656272382870404
18.44740567849636
-0.05695234341848018
-0.05203253779592388
-0.007419060712306641
0.1164039419362903
2.397620743234261
-0.3932560947389762
12.5696761073438
-14.57404075583965
24.21113921072162
-0.2559052316302285
-5.278883418467497
-18.67635056064642
15.51921955664166
-3.14043324335928
-1.415611847149783
-10.96317446611934
-15.87443372699302
-0.1712666243021911
-5.629336163443796
0.2711736823313467
-0.07188646406251281
-0.02543221719988941
0.0130837365907381
0.08423494468234077
-6.984153643293062
-3.232840641113701
10.77799284161374
-0.5609985573888415
-6.604880533747377
5.866041714849229
-0.9676781731537142
-4.921416906054769
-0.7157854545171757
16.45590081032263
-18.3867478542896
-24.629014610466
-3.065801399605121
7.254159773038393
0.04043365914565369
0.03759456760565799
-0.0328488899141662
-0.04517933682670305
11.78854656086873
1.860233659958717
-15.06880910779278
1.420028886925473
-0.4978356848374131
0.4475064807226126
0.2993635669261772
-0.2490343627932075
-0.006507800194213239
-0.07589224770164917
-0.005013423597390694
0.08741347150272552
5.890063584767443
-0.2098681702843557
-25.42855948588513
-0.5593706708217748
0.6565476573780311
25.33138249932696
0.8959133860834227
-0.9474139613256871
-0.3274126504035262
0.3789132256642893
-13.11697758424612
0.2211605857404878
12.8960805555878
-14.5569098122523
15.03504746559288
-12.69937638975388
12.22123873641088
-0.05371111136895233
-0.3769213830126503
0.5896909647353077
-0.1590584703152287
-0.8089548353692702
-7.703788799376794
3.904866017219332
-2.531938031677513
2.310762292946413
-3.683690278485351
0.3922845384582323
-0.3780183743829319
-0.1347451842286258
0.1204790201869842
-18.24962926459039
17.08538815942593
-17.07421178070638
18.2384528857937
-0.1380948146544551
0.03064578339534823
0.01916419396426229
0.08828483730743446
-1.725566237227712
0.2452773584782784
1.457411287065331
0.02287759167636858
-0.03849350889438254
-0.0865962870051348
0.03277945814706243
0.09231033776759073
6.234563360215409
-11.04147479139304
-6.397281140343789
22.85350170610642
-0.02514527043218709
0.1205541623254144
-0.1459495632009491
0.05054067131908832
-19.34474187321981
-3.464185715520312
6.600097085009718
-0.3205565052798641
-0.1498087681633562
1.154297854026115
0.03893221538664247
-0.09967360192239311
0.01411508631347968
0.04662630024322598
0.1153667682148075
-0.299737537421871
-0.1583582109626257
0.342728980189174
-14.25288418675998
-0.3042166578898149
13.00486399306206
-24.87063402624367
25.29956687630979
-13.43379684302582
-3.368879905319085
7.935530051869098
13.10495111472048
-17.67160126123609
1.960321153373233
-0.9823053728720811
-0.2487202911244364
-0.7292954893629519
-0.4344544166606012
18.54405518980709
-18.10976647165597
18.95424074846506
13.24616156844727
-21.82667140354705
-10.37373091336886
-38.06743492760157
0.07034905794957255
20.92632601263813
17.0707598570095
4.404484764088252
-30.71946261019269
-1.867820791259181
28.18279863735847
15.69908836430473
-19.44251978726379
11.04027465798624
-7.296843235030257
0.3433060061703528
-0.7914132200198815
-0.6630635551562448
0.1839191854531131
0.3241077671070384
0.1550366026447855
8.810275222077742
21.07452406216161
-27.32750979851365
-2.55728948572812
29.21064878230024
-25.17436453006138
0.3682005118465805
-1.246186764753029
-0.08351769469296466
-1.386195301138345
27.80508522157754
-13.26400808705773
3.666341008908371
-18.20741814347658
0.2206338276935237
0.3632274077102666
-1.14939681043277
0.5655355750668584
0.4633203907372417
-0.1315626858064066
0.1009194151210089
-0.4326771200414223
-0.1055483771709679
-14.36671523758476
-10.74840119507557
25.22066480978724
17.65582873566388
21.89921535222786
-22.27517847161532
-17.27986561628159
0.8121896780291203
-2.166350266254229
-0.949223258831857
16.7555720969667
0.9005118336636482
0.1486973676457753
-0.003337869903568702
-0.08582982053348936
-0.0595296771974085
-8.547225921467069
3.962534899001377
1.518889622818525
3.210747561063923
-4.785775065018864
-13.38885491859434
-2.602673853299968
18.28488893202291
-2.293360160129266
-26.79466851515318
23.42865344391577
-30.65528102756241
34.02129609878966
-0.2150949347736202
1.51915486469486
-2.095503761709201
0.7914438318243938
11.85919957276567
-5.76508192242453
21.20775820075631
-18.58852470747859
-29.64403099213605
27.02479749887341
1.843917532506516
14.08455205780656
-10.87078026630549
-5.057689324008491
0.08675233437577094
-0.04010138869195092
0.007829501595073864
-0.05448044725438407
2.798944529015417
1.385159334312255
-1.424372360916931
-2.759731502330026
-7.692735095967543
-7.4607027345682
15.15311818001278
-11.65791630161846
-5.960629085170377
-2.598750331564546
20.21729571834767
-2.393836517896946
1.020482974997889
1.113372398033151
0.2599811449055167
11.24699708513555
-13.51470341200841
13.94996570443416
-11.68225937756615
-0.5341661868107035
0.5350865247654203
0.09337101081581616
-0.09429134872499981
-20.18379593273069
11.56664826201334
5.856247742123371
2.760899928621293
0.02166001727009398
-0.2947983424548302
-0.3571598127895663
0.6302981379825014
0.008540441888507097
-0.1233817256102605
0.03248205743351591
0.08235922629656134
-4.959897668775179
20.56350458771648
3.25590612865434
-18.8595130475888
-0.1554534222798555
0.2140331591073982
0.003797537512517374
-0.06237727432442892
-17.01111651243198
12.54799095188249
-5.141198526845429
9.604324087448028
-0.2367686800035397
0.1303417706440518
0.1603731522139587
-0.05394624283776438
-9.911222217085051
0.7860210062511614
12.22730745875143
-3.10210624789577
1.042732642329551
1.001276845856529
-7.259629868966345
5.215620380773571
0.3487280815156275
0.06758670243545586
-0.4175238727999956
0.00120908886173275
2.465612620687097
-5.918197289525
0.01935775004163711
0.5739297679677633
-0.6131530742587532
0.01986555626113462
0.1191486219914649
0.07953969680953688
-0.1536161682081058
-0.04507215057366224
-13.23767663107103
1.649071248435031
3.010324535619774
-0.9775665921110966
-3.681829191801643
-0.02396594900041667
-0.3940330755422305
0.7262595552631423
-0.3082605306401568
-17.67433913289563
29.31978634005935
-10.17355070574473
-1.471896501427904
-0.8994392281310706
-0.5301054631196884
3.163854836567043
-1.734310145158451
-0.7657317843217718
0.6949012292520578
-0.6008249451383559
0.6716555002618639
7.063177448587393
1.20287765922593
-7.223322465465912
-19.52434136182993
-12.21963381529142
16.89592801331138
14.84804716380352
-1.719188277475488
-0.05091528997012615
0.3250776487268905
-0.3167802054200413
0.04261784668947043
8.157187457091641
17.77517038659992
-37.3141144275392
11.38175658384554
4.983317180407879
-3.327891135419134
-5.140584038394619e-05
-0.113334407979278
-0.01996367759888627
0.1333494914381348
0.6365916555957849
-1.983444961572691
0.3930956478726411
0.9537576581618311
-26.0348763222584
14.37841021439583
28.41203820482446
-0.002461651346021661
0.05307803050668499
-0.08288384035577906
0.03226746120476773
0.005966418190220264
-0.1344153439913917
0.1208371682012662
0.007611757614371299
-0.02499809578761354
0.01132343344417151
0.013674662354845
-9.170309178722562
0.3065163662274182
13.84710999287468
13.83091629650368
-1.13320593999195
4.755057325479466
-17.45276768207497
-13.88134402036798
-3.611103091640568
-0.02714868810672857
0.1539713875527651
-0.1260116107135476
-0.0008110887224466496
24.20549701218703
-23.65135351914011
-3.52082047204138
-0.07151833623501622
0.07278825338762188
-0.03250038482372097
0.03123046767692699
8.00434215393595
-13.58404335635592
23.77030302930769
-18.19060182701751
-0.2384633857724658
-0.230086191367977
0.4589245114080873
0.009625065756701776
0.7365873221722457
0.07204952540612261
-0.02055672250720385
-0.7880801250471178
-0.1595137034167479
0.06680475956478524
0.08167180330149543
0.01103714056270784
0.02171813432182004
-0.04540196205828369
0.2346045288613453
-0.1826637016692706
-0.5335453797706247
0.03759202737607276
0.678617054091053
6.807672568789808
15.06371338648964
-14.13513746987003
-7.736248485401042
1.570981613405726
-7.553858410877472
0.308748555052249
-0.1395383861106363
0.1082729203180852
-0.2774830892269571
0.008003567534659299
0.08253780681839105
-0.077798878032143
-0.01274249630148057
0.04302426304410865
0.0251761285569608
-0.06820039159157855
-15.79965269727079
6.971339858042279
15.45706239568282
-6.628749556467448
-0.1055952499369384
-0.008281819920784757
0.09788782822599032
0.01598924164339799
4.275026342827937
-21.78693459608624
-0.08143810684684644
-0.5317707475827834
0.3619056342083792
0.06305529150773198
-0.04114117371375099
-0.1071395108540108
0.08522539307741664
23.13610448438222
2.758413453698626
-18.85831006709363
-7.036207870991137
-0.1046938549634226
0.08826940224718727
0.01642445272951487
-1.936543239395089
-1.151497059599091
0.0536521405834528
3.034388158312919
-19.98090471538211
19.5869449217437
0.393959793623342
-0.1709211687893885
0.04886728103213459
0.08750635350370467
0.034547534267529
-6.830759917590673
-0.5801529240943414
-13.5217937863584
17.83596365288384
-14.71001745664169
-15.19702731669437
12.07108112036297
0.05992896641058097
0.4324445175568435
-0.05978860875347868
-0.4325848751891416
0.09042161285056415
0.02746085953187221
-0.08959133542344026
-0.02829113693675064
-0.1521168966519912
-0.4911677473388232
0.437707386623185
0.2055772573858388
0.04025284833211287
-0.0151944946161242
0.09631616277523711
-0.1213745164789149
-0.1176849203734256
-0.2310027405652711
0.4640544291654971
0.1239624982774973
-0.5817197473505277
0.4855701133939866
-0.02781286427089504
-0.3121855681052487
-0.2431064683593715
0.4135024924183055
0.1417895440686951
10.77342753567411
0.7866707942813399
-5.739608737511997
-5.820489592420476
0.01856793802023989
0.1690092606734801
19.00517495451933
-18.38890229303232
23.11423532838272
-23.730507989872
-6.078710424026495
-12.15713060393479
1.55105795893983
16.68478306900438
0.1485639836048823
-0.08122471626827232
-0.09781057885655298
0.03047131153743411
0.2948152674518301
-0.01270393482400294
-0.03162663290047427
-0.4618902777058884
0.5380573782788977
-0.04454046764365136
-0.2501859714009227
-13.09514690695364
13.34524374040536
0.1948545259637673
-0.2213354598989576
-0.1527990037193419
0.1792799376803108
-0.06987917509421376