# Force                 
# CofR                  : (0.0000000000000000e+00 0.0000000000000000e+00 0.0000000000000000e+00)
#
# Time                  	(total_x total_y total_z)	(pressure_x pressure_y pressure_z)	(viscous_x viscous_y viscous_z)
0.00434783              	(3.1980433282895245e+02 -2.2614810140109458e+02 -1.0412936551276893e+01)	(2.6936068600918202e+02 -2.2517298292188411e+02 -1.0392929437219674e+01)	(5.0443646819770436e+01 -9.7511847921045158e-01 -2.0007114057218753e-02)
0.00869565              	(6.0982888259870428e+01 -1.0905836302493945e+01 4.6378373583730061e+00)	(1.1348623531007339e+01 -1.0025177926277117e+01 4.6579329923684352e+00)	(4.9634264728863087e+01 -8.8065837621682830e-01 -2.0095633995428849e-02)
0.0130435               	(6.0908569919207963e+01 -1.1097145570378608e+01 4.8540232154804643e+00)	(1.2014446422953736e+01 -1.0259092619005378e+01 4.8515086107015346e+00)	(4.8894123496254224e+01 -8.3805295137323055e-01 2.5146047789293326e-03)
0.0173913               	(6.0391154075711029e+01 -1.1442696991126466e+01 4.8121017013248499e+00)	(1.2166895661750431e+01 -1.0649037323453491e+01 4.7881357959448785e+00)	(4.8224258413960598e+01 -7.9365966767297469e-01 2.3965905379971404e-02)
0.0217391               	(6.0234590818881102e+01 -1.1870509567740736e+01 3.5812790218711315e+00)	(1.2618299360605189e+01 -1.1128246199991457e+01 3.5457047681260514e+00)	(4.7616291458275917e+01 -7.4226336774927970e-01 3.5574253745080046e-02)
0.026087                	(6.0010140851989171e+01 -1.1917008020699726e+01 3.7045042902810419e+00)	(1.2942704561820831e+01 -1.1230976821867301e+01 3.6585287084070561e+00)	(4.7067436290168338e+01 -6.8603119883242347e-01 4.5975581873985663e-02)
0.0304348               	(6.0170298790985477e+01 -1.2278474328042266e+01 5.2212422881410614e+00)	(1.3601316333548484e+01 -1.1652462278250679e+01 5.1553747119232591e+00)	(4.6568982457436995e+01 -6.2601204979158631e-01 6.5867576217802495e-02)
0.0347826               	(5.9885569356763462e+01 -1.2053325421168166e+01 5.0131602139245928e+00)	(1.3769431611535632e+01 -1.1489106258245886e+01 4.9372648073753203e+00)	(4.6116137745227832e+01 -5.6421916292228036e-01 7.5895406549272793e-02)
0.0391304               	(5.9705784601997124e+01 -1.1686872755720728e+01 5.3688583546545825e+00)	(1.4002062315870610e+01 -1.1181487189801121e+01 5.2883581447002248e+00)	(4.5703722286126514e+01 -5.0538556591960737e-01 8.0500209954357332e-02)
0.0434783               	(5.9370587890633892e+01 -1.1243665908228902e+01 5.6369535696841861e+00)	(1.4046485619694520e+01 -1.0792227843553762e+01 5.5605061640922999e+00)	(4.5324102270939370e+01 -4.5143806467514025e-01 7.6447405591885842e-02)
0.0478261               	(5.8988066729473118e+01 -1.1134133058771448e+01 5.9676543638859183e+00)	(1.4010773269827631e+01 -1.0736545367075294e+01 5.8903355184256396e+00)	(4.4977293459645487e+01 -3.9758769169615416e-01 7.7318845460278465e-02)
0.0521739               	(5.8553965779309820e+01 -1.0721210572362649e+01 1.0258406901627907e+01)	(1.3896873135961197e+01 -1.0373496724547014e+01 1.0185471892032243e+01)	(4.4657092643348619e+01 -3.4771384781563441e-01 7.2935009595664221e-02)
0.0565217               	(5.7601808296915053e+01 -1.0095412169248121e+01 1.0175140940555869e+01)	(1.3242441252169108e+01 -9.7901807373053380e+00 1.0121112369862807e+01)	(4.4359367044745944e+01 -3.0523143194278357e-01 5.4028570693060801e-02)
0.0608696               	(5.7329783483645606e+01 -9.3927873445597818e+00 1.0146434551513906e+01)	(1.3252508296803105e+01 -9.1254452472207710e+00 1.0110446941355706e+01)	(4.4077275186842499e+01 -2.6734209733901010e-01 3.5987610158199304e-02)
0.0652174               	(5.6525172151370079e+01 -8.9282998978470669e+00 7.2993706287257769e+00)	(1.2707183403636257e+01 -8.6911838113178383e+00 7.2657024985963323e+00)	(4.3817988747733821e+01 -2.3711608652922819e-01 3.3668130129444959e-02)
0.0695652               	(5.5776209962292640e+01 -8.2393747632617629e+00 6.7186233045923789e+00)	(1.2204488889987861e+01 -8.0325349483942805e+00 6.6790005571921327e+00)	(4.3571721072304783e+01 -2.0683981486748315e-01 3.9622747400246114e-02)
0.073913                	(5.5085270387897772e+01 -7.8620576335390888e+00 5.8075227017039905e+00)	(1.1749957261738444e+01 -7.6785520380640122e+00 5.7578806761879546e+00)	(4.3335313126159328e+01 -1.8350559547507689e-01 4.9642025516035727e-02)
0.0782609               	(5.4416053038314672e+01 -7.6158094369337359e+00 6.3382858415744057e+00)	(1.1314878131332438e+01 -7.4558019776271571e+00 6.2804777155065077e+00)	(4.3101174906982237e+01 -1.6000745930657895e-01 5.7808126067897925e-02)
0.0826087               	(5.4068871961777035e+01 -7.4814036263860597e+00 6.0509418212113921e+00)	(1.1201841917935958e+01 -7.3351217459652451e+00 5.9865746008870095e+00)	(4.2867030043841076e+01 -1.4628188042081414e-01 6.4367220324382204e-02)
0.0869565               	(5.3688989115036136e+01 -7.2135898121334634e+00 4.3398341349559164e+00)	(1.1054956874708820e+01 -7.0834479791393790e+00 4.2694732458085802e+00)	(4.2634032240327315e+01 -1.3014183299408461e-01 7.0360889147336389e-02)
0.0913043               	(5.3000441739440078e+01 -6.8334635036540119e+00 4.1101108881959521e+00)	(1.0590938262407814e+01 -6.7198274968166567e+00 4.0386528266718607e+00)	(4.2409503477032260e+01 -1.1363600683735532e-01 7.1458061524091385e-02)
0.0956522               	(5.2370132767966943e+01 -6.4372382400376535e+00 3.7854157195453335e+00)	(1.0178504466778755e+01 -6.3337926560200568e+00 3.7124257390419921e+00)	(4.2191628301188189e+01 -1.0344558401759679e-01 7.2989980503341267e-02)
0.1                     	(5.1706900027152642e+01 -6.4088388900204798e+00 3.6953239962976570e+00)	(9.7222081948562149e+00 -6.3225605619312404e+00 3.6199323620265669e+00)	(4.1984691832296427e+01 -8.6278328089239853e-02 7.5391634271090302e-02)
0.104348                	(5.1524704515702986e+01 -6.4451941427877459e+00 3.7596010847010763e+00)	(9.7428934652407548e+00 -6.3710467511117841e+00 3.6755829722424957e+00)	(4.1781811050462231e+01 -7.4147391675962182e-02 8.4018112458580513e-02)
0.108696                	(5.0961280273543672e+01 -6.2505461456045781e+00 2.0636987257162365e+00)	(9.3790556713953546e+00 -6.1909700993567851e+00 1.9670584913754341e+00)	(4.1582224602148315e+01 -5.9576046247792766e-02 9.6640234340802350e-02)
0.113043                	(5.0515897219997861e+01 -6.0649945102069474e+00 2.1954355818914042e+00)	(9.1272706035788840e+00 -6.0218963842525950e+00 2.0959211959033563e+00)	(4.1388626616418975e+01 -4.3098125954352681e-02 9.9514385988047752e-02)
0.117391                	(5.0240392746685181e+01 -6.3100171913736895e+00 3.7552530563422697e+00)	(9.0385422527447545e+00 -6.2877142838013915e+00 3.6628529619322099e+00)	(4.1201850493940427e+01 -2.2302907572298108e-02 9.2400094410060016e-02)
0.121739                	(5.0015121040082192e+01 -5.8155436084939245e+00 4.4198867143259815e+00)	(8.9971063299884477e+00 -5.8124442732937185e+00 4.3388429130064976e+00)	(4.1018014710093745e+01 -3.0993352002061936e-03 8.1043801319483549e-02)
0.126087                	(4.9859285453774348e+01 -5.7481053534815372e+00 4.2950946807563790e+00)	(9.0228967450130764e+00 -5.7607474075047485e+00 4.2372350222130253e+00)	(4.0836388708761270e+01 1.2642054023211682e-02 5.7859658543354169e-02)
0.130435                	(5.0093539211885783e+01 -6.2643092677455448e+00 7.4400055834102634e+00)	(9.4380491926495385e+00 -6.2926200863190491e+00 7.4173107950967614e+00)	(4.0655490019236247e+01 2.8310818573504398e-02 2.2694788313501729e-02)
0.134783                	(4.9602664155346368e+01 -6.1048010512442419e+00 4.9667850804754208e+00)	(9.1245491925139657e+00 -6.1475813475955023e+00 4.9745670995199287e+00)	(4.0478114962832400e+01 4.2780296351260752e-02 -7.7820190445081414e-03)
0.13913                 	(4.9371518993017922e+01 -5.8863223786383596e+00 5.5230070727698459e+00)	(9.0656439289122961e+00 -5.9477286080022571e+00 5.5332440386545381e+00)	(4.0305875064105628e+01 6.1406229363897773e-02 -1.0236965884692095e-02)
0.143478                	(4.9238071822712925e+01 -6.0771083989195622e+00 5.0950473420436060e+00)	(9.1025751237624384e+00 -6.1590397493832931e+00 5.1041253382558951e+00)	(4.0135496698950483e+01 8.1931350463730707e-02 -9.0779962122888268e-03)
0.147826                	(4.8835862094399474e+01 -5.9288242854309274e+00 4.5547888945961832e+00)	(8.8655560391841224e+00 -6.0288985119053962e+00 4.5707440134396320e+00)	(3.9970306055215353e+01 1.0007422647446836e-01 -1.5955118843448742e-02)
0.152174                	(4.8608935988296324e+01 -5.7829383388285800e+00 5.0663864986076685e+00)	(8.7967982965680740e+00 -5.8936376066195075e+00 5.0833483741922381e+00)	(3.9812137691728253e+01 1.1069926779092752e-01 -1.6961875584569304e-02)
0.156522                	(4.8452123190745546e+01 -5.5778965702821726e+00 4.7797927011835002e+00)	(8.7923673788938732e+00 -5.6944616785991427e+00 4.7927164855858200e+00)	(3.9659755811851674e+01 1.1656510831696970e-01 -1.2923784402319425e-02)
0.16087                 	(4.8385989955592763e+01 -5.7461858370208603e+00 4.6520365696280566e+00)	(8.8718230392336572e+00 -5.8697038598624491e+00 4.6709500765875074e+00)	(3.9514166916359102e+01 1.2351802284158886e-01 -1.8913506959451151e-02)
0.165217                	(4.8509489128756776e+01 -5.9304228601015749e+00 6.2179094731738660e+00)	(9.1430117064610190e+00 -6.0660949506669208e+00 6.2400417575097453e+00)	(3.9366477422295759e+01 1.3567209056534624e-01 -2.2132284335879392e-02)
0.169565                	(4.8364553818533835e+01 -5.9865178378332784e+00 4.7939065959702809e+00)	(9.1462664413049666e+00 -6.1345553289067745e+00 4.8179353134154130e+00)	(3.9218287377228869e+01 1.4803749107349601e-01 -2.4028717445131846e-02)
0.173913                	(4.8252858074633998e+01 -6.3933782946212183e+00 1.7838189880402224e+00)	(9.1828036046092976e+00 -6.5523287777589205e+00 1.8008863467367522e+00)	(3.9070054470024701e+01 1.5895048313770244e-01 -1.7067358696529665e-02)
0.178261                	(4.7970276011055844e+01 -6.3071841575228422e+00 2.5748770937572374e+00)	(9.0510871666703885e+00 -6.4745072687005827e+00 2.5792144810618209e+00)	(3.8919188844385459e+01 1.6732311117774001e-01 -4.3373873045833358e-03)
0.182609                	(4.7774148017136717e+01 -6.1768180195978024e+00 2.4152062487916774e+00)	(9.0061530973438551e+00 -6.3521650171219450e+00 2.4034265243410915e+00)	(3.8767994919792862e+01 1.7534699752414254e-01 1.1779724450586102e-02)
0.186957                	(4.7857189610176761e+01 -6.4656210922717081e+00 9.2768520280386335e-01)	(9.2410546156369442e+00 -6.6444572599807099e+00 8.9726855646917925e-01)	(3.8616134994539820e+01 1.7883616770900199e-01 3.0416646334684071e-02)
0.191304                	(4.7667573948674395e+01 -6.3252548269183322e+00 1.4842628629314611e+00)	(9.2043941203871089e+00 -6.5065626729400989e+00 1.4303715890131667e+00)	(3.8463179828287288e+01 1.8130784602176661e-01 5.3891273918294416e-02)
0.195652                	(4.7572288549070265e+01 -6.0498759163968758e+00 3.7816334624884336e+00)	(9.2620437652067835e+00 -6.2258590190068297e+00 3.7210313659693806e+00)	(3.8310244783863482e+01 1.7598310260995353e-01 6.0602096519053170e-02)
0.2                     	(4.7628386578856784e+01 -6.3954274031017402e+00 4.1634572164020760e+00)	(9.4648745230511029e+00 -6.5703478964466306e+00 4.1052002711905669e+00)	(3.8163512055805683e+01 1.7492049334489046e-01 5.8256945211508912e-02)
0.204545                	(4.7121027741755050e+01 -5.9740499547715800e+00 4.3947239878180913e+00)	(9.1037421269155221e+00 -6.1399897490136421e+00 4.3455164857333450e+00)	(3.8017285614839530e+01 1.6593979424206207e-01 4.9207502084746391e-02)
0.209091                	(4.6928003941111768e+01 -5.8540528330529362e+00 3.7815440148639907e+00)	(9.0475281370380269e+00 -6.0126224695792985e+00 3.7450454396794846e+00)	(3.7880475804073740e+01 1.5856963652636236e-01 3.6498575184506249e-02)
0.213636                	(4.6538379004510986e+01 -5.5051046351960915e+00 5.3691348533986014e+00)	(8.7889490362104876e+00 -5.6556178114454010e+00 5.3431959382158816e+00)	(3.7749429968300497e+01 1.5051317624930938e-01 2.5938915182719902e-02)
0.218182                	(4.6722950991108590e+01 -5.4775429709289689e+00 4.8366158634518479e+00)	(9.1074691871304481e+00 -5.6175132028549468e+00 4.8165266870905183e+00)	(3.7615481803978142e+01 1.3997023192597802e-01 2.0089176361329199e-02)
0.222727                	(4.6464813608011788e+01 -5.4448612168545827e+00 4.5258938406495464e+00)	(8.9805226880588691e+00 -5.5679736182563939e+00 4.5076390347288333e+00)	(3.7484290919952919e+01 1.2311240140181101e-01 1.8254805920712609e-02)
0.227273                	(4.6303376635207343e+01 -5.4035009200557500e+00 4.9479993282075041e+00)	(8.9474646317205373e+00 -5.5127980212352554e+00 4.9269891665734171e+00)	(3.7355912003486807e+01 1.0929710117950583e-01 2.1010161634087088e-02)
0.231818                	(4.6002547423567300e+01 -5.0283990428007055e+00 4.0612873437323191e+00)	(8.7697028739525695e+00 -5.1242781704633602e+00 4.0344847170680005e+00)	(3.7232844549614732e+01 9.5879127662654440e-02 2.6802626664318395e-02)
0.236364                	(4.5850226427937002e+01 -5.1301982541464559e+00 3.6209887031145813e+00)	(8.7361733809377675e+00 -5.2136271406506740e+00 3.5922467491827241e+00)	(3.7114053046999231e+01 8.3428886504217731e-02 2.8741953931857054e-02)
0.240909                	(4.5691565877039821e+01 -5.1051790181604231e+00 3.0573992525589393e+00)	(8.6908188147724097e+00 -5.1786605988339884e+00 3.0158918012442770e+00)	(3.7000747062267408e+01 7.3481580673565722e-02 4.1507451314662241e-02)
0.245455                	(4.5460884111203164e+01 -5.4410919134264644e+00 3.1491016499382369e+00)	(8.5684331464291379e+00 -5.5073316107750134e+00 3.0903199071836931e+00)	(3.6892450964774028e+01 6.6239697348548648e-02 5.8781742754543884e-02)
0.25                    	(4.5296767317195638e+01 -5.3529852196302379e+00 3.9257280066441163e+00)	(8.5088459443496447e+00 -5.4136149143905135e+00 3.8472719149847041e+00)	(3.6787921372845993e+01 6.0629694760275188e-02 7.8456091659412294e-02)
0.254545                	(4.5064942277964228e+01 -5.3342581385476109e+00 3.6773649923998537e+00)	(8.3832925818011930e+00 -5.3875869121951281e+00 3.5754514153771084e+00)	(3.6681649696163035e+01 5.3328773647516876e-02 1.0191357702274519e-01)
0.259091                	(4.4986903893662912e+01 -5.3995410108558382e+00 3.4527333880122368e+00)	(8.4057849234736643e+00 -5.4523589795764043e+00 3.3377413458781287e+00)	(3.6581118970189252e+01 5.2817968720566141e-02 1.1499204213410816e-01)
0.263636                	(4.4802768433425619e+01 -5.3321558666560245e+00 2.4443717358519086e+00)	(8.3214686412695329e+00 -5.3892683328607909e+00 2.3236833659451168e+00)	(3.6481299792156086e+01 5.7112466204766010e-02 1.2068836990679188e-01)
0.268182                	(4.4705232805905936e+01 -5.4587540922315183e+00 1.3967758260219545e+00)	(8.3185826052983458e+00 -5.5207163220546782e+00 1.2690127438781771e+00)	(3.6386650200607590e+01 6.1962229823159826e-02 1.2776308214377735e-01)
0.272727                	(4.4510489222075456e+01 -5.4975231407638114e+00 2.2094426268595897e+00)	(8.2201346455387725e+00 -5.5723297567773056e+00 2.0799825206565177e+00)	(3.6290354576536686e+01 7.4806616013494392e-02 1.2946010620307188e-01)
0.277273                	(4.4334696978079648e+01 -5.4633838553767919e+00 1.8622759039697672e+00)	(8.1412369187340303e+00 -5.5469055978535406e+00 1.7284579649146499e+00)	(3.6193460059345618e+01 8.3521742476748678e-02 1.3381793905511730e-01)
0.281818                	(4.4193137567719837e+01 -5.2180224842680998e+00 5.9166996443794639e-01)	(8.0965450229436957e+00 -5.3154204947112884e+00 4.5953759156840923e-01)	(3.6096592544776144e+01 9.7398010443188687e-02 1.3213237286953713e-01)
0.286364                	(4.4138689941841761e+01 -5.1149797546051472e+00 1.0534411116469409e+00)	(8.1339277032561021e+00 -5.2298219574272755e+00 9.0463424784691471e-01)	(3.6004762238585663e+01 1.1484220282212848e-01 1.4880686380002606e-01)
0.290909                	(4.4116235972990545e+01 -5.2861335760891439e+00 1.6004106710038224e+00)	(8.2019321078502667e+00 -5.4173653140058518e+00 1.4443466568267997e+00)	(3.5914303865140276e+01 1.3123173791670775e-01 1.5606401417702256e-01)
0.293939                	(4.4007002797054511e+01 -5.0345812320805825e+00 -2.3600274508149388e-02)	(8.1541288765471656e+00 -5.1730454899208462e+00 -1.8655931863634739e-01)	(3.5852873920507342e+01 1.3846425784026406e-01 1.6295904412819801e-01)
0.29697                 	(4.3301723548777865e+01 -4.6984720207507049e+00 -4.2015460502954860e-01)	(7.5102220477455708e+00 -4.8409763381654169e+00 -5.7906247258025945e-01)	(3.5791501501032293e+01 1.4250431741471184e-01 1.5890786755071087e-01)
0.3                     	(4.3282499176457151e+01 -4.6742887977981296e+00 2.1218746621996432e+00)	(7.5522416460175421e+00 -4.8205794504055461e+00 1.9686235252570763e+00)	(3.5730257530439609e+01 1.4629065260741617e-01 1.5325113694256690e-01)
0.303448                	(4.3181878712360188e+01 -4.5268346179234831e+00 3.0358312063079698e+00)	(7.5158341140218488e+00 -4.6812885574043124e+00 2.8834750701770449e+00)	(3.5666044598338338e+01 1.5445393948082972e-01 1.5235613613092480e-01)
0.30731                 	(4.3258928540410231e+01 -4.5029272270692804e+00 3.2617437661856394e+00)	(7.6657249403265428e+00 -4.6661992937254020e+00 3.1140774540324476e+00)	(3.5593203600083690e+01 1.6327206665612143e-01 1.4766631215319201e-01)
0.311724                	(4.3395599494842273e+01 -4.3139231181683515e+00 2.9821802010770604e+00)	(7.8832955934741351e+00 -4.4779098809829518e+00 2.8425968951033784e+00)	(3.5512303901368135e+01 1.6398676281460006e-01 1.3958330597368174e-01)
0.316628                	(4.3307559861844105e+01 -4.3160612955176507e+00 3.5213343262636032e+00)	(7.8842741457810845e+00 -4.4777094859412161e+00 3.3723027373499312e+00)	(3.5423285716063020e+01 1.6164819042356560e-01 1.4903158891367191e-01)
0.321533                	(4.3216493070353728e+01 -4.3772278968146967e+00 1.0257317829738524e+00)	(7.8865942819903072e+00 -4.5344306463208834e+00 8.5785382974929969e-01)	(3.5329898788363423e+01 1.5720274950618701e-01 1.6787795322455262e-01)
0.326437                	(4.3145738022675083e+01 -4.5887325795328078e+00 1.5742235969366667e+00)	(7.9140621624194329e+00 -4.7462918973131627e+00 1.4000931201483324e+00)	(3.5231675860255649e+01 1.5755931778035501e-01 1.7413047678833438e-01)
0.331341                	(4.3152981524857438e+01 -4.6983686607756541e+00 1.8890083257178338e+00)	(8.0110434382676470e+00 -4.8606463619170626e+00 1.7134168727164836e+00)	(3.5141938086589789e+01 1.6227770114140813e-01 1.7559145300135029e-01)
0.335918                	(4.3057071538883861e+01 -4.7622811455555318e+00 3.5517003930905329e+00)	(7.9997294295761234e+00 -4.9249783180177191e+00 3.3812424892733657e+00)	(3.5057342109307740e+01 1.6269717246218715e-01 1.7045790381716697e-01)
0.340496                	(4.3152576032358368e+01 -4.9914068346001788e+00 2.0680355395981729e+00)	(8.1777164535429385e+00 -5.1625861460235782e+00 1.9191647437291008e+00)	(3.4974859578815426e+01 1.7117931142339959e-01 1.4887079586907190e-01)
0.345073                	(4.3119784273466749e+01 -4.8960477642462923e+00 1.4781334239927986e+00)	(8.2310094367746931e+00 -5.0734557933646878e+00 1.3540383516893391e+00)	(3.4888774836692058e+01 1.7740802911839523e-01 1.2409507230345956e-01)
0.34965                 	(4.2915904686244708e+01 -4.7620531647615101e+00 1.0961833855700185e+00)	(8.1134795169965699e+00 -4.9463225372749555e+00 9.9636291004434951e-01)	(3.4802425169248139e+01 1.8426937251344586e-01 9.9820475525668972e-02)
0.354227                	(4.2764618037170351e+01 -5.1003867070106601e+00 1.9862073478129800e+00)	(8.0463171339994890e+00 -5.2868999525056521e+00 1.8925173531146411e+00)	(3.4718300903170864e+01 1.8651324549499199e-01 9.3689994698338983e-02)
0.358805                	(4.2624675502534629e+01 -5.0230117975503710e+00 2.3117230165524782e+00)	(7.9820858944124593e+00 -5.2159164585731626e+00 2.2152429755447987e+00)	(3.4642589608122172e+01 1.9290466102279188e-01 9.6480041007679804e-02)
0.363382                	(4.2615122555194546e+01 -5.1152762015131845e+00 3.2344093421441737e+00)	(8.0446545034555950e+00 -5.2975971421644585e+00 3.1395394113720512e+00)	(3.4570468051738949e+01 1.8232094065127430e-01 9.4869930772122385e-02)
0.367959                	(4.2454934422835706e+01 -5.1353010071285894e+00 2.4660997235802462e+00)	(7.9556019128055322e+00 -5.3092241326958982e+00 2.3683399460721235e+00)	(3.4499332510030172e+01 1.7392312556730910e-01 9.7759777508122481e-02)
0.372536                	(4.2317421211057784e+01 -5.2250205391990532e+00 3.8203334622197143e+00)	(7.8873661038600824e+00 -5.3915221743620965e+00 3.7269273259722264e+00)	(3.4430055107197703e+01 1.6650163516304350e-01 9.3406136247487836e-02)
0.377114                	(4.2453122703605032e+01 -5.4154396704889507e+00 3.9556824442747636e+00)	(8.0988783354451499e+00 -5.5792363178290438e+00 3.8715865194801191e+00)	(3.4354244368159883e+01 1.6379664734009308e-01 8.4095924794644519e-02)
0.381691                	(4.2162337840743916e+01 -5.3602386577045369e+00 3.4350473093750087e+00)	(7.8832766779205379e+00 -5.5164541762052046e+00 3.3519714103909579e+00)	(3.4279061162823382e+01 1.5621551850066745e-01 8.3075898984050767e-02)
0.386268                	(4.2049271297741640e+01 -5.2977298763270300e+00 3.0137234478297197e+00)	(7.8459343740476637e+00 -5.4554093264104955e+00 2.9311623465081005e+00)	(3.4203336923693975e+01 1.5767945008346546e-01 8.2561101321619340e-02)
0.390845                	(4.1911921992953921e+01 -5.2346357204453620e+00 2.8670487035047842e+00)	(7.7779161073998004e+00 -5.3961949666324713e+00 2.7918214896680422e+00)	(3.4134005885554117e+01 1.6155924618710943e-01 7.5227213836742191e-02)
0.395423                	(4.1943706444954650e+01 -5.2823430788527732e+00 2.9157050673205189e+00)	(7.8800798043818725e+00 -5.4457398415421485e+00 2.8380431812742843e+00)	(3.4063626640572778e+01 1.6339676268937528e-01 7.7661886046234738e-02)
0.4                     	(4.1495940334116860e+01 -5.2610672432228958e+00 1.3236038169697071e+00)	(7.5008571539234188e+00 -5.4309961280777364e+00 1.2480682471050184e+00)	(3.3995083180193440e+01 1.6992888485484070e-01 7.5535569864688581e-02)
0.404762                	(4.1433671997869794e+01 -5.2309013411731877e+00 1.8257462423713107e+00)	(7.5107252385568604e+00 -5.4064811195499454e+00 1.7534578562069976e+00)	(3.3922946759312936e+01 1.7557977837675745e-01 7.2288386164313032e-02)
0.409524                	(4.1459674220931198e+01 -5.2992288331535979e+00 6.9376446974967476e-01)	(7.6171152621226019e+00 -5.4858556176364495e+00 6.2012965353109140e-01)	(3.3842558958808596e+01 1.8662678448285158e-01 7.3634816218583338e-02)
0.414286                	(4.1312688705689006e+01 -4.9996539969270284e+00 2.1017064135811809e+00)	(7.5482662572719148e+00 -5.1955683305766680e+00 2.0399790386626289e+00)	(3.3764422448417093e+01 1.9591433364963981e-01 6.1727374918552180e-02)
0.419048                	(4.1182042116766674e+01 -4.6970211238010338e+00 1.6788297603929321e+00)	(7.4909390875481012e+00 -4.8981998218314802e+00 1.6313293112896670e+00)	(3.3691103029218574e+01 2.0117869803044650e-01 4.7500449103265230e-02)
0.42381                 	(4.1271675027820919e+01 -4.9001809394943567e+00 9.6035883172655057e-01)	(7.6589334237224129e+00 -5.1102511973054661e+00 9.3888715631373454e-01)	(3.3612741604098503e+01 2.1007025781110930e-01 2.1471675412816048e-02)
0.428571                	(4.1013678604700786e+01 -4.8594655401441393e+00 1.8827690683255900e+00)	(7.4770626484746181e+00 -5.0765653085011415e+00 1.8726865303045455e+00)	(3.3536615956226164e+01 2.1709976835700256e-01 1.0082538021044430e-02)
0.433333                	(4.0835884243937215e+01 -4.7695426768766760e+00 3.5543438751492995e-01)	(7.3708633165965214e+00 -4.9925497247340243e+00 3.5259514808405368e-01)	(3.3465020927340696e+01 2.2300704785734843e-01 2.8392394308762777e-03)
0.438095                	(4.0761409091193258e+01 -4.7519317395244940e+00 -6.4711810841923390e-01)	(7.3710966674581293e+00 -4.9790703644906529e+00 -6.3657873301340384e-01)	(3.3390312423735125e+01 2.2713862496615886e-01 -1.0539375405830016e-02)
0.442857                	(4.0804131824360340e+01 -4.4228459201905164e+00 5.9217574232612458e-01)	(7.4916505417464769e+00 -4.6476196023843244e+00 6.2053594365615383e-01)	(3.3312481282613859e+01 2.2477368219380842e-01 -2.8360201330029276e-02)
0.447619                	(4.0582387040870074e+01 -4.1427849898571116e+00 1.4035998143179234e+00)	(7.3458931178315430e+00 -4.3589257466146707e+00 1.4434034629026311e+00)	(3.3236493923038530e+01 2.1614075675755884e-01 -3.9803648584707745e-02)
0.452381                	(4.0635800735437499e+01 -4.2083173619508312e+00 1.6762077746132413e+00)	(7.4725447730238379e+00 -4.4171214690306915e+00 1.7231734582520264e+00)	(3.3163255962413665e+01 2.0880410707986052e-01 -4.6965683638785047e-02)
0.457143                	(4.0401624734398212e+01 -4.3153755997646375e+00 1.1019885408442138e+00)	(7.3108115656403836e+00 -4.5159835030990481e+00 1.1457041174019491e+00)	(3.3090813168757826e+01 2.0060790333441039e-01 -4.3715576557735329e-02)
0.461905                	(4.0481882649108499e+01 -4.6350870696009761e+00 8.6572198691466784e-01)	(7.4667011404337247e+00 -4.8377962902638902e+00 9.0103038673203006e-01)	(3.3015181508674772e+01 2.0270922066291464e-01 -3.5308399817362238e-02)
0.466667                	(4.0048414629680785e+01 -4.6146955043327820e+00 6.7136169197868101e-01)	(7.0938007868642057e+00 -4.8139735893820319e+00 6.9238373389012275e-01)	(3.2954613842816578e+01 1.9927808504924999e-01 -2.1022041911441761e-02)
0.471429                	(4.0025346427546538e+01 -4.6443578924638400e+00 2.8729184903449170e+00)	(7.1306822038675310e+00 -4.8360641668924682e+00 2.8976604209274002e+00)	(3.2894664223679008e+01 1.9170627442862848e-01 -2.4741930582483258e-02)
0.47619                 	(3.9964046509856409e+01 -4.6107633035962445e+00 2.3700932217226942e+00)	(7.1306932546135604e+00 -4.7977437172298751e+00 2.3958176649584422e+00)	(3.2833353255242848e+01 1.8698041363363044e-01 -2.5724443235747997e-02)
0.480952                	(3.9934715247312916e+01 -4.5741441527940152e+00 2.7225766015584143e+00)	(7.1582633535946423e+00 -4.7580974512773970e+00 2.7456349145042758e+00)	(3.2776451893718274e+01 1.8395329848338204e-01 -2.3058312945861317e-02)
0.485714                	(3.9863905441372438e+01 -4.2688279234842277e+00 3.0620481158340822e+00)	(7.1456076463171225e+00 -4.4492500846714691e+00 3.0738310223080241e+00)	(3.2718297795055314e+01 1.8042216118724103e-01 -1.1782906473941767e-02)
0.490476                	(3.9917087779461113e+01 -4.6862954889060200e+00 2.3582741423589195e+00)	(7.2558379654902456e+00 -4.8636498902321676e+00 2.3427882696893083e+00)	(3.2661249813970869e+01 1.7735440132614769e-01 1.5485872669611329e-02)
0.495238                	(3.9916861979128406e+01 -4.5788665082761746e+00 3.0010512796144018e+00)	(7.3121400922786153e+00 -4.7542215028304859e+00 2.9564785154621904e+00)	(3.2604721886849788e+01 1.7535499455431172e-01 4.4572764152211154e-02)
0.5                     	(3.9961052612693898e+01 -4.7377438292085499e+00 2.6458118236826258e+00)	(7.4166684247665247e+00 -4.9137332734226584e+00 2.5734651687216843e+00)	(3.2544384187927371e+01 1.7598944421410889e-01 7.2346654960941559e-02)
0.504762                	(4.0063603628681712e+01 -4.7923852826296054e+00 2.3678936986070624e+00)	(7.5774849140908085e+00 -4.9623484524526358e+00 2.2758283740760965e+00)	(3.2486118714590901e+01 1.6996316982303072e-01 9.2065324530965859e-02)
0.509524                	(4.0012984413167878e+01 -4.8317558661379740e+00 6.0139810547745798e-01)	(7.5881811040441676e+00 -4.9956342290276652e+00 4.8216377329525151e-01)	(3.2424803309123710e+01 1.6387836288969126e-01 1.1923433218220642e-01)
0.514286                	(3.9872168844684140e+01 -4.7620731333851278e+00 1.9452338695229650e+00)	(7.5078129866013095e+00 -4.9228028818765486e+00 1.8104138132069574e+00)	(3.2364355858082831e+01 1.6072974849142060e-01 1.3482005631600749e-01)
0.519048                	(3.9882965337287125e+01 -4.5522099488184882e+00 3.4598947557046613e+00)	(7.5791565444727693e+00 -4.7102226117651513e+00 3.3220307486283511e+00)	(3.2303808792814358e+01 1.5801266294666347e-01 1.3786400707631027e-01)
0.52381                 	(3.9750434710890950e+01 -4.5764020854480636e+00 3.3096073139408633e+00)	(7.5083367692689063e+00 -4.7370380574580855e+00 3.1706004738731757e+00)	(3.2242097941622042e+01 1.6063597201002230e-01 1.3900684006768779e-01)
0.528571                	(3.9589661767640990e+01 -4.3916161847803501e+00 3.7648127135482303e+00)	(7.4077435451669027e+00 -4.5586615939354260e+00 3.6469572295922421e+00)	(3.2181918222474089e+01 1.6704540915507582e-01 1.1785548395598808e-01)
0.533333                	(3.9502009816707591e+01 -4.4033795264308351e+00 4.5498541716952943e+00)	(7.3785099725388106e+00 -4.5695614329323151e+00 4.4540137685872851e+00)	(3.2123499844168784e+01 1.6618190650147971e-01 9.5840403108009120e-02)
0.538095                	(3.9636955527841835e+01 -4.4025818911780199e+00 4.8546908765455594e+00)	(7.5664204860871678e+00 -4.5710503218454095e+00 4.7871147846179030e+00)	(3.2070535041754667e+01 1.6846843066738998e-01 6.7576091927656831e-02)
0.542857                	(3.9173796274086229e+01 -4.1402173297051093e+00 2.8331548981123529e+00)	(7.1532418797392046e+00 -4.3111481577572901e+00 2.7735358730682140e+00)	(3.2020554394347023e+01 1.7093082805218041e-01 5.9619025044138775e-02)
0.547619                	(3.9107735218763985e+01 -4.0721632451504473e+00 3.5655761213211470e+00)	(7.1334274884586915e+00 -4.2523066497576290e+00 3.5127791388721232e+00)	(3.1974307730305291e+01 1.8014340460718176e-01 5.2796982449023915e-02)
0.552381                	(3.9365222056827513e+01 -4.4720893924000480e+00 3.5619238262648181e+00)	(7.4439581231702672e+00 -4.6694778909425185e+00 3.5198669866965302e+00)	(3.1921263933657247e+01 1.9738849854247079e-01 4.2056839568287666e-02)