# Moment                
# CofR                  : (0.0000000000000000e+00 0.0000000000000000e+00 0.0000000000000000e+00)
#
# Time                  	(total_x total_y total_z)	(pressure_x pressure_y pressure_z)	(viscous_x viscous_y viscous_z)
0.00434783              	(1.0712477537502552e+01 -1.9328143512342550e+01 -2.1185675764355069e+03)	(1.0634573731496822e+01 -2.4513146295236272e+01 -1.9992145738336496e+03)	(7.7903806005730242e-02 5.1850027828937213e+00 -1.1935300260185709e+02)
0.00869565              	(5.9654856819443145e+00 7.1922851962961722e+00 -2.0131437019575856e+02)	(5.9081643208488961e+00 2.0540456694305300e+00 -8.3916941832091808e+01)	(5.7321361095418730e-02 5.1382395268656422e+00 -1.1739742836366673e+02)
0.0130435               	(1.1988690683976534e+01 -9.5824983510260218e+00 -2.0548501533699590e+02)	(1.1891078743948478e+01 -1.4556503933766056e+01 -8.9920404161097593e+01)	(9.7611940028056038e-02 4.9740055827400340e+00 -1.1556461117589831e+02)
0.0173913               	(1.3571165361326688e+01 -1.6719813839773408e+01 -2.0656155455028261e+02)	(1.3425889263268253e+01 -2.1553772858757647e+01 -9.2747527090045750e+01)	(1.4527609805843583e-01 4.8339590189842401e+00 -1.1381402746023687e+02)
0.0217391               	(1.0522793573161467e+01 -1.1032790737214906e+01 -2.0767635878770363e+02)	(1.0352725043029681e+01 -1.5767925064562679e+01 -9.5529943117469571e+01)	(1.7006853013178538e-01 4.7351343273477724e+00 -1.1214641567023406e+02)
0.026087                	(1.1598095500633150e+01 -1.4639235014975089e+01 -2.0593460498516509e+02)	(1.1403138746354026e+01 -1.9268421837768436e+01 -9.5325173172730544e+01)	(1.9495675427912434e-01 4.6291868227933461e+00 -1.1060943181243456e+02)
0.0304348               	(1.6851755351970130e+01 -2.6944558107173936e+01 -2.0819614553894115e+02)	(1.6602111909301723e+01 -3.1377492367877263e+01 -9.9022606489684762e+01)	(2.4964344266840896e-01 4.4329342607033269e+00 -1.0917353904925641e+02)
0.0347826               	(1.4910322933060479e+01 -2.2276222765689731e+01 -2.0515502866246300e+02)	(1.4623020199325687e+01 -2.6574939468565223e+01 -9.7302150802776580e+01)	(2.8730273373479243e-01 4.2987167028754909e+00 -1.0785287785968642e+02)
0.0391304               	(1.6111758681569292e+01 -2.6689133608598542e+01 -2.0286512449264086e+02)	(1.5803875154808239e+01 -3.0887100724121662e+01 -9.6201731456806286e+01)	(3.0788352676105118e-01 4.1979671155231211e+00 -1.0666339303583457e+02)
0.0434783               	(1.8713673889353156e+01 -3.3087677631766361e+01 -2.0000035883870839e+02)	(1.8398757062407434e+01 -3.7202200069670930e+01 -9.4441888924921813e+01)	(3.1491682694572104e-01 4.1145224379045695e+00 -1.0555846991378660e+02)
0.0478261               	(1.8275850750970513e+01 -3.2830173444662655e+01 -1.9786428125746141e+02)	(1.7940294801334993e+01 -3.6863903890583245e+01 -9.3310111336305013e+01)	(3.3555594963551932e-01 4.0337304459205923e+00 -1.0455416992115639e+02)
0.0521739               	(2.6722377630190401e+01 -5.0719198216639860e+01 -1.9489541385859133e+02)	(2.6360421631034789e+01 -5.4632153811969737e+01 -9.1258330767888481e+01)	(3.6195599915561111e-01 3.9129555953298731e+00 -1.0363708309070283e+02)
0.0565217               	(2.7995982004180735e+01 -5.3759981269563426e+01 -1.8723632779503231e+02)	(2.7660879759973689e+01 -5.7679495550525736e+01 -8.4407988047950056e+01)	(3.3510224420704593e-01 3.9195142809623134e+00 -1.0282833974708225e+02)
0.0608696               	(2.4156886562861974e+01 -4.4110936392575645e+01 -1.8260010371916215e+02)	(2.3851685193889612e+01 -4.8059022119337406e+01 -8.0510299273262177e+01)	(3.0520136897236255e-01 3.9480857267617595e+00 -1.0208980444589997e+02)
0.0652174               	(1.7330702911226751e+01 -3.0862198177008466e+01 -1.7901828834415537e+02)	(1.7030836324597814e+01 -3.4810978107272895e+01 -7.7595747552262935e+01)	(2.9986658662893806e-01 3.9487799302644286e+00 -1.0142254079189243e+02)
0.0695652               	(1.6785559586865652e+01 -3.2882054921269358e+01 -1.7289739911212422e+02)	(1.6465229755638333e+01 -3.6780098327400950e+01 -7.2086880214426643e+01)	(3.2032983122731917e-01 3.8980434061315918e+00 -1.0081051889769756e+02)
0.073913                	(1.6721019182812334e+01 -3.1935037416961791e+01 -1.6901357790536966e+02)	(1.6368016088207369e+01 -3.5755342585485735e+01 -6.8789561160226995e+01)	(3.5300309460496571e-01 3.8203051685239449e+00 -1.0022401674514266e+02)
0.0782609               	(1.7422478961842103e+01 -3.3680786324302531e+01 -1.6703991042645615e+02)	(1.7036055084149577e+01 -3.7419532765372537e+01 -6.7419517452569380e+01)	(3.8642387769252384e-01 3.7387464410700035e+00 -9.9620392973886766e+01)
0.0826087               	(1.6655661332705616e+01 -3.0534103201408449e+01 -1.6213627418677527e+02)	(1.6259176124044995e+01 -3.4245049390123491e+01 -6.3112408521771663e+01)	(3.9648520866061993e-01 3.7109461887150412e+00 -9.9023865665003612e+01)
0.0869565               	(1.2343031476057771e+01 -2.1197788352182805e+01 -1.6122012147467257e+02)	(1.1936680480573509e+01 -2.4896158783334265e+01 -6.2797573612056979e+01)	(4.0635099548426279e-01 3.6983704311514591e+00 -9.8422547862615588e+01)
0.0913043               	(1.2115802149469390e+01 -2.2945913231933758e+01 -1.5769798825579966e+02)	(1.1713870068928523e+01 -2.6635769167206576e+01 -5.9875470386557801e+01)	(4.0193208054086726e-01 3.6898559352728189e+00 -9.7822517869241850e+01)
0.0956522               	(1.1830979993305005e+01 -2.2896815196719352e+01 -1.5409242336098328e+02)	(1.1429728523510732e+01 -2.6583121741622278e+01 -5.6817740104808109e+01)	(4.0125146979427290e-01 3.6863065449029282e+00 -9.7274683256175180e+01)
0.1                     	(1.1753122415562643e+01 -2.2518987322516811e+01 -1.5297388321677914e+02)	(1.1343105591472906e+01 -2.6180029720687564e+01 -5.6230824821421848e+01)	(4.1001682408973733e-01 3.6610423981707525e+00 -9.6743058395357309e+01)
0.104348                	(1.3522715527596306e+01 -2.7406719606626119e+01 -1.5309627917631315e+02)	(1.3093125131550567e+01 -3.1024724965725600e+01 -5.6852058815391437e+01)	(4.2959039604573929e-01 3.6180053590994810e+00 -9.6244220360921716e+01)
0.108696                	(1.0998813107556614e+01 -2.5302606137586892e+01 -1.5107931072286522e+02)	(1.0554999513725813e+01 -2.8894267767951852e+01 -5.5360434956771527e+01)	(4.4381359383080221e-01 3.5916616303649609e+00 -9.5718875766093674e+01)
0.113043                	(1.0990428279413512e+01 -2.3380980443766568e+01 -1.4838092739555694e+02)	(1.0563832590376862e+01 -2.6982466535608101e+01 -5.3204352173510472e+01)	(4.2659568903665140e-01 3.6014860918415348e+00 -9.5176575222046466e+01)
0.117391                	(1.2280559317760529e+01 -2.5069796684819188e+01 -1.4850562061242985e+02)	(1.1889968447712516e+01 -2.8680279952433054e+01 -5.3887185261201189e+01)	(3.9059087004801396e-01 3.6104832676138670e+00 -9.4618435351228655e+01)
0.121739                	(1.2010619056179262e+01 -2.2232342007789750e+01 -1.4505894925815832e+02)	(1.1670712219030072e+01 -2.5851307039856930e+01 -5.0987408846059502e+01)	(3.3990683714918946e-01 3.6189650320671811e+00 -9.4071540412098813e+01)
0.126087                	(1.2852619793186379e+01 -2.5640070736188409e+01 -1.4368415611017255e+02)	(1.2590161049283212e+01 -2.9348159572378538e+01 -5.0168630883422388e+01)	(2.6245874390316792e-01 3.7080888361901274e+00 -9.3515525226750171e+01)
0.130435                	(1.7779201397431219e+01 -3.3544601143040076e+01 -1.4605168941242900e+02)	(1.7614286533936120e+01 -3.7388225082077241e+01 -5.3072982481820397e+01)	(1.6491486349510062e-01 3.8436239390371658e+00 -9.2978706930608610e+01)
0.134783                	(1.3600361592999734e+01 -2.6743887898322583e+01 -1.4544585953867829e+02)	(1.3517701068254487e+01 -3.0738661423635644e+01 -5.2987202567626497e+01)	(8.2660524745247710e-02 3.9947735253130592e+00 -9.2458656971051781e+01)
0.13913                 	(1.3413094158446889e+01 -2.5396306055433151e+01 -1.4202248440992989e+02)	(1.3340440198038714e+01 -2.9379342440401928e+01 -5.0052335487756054e+01)	(7.2653960408175483e-02 3.9830363849687758e+00 -9.1970148922173834e+01)
0.143478                	(1.4366508710964668e+01 -2.5635438258611472e+01 -1.4363397432084616e+02)	(1.4297662142317341e+01 -2.9606258822566787e+01 -5.2146847665446970e+01)	(6.8846568647327966e-02 3.9708205639553142e+00 -9.1487126655399180e+01)
0.147826                	(1.1390745360974238e+01 -1.9077152895149101e+01 -1.4131946457795513e+02)	(1.1337426012457167e+01 -2.3076640566378373e+01 -5.0287182061782694e+01)	(5.3319348517070903e-02 3.9994876712292715e+00 -9.1032282516172430e+01)
0.152174                	(1.3072201479988236e+01 -2.3765694572217182e+01 -1.4189531235618500e+02)	(1.3030539564645357e+01 -2.7807930966776464e+01 -5.1278143374987607e+01)	(4.1661915342879122e-02 4.0422363945592812e+00 -9.0617168981197409e+01)
0.156522                	(1.2302660194640229e+01 -2.1530589036981674e+01 -1.3955174676812416e+02)	(1.2258952184078673e+01 -2.5584483203850741e+01 -4.9307331413739206e+01)	(4.3708010561555363e-02 4.0538941668690676e+00 -9.0244415354384955e+01)
0.16087                 	(1.2587373727232142e+01 -1.8341559425753331e+01 -1.3998716084029641e+02)	(1.2561303338777144e+01 -2.2421123021806217e+01 -5.0123110147674140e+01)	(2.6070388454998358e-02 4.0795635960528873e+00 -8.9864050692622271e+01)
0.165217                	(1.5352524770527305e+01 -2.2174555280243823e+01 -1.4081718281502526e+02)	(1.5333352973212348e+01 -2.6213955020038807e+01 -5.1351286001719224e+01)	(1.9171797314956607e-02 4.0393997397949830e+00 -8.9465896813306031e+01)
0.169565                	(1.1003626110277967e+01 -1.3581694808481695e+01 -1.4119702673156002e+02)	(1.0965490708807739e+01 -1.7569740688502161e+01 -5.2121262015175077e+01)	(3.8135401470228189e-02 3.9880458800204668e+00 -8.9075764716384953e+01)
0.173913                	(6.9549271889635884e+00 -4.9658292341548069e+00 -1.4232026823212067e+02)	(6.8766060591888509e+00 -8.8537743701185789e+00 -5.3635866848013805e+01)	(7.8321129774737666e-02 3.8879451359637724e+00 -8.8684401384106877e+01)
0.178261                	(9.6492908363157941e+00 -1.0898224423705267e+01 -1.4087247182886796e+02)	(9.5200123348090475e+00 -1.4674754111673170e+01 -5.2574788255182511e+01)	(1.2927850150674683e-01 3.7765296879679036e+00 -8.8297683573685461e+01)
0.182609                	(1.0254736492158951e+01 -1.4618043283117629e+01 -1.4060326513607225e+02)	(1.0076830486585921e+01 -1.8283133864703565e+01 -5.2686513723527433e+01)	(1.7790600557303027e-01 3.6650905815859369e+00 -8.7916751412544826e+01)
0.186957                	(6.9693353003116236e+00 -7.8183924999972811e+00 -1.4039909279925365e+02)	(6.7492065822643115e+00 -1.1379482835913391e+01 -5.2824756253195083e+01)	(2.2012871804731210e-01 3.5610903359161101e+00 -8.7574336546058561e+01)
0.191304                	(9.2808340143886241e+00 -1.7307587009538597e+01 -1.3857444008178010e+02)	(9.0148945972392269e+00 -2.0745427174088078e+01 -5.1345037486810007e+01)	(2.6593941714939712e-01 3.4378401645494816e+00 -8.7229402594970097e+01)
0.195652                	(1.1125152467025112e+01 -1.8540798706613209e+01 -1.3564612319062877e+02)	(1.0848867437619916e+01 -2.1914355715277999e+01 -4.8710638984261166e+01)	(2.7628502940519550e-01 3.3735570086647888e+00 -8.6935484206367590e+01)
0.2                     	(1.2490907033807247e+01 -2.0050806684065908e+01 -1.3798861056117889e+02)	(1.2224129380255812e+01 -2.3386323421441926e+01 -5.1346153844876845e+01)	(2.6677765355143401e-01 3.3355167373760195e+00 -8.6642456716302036e+01)
0.204545                	(1.3073334305693091e+01 -2.5751820008011865e+01 -1.3598773677541564e+02)	(1.2829380752518968e+01 -2.9128638776207744e+01 -4.9561249980650864e+01)	(2.4395355317412221e-01 3.3768187681958799e+00 -8.6426486794764770e+01)
0.209091                	(1.1082250206819518e+01 -2.3666109083538696e+01 -1.3509363800375473e+02)	(1.0872726482705072e+01 -2.7087302013195803e+01 -4.8889475504097746e+01)	(2.0952372411444622e-01 3.4211929296571051e+00 -8.6204162499656988e+01)
0.213636                	(1.5384919404042080e+01 -3.2555148429080504e+01 -1.3218550126799491e+02)	(1.5209268752577763e+01 -3.6015488322668830e+01 -4.6181956903042362e+01)	(1.7565065146431569e-01 3.4603398935883258e+00 -8.6003544364952546e+01)
0.218182                	(1.4155674274905195e+01 -2.9428802325874067e+01 -1.3313263881959486e+02)	(1.3980142566712331e+01 -3.2846727194308194e+01 -4.7340996022080226e+01)	(1.7553170819286312e-01 3.4179248684341261e+00 -8.5791642797514626e+01)
0.222727                	(1.3698886364506647e+01 -2.6943706021283873e+01 -1.3243145384095976e+02)	(1.3518528132247440e+01 -3.0295804734208662e+01 -4.6818098254121438e+01)	(1.8035823225920780e-01 3.3520987129247910e+00 -8.5613355586838324e+01)
0.227273                	(1.4676596237061213e+01 -2.8425380173646484e+01 -1.3220108692230752e+02)	(1.4478636734275558e+01 -3.1699218511022046e+01 -4.6794708849763794e+01)	(1.9795950278565611e-01 3.2738383373755613e+00 -8.5406378072543717e+01)
0.231818                	(1.2843326926595099e+01 -2.3213121919595373e+01 -1.2958136014982665e+02)	(1.2622783702761996e+01 -2.6390003195077817e+01 -4.4351827189118396e+01)	(2.2054322383310254e-01 3.1768812754824434e+00 -8.5229532960708269e+01)
0.236364                	(1.3091511932927331e+01 -2.5503153583844771e+01 -1.3001416098535520e+02)	(1.2854403324301053e+01 -2.8602884230836064e+01 -4.4942637073397435e+01)	(2.3710860862627831e-01 3.0997306469912926e+00 -8.5071523911957783e+01)
0.240909                	(9.8881287961218636e+00 -1.9200613500866652e+01 -1.2844592210793078e+02)	(9.6044270485724486e+00 -2.2178993903095204e+01 -4.3504325326656875e+01)	(2.8370174754941557e-01 2.9783804022285514e+00 -8.4941596781273901e+01)
0.245455                	(9.5755000370166954e+00 -1.6677778109980878e+01 -1.2941429985644430e+02)	(9.2534481796178589e+00 -1.9529564377432500e+01 -4.4598500295593439e+01)	(3.2205185739883607e-01 2.8517862674516232e+00 -8.4815799560850863e+01)
0.25                    	(9.1309455245012732e+00 -1.4871726635606873e+01 -1.2922512907967661e+02)	(8.7565905273171722e+00 -1.7576934401455983e+01 -4.4563580637308256e+01)	(3.7435499718410026e-01 2.7052077658491096e+00 -8.4661548442368343e+01)
0.254545                	(8.6950582722176950e+00 -1.4590116916549334e+01 -1.2912506816361403e+02)	(8.2636652236763872e+00 -1.7145800492583739e+01 -4.4623403854295610e+01)	(4.3139304854130744e-01 2.5556835760344034e+00 -8.4501664309318429e+01)
0.259091                	(7.8406361117111603e+00 -1.2289249605939638e+01 -1.2912518586521901e+02)	(7.3772340689524691e+00 -1.4767168375664376e+01 -4.4810318127572515e+01)	(4.6340204275869107e-01 2.4779187697247376e+00 -8.4314867737646509e+01)
0.263636                	(4.7611964542606371e+00 -6.6005245928219569e+00 -1.2863407647769600e+02)	(4.2813271423780339e+00 -9.0673676773808065e+00 -4.4550893886903282e+01)	(4.7986931188260296e-01 2.4668430845588492e+00 -8.4083182590792731e+01)
0.268182                	(3.3518501928194446e+00 -1.6157866784362431e+00 -1.2891154357961767e+02)	(2.8579459191021193e+00 -4.0548879000206401e+00 -4.5072490561395924e+01)	(4.9390427371732537e-01 2.4391012215843970e+00 -8.3839053018221747e+01)
0.272727                	(4.7362966897543650e+00 -3.1841462030053727e+00 -1.2986862640608982e+02)	(4.2477609107397925e+00 -5.6293174985332390e+00 -4.6323820263610493e+01)	(4.8853577901457279e-01 2.4451712955278664e+00 -8.3544806142479331e+01)
0.277273                	(4.4666644410613507e+00 -3.6190623591960303e+00 -1.2921373996583907e+02)	(3.9800243644260500e+00 -6.0654349667788603e+00 -4.5950352031217605e+01)	(4.8664007663530040e-01 2.4463726075828300e+00 -8.3263387934621448e+01)
0.281818                	(1.3027528782849891e+00 1.6570882541443748e+00 -1.2801771518176355e+02)	(8.4144442112879880e-01 -8.3305820657765306e-01 -4.5055516897413526e+01)	(4.6130845715619034e-01 2.4901464607220278e+00 -8.2962198284350009e+01)
0.286364                	(5.2443706703749815e-01 6.7074321962325065e+00 -1.2844110174101706e+02)	(4.2655024765857918e-02 4.2606755952204773e+00 -4.5805045182595855e+01)	(4.8178204227164023e-01 2.4467566010120292e+00 -8.2636056558421217e+01)
0.290909                	(2.2523633270427781e+00 2.5373083099577607e+00 -1.2940721329027747e+02)	(1.7528135705092811e+00 1.1994172039021633e-01 -4.7086504685674882e+01)	(4.9954975653349704e-01 2.4173665895675445e+00 -8.2320708604602586e+01)
0.293939                	(-2.3719991774806681e+00 1.3760054114678184e+01 -1.2787884624638596e+02)	(-2.8869191998019517e+00 1.1362304770139181e+01 -4.5734003125897672e+01)	(5.1492002232128364e-01 2.3977493445390028e+00 -8.2144843120488289e+01)
0.29697                 	(6.9611120620034561e-01 2.7869075936670864e+00 -1.2237961841544927e+02)	(1.9582365943096125e-01 3.4490475175643964e-01 -4.0397586828326126e+01)	(5.0028754676938436e-01 2.4420028419106470e+00 -8.1982031587123146e+01)
0.3                     	(8.7171489841390439e+00 -1.4198125266067709e+01 -1.2230662108094018e+02)	(8.2401035066878219e+00 -1.6699930251330148e+01 -4.0489541940636173e+01)	(4.7704547745122283e-01 2.5018049852624391e+00 -8.1817079140304003e+01)
0.303448                	(1.1365934525288170e+01 -1.9526906814632667e+01 -1.2174348204317194e+02)	(1.0891648926209152e+01 -2.2060412084849254e+01 -4.0121742265118428e+01)	(4.7428559907901685e-01 2.5335052702165877e+00 -8.1621739778053509e+01)
0.30731                 	(1.3057956298268234e+01 -2.3874914348640313e+01 -1.2143701175678432e+02)	(1.2590764526223300e+01 -2.6423977948644740e+01 -4.0043149277695946e+01)	(4.6719177204493356e-01 2.5490636000044273e+00 -8.1393862479088369e+01)
0.311724                	(1.1901949375733331e+01 -2.2193908999241508e+01 -1.2019355114135476e+02)	(1.1453544138573378e+01 -2.4775486846109533e+01 -3.8984050513326807e+01)	(4.4840523715995362e-01 2.5815778468680248e+00 -8.1209500628027953e+01)
0.316628                	(1.4713889125451486e+01 -2.9277890659690978e+01 -1.1970200197871019e+02)	(1.4242932650585162e+01 -3.1812617988638969e+01 -3.8681348877261257e+01)	(4.7095647486632325e-01 2.5347273289479908e+00 -8.1020653101448929e+01)
0.321533                	(7.2597099983241469e+00 -1.4138111380380375e+01 -1.1907457794078789e+02)	(6.7551918989667952e+00 -1.6626598082801742e+01 -3.8242950029519392e+01)	(5.0451809935735159e-01 2.4884867024213673e+00 -8.0831627911268498e+01)
0.326437                	(9.1224343370597580e+00 -1.8893908850092689e+01 -1.1912694107684864e+02)	(8.6042080722661858e+00 -2.1374731752834577e+01 -3.8516421757978321e+01)	(5.1822626479357226e-01 2.4808229027418887e+00 -8.0610519318870317e+01)
0.331341                	(7.9064462824390862e+00 -1.4519123886264889e+01 -1.1911441429717061e+02)	(7.3879424546584014e+00 -1.6987762848735880e+01 -3.8736681552874408e+01)	(5.1850382778068504e-01 2.4686389624709895e+00 -8.0377732744296196e+01)
0.335918                	(1.1739029112006346e+01 -2.7219877133957350e+01 -1.1941384376140380e+02)	(1.1227883823063959e+01 -2.9687732302767380e+01 -3.9216919373225956e+01)	(5.1114528894238809e-01 2.4678551688100305e+00 -8.0196924388177834e+01)
0.340496                	(8.0285029931895373e+00 -1.7271310772116884e+01 -1.2090435257921095e+02)	(7.5785141580621049e+00 -1.9841102767498683e+01 -4.0949780402915586e+01)	(4.4998883512743326e-01 2.5697919953817969e+00 -7.9954572176295358e+01)
0.345073                	(8.2216527351824435e+00 -1.7867327170540150e+01 -1.1991382172220365e+02)	(7.8444729809749276e+00 -2.0578422693909680e+01 -4.0189782580952198e+01)	(3.7717975420751665e-01 2.7110955233695293e+00 -7.9724039141251453e+01)
0.34965                 	(6.3752523409510546e+00 -1.6476604373949755e+01 -1.1943400571495810e+02)	(6.0793222978248114e+00 -1.9382319470623852e+01 -3.9938666754767269e+01)	(2.9593004312624321e-01 2.9057150966740988e+00 -7.9495338960190836e+01)
0.354227                	(9.1342025454334426e+00 -2.3217503588497550e+01 -1.2101719707422195e+02)	(8.8678043915959037e+00 -2.6214981909603210e+01 -4.1725293265178507e+01)	(2.6639815383753812e-01 2.9974783211056621e+00 -7.9291903809043447e+01)
0.358805                	(7.9588670367338370e+00 -1.7354764057593005e+01 -1.1991484055476150e+02)	(7.7046729537978322e+00 -2.0379124215613377e+01 -4.0811334409706042e+01)	(2.5419408293600498e-01 3.0243601580203712e+00 -7.9103506145055462e+01)
0.363382                	(8.9365815040279593e+00 -1.9587423442585468e+01 -1.2046140222162386e+02)	(8.6832737213492148e+00 -2.2647784636866305e+01 -4.1445358988553110e+01)	(2.5330778267874526e-01 3.0603611942808384e+00 -7.9016043233070747e+01)
0.367959                	(7.0204602613380036e+00 -1.1947072508730589e+01 -1.1995535425043296e+02)	(6.7776605181497072e+00 -1.5023106354102682e+01 -4.1032506399664555e+01)	(2.4279974318829620e-01 3.0760338453720939e+00 -7.8922847850768406e+01)
0.372536                	(9.5884901471450927e+00 -1.5029629221630939e+01 -1.2036332904457774e+02)	(9.3854497466066586e+00 -1.8158844419892620e+01 -4.1524462059675265e+01)	(2.0304040053843367e-01 3.1292151982616816e+00 -7.8838866984902481e+01)
0.377114                	(8.6426710817893451e+00 -1.0667072481745501e+01 -1.2113876488618860e+02)	(8.4769864654503522e+00 -1.3816854835781356e+01 -4.2429075167314352e+01)	(1.6568461633899287e-01 3.1497823540358549e+00 -7.8709689718874245e+01)
0.381691                	(6.0787775420623218e+00 -4.1027494392157600e+00 -1.2047629281275752e+02)	(5.8934508718902485e+00 -7.1953724113143780e+00 -4.1807824105726354e+01)	(1.8532667017207308e-01 3.0926229720986185e+00 -7.8668468707031167e+01)
0.386268                	(5.5849938699875494e+00 -3.5582940628282698e+00 -1.2074121801259753e+02)	(5.4017557204257356e+00 -6.6442739535033670e+00 -4.2180154821174931e+01)	(1.8323814956181417e-01 3.0859798906750973e+00 -7.8561063191422591e+01)
0.390845                	(4.9794794211508133e+00 -4.7707589668308792e-01 -1.2025358426056727e+02)	(4.7936979541739442e+00 -3.5420855638393904e+00 -4.1804751740214606e+01)	(1.8578146697686890e-01 3.0650096671563025e+00 -7.8448832520352653e+01)
0.395423                	(4.5701750714980980e+00 -9.6402225023186094e-01 -1.2007260970808662e+02)	(4.3507418221041299e+00 -3.9562671370357809e+00 -4.1744752474045448e+01)	(2.1943324939396780e-01 2.9922448868039200e+00 -7.8327857234041161e+01)
0.4                     	(4.0800624981627394e+00 -1.3741475680382647e+00 -1.1984928388998300e+02)	(3.8513048580398221e+00 -4.3680701587724329e+00 -4.1673141127200907e+01)	(2.2875764012291733e-01 2.9939225907341682e+00 -7.8176142762782092e+01)
0.404762                	(5.2198945003826758e+00 -3.1188438519786943e+00 -1.1980000514217211e+02)	(4.9893836540314469e+00 -6.1463700077269410e+00 -4.1755612306267821e+01)	(2.3051084635122923e-01 3.0275261557482467e+00 -7.8044392835904290e+01)
0.409524                	(2.0554951030961583e+00 4.5734719078399628e+00 -1.2022207978362636e+02)	(1.8161020918099258e+00 1.5599477736461083e+00 -4.2375794210304512e+01)	(2.3939301128623264e-01 3.0135241341938546e+00 -7.7846285573321836e+01)
0.414286                	(3.1036949906869236e+00 4.4441931674338946e+00 -1.1946444379115754e+02)	(2.8679517531063206e+00 1.4378328158572735e+00 -4.1810073341326941e+01)	(2.3574323758060281e-01 3.0063603515766206e+00 -7.7654370449830594e+01)
0.419048                	(2.5516085098238896e+00 4.3698712409502978e+00 -1.1712360524433413e+02)	(2.3318116959037671e+00 1.3451654222757561e+00 -3.9633124425422459e+01)	(2.1979681392012229e-01 3.0247058186745415e+00 -7.7490480818911664e+01)
0.42381                 	(2.3512319748109825e+00 1.8718230608768738e+00 -1.1770944682645526e+02)	(2.1858635935794384e+00 -1.2326647650145217e+00 -4.0425620012909057e+01)	(1.6536838123154404e-01 3.1044878258913955e+00 -7.7283826813546213e+01)
0.428571                	(4.5983430558535208e+00 -2.8737676198518218e+00 -1.1710906961211381e+02)	(4.4621135279447142e+00 -5.9999296879780122e+00 -4.0016824312457068e+01)	(1.3622952790880685e-01 3.1261620681261904e+00 -7.7092245299656739e+01)
0.433333                	(7.6114993234053951e-01 3.3382286259543266e+00 -1.1481152432485858e+02)	(6.3441346649292230e-01 2.1307851751615503e-01 -3.7906104043009350e+01)	(1.2673646584761716e-01 3.1251501084381714e+00 -7.6905420281849231e+01)
0.438095                	(2.5556797981597945e-01 2.8929667167655770e+00 -1.1494309063249750e+02)	(1.5374786757485320e-01 -2.4279402654712345e-01 -3.8219251334086437e+01)	(1.0182011224112623e-01 3.1357607433127006e+00 -7.6723839298411065e+01)
0.442857                	(2.1744879456462383e+00 -1.4709573262503044e+00 -1.1417663962216520e+02)	(2.1134917502403012e+00 -4.6353526870908199e+00 -3.7626900649555616e+01)	(6.0996195405936857e-02 3.1643953608405155e+00 -7.6549738972609589e+01)
0.447619                	(5.3843032381447280e+00 -8.3380685887275927e+00 -1.1235496258104439e+02)	(5.3279539983706181e+00 -1.1462561314319254e+01 -3.5934513477775546e+01)	(5.6349239774110008e-02 3.1244927255916610e+00 -7.6420449103268851e+01)
0.452381                	(7.0494285051043546e+00 -1.1129521450322198e+01 -1.1278399648300186e+02)	(6.9970320905582160e+00 -1.4191725597157813e+01 -3.6495013793397405e+01)	(5.2396414546139053e-02 3.0622041468356160e+00 -7.6288982689604453e+01)
0.457143                	(5.7503095346183750e+00 -8.2362246323849746e+00 -1.1312054548396486e+02)	(5.6721576085380496e+00 -1.1199829094010862e+01 -3.6936904820864200e+01)	(7.8151926080325340e-02 2.9636044616258888e+00 -7.6183640663100661e+01)
0.461905                	(6.2992092336496261e+00 -1.2725946451797638e+01 -1.1409474964542329e+02)	(6.1874709426018892e+00 -1.5580254570100777e+01 -3.8079095683220146e+01)	(1.1173829104773696e-01 2.8543081183031398e+00 -7.6015653962203146e+01)
0.466667                	(7.0641197512683602e+00 -1.6713305408244612e+01 -1.1381833060397665e+02)	(6.9146960086821307e+00 -1.9501775668630401e+01 -3.7909293485362852e+01)	(1.4942374258622984e-01 2.7884702603857909e+00 -7.5909037118613796e+01)
0.471429                	(1.1935847221301152e+01 -2.4176470028988717e+01 -1.1421126100906955e+02)	(1.1824556329338394e+01 -2.7047783970689398e+01 -3.8394109933877999e+01)	(1.1129089196275771e-01 2.8713139417006821e+00 -7.5817151075191546e+01)
0.47619                 	(9.0366651117328924e+00 -1.8097913650891869e+01 -1.1424894044439598e+02)	(8.9422757948557354e+00 -2.1021164188423256e+01 -3.8535315930208228e+01)	(9.4389316877156612e-02 2.9232505375313877e+00 -7.5713624514187757e+01)
0.480952                	(7.1297436065081756e+00 -1.3274151248469092e+01 -1.1316719546116863e+02)	(7.0496249173561765e+00 -1.6252295433762175e+01 -3.7546893042557073e+01)	(8.0118689151998740e-02 2.9781441852930817e+00 -7.5620302418611558e+01)
0.485714                	(8.7266407814559948e+00 -1.5945035153614086e+01 -1.1133290488877874e+02)	(8.6235974559030044e+00 -1.8885503097264262e+01 -3.5815957857362378e+01)	(1.0304332555299042e-01 2.9404679436501757e+00 -7.5516947031416365e+01)
0.490476                	(7.6666403841010631e+00 -1.3711849736609889e+01 -1.1384696143172218e+02)	(7.5118393775012189e+00 -1.6563226516710735e+01 -3.8447387616705470e+01)	(1.5480100659984397e-01 2.8513767801008454e+00 -7.5399573815016709e+01)
0.495238                	(9.0878599007452792e+00 -1.8057919848680513e+01 -1.1273675268574539e+02)	(8.8566603655289793e+00 -2.0790450192033919e+01 -3.7437910326148490e+01)	(2.3119953521630077e-01 2.7325303433534058e+00 -7.5298842359596890e+01)
0.5                     	(8.9555012358770334e+00 -1.6805256963146444e+01 -1.1368350884999623e+02)	(8.6598405994618055e+00 -1.9441222428806142e+01 -3.8522326859302737e+01)	(2.9566063641522744e-01 2.6359654656596985e+00 -7.5161181990693493e+01)
0.504762                	(7.6642136167522059e+00 -1.3669787839095164e+01 -1.1460530446420948e+02)	(7.3381887815157523e+00 -1.6291399559327623e+01 -3.9552265898146914e+01)	(3.2602483523645343e-01 2.6216117202324591e+00 -7.5053038566062568e+01)
0.509524                	(4.8336881748408462e+00 -6.3815562627241240e+00 -1.1348506135263410e+02)	(4.4378038648273845e+00 -8.8744628330689643e+00 -3.8554222034839810e+01)	(3.9588431001346175e-01 2.4929065703448403e+00 -7.4930839317794295e+01)
0.514286                	(4.9519639140855380e+00 -6.6973164283741342e+00 -1.1253814592299744e+02)	(4.5074090356181458e+00 -9.0853341878889129e+00 -3.7733731117591439e+01)	(4.4455487846739256e-01 2.3880177595147787e+00 -7.4804414805406012e+01)
0.519048                	(8.9621774599590864e+00 -1.3316167640432170e+01 -1.1147649405041022e+02)	(8.5170765775387647e+00 -1.5724263817147699e+01 -3.6819824723992426e+01)	(4.4510088242032153e-01 2.4080961767155298e+00 -7.4656669326417799e+01)
0.52381                 	(9.7780958973489458e+00 -1.6651031876509265e+01 -1.1095127118036221e+02)	(9.3376752808316077e+00 -1.9066130361394077e+01 -3.6474875384202491e+01)	(4.4042061651733844e-01 2.4150984848848100e+00 -7.4476395796159721e+01)
0.528571                	(1.0907104368176743e+01 -2.0029711630883526e+01 -1.0965932702207826e+02)	(1.0524760083973446e+01 -2.2580755343996202e+01 -3.5372683309440539e+01)	(3.8234428420329652e-01 2.5510437131126760e+00 -7.4286643712637712e+01)
0.533333                	(1.3242157277899597e+01 -2.4080199993471517e+01 -1.0892882866944595e+02)	(1.2916041102706858e+01 -2.6814914876281421e+01 -3.4750910467262756e+01)	(3.2611617519274011e-01 2.7347148828099046e+00 -7.4177918202183193e+01)
0.538095                	(9.6016687145561637e+00 -1.3885348465379927e+01 -1.0864818811590537e+02)	(9.3259362284212255e+00 -1.6747892236179695e+01 -3.4560337140437113e+01)	(2.7573248613493784e-01 2.8625437707997672e+00 -7.4087850975468257e+01)
0.542857                	(7.7890960498188901e+00 -1.2358019019021192e+01 -1.0654730157681755e+02)	(7.5396169266802460e+00 -1.5286955065120960e+01 -3.2536484012064776e+01)	(2.4947912313864398e-01 2.9289360460997669e+00 -7.4010817564752770e+01)
0.547619                	(9.8743744428251166e+00 -1.6856700834059890e+01 -1.0669096142584191e+02)	(9.6691592108470719e+00 -1.9899107305269688e+01 -3.2800857898682310e+01)	(2.0521523197804548e-01 3.0424064712097993e+00 -7.3890103527159596e+01)