/*--------------------------------*- C++ -*----------------------------------*\
| =========                 |                                                 |
| \\      /  F ield         | OpenFOAM: The Open Source CFD Toolbox           |
|  \\    /   O peration     | Version:  v1906                                 |
|   \\  /    A nd           | Web:      www.OpenFOAM.com                      |
|    \\/     M anipulation  |                                                 |
\*---------------------------------------------------------------------------*/
FoamFile
{
    version     2.0;
    format      ascii;
    class       surfaceScalarField;
    location    "1.8";
    object      phi;
}
// * * * * * * * * * * * * * * * * * * * * * * * * * * * * * * * * * * * * * //

dimensions      [0 3 -1 0 0 0 0];
oriented        oriented;


internalField   nonuniform List<scalar> 
37423
(
-0.1075843196821419
0.4197982606560828
-0.4558947274191901
0.1436807864984922
11.23323464844872
4.421199910803476
-15.65443455898322
1.588140149992343
2.847350371651834
-1.497203765618306
-2.938286756189717
0.6900907404292371
-1.200679243743519
0.5105885030100901
0.1172889493465355
-0.1671499417952124
0.02832048014418193
0.02154051223124875
0.04215956338133629
0.1565068922045585
0.2981154312840908
-0.4967818870869278
9.15528567498875
-4.571754410269622
-10.86307619794823
6.279544933192604
-0.0380813620934959
0.03860465255450964
-0.005491281868623609
0.004967991318147355
-0.1489069618527702
-0.01534703511206044
0.3286414341828616
-0.1643874372999467
8.64212375427687
0.611953143888199
-0.4794479182342477
-1.388102246700772
0.4334981219227219
1.434052042927709
0.301257017879261
-0.5526715664954061
0.7566948476849809
-0.5052802994379616
-1.147985283599764
1.280624122074681
-0.1326388385914863
-0.4422666730862473
0.4823563119409975
0.5953849436218748
-0.6354745827740556
-16.18929249389679
8.691784605221196
-0.05864089987666186
0.001820118029647601
-0.1180446039633219
0.1748653856948447
-0.4307112837301253
0.7899919426890009
-0.05802364123497215
0.1800624493133445
0.04296293274323239
-0.1641340920096995
-0.05889129018695997
0.1007054744789583
0.02509707219575728
-0.00302334808587952
-0.1227791987068855
-0.01816918180302065
0.05870852849025432
0.01872961745850408
-0.05926896422458491
-0.2211564822240648
0.3775148688749557
-0.422873116024625
0.2665147292880143
0.4039445271251462
0.6783968140970734
-0.2628311691954666
-0.8195101722912385
-0.1212985888476036
0.1246571921509307
-0.1083706622078648
0.1050120588096577
14.61419057857051
-17.47859287857612
-6.241187240799434
9.105589541600308
0.5960754392713505
-0.08031671344109387
0.08946616883210504
-0.605224894693428
-20.28190976666865
9.173010403759189
11.10889936295911
-0.181009913657083
0.1560307992365871
-0.4057321694640151
0.08193023536136375
-0.08365161841711186
-0.1642930120468095
0.1660143950637629
0.1666306246118478
0.01125608836369362
-0.179365762906366
0.001479049796408471
-4.264822657692241
-22.30289616663732
2.641563499086736
23.92615532655681
0.2172585504788652
0.3993228214052426
-0.1596854198670461
-0.4568959521469
-0.08476483950466569
0.7059679170547559
-0.01993877599871431
0.1101018309791472
-0.1017678385092397
0.0116047834086458
0.06119877343897292
-0.638132987470823
0.331504561221905
0.2454296525227174
-0.02691756128927897
0.06801854665077041
0.08531903266011483
-0.1264200181824592
-0.03112827140960469
0.007284989751950234
0.1167633375391481
-0.09292005594356159
0.3885806762210217
21.2952569369012
-19.28867367284646
-2.39516394022254
1.596425517682621
-10.5331157085624
8.528095203879319
0.4085949875318572
-0.02616289634232635
-0.04224761453847061
-0.1021331973933753
0.1705437081854262
1.209905740980064
-5.98405293172562
2.467748654519286
2.306398535761538
-0.1331100280872321
0.01187255790431428
0.1315267469046345
-0.01028927677718517
0.5590441927441983
-0.7063499669307083
0.1945452191982391
-0.04723944507298808
-21.0055058340321
3.727777657055964
7.133704859620928
10.14402331777687
-0.2209959080541173
-0.9156590128923843
0.9962528763359181
0.1404020442032742
0.2917189213509336
0.01207534119690926
-0.4469989777313309
0.1432047151953924
0.09951319462106542
0.6355488236118944
-0.09661077671979862
-0.6384512417489948
-3.563899469010731
-21.59358200594878
22.5153928856551
2.642088589395311
-0.982916955436797
-0.6550519578708062
0.1823916063541353
1.45557730692933
0.517225753971736
0.2467266095678187
-0.5233107872165472
-0.2406415764212619
0.4023966080292
-0.1744727547712813
0.3892098537281116
-0.6171337070993599
-1.518451879814485
-9.287799921028933
10.80625180142286
-0.721486931060439
-2.732155604181623
1.045908781397397
2.407733752524508
-0.2726504362798546
0.5902822047819312
0.03372481504694654
0.1669141272129513
0.02611180518054917
-0.2267507476167033
-0.1308255153426086
0.0437898451057508
0.1021853377908498
-0.01514966766293716
-0.512735134724782
-0.08891467887167502
0.1070941145417032
0.4945556986999887
-0.08109012021925166
0.5693213063607341
-0.850960772065728
0.3627295857861838
0.2666351493449672
-0.08378677179083108
-0.02487059120080345
0.01955549214865287
0.08910187078465501
-3.198800828072787
-0.5802434046861082
-3.103498405861008
7.367642645462594
0.02946671111287736
0.02906181089761954
-0.02154322959707851
-0.03698529248723303
-0.00134662918685954
-0.07153864002235441
-0.001555098568881729
0.07444036772129567
0.3949996502135016
-0.3785176147842406
-0.1335559355666158
0.117073899929969
-0.3044907166645423
-0.1585394483297054
1.141426978833754
0.0406078900128229
-0.1107202387780669
0.02551051066256462
0.04460183794799781
0.1128835203661268
-0.2977385071545673
-0.1556600707805462
0.340515057501372
0.345071048030215
-0.7823749721541721
0.2261294811536431
0.3462467960011589
-1.147850559387111
0.5754742820206359
-8.541688646638061
3.919634860155406
-4.824569725893041
0.08889460116418399
-0.05725805471695589
0.008977731940310511
-0.04061427852924565
-2.386979124254821
1.010878196878625
1.121366532567724
0.2547343945341381
-0.5350715023886986
0.5320979554133197
0.09431235431700687
-0.09133880753817447
0.02548922477814128
-0.2944673978283264
-0.3597321181244101
0.6287102911660174
0.118158567502147
0.07690028317317443
-0.1562628775765595
-0.03879597322068471
1.631934914286413
2.976862976431213
-0.8974268321517689
-3.711371059495953
-0.05659000246429656
-0.3596554255503722
0.7124586579018436
-0.296213230272999
0.5267399513033478
-1.957937582068443
0.4492713460211444
0.9819262844391364
-0.01439040973764799
0.005961735574114644
0.008428674097729186
13.88588865022367
-1.240851357868491
4.820346023813649
-17.46538331576172
0.7717492155257909
0.07205439341309897
-0.007872131992160598
-0.8359314770696876
-0.1786761332927287
-0.5348905063267024
0.03225338750220018
0.6813132520153835
0.3050970776503807
-0.1240344202751737
0.08470268080157595
-0.2657653383503893
-0.004727950060531266
0.0679787574216907
-0.06130937188167608
-0.001941435643149619
0.04031827097397085
0.02311447093829992
-0.06343274198257974
-0.08748257678761186
-0.5313602074222277
0.3461923479405468
0.06708650928501653
-0.04295903249331774
-0.1077234974464941
0.08359602055187276
-0.04514386019985011
0.04439640891110527
0.0007474512760664296
0.06257416779763492
0.430963281810149
-0.06051253440054385
-0.4330249153347349
0.03731228117795519
-0.02468997131674298
0.07949879285383253
-0.09212110282580982
-0.1118750419286757
-0.233395018814295
0.458153581080337
0.2965783578459534
-0.00913057845513046
-0.03258771043267561
-0.4602013826102797
0.5344507221244679
-0.04166162917430582
0.1534030762625486
-0.01330221764619881
-0.1724677405408031
0.03236688176908116
0.01414120297337627
0.04793635686878855
-0.02249280940187264
-0.03958475049737577
-0.1104221528618487
0.5303598960659381
-2.068053340318952
1.648115596692113
-0.6179854458139886
0.766709330567951
-0.1322821349581829
-0.1520708838755637
0.197896073892468
0.4063227407563189
-1.188001312842425
0.583782497989846
0.4674747724840365
0.02852748207645169
0.05904959377285578
-0.06033606185822456
-0.02724101405752535
0.03955278890621399
0.0474143363311098
-0.1858403925625656
0.09887326721853698
-0.6188568091229564
0.5903834435062312
0.2306428163966446
-0.2021694508987241
0.08159078564853935
-0.03740042937974492
-0.1067214799898754
0.06253112360290325
0.1078175607002501
-0.07375099153744451
0.368909659015249
-0.4029762282212204
0.06382050953226723
-0.07612101724326709
0.1065096085305149
-0.09420910091693008
-0.103308166933127
-0.1463205439451003
0.379139615249093
-0.1295109043214876
-0.3203880185753095
0.4754970427955091
-0.2584171910948833
-0.02598636341775617
-0.03792824015850941
0.1276436798971002
-0.06372907642756633
0.1221816171199535
-0.04837090758117894
0.08564670404401917
-0.1594574136810482
0.09176398244105201
0.00857541049076861
0.002210325943356334
-0.1025497189413046
-0.06431880112754217
0.03506995344454682
0.1318469226304339
-0.102598075174352
0.408801018908202
-0.5349544069063533
0.09432117216596109
0.03183221581225617
-0.3988169330678697
0.6421460534565204
-0.2006025494386089
-0.04272657110377541
0.06855748772209715
-0.2260509589102898
-0.1958379418472145
0.3533314129293768
0.03804845036475583
-0.02951330451057764
0.06233144487781858
-0.0708665908006873
0.6141331683359449
-0.3600706865588809
0.2917603286594941
-0.5458228106722711
0.09426669070294941
-0.08295216273268038
-0.02139872844961263
0.01008420040418856
0.1168130513032892
0.3158411843119263
0.03482053674947409
0.4566964174782163
0.1922145891673912
0.6893031813781768
-0.1077577236337731
0.212214911899744
0.7845429961333497
-0.3074547267735963
-0.198320668449018
0.1349208148336037
0.1448388218809532
-0.08143896833733241
-0.5120912352187541
1.303889520970246
-0.5715787999228403
-0.8908501695223078
-0.03565378740720265
0.08779313121067402
-0.02116808194654912
-0.03097126193205009
-0.1322135330863493
-0.5225423236563811
0.3592434807424645
0.2955123755889975
-3.168014018883811
-3.018682922513551
3.813367502595508
2.373329439238926
0.3158412582593179
-0.2823328739923484
-0.5795085415919128
0.5460001570979018
1.824229800026822
-0.4015793105509323
0.4801308205995462
-1.902781310117165
0.3515577299248297
-0.5280540789015959
0.237695122218262
-0.05460831215858596
0.3291052790049508
-0.5384090851685597
0.2639121182332827
0.1120540717864677
-0.1226191145256306
0.06451705756037118
-0.05395201495653925
-0.1229136343924641
0.03602438386536351
0.3181424295253257
-0.2312531791120768
-0.07243204618683105
0.008474681237322229
0.05762537710277156
0.006331987750394147
-0.1980837382244937
0.01577113639334899
-0.01980248922493108
0.202115090945029
-0.09060363763988261
-0.5010115032044832
-0.00994894374378013
0.601564084376956
-0.1554414092675329
0.1291142565140554
0.0263271527336351
0.2247358637163118
0.01966314078534737
-0.1630113200745572
-0.08138768465042563
-0.01272131592194581
-0.0842609141502834
0.1182759002110929
-0.02129367020830831
0.223042064268236
0.0672894550686981
-0.09178465897395946
-0.1985468604894962
0.2710798093911462
0.2030861334299721
-0.6801428117665562
0.2059768688058439
13.66708345659276
-9.146676249676155
-22.4924768981568
17.9720696916613
-0.5870642720827255
0.01832918256404362
0.6168725704223063
-0.04813748114157974
0.114117466185166
0.01862766540135243
0.00635711883435527
-0.1391022505255529
-0.07096348771856083
-0.535103166816948
0.610723556554765
-0.004656902105026619
-6.964598757748329
-5.472308138871179
-17.24711255103028
29.68401944861214
-7.726856747158378
10.98697027756118
4.212775091701749
-7.472888622468448
0.0894169796197032
-0.08392762757066637
0.04773269577654324
-0.05322204790227043
-0.4742801179623332
0.227112121333708
0.07670553365206119
0.5342043887428071
-0.09476115445354645
-0.5161487680867973
0.235571839042754
-0.1211777448016271
-0.2607146382236712
-0.3016540108780413
0.5043990758558256
0.4322976551979031
-0.6350427204171248
0.01453886552838211
-0.1490867936433161
-0.4522442497660518
0.7506833531457342
-0.14935230989482
-13.65915671652543
6.159503896657503
1.079156301944207
6.420496518362206
0.07520120404228738
0.004512281102250647
0.1678902201368485
-0.2476037053764444
0.07649706450529403
-0.06667101730561814
-0.00982604725724485
-0.2422859700529599
-6.896448358753219
7.138734329347987
0.3910237392214059
-0.3694137395071304
0.4789431972546939
-0.5005531970655556
-11.14226332108515
10.47621124373932
10.75085942203729
-0.0418171173567227
0.5271532108915308
-0.09387486869455995
0.09036990354220405
17.91839346166767
-17.83648887114582
-0.08190459027376371
11.71592772229374
-22.78991290351273
11.07398518123209
0.8921379583983785
-0.1454723244130244
-1.555693422322326
-0.06433396914060278
0.1076345299120761
0.007778019560234113
-0.05107858042870436
-0.1141852177890584
0.1764434312039184
0.2301291040379144
-0.2923873174666666
0.4672714215315944
-0.4471928941620849
-0.1951282097949031
0.1750496823333233
-0.1304143865047338
0.5370530303835096
0.4250078359883596
0.09805822014072663
0.04625525015348742
0.4858903564630629
-0.6005855302030344
0.02335636606921068
-0.3073545213659765
0.1008553413706728
0.08532143517120316
-0.5197745595877996
0.9452664465535848
20.80501648911419
4.723095308597197
-26.47337824451754
-0.5826960163773265
-0.2119721201793343
0.4949263818103877
-0.4061885285269007
-0.1315536377961506
0.04281578443568104
-0.03532889220692563
0.1862550643679085
0.008362924308242108
-0.1592890965008879
0.3327570239370349
-2.581647443446486
-9.567371468839971
8.950218084706243
-10.4111164135197
6.338625826782358
1.490843143593463
19.25370222174806
-8.971512268489146
-10.28218995317766
1.003892709469108
12.52732095984624
-12.91926052512997
-13.76741326632028
6.013664882074995
21.11046302051392
-13.35671463631382
12.49976213749911
-11.7565690010882
8.434806514023009
-9.177999650595487
1.158024386011415
-0.6073365162170119
-0.2589275414111926
-0.4809343889882969
0.5833416955396521
-0.1442244239391296
-26.90053567014168
9.711968836337288
17.1833712964943
-0.01990504071233531
-0.1329775955736766
0.1896901913005912
-0.03680755517998008
15.85718553149328
6.675614299493129
-38.22306764562397
15.69026781452153
-0.08133744190150076
-0.6030057998929144
0.06720953465880665
0.0385692788822573
-0.1440940416757995
0.05209425644221603
0.05343050622256274
-0.01662221004794843
-1.648131782423763
-1.952078543236506
3.925661946498309
-0.325451621195319
1.843479054065598
-1.212867196923512
-0.08375519163124412
-0.5468566657535888
1.373287574717802
0.1227760155711663
0.4785661335338968
-1.974629724156115
-1.140700941598714
0.1289336186237516
0.1760781018974057
0.8356892206401202
-0.09043427929467368
-4.720968719366253
-5.313294149293265
7.385912511209487
2.648350357138639
0.7314488750771132
0.1820277395771667
19.39862453857658
-20.87661291991928
-12.2894248853347
-0.1778886981924
0.450825650250416
-0.5052621914743834
-0.2831440093914318
0.26586387695388
-0.3840419266192773
-10.01598036700415
21.3574726707651
-11.34149230352568
0.7634876424203839
-0.5760204437214246
-0.6995584341435076
3.846801898531058
-0.02169245570528891
-8.546078162395631
0.07719742928064818
-0.03136997143465062
0.04414503125598795
-0.0446570912689728
0.03188203139014955
-13.80635617913428
14.75400976506952
-0.1914841449587886
-0.0180829271294543
-0.04068671199138674
0.2502537838988183
-0.226097142407808
0.0430884838657798
0.2712179863884699
-0.08820932794470805
-2.793509358106862
3.545130199518232
7.179644665902323
-8.733164011519833
-3.271050380214717
3.898709842178353
-10.09003385760089
3.397814657617272
-0.02199281596341459
0.02348849989080196
-0.06558393429797096
-25.98700195822552
-0.2400254872781324
1.671319823802579
24.55570762224136
1.892449077955197
-7.945901247031404
1.997314112825016
4.056138054914238
1.900886924432478
-0.4127043482832821
-2.943199789430726
1.455017212889706
-8.744810586542149
3.952606089962387
36.26472298062721
-2.946494996773465
-8.494556787578754
8.164689629653793
-0.7790824339028735
0.04505852536694282
-0.04966327334630885
0.7836871817768536
-0.06248063456412779
-0.2710113589715633
-0.1391587156627814
0.472650708926475
-0.3476555896482716
0.1690122982614294
0.04554442100268694
0.1330988701289739
0.02232330344693129
-0.02705125359499947
0.03559708548397229
-0.03680564008178407
0.1643617416219037
-0.1631531871521223
-6.547712411433525
6.575259753820884
-2.935599785166261
2.90805244214793
0.0001224664591691926
9.513472160088109e-05
-0.0002176012067412064
0.0001224664494641393
0.007435833670320663
-0.01666801661274909
-0.1115693422788254
0.07408822415917456
-0.0136385078832764
0.06338022113699687
-0.1238299375058253
-0.1817910059287154
-0.3187780502317752
0.4738797389179731
0.02668931716256763
0.4264178598664316
-0.4608204358845915
0.02670156810764595
0.00770100788610748
0.1500558721164491
-0.2499145459784888
-0.07212109844661393
0.1719797722177467
-18.96526070314599
-7.952061010665205
-0.02587632394100107
0.1180082595029742
-0.004412831643382807
-0.08771910403911566
13.03242025769818
3.784020154008158
3.275038046802862
0.03167567384104947
-0.3592427109303503
0.03712521674068575
0.2904418201829403
15.24191698925969
-14.0025510838987
-9.529411816709638
8.290045911374056
37.90524208255196
-19.93839977549834
7.98351961708821
-25.95036192407602
5.202904346334847
14.85490666580837
-1.40642598086564
-18.65138503112136
19.01848013103696
3.402459060740401
10.83016190470337
-22.86203577098739
12.03187386614221
34.9464185965676
4.816019522732773
0.8886996281463899
-40.6511377466099
-0.07825011321249641
0.1283102014185799
-0.2382801304684667
0.1882200420900866
0.1938517054519011
-0.1417788625260072
-0.6222696478035586
0.5701968049347795
-0.1265761554930731
0.2670024020974919
0.07014615806627092
-0.210572404841829
-0.06467534107762642
0.0007993915137337288
0.08980008026344539
-0.0259241307273164
-0.115451602400453
2.00712904241635
-0.3996596349875365
-1.492017805276549
0.2929406439920219
-0.5319564465755602
0.2228616309154073
0.016154171627898
12.0771810613406
-5.687256811058798
-6.389924250046663
-0.2376083160515918
0.1203936801629853
-0.03775115942587533
0.1549657952102692
-0.3494933197265807
0.4935638322098472
-0.2097518722303532
0.06568135960286256
0.1244125797391881
-0.08881549430234061
-0.05602824798805074
0.00726752066643522
0.04876072726844197
0.6413624964830102
0.4811663258378401
-0.4911059949472962
-0.6314228279848648
1.924884830976166
0.367325452379072
-1.059833561677795
-1.232376722150704
-0.1323598062522813
0.1058010904468239
-0.1033620545852133
0.1299207702652427
-0.04514930738967672
-0.1222433589121069
0.07763629209968083
0.08975637406322605
-0.8439490059919469
-0.7339779659949009
1.745817682457751
-0.1678907106508617
0.2964033459747819
-3.959903851741076
3.381250659861067
0.2822498453231478
-0.8465140670712474
3.434668024659135
-2.602071807702935
0.01391784982000182
-0.4754178659913198
0.2309537495025789
0.305430765777203
-0.06096664943820321
0.1883083216651378
-0.3256759221355584
0.5109176609506593
-0.3735500605621448
-0.06358540044852917
0.06982995915950249
-0.006244558789610643
0.09626542181616991
0.1325727505025349
-0.2288381723126919
-0.06577343254762789
0.00286608033801886
0.07467941501878547
-0.01177206291404381
-0.05915614286010641
-0.09917918532275699
-0.09917892880006031
0.2575142567627242
-0.06422257134653375
0.08676834455671308
0.1522651456880111
-0.1748109190345868
21.19343170617799
-13.64570512333459
-13.99746977549615
6.449743193049388
-0.02148299792239961
-0.04161129606257947
0.01133455167428929
0.05175974224558656
-0.02728975022742542
0.03278315515058911
-0.005493404968441347
1.972138736678953
-2.598161203785375
13.6337037500339
-6.482329441547155
-7.151374308228125
0.03633037161063875
-0.08403621637024948
-0.0004802957395200234
0.04818614043498952
-0.04596577213308507
-30.19389767379225
-0.1592981487294978
30.39916159499797
0.1066834566903556
-0.06435193762270366
0.2056095281156508
-0.2479410473067011
-0.05056859329146686
-0.02335949742143759
0.06640454617056246
0.00752354447640419
0.07798549205318725
0.5793418622635322
-0.2501966524096498
-0.4071307022828707
-0.06786284378123923
0.005851959923281433
0.06201088377734308
0.02104983181779575
-0.01848343840167993
0.06983975354552636
-0.07240614703157652
-0.003155353783998149
0.02897685410030617
-0.01716960736376304
-0.00865189301985074
0.03448007579873459
-0.02079875321536997
-0.01368132267262598
-0.0004836602208253453
0.06229333807693786
-0.06180967793978176
-0.1459173324447543
0.5688766080342712
-0.4043158141715818
-0.01864346162717258
-0.006528506333108492
0.07862729276903983
-0.08352755285194417
0.01142876633601291
0.0720259873720072
-0.4463869303175128
0.4144959228917465
-0.04013498026513738
1.207260142943869
0.5395581983322517
4.218988035394849
-5.965806376977346
-0.2847085431598966
0.1442517550282252
0.04026062761053525
0.100196160409828
0.08660647591923197
0.007739661877308634
-0.09434613790381648
-0.04060063828632458
0.1429360376958331
-0.6073125273896631
0.5049771278088108
16.47195757817821
-21.12414006917119
-0.07183741712349893
0.1444163006140398
0.0002726254600441308
-0.07285150902523074
-0.4841827770214766
-0.001676624161399807
0.4858594007239659
1.542583041971836
0.5950855470224325
-2.255067602920325
0.1173990139544588
0.8226897156813392
-0.04996271587186969
-0.677187841834194
-0.09553915809418158
-0.2664376100708038
0.2877956286950898
0.09527547033543535
-0.1166334890657348
-0.04985572164367189
0.3661090342282634
-0.38219355487766
0.06594024202695696
0.1948771606665518
-0.2849280121760381
0.1109586208330361
-0.02090776938593692
9.467909746526697
10.2946968407379
0.1786840669043641
-0.5140815251999277
0.04381158065168143
0.2915858775648653
-0.2245179906313609
-0.4348705313163759
0.5879890364605252
0.07139948549941573
0.01066799255004976
-0.1382864065624464
-0.01845515179382514
0.1460735656907979
-0.275171836335929
0.004373820681373972
-0.003870871801005702
0.274668887295806
1.43434838440179
-0.5711527480308802
-1.66657977611896
0.8033841394546201
-0.03345041733227593
0.12571178001446
-0.1035890862756242
0.01132772345685132
-0.01816394999565135
0.02812744601618352
-0.1038778262103854
0.09391433011396005
16.11150713441022
-23.65622938703867
-3.129220002253269
6.247680572976265
22.84365059809346
-1.366245654776969
-0.1796407262122131
2.17109917368749
-0.6252127929047077
0.1585251419872454
-0.26400406711508
-0.2487915454903366
0.3542704705294877
-0.08276910896390839
0.01263864460356455
0.02640747098377325
0.04372299326896145
-0.09567851627928352
-0.002044742154620128
0.0893310498736339
0.008392208489156462
-0.1341830868462099
0.1718632980332304
-0.06384310760830432
0.4618402328524059
-0.1802845133863238
-0.3748258381638657
0.09327011856065079
3.205384355830823
24.59101753062187
0.08353342830627491
-0.02851679046447197
-0.2537745718695386
0.1987579339069287
-0.0133655168685039
0.3939198915584198
0.07748697128272607
-0.4580413460832697
-0.4419827959895262
0.0755083875801832
0.03070871539057387
0.3357656928224831
-0.5208534053329013
0.05116888861893098
0.2534082359460292
-0.6074077526620194
-0.05109850455680995
0.7047050810874247
-0.04619882433073519
-0.003448498402705955
-0.2486970979279895
0.7332771870951469
-0.4811315910077097
-1.644970478795621
0.1683722455402332
1.476598233239535
18.58680142563959
-7.37731183662836
1.822930668621814
0.1599019623982685
-0.2729756509344859
0.05379729505687013
0.05927639328784359
8.999415750291666
-32.52553285617704
32.24300588664377
0.04220935642256514
0.05853973499532859
-0.06119630257435629
-0.02912505678344974
0.1488921445163955
-0.007194860605793256
-0.1125722272385625
0.06711783841203577
0.03358032783924321
0.03976993206390569
-0.1404680983921502
0.03461050222226332
0.2631924155331713
-0.07793449455062502
-0.2198684232820577
0.4234982278419162
-0.2943873121344146
-0.5127781486554533
0.3836672327819651
0.07215490276776962
-0.02594056747244909
-0.0730771855833839
0.02686285022405452
0.4787952582438726
-1.113998538938941
0.2400430876138129
0.3951601926222875
-0.100584321501239
0.05861919067943594
-0.02987228635283478
-0.06893080013721554
0.06566818624884173
-0.1168226491222822
0.1200852629330329
24.24781017018011
-13.03135419634406
-20.70502843410142
9.488572460368434
0.1777762026173666
-0.1641581243140795
-0.01361807838942966
-0.3188334538927561
-0.0358337418027033
0.4622267162050234
-0.1075595206824185
-11.58347554240604
14.86118620753109
-2.135039020855335
-1.142671644764078
-0.02133473465581446
0.1124787853222273
0.02108358003230175
-0.1122276307711377
0.06424632336797746
-0.1665481506786482
0.09426412254383677
0.008037704660121216
-1.287251402123853
0.9563774243929282
0.4473756483524746
-0.1165016707509481
-0.02122355711822034
-0.1900962983241415
0.1886390742500343
0.02268078112476906
-0.8472282932444444
-0.6236068259172043
0.8634986028246359
-0.9816223589546961
0.2113671149367854
2.54567550076029
-1.775420256717193
6.651874762740289
-17.47359265271442
12.52647255164634
-1.704754660743586
-0.1131457990149601
-0.5350996018819815
0.7524747734893568
-0.1042293726065262
1.60048581699228
18.29527780275455
-23.45966308891769
-0.04021185785413275
0.06891725705023879
-0.02063061730873262
-0.008074781933018827
-0.5051267570096825
0.3032061025755178
0.2295554911556448
-0.02763483691168801
0.4793890174181913
-2.133894608831334
0.6838956532192489
0.1743277069718756
0.06020046419708321
-0.1630605544024496
-0.07146761687904325
0.4937908644459801
-0.04351957804428842
-0.4832641211600343
0.03299283476752431
-0.09461024135103713
-0.404953858477733
0.3154213183174047
0.184142781384918
-1.895913086340723
1.775130189407993
0.1207828968444314
0.104649541669392
-0.1030391094282894
0.03113688963279273
-0.03274732197865867
0.002492713945179697
0.09310531061574943
-0.08607631193613895
-0.009521712678006522
0.01388059615563476
0.01928300521340487
0.114380567694997
-0.1475441691443415
-0.01261287059259441
-0.0676274394750879
-0.04021933970443058
0.01122225260508876
-0.266522194780987
0.06037698074890385
0.194922961373004
-0.1450341361216082
0.0757548163679052
0.1117175079470651
-0.04243818826980617
-0.1208140367416867
0.06228475822373308
0.1133508344664839
-0.05482155600385836
-0.6004791276758579
0.7182875125184177
-0.04892596491278915
-0.0688824204835604
-0.00241029015012292
-0.5148447495429539
0.1024399577872645
0.4148150818562392
0.009679867160155654
-0.01885126434285797
0.1658382379993782
-0.1566668408657113
-0.3231471027843629
-0.194955489398651
0.426120844019253
0.09198174800250847
0.0007151156782249495
0.1781911999368814
-0.158485350114605
-0.02042096560928915
0.008811994334745284
-0.142346621712356
-0.02561688138105268
0.1591515086487819
0.8071752765309149
3.783760331392849
-3.810936654879648
-0.7799989543852389
-3.924150954883372
-41.76001540660004
36.37748860337535
9.306677758162644
0.05748431282780914
-0.149002921463088
0.07926104995435747
0.01225755858718121
22.10099072323996
0.3563156066062242
-25.62634725931842
3.169040929632747
0.1495706919893379
-0.200492712361666
0.04363175406469249
0.007290266171980349
8.166604384070093
-9.831300549738478
1.97424349183885
-2.647090661062512
0.8655838289417936
1.781506832010181
-0.1089510511851071
-0.05023185959229435
0.03562487212757665
0.1235580385324837
-0.04577090523585682
0.03314871260401598
0.01262219256401693
0.1256661732172691
-0.06634600900802175
-0.2391923023828896
0.1798721380412852
-0.004431777488328134
-0.001100766015698219
-0.06060440327118184
0.06613694670545718
-0.01475933409479531
0.09487439651290551
0.006917942268643057
-0.0870330047656582
-0.06650575015323895
0.003012466296386481
0.164473363497057
-0.100980079729522
0.01406951505322628
-0.08304180005408272
0.04110871283260661
0.02786357207974611
-0.05265656660465051
0.002838082124323095
-0.005481392540435067
0.05529987695664951
-0.4683095397224329
0.1043232808381977
0.3639862588180021
0.1147536133496772
0.08293251824383285
-0.1680731104691872
-0.02961302122366592
12.48040563224959
0.6901141460357709
-12.62796842897735
-0.5425513488942858
0.190430009449315
-0.1228113499271732
-2.259218547862029
2.191599887997515
0.3129520408908007
-0.3549633464799347
0.5150707342230456
-0.4730594287706228
0.6463114798640978
-0.4441293201499902
0.06266012541823061
-0.2648422853154597
0.2263170517738618
2.184111116246338
-3.676672542117744
1.266244373619414
12.90215729463957
-13.04462565357352
0.1424683590270466
-13.66875684297951
-10.29836346717934
10.16076413150378
-0.2054944673170666
-0.2135748112566353
0.3795283110608558
0.03954096731149186
0.3694277908167886
0.2008060329992771
-0.5702338241897515
13.79733569336955
-19.45290317957517
-0.1747066375541929
-0.0232854909345545
-0.1948703597536547
0.3928624880494092
3.26183530070295
-1.072999126009847
1.732130228497982
-3.920966402612358
0.3662604609528584
-0.9978899855431288
0.4785647478956028
0.1530647764751195
-0.01892508688679415
0.003445260141176408
-0.0549363415747472
0.07041616820787544
0.369224004451767
-0.4928648421723794
-0.07278873233636329
0.1964295700023644
-0.2595552109467317
-0.08748823107024983
0.2457941685786619
0.1012492732672063
1.299448090305571
-0.5321863349287517
0.6670866288113922
0.1388484806696235
0.07242282096503412
-0.1093354781117799
-0.1019358236323837
0.2289739650429914
0.3180536122027273
0.0155668013997769
-0.5625943787197074
-0.2409613988495236
0.220117558787104
-0.009788950944488978
0.03063279077869616
-9.410798502783404
-0.609038320672556
-2.933888829752138
12.95372565296181
28.08446932356109
-0.6657120683771427
-3.933273516658086
-23.48548373860474
-0.0004490426282270864
0.1404353209620353
-0.05861468192588971
-0.08137159659537378
8.291075124134025
-2.229727574731121
-1.388671279647814
0.7131602269937397
-0.4184484455208397
0.2431558567181593
-0.5378676385634458
-1.221797858994039
-0.2271313391997606
0.08372406796168948
-0.3473933538043807
0.4908006248315288
-0.097481397513247
0.03109278747435888
0.06638861002056318
0.3301754021357171
0.1150394924921544
-0.4339926420799505
-31.94053355382453
7.077239056330869
-3.619359141409114
28.48265363889728
4.354418642256279
-0.7255153702744199
-1.791657299031969
-1.837245972829918
0.01344238674596697
0.02220289507040514
-0.03564528184783587
-0.182573280464053
-0.006442648079990877
0.6096199973400105
23.37637474077459
0.04331430448397623
-0.06248911812987968
-23.3571999264594
0.1806414735133543
-0.007772135184765668