/*--------------------------------*- C++ -*----------------------------------*\
| =========                 |                                                 |
| \\      /  F ield         | OpenFOAM: The Open Source CFD Toolbox           |
|  \\    /   O peration     | Version:  v1906                                 |
|   \\  /    A nd           | Web:      www.OpenFOAM.com                      |
|    \\/     M anipulation  |                                                 |
\*---------------------------------------------------------------------------*/
FoamFile
{
    version     2.0;
    format      ascii;
    class       volVectorField;
    location    "1.8";
    object      U;
}
// * * * * * * * * * * * * * * * * * * * * * * * * * * * * * * * * * * * * * //

dimensions      [0 1 -1 0 0 0 0];


internalField   nonuniform List<vector> 
19631
(
(5.041043399166946 0.05857543446651188 0.058079265270808)
(4.988106848102087 -0.07146854303005901 0.08866854302343441)
(4.984518323076031 0.01936837866095399 -0.04022991089432542)
(4.122851661408138 -0.2642798840863249 -0.001686330365416502)
(5.031937321679617 0.05605520975320184 0.005105773294925026)
(5.084453044408665 0.03747479984275957 -0.02813871092280489)
(4.986806624714947 -0.008007992778579649 0.0005779769625990286)
(1.699099877738678 -0.1508566373212269 0.09046457545056884)
(3.531890774118989 -0.09953805069304177 -0.2125588606960463)
(5.022181038814503 0.03497244159161945 0.04115170369027021)
(4.902133780867753 0.04865689321813135 -0.04130302864098286)
(4.999604146344722 -0.08637169796182267 -0.01782698733111492)
(4.274509206501047 -0.1403081980902914 0.4636813675903292)
(4.974427558634137 -0.08308772964057376 -0.02504305069590436)
(4.996909103017902 0.01369141736511698 0.008501855884917735)
(4.879557574930448 -0.03457783994959758 -0.08446504256904991)
(4.906146451285251 -0.1216791210204245 -0.001566270585768675)
(4.445787020790209 -0.3013355216925052 -0.4504388007837979)
(4.689268907111847 0.2393227766672762 0.1282636255121571)
(3.802646149906774 -0.06376304461611941 0.0895946708842701)
(5.014608791184295 0.08168361729065936 0.04180792074410224)
(5.067927909608951 -0.01936323013331063 0.06125983172538643)
(4.572377123047793 0.07706957955724415 0.5271381892987188)
(4.96244349775999 0.02758676403496553 -0.01001255264104022)
(5.067901586580906 -0.07429769647065315 0.105114440562483)
(4.987401376974753 0.1070590818196552 -0.03658530773184916)
(4.833085818381895 -0.2236437092516418 0.1153427070817422)
(3.67344205784746 -0.05598906754765173 -0.1338704490969125)
(5.027894502041713 0.1791783303399104 0.1644604541190345)
(4.989403509509401 0.00649311742625081 -0.02121713044059484)
(5.057878448173505 -0.02000670315907437 0.06089792088449132)
(5.063492063000353 -0.02394460051814282 0.04299655684536274)
(4.971497906927326 0.1022939961307551 -0.1400806634878908)
(5.018419809892152 0.0481186398791799 0.04394848644626932)
(4.450724527412967 -0.02773867542545969 -0.3003941485314145)
(4.333375003687805 0.2144165684109002 -0.5052692828581481)
(4.939045402107843 0.02876234003374916 0.03578122933183264)
(4.733519529182178 0.8406413507921395 -0.325315666374177)
(5.031085373638276 -0.07274544146903841 -0.02720505067539493)
(5.18723724144547 0.7217512037350118 -0.1349809252467402)
(4.34347024893416 -0.3224020921347106 0.1285378297937443)
(5.051742711492278 0.03716836321569131 0.0655561958540016)
(4.997775352963196 -0.004911327029112207 0.02024241078750576)
(4.972514271247437 0.09470141698880916 0.06284951345766188)
(4.219844303411277 0.03583880265683503 0.5474012627612449)
(4.33455648350051 0.3098999721057548 0.05856278588214037)
(4.981571754195347 0.007006606080829914 0.002386200843810137)
(5.130986884680812 0.1536790312472467 0.05520960852507831)
(5.037088370348108 0.04399611202309502 0.05422558920953805)
(5.025071473650129 -0.1612830670516832 0.1416997608640723)
(4.671453048671219 0.3479837700198594 -0.2462062514441467)
(4.789098839392024 -0.152620018365358 0.01766057504915292)
(5.054902741553717 -0.05484639862666025 0.1201480306322961)
(4.123922075801067 -0.2128828738279123 -0.1771811059785883)
(4.898403503590769 0.1983963632214053 0.2619162533942291)
(4.786874997663291 0.002942422598289814 0.06250994410613216)
(4.938400860140009 -0.1377036968739138 0.0593217186976429)
(4.9190132338137 -0.1180311999693975 -0.00901923678080772)
(4.105280048193467 0.02866962420418134 -0.2913456510058091)
(4.997691872920894 0.008311945346719116 0.00717692804811796)
(5.031921288194812 -0.04211059951886256 0.007543193395813167)
(2.150501207644329 -0.01057343313439947 -0.08660411376633902)
(3.032491109207557 0.1290234077808909 -0.1368261605984651)
(5.047423338467615 0.1044607853075669 -0.03188902539268577)
(5.049862376188767 -0.01800968301261271 -0.01697607533339499)
(3.282311191649612 -0.2142183203485341 -0.5778440240144194)
(5.061636654968046 -0.001629728513332397 0.06978154902639562)
(5.04758218109319 -0.07262101756050338 0.05365268959871901)
(4.97434262837322 0.1587079267675547 0.002649008271235421)
(5.026497087000386 0.02671137452872246 0.03541625435822695)
(5.014813698819905 0.01329044498160199 0.0126287108079388)
(3.655248863453897 0.8885704429634675 -0.9320189283242795)
(4.992511552475999 0.06389834937220709 -0.04099767560731488)
(5.058622423365553 0.004041672506994554 0.04225168071124737)
(5.111551179899655 0.01397418834908892 0.1381977527736005)
(5.029615360222214 0.1115499902824397 -0.2324571789949145)
(5.010667741103001 0.0511638421879182 -0.05471106070511703)
(4.961133766594542 0.1674831771944089 0.1077646190814929)
(4.774205401276512 -0.7601872541112058 0.5314391196590761)
(0.7799260895491534 -0.02418746999570732 0.1425351578044645)
(4.992986521263708 0.07514546832464766 0.02375068345519653)
(5.155627536304601 0.03245059685678633 0.1431560585287675)
(4.944998651895496 0.1534759139378461 0.0306646030790269)
(4.86670481859638 -0.0846154528995403 0.08473138326846608)
(1.745926467739253 -0.001708704277053442 0.09438587547952315)
(2.096827334129622 0.1122530098796728 -0.2383411472156443)
(5.046200715207323 -0.0545237990077445 0.1801906930951431)
(4.873136866657713 -0.1363002528766145 0.01902319418069694)
(1.680269941778924 0.07653479535339741 -0.05767660989591001)
(5.031498828162469 0.0550782379425616 0.03953491520080914)
(2.370541160769132 0.1177004917695311 0.2280011703391172)
(5.064038410230959 -0.111791743555507 0.0627073434850802)
(5.058477866047108 -0.00472209312129129 0.07887897186104786)
(5.069762337402435 -0.02019430096655061 0.04788923244000797)
(4.898949648430684 0.09813470217196868 -0.1125962475754439)
(3.071337712207788 -0.1309437669618423 0.04888944501575004)
(5.022317631074783 0.02408881771089643 -0.1147594352360069)
(2.507377397482941 -0.1809156074052644 0.04746246220925764)
(5.016399920435946 -0.03842479324883981 0.01000694066747471)
(5.126464975476801 0.1130191107748377 0.06895978611650105)
(5.065313200080765 -0.008897555720444584 0.08310040232870698)
(3.163283625309194 0.07034433292367764 0.8263124818217807)
(3.555540299357432 -0.09836852063039794 0.03610862848851813)
(5.034021255333298 0.06054446990723487 0.02745666393197558)
(3.863719615486071 -0.03283719087216645 -0.1259400969550973)
(3.72548762514305 -0.3796988909165806 -0.178942318894999)
(3.441544273994892 -0.2059571073676475 0.4487421784426498)
(5.069988591943295 -0.01172254079882464 0.09706719292161914)
(5.074124853216671 -0.007912014802761729 0.1211052174967355)
(3.470333993780573 0.09854329247790908 0.01827133449309272)
(4.982073894385286 0.1852100272348241 0.104289688622422)
(4.872632293423518 -0.1306681132169553 -0.1225374074534415)
(5.231748905843905 -0.01606555667411163 -0.1347767707844184)
(4.664235759866015 -0.2451229710941196 0.09284818024083541)
(4.98333216668891 -0.1436900734507392 -0.2456916179197682)
(4.873651715476253 -0.06478717149763218 -0.027444934485577)
(2.371740698943687 -0.2094695640886137 0.08822560088257445)
(5.034887285394218 0.005945691503339742 0.03813142849652879)
(4.884999684041913 -0.08694946474478596 0.06960249234960257)
(5.072182110059822 -0.03755393637250019 0.02309034479008582)
(5.070049374824125 -0.02086965807483442 0.02564704567072935)
(5.048710115890939 0.006759880603839315 0.03476363103016131)
(5.047740659326681 0.02358418315237635 0.04256542705392814)
(3.505887899128882 -0.3321666338194952 -0.2431523673179747)
(5.018425823118264 -0.05944651036234756 -0.07574953641100175)
(5.087690867471033 0.06613512569261307 -0.001995529814155466)
(5.006508393140741 0.2754233365563645 -0.1950895258382777)
(4.999160851447988 -0.04291712061603103 -0.06301185114098359)
(5.018824757197844 0.02789677050498722 0.02072312231944262)
(4.544210977891843 0.1096004962164641 0.2296508598785678)
(5.042317601815001 0.006771777883757428 0.01410997313889661)
(5.008360624885128 0.06241154745539357 -0.008163561239631491)
(5.094088860506435 0.1498719932549943 -0.1391495657629265)
(2.43704847083546 0.0653534261924872 0.04247276990510516)
(5.052138794178345 0.1363433897207655 -0.1052109330902902)
(4.024448550445005 -1.119562051275156 0.09750538515608001)
(3.634174493081534 -0.1897763072456303 0.01328214776321157)
(5.070223366397857 -0.04231850237537497 -0.03284156342307725)
(2.474924911866104 -0.3402324257464459 0.519714694659714)
(5.022351516158763 -0.09220348679383039 0.1367129645388231)
(2.445825382152338 -0.005235436747019239 -0.05660089521870891)
(5.499034024736834 -0.08761618446463874 0.3881810370513161)
(4.18468487041757 0.05339024872390212 -0.6717206370345382)
(4.975660739989489 0.003835715297976411 -0.003390479268973067)
(5.116852416431044 -0.02905211857755841 -0.04989011281810396)
(4.234014884298585 0.0002026558525953384 -0.5457302648042132)
(5.049596784808792 0.01127443582735324 0.03792690873628306)
(5.003475017945541 0.09433933416649723 0.01723039492506773)
(4.995313212273924 0.02801240563276516 0.003127154392126776)
(3.13540120553116 -0.01342204799988487 -0.02022137255567997)
(5.057440134392932 -0.05970432454189253 0.09817665602960199)
(5.053672824135321 0.0008587900816774544 0.05899794328254344)
(5.06162513166916 0.002471356274964678 0.08077985377425226)
(5.053133207965974 0.01325709708143251 -0.01228526450888749)
(5.065282409792608 -0.005465911518899622 0.07403339736653722)
(5.037607160807063 0.003473119373928919 0.1937874987688572)
(4.993458330058202 0.008748000865721072 -0.0009212827960860125)
(4.964823865780363 0.260053036884019 0.1968202318947835)
(2.493635504880165 0.1313340154673998 0.1205244328511229)
(4.448989946678674 0.01472195396389579 -0.0368489110756656)
(5.053656611008092 0.01144499676606763 0.03920842098069927)
(4.991051114506301 -0.002135469129614639 0.002170562705807842)
(5.056713190836255 -0.01317760952393517 0.02925242224875071)
(5.06460972702258 -0.007900531556542505 0.03549801853535015)
(4.973260371534029 -0.01166870190199888 0.006263441219207053)
(4.961217302340525 0.1317522690043054 -0.06992712058724879)
(5.075726502377632 -0.02200978210911659 0.04859478991834201)
(5.043434571392344 -0.02223405453487328 0.0101367104864495)
(2.97824788637955 -0.146472145783665 0.4634075335813595)
(5.024759683592606 0.08042218438674612 0.0781904823740355)
(5.105630275467533 -0.0660138630646528 0.06185656283780761)
(5.009384300400285 -0.01919863872879334 0.008693986412437857)
(4.971168405832449 -0.1448902687080364 0.04538520127111625)
(5.029634321131958 -0.008003620091351525 0.04080504531355435)
(5.063754768208597 -0.003505169487155698 0.0910090392418333)
(4.935015620391392 -0.1429522630700771 0.1011987193040162)
(4.999188677031882 0.0163984924219022 -0.02698682987533826)
(5.057619399712088 -0.0285246819268313 0.09528802493055083)
(5.075300139409355 -0.09172998009273708 0.1490695479429966)
(4.07947834288182 -0.250755991315073 0.1276401034212495)
(5.001475997466495 -0.01372047512716236 0.001365766578671236)
(4.997108010996048 -0.01713194797668289 -0.008109062598644728)
(4.976060478021781 -0.0478442712603047 0.01302308561637648)
(4.556828325832888 0.1074136173941668 0.1890332982872867)
(5.008731441774194 0.08037309512276861 -0.01411202107143228)
(4.974975174408004 -0.01173772111729181 0.03516250619961654)
(4.983250873131959 -0.0368902342242272 0.0468564655069389)
(5.051183582891126 0.02067206416142394 0.02056463283228992)
(5.0640078267803 -0.009222117062043586 0.03819554060971336)
(5.052112032714898 0.03199546034043315 0.01453188257527709)
(5.057863276119284 0.002788196402432926 0.04786508293867852)
(5.03694352699313 0.165963611192598 0.4955331556762184)
(4.990186982214226 -0.00919379307417488 0.1893837850539059)
(4.988512653518617 0.01232035613012809 0.006646637434176513)
(5.038338572035161 -0.1205345562725275 0.1723969495170023)
(4.754849413060756 0.1438836752520702 -0.2271823792594794)
(5.054099524615646 -0.05391776769641773 0.2126358927127778)
(4.986812650860672 0.02245607587369174 0.002023051299020744)
(4.955475523011597 -0.006440654365449426 -0.005371341735822897)
(4.955147136515444 0.1159908206666689 -0.07041119654074023)
(5.07732980680021 0.001508683433578681 0.01413823217777945)
(5.06166054416616 0.0343295258804326 0.01819198213654727)
(5.036763124362961 0.06462630837376117 0.02274828066129771)
(5.071666037433835 0.02099182298824957 0.03328857508063087)
(5.015671090453699 -0.00389736766835977 0.01030269158921863)
(5.001097688703103 -0.06363062010500907 0.05035248889410496)
(4.972220738922698 -0.04857600468620504 -0.06078379159746577)
(5.014989652015551 -0.0292961907491197 0.003407868645619073)
(4.858893047474592 0.1682861475152821 -0.03377158841264135)
(5.040748324873308 -0.1466805642038639 0.08026639324700671)
(4.996579351477667 -0.02074941652223038 -0.01193603427974506)
(5.04133863774051 -0.07567608668234868 0.03350803815810795)
(4.418633474145611 0.04510955708629143 0.1253095823139962)
(4.986225818052887 0.02655927547066578 -0.02972936017955976)
(5.044382271723533 0.02802458235252926 0.07939645803663746)
(4.109108281657564 0.4045279859239649 0.2537114344029431)
(5.017252039961998 0.02797463103981709 0.02264404096906963)
(4.998376062850377 0.008834253327987334 0.01728996400863148)
(4.997829854652787 0.02909112860617993 0.001020174064435847)
(3.248543950428304 -0.04709137706708777 -0.03330654667926003)
(5.062901058948669 0.04107070917959525 0.07087773322901483)
(4.962905569599066 -0.1012389543153071 0.09685674551053494)
(4.981209177361178 0.03959802092422456 -0.04648265175786769)
(4.996872574416234 0.01069509611187691 0.001146698367860302)
(5.029338759570999 -0.005564456933610941 0.01323812711340187)
(4.983077601192768 0.1151593670652189 0.01820813003435895)
(5.026920039595814 0.1080995194016686 -0.09900620597873402)
(4.899786263334762 0.1000372198266172 -0.1173773791457575)
(0.829350896471818 0.01247059771468197 0.1355714680068971)
(3.717041655221549 0.01618449836235998 -0.1588198522390905)
(4.986470687860041 0.02302000116790724 -0.02493933216639702)
(0.03413587446033077 -0.01323124212506085 -0.007000996852746477)
(0.006620026108795516 -0.01405643064722064 0.005496891234284368)
(3.169100889447627 0.06359791398097221 0.01356069338200078)
(3.649954390791681 0.0192451079228496 -0.1022564226297826)
(4.885107078376408 0.1550636136366624 0.533430016566664)
(3.95747313973193 -0.3002006084852537 0.6093154562066899)
(4.636158369982143 0.07087969253115486 0.07040714571881077)
(4.904676361222976 0.1508655152166916 0.257609222631924)
(2.998091740963465 -0.3677682026427642 0.134627338777832)
(4.936536732082226 0.002429918199211914 0.008468214661042526)
(5.065993104980997 0.03846332350771638 -0.1019900207861908)
(5.000454407270079 -0.01022519119622168 0.05424379993116799)
(5.114396556668574 0.01170997746257669 -0.006163298479578824)
(4.977467788410798 0.02797054119379126 -0.02183513890196759)
(4.886233069082446 -0.1703350554107726 -0.4303803223767719)
(4.89674929656262 0.08768515249633849 0.1262550634918277)
(4.96865269391747 -0.03563231874915762 0.006423133009731423)
(4.994132557183113 0.1316105920828547 0.006464914227793758)
(5.03619802568297 0.02814982208161593 0.02049665461747834)
(4.57986728343512 -0.09537573706754521 -0.01298659539859425)
(4.467036559982431 0.5502323493509812 -0.08606567857624338)
(4.973253936459403 0.09461833845718048 -0.03740153144387331)
(5.141142695361968 0.1267438389969242 -0.08799945974075163)
(4.902410719908529 -0.005428644751904872 -0.0640773020375819)
(4.770606212917558 0.04025181648188128 0.2717675420753456)
(5.04518043007129 0.02060092214322348 -0.1198601181770863)
(3.354346209460842 0.03380660369639501 -0.1858989266943862)
(1.812115216209282 0.2365094199894994 -0.09139993675400589)
(4.986729863894173 0.234169912184866 -0.2445011633766303)
(4.9848378334523 0.07768655669844562 -0.03374254718935472)
(4.94901458119634 0.03583524027870769 -0.009128366438447874)
(4.24293794377023 -0.02320079748881917 0.04221468664331129)
(5.047344593081644 -0.04606644448298874 0.07500291750875535)
(5.111854933583417 0.08505038962660404 0.228808478420997)
(5.013153056370931 0.04139061895300917 -0.05553249834005938)
(4.977665967566499 0.135608488746566 0.0884808974487474)
(5.114534805549897 -0.02578885570761532 0.1369413601568755)
(1.77540554109784 0.05479743366488296 -0.1674726686020691)
(3.417327666520525 -0.1418136308303301 -0.06172616258335926)
(2.514798056546862 -0.06847607429776092 -0.07536448213881668)
(4.977914528584362 0.1363555758756287 -0.1418377775802927)
(3.146796573049557 -0.07431553697623511 -0.1565499777078424)
(5.000600969259852 -0.003670387235254701 -0.02091626251311331)
(2.629266247603659 0.5151697860796429 -0.1264599914948268)
(2.066803608543557 -0.07892264417304912 -0.2156978039307196)
(4.985194890638191 0.09558747662100589 -0.02846046978877569)
(4.249222806797202 0.001561666174259227 0.1051033772031381)
(2.766613837900261 0.008088995141945539 0.171636100273935)
(4.978060532307017 0.001676345826319825 -0.02251871572055486)
(4.928059612680712 -0.1401881655963717 -0.3176098349413)
(4.999006761030246 0.2583521411177663 -0.2183575442074463)
(4.734809444290812 0.09327837694921401 -0.1204590315366264)
(2.832921340807608 0.4177999491246068 0.2945283952617317)
(3.368976310593857 0.1265721175821697 -0.09738493067274205)
(1.033617168016006 0.008048702907152972 0.3282214111953042)
(1.490216285702864 0.03894799786513001 0.07432115297374259)
(2.288917061865769 -0.3112230823768867 -0.5261683791845461)
(5.077834676769327 0.02226666706802563 -0.08724222598645676)
(3.730942476339233 -0.2163715633568561 2.152917938145858e-05)
(5.173064300845092 0.1259498346834506 -0.1772293292101454)
(4.982339346000451 0.003168455645084704 -0.02996984591309721)
(4.997999533010547 0.1127922848945175 -0.1619846213820539)
(3.256768077292298 0.01333857463010402 0.2752290866696717)
(5.079636868467289 0.1209281814334563 0.09499385274144721)
(4.999709333944717 0.007273735304796014 0.009155322969140147)
(4.961924689151911 0.1366375487262962 0.1553405029239228)
(3.375315505938848 0.2522271399021725 -0.662318294683649)
(4.949427269064681 0.07574627892434099 -0.01970079440675271)
(4.779892491556486 0.07926054768879311 -0.03555326036784797)
(4.836977719658889 -0.07285314327806237 -0.2501792826272214)
(4.119546099242854 -0.01575990339820857 -0.5022891061291511)
(4.904459719898683 0.3639363518934034 0.7377262697236745)
(4.648882083038012 0.1273443712728345 -0.1472456887140685)
(5.591836043839607 2.724486853709979 -2.330265834046343)
(5.033460780873757 0.04456922435201097 0.05503861406248452)
(3.110767025632283 -0.1497857550935166 -0.1616331942692161)
(4.870763366830922 -0.2051637201046692 0.001818340089263617)
(5.023670892769203 0.01446468796720449 0.06605131225603872)
(4.880716927573778 0.4395308574146873 -0.361712408976975)
(5.042110879367478 0.2489794614537121 0.1176304171608274)
(4.997572587253538 0.003270749249127706 0.002394709400319398)
(4.967882092467327 -0.023017452510383 0.007102154206262809)
(4.97630073199358 0.05268210942922596 -0.0406123426516085)
(5.062542155105783 0.2492514980527318 -0.2611865177056177)
(3.303338667451739 0.2615485646109174 0.09364140683983151)
(3.935179404876349 -0.2739710982368024 0.01109055313977564)
(4.998145110073471 -0.09786310829855711 0.0817474246686916)
(4.89391980116221 0.05521131843551854 0.1339459949250669)
(4.987342560616029 -0.02538581641267591 0.0233708369636983)
(5.115060696422067 -0.01332993124554873 0.1213408258117117)
(5.019632282753149 0.1427310136663266 0.01266533237179001)
(4.03726037824902 -0.0540266060250458 -0.2135274864964573)
(5.105890249393632 -0.04770322661804599 -0.04178269687072547)
(4.9865723817495 0.08575568942316242 0.01328015767519532)
(4.997803422857364 0.04568307452718522 0.1474689475644083)
(4.60289570616565 0.2130309074358774 0.01310706393850647)
(4.968453062886551 -0.007658147696783732 0.005477964521138657)
(4.990783640918598 0.1483051610260257 -0.1761406148397793)
(5.001991159064659 0.00804207402112992 -0.01193081156720033)
(2.260692034126226 -0.2737561633352551 0.2532624799406187)
(4.495809972869594 0.2712638369249746 0.0704389778377548)
(4.944689835533024 0.0382602615654325 0.7650193478836624)
(5.053198278073133 0.007829264990759383 0.1422361362260107)
(4.917792515018898 0.08137391736860052 0.04941644225014614)
(3.114599186083369 -0.1315551054169621 -0.2134491876396811)
(5.06762072375574 0.09228194059974025 -0.1180669037971252)
(4.964073473298034 0.1361519403257043 0.1573821735331106)
(4.524046433973039 0.2850586946616491 0.1757288229565285)
(4.971899281699388 0.003076421118823417 -0.009286667497630699)
(3.788831782166586 0.2233634456747156 0.1458906390767709)
(5.110391133101048 -0.05740526215975625 0.06904408722261815)
(4.996598644160652 0.02029079807264825 0.004282342493227801)
(5.117196741965075 0.1013179649355534 -0.05780661669116444)
(4.539244220020164 0.03582030036600039 -0.3083286051181858)
(4.997308775268193 0.07201157453746142 0.05677774088379809)
(4.2870394056989 0.01654528297647646 0.0856691709431824)
(5.062071304049694 0.02604777320793972 0.0006402642605619311)
(5.003812320631744 0.01992643341447161 -0.04302421470726264)
(5.052912087796666 -0.08379450915622873 0.03859853488456214)
(5.097537050478992 -0.01039005330559198 -0.0327249014499963)
(4.999222855921654 0.006621640060892412 0.01099107028429182)
(3.233328405791825 -0.6445917388132414 0.5219740209627365)
(4.926675930796712 -0.04428520671605842 -0.06947209639590381)
(4.992380064869216 0.04922823119709063 -0.01574087544645582)
(3.618171046478961 -0.07706220140150037 -0.082185827157916)
(5.035448690867881 0.05901306641638281 0.06410636411472173)
(5.008215573073653 0.00668773155651654 0.1402003903989137)
(5.427982925888363 0.8778864087525956 -0.09301083953713005)
(4.279182130573461 0.3589077737132732 0.204755417445789)
(4.000438135989119 -0.4545248752693613 -0.2842178888422877)
(5.151440549610477 0.06396007542483506 -0.2598186934214997)
(3.282367954713849 -0.2002957670394681 -0.06022437189591753)
(4.338372166444669 0.4100039616503156 0.4332356493404514)
(5.079836356020454 0.1044376412569993 -0.08185324235452413)
(2.398497190953992 -0.3326348562239403 -0.06292775212231577)
(5.009232012216223 0.0813860065270459 0.01983312814959)
(5.077875059045739 0.02870647091239151 0.1304383123478889)
(4.448247604843689 -0.2070145136910677 0.2600398925325876)
(4.943897197579565 0.1662287641716471 0.03115025099374751)
(5.050023224255037 0.1297253368074676 0.0515878089104955)
(5.061689328438297 0.1891221078535112 -0.002450141620938016)
(4.823169742077471 -0.05081554452296887 -0.07519787542990077)
(5.005934033461322 0.1965673783660627 -0.2955168348500561)
(4.364516584260072 -0.2532708804755002 -0.1251841853484985)
(5.330352461107383 0.5799835631441868 -1.208529380222474)
(5.043359918671804 0.1210502087577507 0.0805042682848542)
(5.017905947920948 -0.01766458048726711 -0.006070630818958172)
(4.733546354858143 0.2287057462086304 -0.2738693231191302)
(4.905676029044275 0.1320328446013975 0.3092736088465189)
(1.18373468701668 -0.7705066562493641 0.3241614872738584)
(5.085681214090775 0.02825030969209751 -0.1126168428817418)
(2.727362238323605 0.1184126855026152 -0.4348360175153443)
(5.048485955643247 0.3010750751843513 0.03825087058494528)
(4.918350371313041 -0.02395608101780524 0.08051873260169834)
(3.227958137206674 0.294045340708384 -0.1118514962342137)
(2.663539772523446 -0.1211615580065928 0.03573867143372692)
(3.05860303777416 0.3388384302579173 -0.3109784288125423)
(4.447794986111523 -0.103694718714832 -0.1669700950050403)
(4.977146678094938 -0.00135934455196654 0.02283460873600821)
(5.015992445581184 0.02950087595032491 -0.01490233398874754)
(5.002163733299069 0.1498199793711322 0.1012745320070157)
(5.026871963199122 0.05350412671746804 0.03178500794004324)
(4.966788419645245 -0.02632857296873983 -0.0460166391422528)
(4.969213869591139 0.1116992468950561 0.001302843034535346)
(4.98978401124278 0.02275638288182196 0.01933544302892871)
(5.037816273018352 0.274206921101433 -0.2180671215047512)
(3.495672953915187 -0.02288504365872258 0.08002034562158877)
(5.00462106922252 -0.03332673090332655 -0.0546336622902126)
(4.869782969130375 -0.175081567322229 0.13609044367761)
(4.875726142910412 -0.1206156243085309 0.007439027775030875)
(4.967355164640173 0.08810965741797183 -0.2007288363461423)
(4.138227883731259 0.3126765649833619 0.6588820033367579)
(5.079129879720479 0.1026799361162827 -0.1310460865213642)
(4.741242222154376 -0.02665758817512948 -0.06455257696150564)
(5.024582525008932 0.02973394715779517 0.0545155171611145)
(5.036274236318764 0.1699818629265415 -0.01436777032310343)
(5.052790923001943 0.04322159018085115 0.06273722389282221)
(4.981655145752979 0.1065272559190769 -0.1084234086751672)
(5.000464361842094 0.06885308402392024 0.009008889749353143)
(4.980383292122431 0.00469697714258496 0.01653881599070024)
(4.857216440183322 0.261464092120896 -0.1147561770396006)
(5.009974973810393 -0.04771690823891828 -0.007369288042719664)
(4.954045691287379 0.1272065649598876 -0.08066883837084825)
(5.005118146205293 0.001883571254658068 0.00249947082492014)
(5.03185121928243 0.06136274662240112 -0.0453316379125135)
(4.003318157858173 0.3266558839452532 0.2279582790273781)
(4.841305603680513 0.170084664820354 0.4463653782487938)
(4.998195546484346 0.00497693480737153 0.02496327603450497)
(5.073511080413771 0.0265847063121826 0.01678997356778895)
(1.022250838974783 1.47522755453699 2.167549845634384)
(4.99287050346186 0.05685062360582541 -0.07342068274086698)
(4.945524681422354 -0.02637641426212122 0.01164750181674358)
(5.007849292085673 0.1961810356405946 0.1515890906600492)
(4.963443773778411 0.03162076718912918 0.0007464160848012884)
(4.923800042470517 0.09711033780356593 0.1897464976427908)
(1.291561523267732 0.8216302900567517 -0.3833953186618986)
(4.987200775397513 0.133721647413493 -0.0010239959161438)
(4.761527767144273 -0.03056892217333763 -0.01268079364625747)
(4.93350337642199 0.007677571491667955 0.01599468782712811)
(4.973748933776151 -0.003636909548723698 0.03517664732408973)
(2.479058064302055 -0.09127655519344358 0.1560485302896162)
(2.566150695653967 -0.2498588004741831 0.1921337093228773)
(4.961028730423159 0.01163092511062006 -0.03421487654542719)
(1.852305979694889 -0.08288284353856953 0.01323658355619771)
(5.00149473578099 0.03758373230851883 0.03290481335823987)
(5.032790786602659 -0.07093603505679864 0.1768527002783204)
(4.977422718435682 0.3699415356573855 0.06971022587904091)
(4.999258880667653 -0.0006645013531764004 0.00108298109709594)
(2.202978357934571 0.09283842570723053 -0.07849003074475654)
(4.969933657122485 0.2182662017020608 0.1152618793205441)
(2.154436967803316 -0.09399880886439077 -0.2530934495194191)
(5.069364120199003 -0.04378808370655793 0.07601573210466508)
(4.9140586348358 0.01757483111920793 -0.04005368495314015)
(4.417357475687941 0.04693832455153699 0.05609009368511046)
(4.826845876510749 0.04107048557053945 0.03996630136852149)
(2.14430126378814 -0.1856908331084246 -0.01209093162456588)
(4.370958566159075 -0.1228478651785326 0.08628712618166864)
(4.718452490464628 -0.1748443189291146 0.06420727324734068)
(4.750790421663262 -0.1323878787569949 -0.1654819034100272)
(4.9942631653498 0.1067733978338977 0.09718813157092171)
(5.033886251716786 0.0323790629878059 0.146702945537027)
(4.99000096620986 -0.1435932527421693 0.006741381289415359)
(4.046172116123746 0.01343730346206178 0.204098931198433)
(4.997681281102093 0.3663386411005755 0.02027982256983853)
(4.992028895300209 -0.0002044136013062501 0.00731693342792297)
(4.98453514277928 -0.1086492852807295 0.04105638314483945)
(4.885856078917344 0.3387494877256689 -0.0796801366142533)
(4.446752920986279 0.4089099099745629 -0.3007646285705155)
(5.010827413387314 -0.02057402692471016 -0.06424490510297472)
(5.081708392274182 0.08746597055463701 0.112515281407451)
(2.088293283684974 -0.1405901697201446 0.2007953439463348)
(4.064149304556384 -0.03152475830983047 -0.04576310163470286)
(5.005760064179116 -0.03219428139289796 -0.02638213849339306)
(4.917509196800984 -0.05311628666041969 0.0110927981330297)
(5.045035563060027 -0.09146669006043288 -0.07975163633681838)
(5.030333234033931 -0.06964104418543837 -0.1629377659190464)
(4.691659229521886 0.1320069536576801 -0.2858066183840388)
(4.279458427730413 0.4292266862160206 0.1244291774464952)
(4.934916573150419 0.4021317673615677 -0.6148223728492462)
(5.053782460324832 0.2251468279562845 -0.1945291409992309)
(5.150370571053597 0.05338433324019152 -0.1502964212264638)
(4.983930440944571 0.07071155199933815 0.01905626210824276)
(1.053192351684124 -0.7379807297418011 0.9763192536339085)
(2.290461099620311 -0.1337013501180928 0.1712312721714655)
(4.430765954113767 -0.00841120457667952 0.4914886715046963)
(4.988981652057455 0.04322526591342583 0.0240045162117165)
(4.797996693674366 -0.1615601787785135 0.07575870596260698)
(5.010525170830112 -0.01284086943066006 -0.007675270033428383)
(3.628717910797512 -0.0009509011523812852 -0.505664438661441)
(4.952561705383618 0.06708476686848146 0.03886885147151542)
(4.897751653725305 0.09710637483235884 -0.02186529524189787)
(5.081503863841976 0.0188760453230204 0.04860044065033828)
(4.751894844187948 0.05092514863524104 0.3733457165225084)
(4.37328688638313 0.8191656120374556 -0.4552740261590054)
(4.976345740519051 0.09983583674090564 0.1427089575455688)