/*--------------------------------*- C++ -*----------------------------------*\
| =========                 |                                                 |
| \\      /  F ield         | OpenFOAM: The Open Source CFD Toolbox           |
|  \\    /   O peration     | Version:  v1906                                 |
|   \\  /    A nd           | Web:      www.OpenFOAM.com                      |
|    \\/     M anipulation  |                                                 |
\*---------------------------------------------------------------------------*/
FoamFile
{
    version     2.0;
    format      ascii;
    class       volVectorField;
    location    "1.8";
    object      vorticity;
}
// * * * * * * * * * * * * * * * * * * * * * * * * * * * * * * * * * * * * * //

dimensions      [0 0 -1 0 0 0 0];


internalField   nonuniform List<vector> 
19631
(
(0.006990684821710572 0.07018249668442553 0.009097113432034379)
(-0.1426629012991849 -0.03645475345509627 -7.711404404050073)
(0.02187674956757774 0.003419657329830987 0.04650920866160255)
(3.764404049771644 -0.776545480592321 -18.55720737416447)
(-0.1104791042735509 0.0377076348391519 0.0809233138786086)
(0.2149145407248273 -1.20696359574906 0.2845222568581771)
(0.1298858240204869 -0.07941129517749429 0.03250367279006135)
(2.901772143126143 7.24271791232123 -4.849784590606067)
(-4.650557439751732 -0.289572300488866 -6.907540722187022)
(-0.06083725250834874 -0.009216894103158197 -0.002214220625514662)
(-0.4298912711743311 -0.02559996423332665 0.08631728754237653)
(-0.5105634459813257 0.2247664963580647 -0.02411219403630355)
(0.3147383706943908 -1.15460874506757 -18.49848239402581)
(-0.1900034456958724 0.1205985675033817 0.09025050882430311)
(0.00134761385410492 0.002513544767599919 -0.01321710712287603)
(-0.5104665365632234 -0.3886744306832726 -0.9118068697416549)
(-0.1712301123485154 0.2935881198284166 -0.132695933747431)
(-6.126218371767818 1.858592882896432 4.524896036158589)
(-2.029673585437124 8.279576034212734 5.349586272442428)
(0.6256232400277559 6.048155724581258 -8.112275177697541)
(-0.1280180221600551 0.006946247310862323 0.01560636255100048)
(-0.1062229409713317 0.07707900543460842 -0.03395143263173295)
(1.192704189785962 -4.273065669875773 -0.7315513178301253)
(-0.0463480921319275 -0.02255608024794623 -0.03636285147031532)
(0.1316839940285699 -0.1754267638724182 0.1858475960737382)
(-0.05326086788945014 -0.02618781136701689 -5.499940754911094)
(0.2011892449017672 0.8362559136600887 -0.8088310497534489)
(2.757928282444897 1.769437376295875 -3.630719666397699)
(0.3924260647029085 0.1171952648353319 0.5424223583039836)
(0.00523507960023978 0.003506676900932735 -0.01559089131828751)
(-0.03415918977606811 -0.00366568565478341 0.05277731966704412)
(-0.181713519584895 -0.0220005965049848 0.04969307484594711)
(-1.099307270556855 -7.838955311353619 1.073320682498853)
(0.1420111076560022 0.02324756404846959 -0.006001340096137561)
(2.021869997843056 -1.03386995058009 -2.052006905665578)
(-0.4818202741138676 1.06708856178987 2.845324789133576)
(0.006980339550885747 -0.002240519434130962 -0.1118918959996649)
(-0.07430275216412585 -0.7323035042481717 -1.527145070117444)
(-0.5626862178601389 0.5748501327827251 0.437019490785466)
(0.452182326353543 0.4110783800561638 0.1868239980711175)
(-0.540709425321934 0.7880438154362798 -5.699040538016177)
(0.03915021201711723 0.002225696105170337 -0.05273727541164418)
(0.04377026565111818 0.01396692715320333 0.003058657482319554)
(-0.04236610516762085 0.05954251492774933 0.08149220943190218)
(1.961925138276757 -5.566880437786666 -4.17147466805816)
(-1.286802350341575 0.3237003563624798 -1.299357148133959)
(0.009677385204291011 -0.01990027594139786 -0.01697260246159181)
(-0.0203092830827252 0.2839024988487533 0.1050435567461731)
(-0.04401511946011255 0.0007579015041514728 0.00403185685969756)
(-0.05296703663263071 0.01368716993700111 -0.3080084666803583)
(-0.1904235422433387 0.3766600940359566 -7.162626322269391)
(0.7979559911519204 1.19873634541206 -0.6350570617048128)
(-0.1131267279698996 0.1234324761085592 -0.037963039418468)
(-0.966197300691845 2.591414369430603 -3.697699331642793)
(1.739723179999801 0.9808835866949194 -0.1278808959021984)
(-2.349222736266783 -0.5051481738264652 -3.144591035244712)
(-0.02222345651957865 -0.03108676124505474 -0.01564489544894008)
(0.002610821630130086 0.08268873979156287 -0.093067582446938)
(5.587034954919034 -8.819196535917529 0.8378728513087057)
(0.02455062609844878 0.005527004933903523 -0.008893146084119716)
(-0.0003068353969711904 0.01224823307633509 -0.0596771570971852)
(0.7480808775335883 -7.72866435912916 -2.01333301586012)
(3.535525194542338 -9.186380669174866 4.326307837664801)
(-0.4700093672138218 0.3458635139947434 -0.3414123147580529)
(-0.03514496310584275 0.007251149646941235 -0.1107190548204637)
(3.01791992260418 -11.08321769656557 -2.762454473664935)
(-0.3333552793178213 -0.04592617464442476 -0.08039770904510952)
(-0.004534233853479008 0.135045069295012 -0.2092188929921696)
(-0.4003284619314548 -0.06450439435484696 -0.2001748843447882)
(0.03294519818695355 0.01422849738622941 -0.006063210859564181)
(0.005979364679104549 -0.01652773855180406 0.02385471674069771)
(12.03685156437527 -10.96258305818407 -16.93599050817368)
(-0.05542766856887679 -0.01207612514188561 0.0003430627732103958)
(-0.01167352197187787 0.0002315142580813223 -0.04980667465512724)
(-0.3032178263321394 0.08596825123958467 0.006769070938447013)
(-0.8096656326128187 -0.6735284506036147 -0.9034581989485131)
(0.1062025241998211 0.1244104321550019 -0.1152250504004067)
(-0.3557044147062754 0.2081086599696728 -0.6723131236187094)
(-0.1705492668854141 1.038905432045031 -0.1854862673195544)
(3.799401790688909 -6.858436378966591 -42.35472449130482)
(-0.02328216394661132 0.008385553997856902 -0.05823696562177025)
(-0.2116453478093779 0.5146024775492577 0.2848081998836808)
(0.5057393066224085 0.1485866397233876 -0.02670245928656731)
(0.4406501621196978 0.5238808044955428 -1.07842075300953)
(1.197550255648843 8.163966784664128 -0.9049288681456018)
(1.895659117418511 -44.00284039007275 3.829105231718949)
(-0.2272977964193854 0.1296023580491602 0.08170826838240335)
(-0.6663545017001906 -2.058294113268164 -0.8370893078373598)
(1.946644782428187 8.607752793983686 17.73940223992985)
(-8.275482075617221e-05 -0.01548929634052585 0.02832886201597208)
(0.3491714878707511 -3.419919388150131 -1.362635235740323)
(0.1915865761765807 -0.1039716096211764 0.1803929583777318)
(-0.4471488796393316 -0.03907497026953569 -0.05432460210993815)
(-0.05250647801053653 -0.07931712758499021 -0.07558030093191392)
(0.6834204317658876 1.933388441312498 -1.804129545812729)
(0.2047839840015601 20.50032031822284 -0.9444746492698606)
(-0.2582000136009855 -0.07639733033288289 0.1462365017748176)
(-0.5574682773315608 -2.179358092233391 -21.36550696542832)
(0.1112865384112732 -0.03235923019307206 -0.08739883051069336)
(-0.4448852391879704 0.2771799475658825 -0.07549360852733956)
(0.06511663934070899 0.1295134803836648 0.01967610268952997)
(-0.2352779522234127 17.94584991415137 -0.836579797741121)
(-3.666119877085112 8.130245258255835 -5.34671890721332)
(0.06661585131244643 -0.003835695470463873 -0.06406624400897137)
(-0.1325164240309291 -10.55720593281582 0.1628687709791382)
(2.034357125839733 3.731712278273038 -5.1633579901372)
(1.488899495250195 4.532565443888121 2.865386412176824)
(-0.04757744734843239 -0.01269435383084138 0.04632109991224857)
(0.3094953868029039 0.1283480493856727 -0.1508437897364493)
(0.2545772536491275 -9.083236773465543 -3.893404648567373)
(0.3010835499490245 -0.1505179315248024 0.07594415856436558)
(1.443748309903014 -6.444407296617269 2.603077953396332)
(0.8480095889011046 -1.187145397661116 -1.818798562998928)
(2.583870718632452 1.799984469187963 0.2320298653621928)
(0.52915486686814 -0.4349100665549674 0.0809641644707243)
(-0.07527913407505205 2.37331309907165 -0.6826774028093872)
(1.618985899430659 6.75862538444634 4.593893319664563)
(-0.03490467496593275 0.003656616262334083 -0.003271047440533734)
(0.1033536973437537 2.840429287207245 0.3855128327467698)
(-0.2976144411284553 0.1440444112234405 -0.1184373019642882)
(-0.1189486149413282 -0.03860997025321022 0.008187673329846455)
(-0.08862610741797389 -0.03471530332328016 -0.03353461476516445)
(-0.09853658634917625 -0.01666371476167169 -0.03188017894798314)
(4.810487172864567 -4.231200831689529 -3.240299393254061)
(-0.1367280563494218 0.3142807668178262 0.008789379488027133)
(-0.1477878496208521 0.3071042334766193 -0.2024273948514525)
(-0.5912093670615831 0.6448851971313946 0.2330407586575741)
(0.2775710044141812 -0.08610422355753834 0.1432283049570282)
(-0.05430055517262626 -0.02242524774511272 -0.004524121801667512)
(0.861356960539061 -2.3328905584221 -2.009858024467739)
(-0.0244642326229055 -0.02465445006975646 -0.05468802909530459)
(0.409919179797077 0.03176847919767178 0.06665323558021058)
(0.04552391456329138 -0.05530585048928185 -0.1121006960568905)
(1.323751030535866 2.142223674121215 -2.996966942358303)
(0.4600006954744083 0.01037822168987529 -0.1527662878264976)
(-6.078333443515128 -4.576537364144162 3.359940194431473)
(0.3634874909080146 4.217578492749944 0.4759412563616368)
(0.2603300956601473 0.4670681455118357 -0.1716751043627708)
(-4.00581068626966 5.144084732896165 -23.41180527961636)
(-0.4529352547827223 0.108123571988139 0.4827030911158707)
(-1.919946237919239 5.776787511414399 -0.6766747925174336)
(-6.512822212396417 -1.208172444482728 -10.0198222599611)
(1.354151215858193 1.88561340107925 -2.181794527642895)
(-0.007385733105513003 0.01366531986774933 0.0124264746633985)
(-0.0003566708112741762 0.1260359108128961 -0.05450766376030013)
(0.5589929609910598 1.617347741019326 -7.948342776611761)
(0.09223036244368303 -0.07525208363517909 0.01541088776756526)
(-0.01219759981313357 -0.00365908418247204 -0.01668185589801548)
(0.02882454070662848 0.04548984604637159 0.01383506887341215)
(0.256439771012348 6.847826046692818 -4.386647104676293)
(-0.2878724428980104 -0.08423419578260766 -0.08952357570509242)
(-0.07088602138229722 0.01729210531145718 0.04056566781728363)
(-0.008125593896855927 -0.06633866362313892 0.01246271567792048)
(0.00651074059692211 0.08413564704051142 -0.04056453966449133)
(0.05512027794356941 0.008102953630492786 0.02312758057697251)
(-0.2690425786828126 -0.165235905929192 -0.1241330979129514)
(0.01703023062589171 -0.009708277823012248 0.02791236138345795)
(-0.1386230016040359 0.1402908909543086 0.1664533032089423)
(-2.665605910951435 35.24942258618269 5.501025163350461)
(0.1407860389448058 0.1221562054330489 -8.381621150805573)
(0.03514713437670629 0.01509884331726609 -0.02667226085295038)
(0.02993012602708705 -0.01320833515584804 -0.04029487374265183)
(-0.0743189975192472 -0.01384055291000773 -0.01231230604035726)
(-0.1005619775403146 -0.009658893039491877 0.007859237788160396)
(-0.04903687800990824 -0.006360333652053653 -5.450190077914214)
(-0.0277634211650098 -0.01777708051801731 -4.946510862924277)
(-0.1970115790739228 -0.07950430534918522 -0.109359462503025)
(-0.03476703552814154 -0.04688668381236417 0.01578181810111842)
(0.09132998117635904 -9.134409984673397 2.619765535725096)
(-0.004042122826312699 0.01285968650461979 0.001653803104485985)
(0.06413718324022601 0.1474557005528552 -0.06883432184232323)
(0.005446220481354028 -0.1422188188610524 0.0419494556037788)
(0.3755843647342944 -0.08430006316209339 -0.07336475458718028)
(-0.06714526858635535 -0.1151744562678824 0.01293726121632499)
(0.01466794724204469 -0.06471127372116081 0.0789029102548111)
(-0.08969080927560868 0.2235111702236364 -0.04784540635053974)
(0.008479533571058202 -0.03204391330873866 0.002080929007325747)
(0.001533738951533081 -0.06018433331549662 -0.03642518727938974)
(0.1312762613375211 0.2414414736865259 0.3161570910798545)
(-1.057079398154369 1.438004498096375 -1.644380367380418)
(0.06972866866470803 -0.008918639274050618 0.1103262203738918)
(-0.05843069611324977 -0.002763567684451542 0.02843097143961384)
(0.02328178975714452 0.01502216109947698 0.06034538410067979)
(0.03082633296880354 0.01520682575183833 -5.353946751904537)
(-0.04532511237594126 0.01818993788560759 -0.1581083439113981)
(-0.01117709583719779 0.01192420593218228 -0.07230467520024625)
(-0.009768929247849809 -0.1681773771907812 -0.3000707982039276)
(-0.008713563549921867 0.001679774763161467 -0.009557311700181592)
(0.007761130514702903 -0.08701852807820659 -0.101508598463529)
(-0.07098513226815538 -0.02510431014488986 -0.01050265140050503)
(-0.1599072683834346 -0.0001318509629678714 0.0397940504992807)
(0.114986254664608 0.06735186118320093 -0.05270850400579425)
(-0.781310506124308 0.1891362688548766 -0.220588208391356)
(-0.02169919712147513 0.00120752118268289 -0.01624987083902224)
(0.6628942149545972 0.04310295605912848 -0.6670879551045493)
(3.717973601092633 0.1439972181019302 0.1583977406427992)
(0.4900698117159581 -0.282647282117337 -0.004047784533274847)
(0.04992201502902677 0.0212466518074797 -0.008173667658628444)
(0.04437581887109374 -0.08609255783551366 -0.1060355169100514)
(-0.09686133551020862 0.03508829963537681 -0.02272303732167811)
(0.2271489345944921 0.05175241850942991 -0.09109214127603317)
(-0.004764397515899184 0.06267815999583697 -0.04338291002167571)
(-0.03781917478739268 -0.006523998368885335 -0.03221568530949875)
(-0.02887490431708767 -0.02267789857395439 -0.194897785056821)
(5.14188308653029e-06 -0.03056121528092736 -0.03079863227522985)
(-0.2226036872301311 0.05155754602236264 0.1982435373578281)
(-0.0283305811074554 0.2032432686933746 -0.1656050348423178)
(0.05419648214109798 0.2136662889804685 -0.1970346452902971)
(-0.09807008246225038 0.07733833954806034 -4.649357043914827)
(-0.167152362731919 0.9333027235996211 0.6901696375686395)
(-0.07526932031026495 -0.04320283672279036 -0.008698951747131929)
(-0.3170747863628257 0.7819544642589638 -0.1016584135655615)
(0.08649768692653859 11.27672073556093 -11.42711556362271)
(0.03875891270150814 0.005206297379344482 0.006494740240210362)
(-0.1331703361795309 0.04441871362579074 0.1114839159431404)
(2.508440580208923 -1.633970767367476 -0.9697262827649817)
(0.03768923637345301 0.008229850422937982 -0.0262067305466831)
(0.07492298563999682 0.04290285586376839 -0.003507105521834425)
(0.02277415384487401 -0.02511976816707723 -0.009704595610925956)
(-2.242029258741847 7.316696409256839 -3.434461836325719)
(0.4160558376252195 -0.0705795334919571 -0.02643419779396524)
(0.2400914865101964 -0.1262149605608223 -0.3486805630257326)
(-0.06620797944320805 -0.1189867281144565 0.006074758368137105)
(-0.000100917096028288 0.003461403652099382 -0.005624121060250824)
(-0.01171764775259057 0.006967071342960953 -0.01314447131264191)
(-0.02527392655650211 0.06073709486335709 -0.03186267959226111)
(-0.04674058440538593 -0.004764724513214594 -0.004715415434801713)
(-0.5092332375747179 0.1389018320953865 0.2023421812554939)
(-0.3159396341229319 7.586105641780156 11.36253461328813)
(0.6142275084973718 -4.891224074120134 5.501949986591764)
(0.0316627264650689 0.01031123740421315 -0.009408149633632209)
(0.4099326130127035 -0.8186705373921364 3.777840889748971)
(-0.6549904134386998 0.291034401263565 0.8332638059359037)
(3.457162226246297 8.494868861806935 -3.664508904017377)
(0.1368055488755831 -0.9020490577972773 -6.03431573627297)
(0.1608973198156588 0.630065646174964 -1.767908055036273)
(-3.396725369335894 -10.60552532505099 -14.82857962004969)
(-1.842907103472692 0.9489883598098161 -1.326556512500663)
(-0.5754198810517329 0.09974285227573995 -0.2646115747119244)
(-3.293280762651501 -7.412042349488837 -0.6202322988666099)
(0.05841737323217227 0.01219085778696806 0.05252644228405713)
(0.7493137970375318 -0.3176218983008131 -0.8476796160507238)
(-0.1327554549000287 -0.06438357534549811 -0.05243151125934404)
(0.2771030922258532 -0.06982483678092216 0.1592585983715758)
(0.03633602399223701 -0.0008129938219486408 0.02350725108321412)
(-0.3570871045802729 -0.5133211145778875 -4.946660804620427)
(0.05130716202384352 -0.100190196790487 -4.814933430207983)
(0.04863635517266603 -0.009398733047678912 -0.001762909130610832)
(0.9527733977754053 -1.109399454770418 0.06678809555894895)
(-0.008497316610284127 -0.0006223230446047163 -0.01352136715473754)
(-0.4656534071081913 -3.157986722091804 0.6343229454341015)
(3.724261601103395 9.200655904274786 1.765380562951733)
(0.06587216063816395 -0.03420578285290031 -0.01611257383566782)
(0.1619339162519324 -0.1661060680402713 0.2235502837371168)
(-0.03856515161207844 -0.04073852244551414 -7.817528278075845)
(0.4878210050636715 0.04686557556202746 1.371825119426735)
(0.06065750208771642 -1.337513761150714 -0.8945593158152498)
(-0.01367656123199448 -35.57208508793456 -1.167681833266579)
(2.338870330158678 -30.77684650279045 -0.909432113953897)
(-2.084908320911043 0.1056696569313941 -0.5050620554375774)
(-0.03989851533594647 -0.02982997502885146 0.01225717030169214)
(0.1247238161176463 0.2490801049403507 -0.5678862907131917)
(-0.5098942519247753 0.6359745671600228 -2.466147580293461)
(0.2961243163569711 0.2929361553953534 0.49651624996788)
(-0.1728332759540215 -0.1783535474980902 0.1639364962537974)
(0.02245983969537521 -0.0305505521789133 0.0268798762729221)
(0.0520132288116656 -0.144779419854215 0.058359653071578)
(0.3027063699471009 0.256070643335121 0.08433553696522275)
(1.328989194508375 -24.80303529008983 3.410975432128059)
(-6.540053601707355 -0.2745997270917923 -35.66364218623136)
(2.361663214637148 -5.030880977133146 -4.020206418277462)
(0.05428496910500355 0.2168751368323721 0.09188979941703479)
(-0.5015629380852803 -4.22734366320124 -3.160518266875467)
(0.002868985094184799 -0.01399417330861398 0.001949242012335786)
(8.108344533055266 3.882661289046644 1.236340353243392)
(-2.975599107531885 -36.25294740864874 -0.8833717247711403)
(0.02649684246248888 0.01240958447021723 -0.03436487532318287)
(0.1870819314306702 0.09142896766123489 -7.100640211215262)
(6.209707066851488 11.71838311794644 -2.2588173999765)
(-0.01302573547496075 -0.00934188025725498 -0.02026043139712883)
(2.587061157320247 -3.971001830141148 1.181891992622824)
(-0.06716019955955399 -0.871907555426461 0.2992165724369244)
(0.4912850850553975 0.3433795865480778 -0.3408526725463705)
(4.788599255708842 -1.158399854021325 -45.09059557093478)
(-1.468176484546106 -7.401796232337794 -0.1686796513983073)
(0.4171212411316322 -14.91662447232781 0.432613710915074)
(2.662640470308395 -9.622237304500784 -32.78638327620492)
(11.81140539792353 32.4135238532407 2.036229750863777)
(0.01297641126224744 0.03253968014935563 0.02429804984724143)
(1.782271438702297 7.459734727462478 0.06979378343136074)
(-0.03089309219495234 0.001793530465565102 -0.2011128034383748)
(-0.3478752999997945 -0.0884117485299199 0.0634009282066597)
(-0.2497063532594372 -0.137180865573914 0.2330969730287773)
(5.174498437188901 -10.08849800516578 -49.17177838729101)
(0.7233661157743243 0.2469422075926228 0.2895722608636526)
(0.003681790056675163 0.001861703083754763 0.001213001003591735)
(0.2663537752620586 0.4165511377792245 0.1246048378861079)
(-2.383060929466007 0.0784670477857243 -27.8225737747653)
(-0.01989354959332463 0.04808980296281777 -0.05122704018436159)
(-0.2461335616218441 0.08120795857444288 -0.3928153794786123)
(-0.7433071607002928 1.357693724660906 -0.5758066979518182)
(0.9984558366569818 -4.061618872593858 -4.880044071356853)
(-0.3897383451855109 0.9200978563713944 -0.478023817331389)
(0.02697947551221314 -0.1940150464593411 -5.333343997712448)
(-30.38476504700949 -14.99642118001698 -25.04794560435545)
(0.1279732650651502 -0.007833692321392884 0.105282304258259)
(0.4034235700335381 -2.368674940939651 -2.486541721054573)
(-0.5273776192034006 -3.016533561754157 0.6507905926909417)
(-0.01494692208632317 0.02282209916707116 0.1077920987809005)
(-3.044564143918348 -0.5905526984833356 -0.06214408006261317)
(0.5358819089226755 0.17574820294389 -0.2543092742309021)
(0.003272812630023852 -0.005008333677335768 -0.0004910076003636207)
(0.003289554988421936 -0.005839030921501108 -0.01893754605158945)
(0.04109479535765263 0.0292594737679189 -0.1503324667734128)
(-0.07308293142259378 -0.07275821988897256 -0.5524582077905188)
(-5.395247374847044 -6.507482063646049 -0.342854230152003)
(-2.727479761688667 -13.08513510688437 -1.432371151337476)
(-0.4153371023841209 1.128108840619536 -0.7876038464683244)
(-1.251054079221736 -1.099445839926321 -0.1911775299701939)
(0.01488006672698046 -0.02280827730991134 0.01704235130767383)
(-0.01143544196839885 -0.119147655380785 -0.1773731088147619)
(0.3349838268899741 0.8490279355560517 0.003197849431536781)
(0.4283847046711889 -3.461895396812915 -2.851470737103847)
(0.03385010948928005 0.1601351048283802 -0.08296609365031483)
(0.006987685137130429 -0.01856008444437093 0.01272504998835854)
(-0.4054327047923076 0.1272277247172686 -0.07637696393879306)
(0.3239480239129106 -1.6288296682229 -18.64609435819677)
(-0.03448849960292714 0.003892737984091222 0.02970827524382908)
(0.1858004567662644 0.01855263946450295 0.1652234030753906)
(0.00281332685784996 0.01087148955847232 0.0005266184464126234)
(-0.6213122633473787 10.41529722673333 -6.353444409963108)
(0.5226435038163491 -8.151631126667683 4.897427429212471)
(2.799032985000228 -0.9027044949421711 0.8645498616873677)
(-2.277146678425855 0.2514734686949589 -0.6485105424997326)
(0.2083600205676653 -0.04141510888615665 -0.04706901422379963)
(0.5292430479152908 -3.604955519379328 -0.9156754168334185)
(-0.02035481335877008 -0.1204219019630781 -0.09790727633684673)
(0.6670685561671942 -0.02773858958056818 -0.1776143426050877)
(0.7031131833100226 -2.631801958971684 -3.087153032639112)
(-0.001102480560360532 -0.006579439631141102 -0.1253898493873036)
(0.1218709048974034 -0.7912550748683893 -44.81256190650604)
(0.298848239505855 0.0550258275812628 -0.06016389711794537)
(0.007755566982093078 4.037598067248912e-05 -0.007057377202993534)
(-0.937724770862113 -1.758119096435176 2.05351438023594)
(-1.202473947895552 -6.944086791279685 -3.133346709334234)
(0.03880202923684279 0.02919271074364959 -0.1164334821789807)
(-0.4673443728800891 4.741575169460627 2.606540519485717)
(0.008004139223375853 -0.06412395877437385 -0.05201340599141237)
(0.06833833792280522 -0.01337926731826139 -0.00462509761197729)
(-0.03684335836917055 0.04069829213601816 0.01033131147875236)
(-0.04776886105581192 -0.01248644267496646 0.01838716482219967)
(-0.008939692816435457 0.004946514965541458 -0.01020082546703356)
(1.37782410132263 6.2547487425079 -8.740536276195208)
(-0.08413988258479824 -0.2832543908239048 -0.3588017300047791)
(0.2307835392414536 0.2072475031046214 -0.008946701745904125)
(0.1895946954132545 5.011671797624103 4.792108216910018)
(0.1255968247229229 0.03930886915498955 -0.01404513517340111)
(-0.02112657320016931 0.3128596159087534 -0.291511421984073)
(0.8302094063236034 -1.444423662091123 -18.51198529777617)
(2.542739208192258 1.402135349202561 -1.83237813919037)
(-5.266368111420527 10.9393388349041 -2.65718791996093)
(-5.653837372748422 -5.357321549959519 1.395427632116413)
(-0.4603889441438518 10.80340363713949 0.6041866702772141)
(-1.416800655569774 -0.4794308434592293 -3.488745472545784)
(0.1368223032487055 0.2416853984470753 -0.05130136378375537)
(0.1755628393574969 -1.36210800726011 -3.075443518553393)
(0.006571067914948868 0.002149883340411122 -0.0163135733921677)
(0.01617915589536561 -0.4759237169326361 -0.01367796677492704)
(4.395542088532718 -4.359666686424216 1.112127842683305)
(0.3880596251332498 0.1681694076622477 -0.1080601183247763)
(-0.07488633352961552 -0.1354112770206081 0.07010751661335229)
(0.6775866352728664 -0.4437750549643719 -0.0932768516230241)
(0.0586838858254864 1.271957312861849 0.2388476548702697)
(-0.1226178300993934 0.03349004458244227 -0.002288299160420007)
(-0.5881606883191648 -4.922494910079648 -0.3016290717782134)
(-1.003984995045327 0.7721012588582088 0.3352737145496196)
(-0.1692246728025687 -0.07076094745061559 0.05664407539167707)
(-0.003235963956309125 -0.005505727130363924 -0.006432305361850704)
(-0.658753649648177 -1.670867805940239 -16.76441490136211)
(-0.09385073979295583 -1.667155619920966 -0.05415131864087473)
(3.952257227852306 28.33581091241024 5.096295320095479)
(-0.4449459573355559 0.02938403910579844 0.04036072109687369)
(2.363685528074369 -10.55890633674342 -6.805426510919212)
(0.4676458991271228 0.1727521537367952 0.02250786203839708)
(1.1723761382798 0.3175326151854616 0.4784603602491547)
(1.861352591285892 3.51228875906504 0.504902449063752)
(1.881099149149161 3.7343799126235 9.381721417544963)
(-1.727745421872291 2.158079562618945 -23.35308530668217)
(0.8235916372878739 -5.914555244939555 0.5014571619264232)
(-0.00573047058605332 0.02359044049266799 -0.03133221505189047)
(0.08664666823972367 0.03517692863011756 0.04844709189431047)
(-0.09823405151029921 -0.1198918251982849 -0.02327439665291527)
(0.02451504178489159 0.01132934881704868 0.02542165893189878)
(-0.1406893546267118 -0.152907792194779 0.09713932648343666)
(-0.03884222990058924 -0.06925976401064808 -5.508377388023623)
(0.007131990611616113 0.0234636231373048 0.01619384162652545)
(-1.112388607496466 -0.04652122012985904 -0.5011613375467073)
(0.5851933234623929 -0.4619015273685229 -25.396985340393)
(-0.0208904462918663 -0.02906062259110715 0.02747383875015371)
(-0.7095322841224705 1.345073159274896 -0.4739352482873659)
(0.03249826358240115 0.04443110076448006 -0.2341620542767197)
(-0.3100566902766615 0.2805464029071199 -0.1177264642297157)
(-6.923954043060488 -2.216892277077968 -0.356200893722078)
(-0.2742856345239698 -0.01091824415519138 0.01990564042845723)
(-1.303627219213416 0.0004125074863115072 -2.127741764281654)
(-0.01381603952931789 0.04535083917143379 0.08057925020284917)
(0.07623407109814834 -0.09058313251342349 0.09773601101339115)
(-0.03719662454315682 -0.07911846268298209 0.03682744023449895)
(-0.5333727858787701 -0.146924960720834 0.1024385393347276)
(0.1806148490508816 -0.01310989817133658 -0.04742454127645645)
(0.0431016279860767 0.0155914619015052 -0.06777762837018129)
(0.3583031282062384 0.06474428100679055 0.3173245790580223)
(0.004060526857411345 -0.006418307521489914 0.0049895344694732)
(0.2161538096007223 -0.2174949086432076 0.1676578063467606)
(0.008259870614411384 0.007560270079075329 -0.003617115535414649)
(-0.1723759407476824 -0.09127103346642568 0.04887443714422703)
(-3.94931409367983 59.43341627458153 -8.330428523100849)
(-0.5019008376945517 1.285083577424577 -3.417811929528674)
(-0.02731190810324599 -0.03147675703512161 -0.05510339957258136)
(-0.02340545040289946 -0.06994591865017255 0.01257079646674757)
(-1.780206652628711 42.51518094632713 14.76372515341105)
(0.2675171454513746 -0.5537301064410395 -0.09132319068472124)
(0.05382943109859697 0.06947617331515051 -0.03704173373678739)
(0.01081760839803214 0.6986161102709463 0.6911743181394416)
(-0.01662674048578366 0.011810803273881 -4.992757517263251)
(0.2908437427019077 -0.6032896747001646 -0.7606344534466916)
(4.412273082095718 -0.694127628401916 7.834463493959024)
(0.03094208300299806 -0.1654264816026978 0.1118181767049969)
(0.2332191363673677 -5.36074136060003 -0.7478083426916646)
(0.004579440332023793 -0.02388988098753403 -4.767186012121452)
(0.01436506407801152 -0.02313968610057193 -0.0349410133072854)
(-2.726527531545595 53.62445381811054 1.422378314976065)
(1.574257072297057 40.36221208960165 -4.346516404865965)
(-0.04351329883619378 -0.09596172214743434 -4.982380176222668)
(2.121896736727027 6.644952008799446 5.020571883859752)
(-0.05213226893311852 0.0005008275544915461 -0.005083324842599596)
(0.2838363034111548 -0.8368874785039371 0.4655938700208044)
(-0.06121153761211859 0.06116090149032884 0.3552428283160947)
(-9.425338237257824e-05 0.002902357366883884 0.001432177793011177)
(0.6284803300967838 -25.27842566568215 -1.28111533156377)
(-0.8412943192007895 0.0976988753350839 0.2766800285453347)
(-3.722481532620404 -43.40849595077857 -5.002648960827708)
(0.1936751857397035 0.01488327447835163 -0.008029225067093429)
(1.377453239117969 -3.778798488093984 2.28592480406631)
(0.698775499441595 -1.217031629397186 -0.6827656017064865)
(0.3232863752454855 0.007428231131081472 0.1101271844355582)
(2.213026375819825 29.36723349728194 -2.933907958378297)
(1.359948697562717 -1.970133158992488 2.311302290718437)
(0.08295295438476086 4.985736657830595 0.9956690014586853)
(2.29961039069653 -0.4608733299443047 -4.005520748503477)
(0.1169649091078233 -0.04607557745727102 -0.2875467178276536)
(0.08255103284935161 0.1513728322798167 -0.7942072000419783)
(0.4085865070982817 -0.1204385682335816 0.1431311123646577)
(0.4212977983889993 -1.389501928796245 -23.90065166415797)
(-0.2430117157217269 0.03811407141402846 -0.5111964624054242)
(0.08507701952353093 -0.03679993982466743 -0.007723212419365987)
(-0.1039356625567446 -0.0009418578628941771 -0.01148549464326575)
(0.2111399061046628 -0.2963746957733176 -0.8228684773077004)
(1.484965991247366 -0.4330758309452374 -5.314770204101485)
(0.04310654440734235 0.02486817465193966 -0.0543391052448592)
(-0.6876173212024679 0.2254717763148319 -0.1712137719676923)
(1.98118076019649 14.52475731804258 -7.061535346699163)
(0.9475061005706535 6.334963585972624 -0.5952776001002096)
(-0.01672095441018204 0.001705975193044743 -0.02666499201597174)
(-0.9294377685148645 1.078193875105574 0.4519850543847047)
(-1.737876526972472 -0.8151830271623004 -3.771704008448677)
(0.8895146498221909 -1.720901354962297 -1.053144501242338)
(6.55666518547252 -0.1388450232413481 -0.3564326680777882)
(-1.709273912917887 -0.2513255902537614 -1.293458442583325)
(0.5742636927018629 0.6923618857006666 0.06594741925421921)
(0.04797009516377823 0.1429507786439573 -0.7790673803649995)
(-0.4529882823559569 -1.675588819465436 -0.3403269520847922)
(0.05621097286939492 0.03660999455882503 -0.02128826866270903)
(-0.4716708703196879 -17.4720559232676 -39.37963175917169)
(2.573143184513606 32.25417218949135 -3.049933230190002)
(0.4754978719390102 -1.174880585461817 -25.12858243574235)
(0.002107520990782089 -0.02092567737765991 0.04671599632082409)