/*--------------------------------*- C++ -*----------------------------------*\
| =========                 |                                                 |
| \\      /  F ield         | OpenFOAM: The Open Source CFD Toolbox           |
|  \\    /   O peration     | Version:  v1906                                 |
|   \\  /    A nd           | Web:      www.OpenFOAM.com                      |
|    \\/     M anipulation  |                                                 |
\*---------------------------------------------------------------------------*/
FoamFile
{
    version     2.0;
    format      ascii;
    class       volScalarField;
    location    "1.2";
    object      p;
}
// * * * * * * * * * * * * * * * * * * * * * * * * * * * * * * * * * * * * * //

dimensions      [0 2 -2 0 0 0 0];


internalField   nonuniform List<scalar> 
19631
(
0.01426454121903832
0.3827759972257132
0.1092352340598651
1.511232567184178
0.08890920512021513
-0.2715040823723158
0.2195723539401146
-0.5986457904389015
-0.6244427421570334
0.1605980407681147
0.2647829387480331
-0.2591354797946024
-0.1722461125593885
-0.2087053529137233
0.04567500733716361
0.02182107799623452
-0.3086454026002823
-1.192449549840173
-0.6981302171591814
-0.5872411938002999
0.0689908996157447
-0.1809708003248849
2.563530878594216
0.2022364156140556
-0.1919550061722685
-0.1982657797824543
-0.3349684344700025
-0.8102321793676448
0.1357902343817135
0.04104800239652513
-0.1684245661234472
-0.188729304801116
-0.2712210196225056
-0.1246949494609776
1.739844634134015
3.349688840080719
0.1160898095477954
-0.2643914747668976
-0.2837131450886484
-0.7444878895785095
-0.7334707184601087
0.1246261977580341
0.01296570938696859
0.2150007646231791
-0.1943954030906105
1.591331812686468
0.07376781247846205
0.116300028684529
-0.004701954428543932
-0.2450929366693239
-0.06094237851235417
-0.219968267529764
-0.2416511646177456
-0.4243938454682297
-0.1627037749652126
-0.2695129307252238
-0.242842972491694
-0.2927742730950796
-2.028659138912622
0.1853849719143499
0.1691555058685174
-0.5342570458713006
-0.7911153746551493
0.09474979633150507
-0.130118372082245
-0.5079272955964811
-0.1885144038389634
-0.2151381373521696
0.5437054193155534
0.151256828662682
0.1660037168105652
2.217291573246842
0.1288957720752978
-0.1032137327620075
-0.2274105859150553
-0.1990529370475819
-0.08650739577124376
-0.329500594949845
0.7685810177241167
-1.187837250448569
0.1230683766403472
0.1965001799117928
0.5121874332347616
-1.052446521653712
-0.3675553568739874
-0.1146446722658321
-0.2066842784578325
0.2753216768584415
-0.0003071825755227271
0.1329964779877312
0.06475527874785821
-0.1966596778536001
-0.1596009127090582
-0.1783000906992722
-0.700750855446486
-1.333807257538597
0.04057225948433436
-0.4925625206273114
-0.1686849607312739
-0.1432569361466846
-0.1548950227366262
-0.9392835852337282
-0.1428222657990006
0.06328170191046031
-0.2784178588482952
-0.3903891372175114
-0.1354066276149685
-0.1950389392896836
-0.172845559214921
-0.469173986025563
0.2878052275186618
-0.5738574587276769
-0.342876147081129
1.27408613701271
-0.02836861554468523
-0.3616183568760946
-0.545588968524483
-0.1619926457863327
-0.6685461061208653
-0.2137750457911356
-0.1349608791008016
-0.1932571995556785
-0.1939327615862136
0.08777753718607735
-0.2383945917825616
-0.06190713196223852
0.5010637168435391
-0.2233124783451891
0.1058055275462942
0.665765953128707
0.004151886477078516
0.002413693612209531
-0.266419008962086
-1.067583367438791
0.087548071563175
-0.3146294115460911
-0.511083093349304
-0.2987072893504821
-0.9101959881683883
-0.1388218866024396
-0.8703318571326838
-0.318334421573767
-0.07920577014742793
0.0545681818595665
-0.3439129800645449
-0.1829904612021528
0.01839531336877055
0.1099881028793489
0.1777554653094336
-0.3810233025989517
-0.205637786791666
-0.121934110136355
-0.1969317577025152
-0.08239590923575787
-0.2137344292680554
0.01788427547912158
0.18552095755103
0.04982739732094212
-0.5432999703005572
0.2869712113406024
-0.1035460009365104
0.2291127283713345
-0.1067858880543076
-0.1651740940802741
0.04370357295917635
-0.2513233673061498
-0.2085909329454812
0.0188244591467287
-0.3518845233165268
0.01664116328785888
-0.2621578752815667
-0.1607513855677333
-0.2850915653907543
-0.1027273045517994
-0.1677332991671822
-0.2067370751426452
0.07387941060078143
-0.1903457462681693
-0.04932439482662129
-0.7045234094682773
-0.2124065076111853
0.1848986392226997
0.1771102988545304
0.5160403848619566
0.2161512866542483
0.04280758329214215
-0.03083052589044981
-0.1478711896917527
-0.1202862635065937
-0.1229296253518036
-0.1457497762001762
-0.06414184739798351
0.3902672975595122
0.1126040691710185
-0.2622830945404706
1.263527994732775
-0.2660722658560614
0.1106056701176643
0.3222251032274491
0.3434589987011251
-0.1421669708674564
-0.1708192628672583
0.2316591319079615
-0.1832694235826225
0.03920470771689109
-0.2222544380193366
-0.1743113086195543
-0.1472979440724748
0.1782657942274496
-0.3267274104645963
0.1658021696405861
-0.3468664093000838
-0.76707060264816
0.1409420995179167
0.08032664387570029
-3.531367180854793
0.1274275697130954
0.1762580249492407
0.1145032455717677
-0.2561335611467553
0.05638135240049078
0.2847100384822438
0.2801476251496098
0.06285177695100219
0.06786393873158758
0.246387113669751
0.002887234757104582
-0.02477419902166282
-0.582448354490008
-0.5144621716809175
0.1779816312990508
-1.168015002487325
-1.199751150447683
-0.1153868607671673
-0.4640632565894883
-0.2816135921096885
-1.832535362911998
-0.3504640751814328
0.2060636902461812
-0.4376646592980525
0.3118794590647626
-0.3962479248409457
0.007963135092895441
-0.2597874985840428
0.1779553146400222
0.293155792255876
0.1576461600177853
0.1410812545245309
-0.6773633513301212
0.02789912894624072
-0.378314035646414
-0.6548149640568695
0.1627518807979282
0.08813310885138839
0.09137097503531301
1.24909033669652
-0.1728298388651826
-0.3689889767930027
-0.7184377210993507
0.08053224863624098
0.07516061080083004
-0.615390070428453
-0.506080416964492
0.5462572334314983
0.324962422047061
0.06451917991362076
0.2528866207379948
-0.2520585163604849
-0.2681643474551185
-0.4350505793581774
-0.333574986823909
0.2476280028344078
-0.244768721702891
0.1119220505222682
-0.7907719312736223
-0.2515718554928838
0.1200404378527061
0.08668699580563108
0.4502152514147689
0.1119390220851734
-0.1391032693796179
-0.04781167938597734
0.3001804173036946
1.256187507769082
-0.4609835121518063
-1.013349589177143
-1.409321042214949
0.367715934236192
-0.1312877218323188
-0.2868404905767891
-0.1927604157391399
0.1665878841646428
0.01955005694130154
2.100451258413781
-0.3574183931711516
0.08486048560646592
-0.2689907794451804
0.4695435855327994
0.204612858631565
1.161378490715141
-0.2166172465432754
-0.1530527755042709
-0.6640321709452149
1.075239258318907
0.7765904165409643
0.02019897986678677
-0.2916921128995555
-0.2431302658672347
0.04295635488894054
0.9804988193062318
0.07765004537069074
0.1099590720036007
0.1548038379524669
0.3384569381724993
0.06622604900109137
-0.210946139060997
0.1582315422527412
-0.2046877520946691
-0.3848520178761496
0.1692920422097831
-0.2879092018495638
-0.478726610690098
0.06913038461715418
-0.03216378882550198
0.2580638345592974
0.1434417856313264
0.5467465453261869
0.1988113880892942
0.1509891276580718
0.07410087341163563
-0.05760571754725671
-0.6752601610500744
-0.9399644113034612
-0.219050598969837
0.5351438073165181
-0.05909356879725702
1.147295879872797
-0.1618155185846303
0.007212099065795057
0.07704434013209015
2.683772190910722
0.004171997941938095
0.1269303050537912
-1.443789877285639
-0.1844917728656992
0.06926970396515734
-0.2995690798148551
-0.1418408230331543
0.04959397941535495
0.2057711964383146
-0.1177937573228587
0.08974737413264695
-0.7685461095393262
-0.2619043349429868
-0.01351493049259271
0.016059274505976
0.01264811135540168
0.04956918957009674
0.584836181805638
-0.6173075684244584
-1.009658940722393
-0.2404025550369585
-0.8875558145288199
-0.2690205958240117
-0.1889882045748272
-1.042685920849263
0.189937319132218
-0.233893625823018
-0.5653997502156662
0.2574167963178435
0.02345344762686968
-0.09746446893657569
0.181544064719259
0.0666304808225435
-0.5280760705115098
-0.4492336066638027
-0.009275619579095893
-0.03728468943676272
-1.192783994906393
0.6354210747660606
-0.2809383298263619
-0.1878591135196084
-0.009192136127990708
-0.3531544111511042
0.07099724330976068
-0.6126363654012943
-0.6492579703463049
-1.209676237690411
-0.1784177995897292
0.1134271452372014
0.3712846009165404
0.2303677496314445
0.0495837027462905
0.1155941952883307
0.4062819216568001
0.1228522223609187
0.01947378526347374
-0.02202644982880953
0.09174591644807248
-0.1380820078147184
0.7629251103083493
0.04034097990330521
0.7333716208131749
-0.2073570861327642
-0.4323509592945649
0.07711331146961609
0.09585482963547766
-0.004967413007109332
0.337258168055704
0.08925305076799138
0.1022665502539937
0.7017603166437205
0.2156239395773107
0.420563282047832
0.03245653466625258
0.09552060927068808
-0.9459123373891226
-0.3246609279655245
0.008849109568965592
-0.09712549990911452
10.25785445073991
0.1057869827096488
0.1074480409657511
-0.1841494396065645
0.0141760515715599
-0.4173382750500926
-0.9268054528960235
0.3369187309420223
-0.0813949254311591
0.03724719782614362
0.1278739585557956
-0.4120120265568748
0.1706316647883575
0.1738248326337468
-0.8820739092940674
0.129196349512341
-0.09000959894539878
0.3483794133579532
0.03673094668660169
-0.4499306088624205
0.3215260114591483
-0.602141384933737
-0.07198321949403472
-0.2658839695354425
-0.1789506939790657
0.7286793232915068
-0.519336970389883
-0.364670318457166
-0.3236851978373433
-0.2358934187279767
0.3970408998080951
-0.2463185950857631
0.3268913662129455
0.3521877016381945
-0.175795345863925
0.09714734180208368
0.1910681974822487
0.1504156063154219
0.7881171022555042
-0.0123716279651393
-0.2239172149718119
-0.3076438546559145
-0.399005980851798
0.07120031494415036
-0.2871380393730618
-0.1055421736937071
-0.366133157888379
-0.7388762550137256
1.05237638930251
0.9749478960636515
0.07328443833307612
0.07632464284262926
0.2155312884760307
-0.8442855529734572
0.4354196323507514
0.03977428522058137
0.1609861446003052
-0.183135932265772
0.1074679094586763
-1.005406721703443
-0.286621615096148
0.6122769790732518
-0.02768620189744249
-0.2402789436548511
0.9874305148586048
0.3658342657853942
0.4016380258409663
-0.2093417858776672
-0.04886848117647515
-0.9917140114705801
0.236539059246174
0.002683641094513991
0.5789480767683587
-0.4683621476542224
-0.7902806379151317
-0.7128965045424276
0.2261946643197931
0.066987574138381
0.8460996433564354
-0.2434321385994812
0.1050713463041698
-0.2409050334015317
0.7008226169409526
0.2863750812790463
0.7272366460281231
-0.05237231709061654
0.2035224460146631
-1.952349752185777
-0.03018601690383725
-0.600903777843793
-0.08130586094416803
-0.1520726501938311
0.1464676392672205
-0.01354304589207969
0.2623623594779664
-0.3176392254563608
-0.1081183092607078
0.03797736995990309
-0.4688793642122102
0.03553618597208193
-0.3624079457858279
0.1009283064286208
-1.999018014285949
0.2566436445655948
-0.4752196478412139
-0.1112819138151962
-0.05124153822764099
-0.4942191606861048
0.2243164095017031
-0.454534807953809
-0.01771940868519796
1.085338896421137
2.439984684782787
-0.1360227225453943
-0.1748026915185796
0.5238054535327501
0.1951300246807341
0.2909887383264366
0.02907866297277457
-0.6263724191654888
0.140338922497312
0.4811562651995185
-0.546795383533489
0.1780800591915335
0.1689686770036183
-0.6088820691357117
-0.171208483987883
-0.5188282286625341
-0.5388658691185638
0.2941000047261466
0.8597071945813607
-0.06027534133738845
0.03380943968106101
-0.01510510607675072
0.0309197492229724
-0.42687505248313
-0.2285039870075593
-6.394314180645589
-0.02551558548797317
0.5629605825931211
-0.8876718469158246
-0.3106506795532968
-0.3822560796949775
-0.1547216786489614
-0.07971932265517764
-0.6985615037525293
0.003686545535176601
0.1875854871747083
-0.5579370459842147
-0.2094354841415736
0.1635882617590514
-0.1398031993873224
0.2054203510921555
-0.08438391280010873
-0.3802174306278496
-0.01974413015717381
0.049718064692375
-0.5192083726477612
0.1936021880207819
2.053809743251732
0.9500025753052876
-0.3020635897014196
-0.1913457442284895
1.471606630380494
-0.08042097699008649
-0.5787479739952337
1.555547177889265
-0.110454595313741
0.2431194112653012
-0.2221984419664186
-0.7609674850012457
-0.3339784222227221
-0.5508589624086472
-0.1890895890625051
-0.3230082880754424
0.5808603778904766
-1.066924789583209
-5.387342059765167
0.08567444725239683
0.0370515625552679
-0.2364408440729241
0.00138097934574715
-0.08289714118309657
0.1203035064951741
1.142200640258533
-0.09553369671060018
0.3017839648039978
-0.5233364392695646
-1.413986746698321
-0.2773679922424865
-0.3337573854754919
-0.4235682404979638
0.6150126397706265
-0.4679707170267025
-0.03760532327261345
-0.4873227500952251
-1.189173206605939
-0.02177604563218129
-0.3691088638286513
0.625307507996973
0.08654900783172717
0.05261052788891922
0.159629360756141
1.003439609890391
0.2015976454687996
0.1672469599723543
0.2472038332941165
-0.6192462374359653
-0.3684880252047074
0.09064989031857443
0.1920009974528188
0.1905718819286267
0.5655932554233675
2.467985734613162
-0.4160179455816027
0.2654582968228726
0.3867800161527614
-0.8654926452019045
0.1465501263305413
0.7435453647124968
0.09958665094554839
0.2498411412090692
0.4417260417476316
-0.294913829758179
-1.058193336562433
-0.32853320659352
0.2839663814328841
0.5818213789233986
-0.1981220567024853
0.3668837140002675
-1.355239815430714
-0.002263344860287705
-0.5806818934451355
0.964645389622287
-0.677631007700589
0.001491904063724116
-0.121758142671777
-0.3989128317168155
-1.519061859263201
-0.425710306008754
-0.9488655356856188
0.001793169430963632
0.07681897953451211
-0.3518267395613304
-0.7062794975969828
0.009117229701284889
-0.5903076702389464
0.1866452075985001
0.08939319348886918
-1.110665093721793
-0.1478696464218354
-0.04879337629552312
-0.9166075318071875
-0.1414482080902689
0.9235107824481689
-0.3261702855265186
-0.406281793448228
-0.3615738014708366
-0.1507236557977803
-0.1855931178358826
0.0172277681509077
-0.08493337613874835
-0.4415280986983993
-1.029312012939049
-0.4201777611899204
-0.6192408860602755
0.1054776155832198
0.172664332158799
0.09351870782511804
0.09671426619364135
0.1029926654621112
-0.5126942320251437
-0.7584968389809683
-0.07410752513283643
0.3209878308451417
-0.02211728849209451
-0.2058025367402249
-0.6659695827497997
-0.1363516680587578
-0.09429400333563803
-0.05916696459754771
-1.091574520886579
0.2895415973439575
0.01080423494554187
-1.109760413618327
-0.02959314403636734
0.08114662673635689
-0.2862438349892795
-0.690448453294514
-0.003470941167168908
-0.6991829510380311
-0.4910060798753154
-0.3076144692713953
-0.1788106477180909
-0.2150130218994708
-0.4267576419452968
-0.03977307295923327
-0.5830155459258058
0.4202175638771131
-0.2274607167198706
-0.5123552402799408
0.04884610108100948
-0.6512538369057684
0.09946199150112171
-0.1411864251687562
-0.3488919173181201
-0.1683497405849599
-1.183981366798817
-0.5200030853779569
-0.9199214367657292
-0.3349451388119551
-0.5012752867804008
-0.7609930728999859
-0.06641935235505718
-0.1078895935774696
-0.06570197477458073
-4.18959347162486
-0.9853783558712472
-0.8019810804754899
0.003611544321964176
-0.8900785775051789
0.03208937822789016
0.0178639847849357
0.2561898760439169
-0.7997842938162218
-0.212459829425272
-1.208978085044401
-0.5213627772419379
-0.02772556569966617
-0.469666197922449
0.5503946670077777
-0.4236144458890521
-1.632611499982554
-0.1711190111091624
-0.4105805128254245
-0.1849355624654719
-0.2846174533003271
-0.2472889595692334
-0.3231769921151174
-0.4401141390250999
-0.7993342310183125
-0.1065141187528617
-0.4521822366439276
-0.15473417833955
-0.236728762460051
-0.7356096903020583
0.1062081198425793
-0.09206743606679693
-0.3702208389103287
-1.695785096250084
1.158744177448528
0.0318772738365533
0.114289420966022
-1.729582334474551
0.003374721164084688
-0.2383032853036069
-0.4198202113636695
0.009650220688387574
-0.2057372367871089
-0.01171158904006672
0.1053713165760179
-0.4139832353902377
-0.8221327811003207
-0.4801428767193825
-0.5512492659165943
-0.4383103366319602
-0.1441430064365735
0.5214956318932447
-0.2828064988163689
0.06581915046641139
-0.38527304557752
-0.4083575109398296
-0.6581220706340745
0.0432246918130409
0.1662474880979117
-0.2630938220291173
-0.3330615982829461
-0.5580838834513235
-0.6269057594936616
-1.042864727494512
-0.6337119434955522
-0.5892007837925916
-0.1069875106987885
-0.7201851822452392
-0.2213338298866439
0.9246960266157954
0.01774659457790496
-0.01950522257808688
-0.09959799605403763
0.02858210724493064
-0.01485537710881136
0.2990939187277022
-0.3350281714731412
0.6872161720051652
-0.02983004536464507
0.006045039333746189
0.2030111190595027
-1.383490584512189
0.134321003950275
-1.306151822929917
0.06295241736722317
-0.3114193738957092
0.4665877482233143
-1.807089555975796
-0.3698083133850487
-0.1360739171176724
-0.1667604543214404
0.1345387975004094
-0.3254556142399314
-0.00715814551617372
0.1469714766005437
-0.06858217251224971
0.03361582947341171
0.1749911694238883
0.09565640971847943
0.2084828908057076
0.06917666449677723
0.2590092064059509
-0.07663239954654189
0.1260994595589809
1.671100043887634
-0.2748379943954749
-0.4858715363643915
-0.4131224240093977
0.2947344226770121
-0.560109474898527
-0.07368319140353122
0.7659121014186463
-0.6368927573995546
-0.07291098204759287
0.03730385150468735
-0.2116238359550142
0.002301640755559963
-0.760012797573461
-0.5257940978647664
0.04486949456133994
-0.3009237974643377
0.6631208947062264
-0.1798789287898704
-0.1017051275876499
-0.06385139917087745
-0.02589034323037663
-0.09760444536561898
-0.6628645252318383
0.08541668302831477
-0.3801454864381901
-0.301387164786753
-0.3258474100306418
0.33200998486912
0.305309138903924
-0.4720194319598693
-0.5864707141526987
0.2394093553351786
-0.4849503353321208
-0.2773616147803016
-0.4551944446912807
-0.2417410243000198
0.4134736905192783
-0.5813215870569325
1.305000932021903
0.0453845632697382
0.6974502613116487
-0.8775092047579821
-0.520279071834738
-0.3391242314391105
0.3575531874011423
0.01785841425515164
-0.6275527526190615
-0.5349114247741377
0.7648491795441748
-0.9629173585655526
0.08801971254144886
-0.4973196653766818
0.4604678172282011
-0.5409517868418386
-0.2986948812995767
-0.02353503800604426
-0.00162683403154422
-0.645365517861075
0.9365321456552762
-0.1879722306103196
-0.6719586853868676
0.1460869968985124
-0.3042197041988709
-0.1597036798530532
-0.2541803930366416
0.01837452552594302
-0.5410838981849184
-0.001683899482451837
-0.1636573615745108
0.1458511003034469
0.02900178993124512
0.06713245958283738
0.2587461152240521
-0.612301587810957
-0.4264442478241724
-0.1652794731013825
1.130650431175073
-0.1960034047264432
1.103005857448759
-0.1653153570813669
-0.2257762525496856
-0.7153924915712647
0.03248493282910205
1.403805917500866
-0.6734696756571247
-0.0645902762061055
0.07240136743968933
-0.3168608926753481
-0.2608841311255666
0.1131414081414324
0.193242846045946
0.2462450692738035
1.566333116941986
0.03446532149524747
0.1432701037090396
0.2435195216108146
0.05998180353234148
0.07066408139642062
0.1577659983686652
-0.4389424175070938
0.08999141705196115
0.1271646955583046
-0.3609381140491218
-0.03482691559653415
-0.03763916764034875
0.8765560996611452
-0.4736018208168657
0.2639400402782756
-0.2266322794117022
10.04209228508715
-0.1026855608401566
-0.009027841213768305
0.6944160282550838
-0.3950270620426486
0.8813652551121333
0.109947637650031
0.9268076067920074
-0.256499598799888
-0.3217606310613741
-0.0471521402767218
-0.927056140907787
-0.06897250901542605
0.1886286554128792
0.9360578111337083
-0.1770450848304687
-0.9098725476096331
0.8367673576914366
-0.2519978520230117
0.4003315820365715
0.3664216853929226
0.2491558389020656
-0.4515015082929761
-0.2114498628284525
-0.1542568001496261
-0.3931543023116364
0.3664261268082849
-1.536029572965709
0.4508598747325558
0.1372171093332656
-2.150719865050386
0.05953289364452367
-0.006846465972440008
-0.08009039128819592
-1.025822382942098
-1.071151583089371
-1.44701504224873
-0.04072096584568643
-0.07507678905849234
0.4000409937370946
0.05550263684449538
-0.4591373279217297
-0.1926903117035333
-1.103667820339884
-0.04044451040111945
-0.07404364470305824
-0.2152015034606784
0.2907564018716127
0.2397964451606174
-0.314930203629008
0.06769733826464941
0.1872993925025722
0.1862001809063575
-0.5634540605129824
-0.2014997623709699
-0.1934625772096799
0.1081239325376738
-0.1546798276129538
-0.5202869682387158
0.1642588673989697
0.8662360549327119
0.1381230877295673
-0.4122880742719965
0.1534244877844576
0.2134664424297138
-0.6081937180604355
-0.7452888467881645
0.4367578215910329
-0.6036742897919515
-1.244055106265701
-0.4190141243482233
0.05550921158816914
0.1953880308473469
0.2970257309638706
-0.2295666441858161
-0.3558269287376951
-0.1496524866154875
-0.4136069257558205
-0.2653844342455832
1.877861934384706
-0.2730856279224633
-0.3284458717767949
1.989226334511445
-0.5182062344276112
0.1710028229830021
0.5371489384932197
0.1035938563877389
0.07558127400121634
-0.003507078665176657
1.234149986136949
0.09013877287538212
-0.01371682435355664
0.4236031168790499
-0.4439953544904454
-0.02999830863465357
-0.9430336670446278
-0.6400987730809893
-0.2914892388771892
-0.2429848861644309
-0.06830778870851158
-0.3135425176527776
-0.03590968211334492
0.07025543963502651
0.8526951377301791
0.03961301809333443
0.2816953627923865
-0.512386138373328
0.1492814203869681
-0.4470800332828209
-0.07123220648291052
0.4134834336190087
-0.0265228405014102
0.6113257632699763
-0.5435107837698472
1.331176684919428
1.055017959549587
0.6671522804201616
1.06871022421849
0.04383675561867272
0.08487129207247089
0.3786568971789406
4.323258979379436
1.904667451253753
-0.8786404501106501
3.926479892876434
3.166026325032942
3.157187648872655
-0.4747916548138868
-0.4050388380358348
-1.25868263098405
-0.8210972388704767
2.392657945431661
0.02095638092785638
2.500517222677084
-0.1616866059595479
0.08353333139584523
0.1023535354162923
0.1054305153082047
0.1332699151228151
0.05212909086657221
0.03919746932931299
0.06163943829111845
0.08474872101706613
0.1132121503217844
0.2536555304689302
-0.004987122747588441
2.718194822765302
-0.3579064371947066
2.320159094821886
0.09428842394302106
1.432176271364854
0.202590729983132
-1.063431238613825
0.0399434915506935
-0.06179653895103197
-0.1984412008155011
-1.168001912042481
-2.946836900155241
-3.301413293412619
0.1164580047813506
-0.1248930982672854
0.6422191635475234
-3.43610384495146
0.1576680904009607
-0.02355302376052204
-5.335842088711126
0.2261429420162342
0.430826319201464
0.2012638941398602
0.2835085120632599
-0.8217633294664496
0.0004743319193482977
-1.500831139210771
-0.2511104910877396
-0.8852636336172213
-1.033142093374688
-1.326907663463048
-0.03267174186680518
0.2408801742193346
0.3904308777501375
0.00471604384083003
-0.3362705264706206
0.3098845055340775
-0.4962868354562691
0.3623560085101032
0.3628501398278658
-0.6192564589174172
-0.052946280982326
0.9541159135097004
0.03427705767267945
0.06162843097578568
0.8111855742287283
0.8971963870338379
0.3870176104393122
-0.2918880827241728
-0.1838677218253507
0.03122839397025758
0.7488703745318076
-0.726693916717687
0.04594703215858604
0.926514918014251
0.05496071893897544
0.7538881356565407
0.04950149157879227
0.05124358816983279
0.3634276841372948
-0.04063360372921601
0.1545075407053819
-0.04622989072942149
0.523558249854283
-0.5396642973392454
-0.6761701766653418
0.5449022228179525
0.3671100554805999
-0.07371757101862
-0.003441064923367794
-0.8604660172084645
0.07761114165918202
0.1137874955891032
0.294655269581737
0.1758988426641303
-0.2749128580263685
0.0828491538907466
0.2030916403773756
0.1811602062885439
0.7348575470179439
0.1928202369618267
0.6351385875589368
-0.2072886598068058
-0.6023177268671633
-0.03625270174410586
-0.4154403476971079
-0.7064979795811026
-0.4918233243971038
-0.4226427886665384
-0.1865302661368707
0.08772729614001554
-0.1706914317132794
0.1962625220896055
-0.8192391021555423
-1.132583416947312
-1.165057640166224
-0.5418722126119632
0.03302421684442877
1.928750730485087
-0.2719167590907785
-0.3935975906145689
-0.2740514581981464
-0.01493246360988236
0.8794210369031596
0.2239505060357355
-0.288421821700269
-0.3712675622532211
-0.4274539028414649
0.2537204104011743
1.264704156854951
0.1500960936258034
-0.05581952568393746
0.0005884461809026576
0.03859915167357203
-0.01406138356090503
-0.1093585590619998
0.166680922556033
-0.6366457934544533
0.06198689676922861
0.4192107386711987
0.6991713611099303
-0.09427400495145037
0.07619291805369234
-0.7376005488475235
0.1549010555039941
-0.0272047271640732
0.4213644761305035
2.141207002090502
-0.05253865351880155
-0.1123118104473829
-0.2479719734114035
2.81216175372235
-0.1237718376277583
0.08645833617478274
0.1629185169592195
-0.06197985565295588
-0.1022318567269444
0.04279139664136797
0.2317566574637275
-0.2744861921301935
0.1136260445680853
0.3107615659983801
6.721002145691907
0.2611530128554418
0.3837086723342798
1.822360923783652
3.005239301370516
-0.1206958100062923
0.336002429335669
1.105305067760544
0.06298706539951981
0.1484900321249461
0.03244770013726452
-0.004927003672459696
-0.03952803522208092
0.02349733544988351
-0.5366017660926048
0.02006585946486849
6.097658247936352
0.1199925794748714
-0.2405848686971553
-0.1233132290642803
-0.4544167815464702
0.3711721402922937
-0.1317707091056777
-0.1986138282753687
7.970293337956839
0.5426449818076243
0.1967493246331631
-0.03669228795171953
-0.2754163131328617
0.4700566291039742
0.2757637469769144
0.1255650348565229
1.201876735469745
-0.1714069185753873
0.2932706148633317
-0.1240991771897713
3.318240502159686
0.3511897118060058
1.626244830230787
-0.1916331555559176
0.1720210374989187
-0.4807287327864572
-0.06744962784435643
-0.1829111536880066
0.08119536405906935
-0.07634361005338787
0.3457587479901318
0.1744453086285598
0.08425004936663859
0.4610944969326623
-1.115136146737355
-0.04693825295110546
-0.05738380238350266
0.06753118343173593
-0.4482347615258349
-0.00137724068554402
0.1655252493261264
-2.138679896186661
-0.7877647639416053
0.5998945412937907
0.3435158363012978
0.5950938880799611
-0.479036872058478
0.3246131766145273
0.2039689369795439
-0.09110736601173135
0.3694662332946086
0.7518682052190023
-0.9874086884905513
0.3845646476106601
2.331307825796506
-0.0996485215142378
-0.2012070430808116
-0.80035501743351
-0.5359926354346721
0.3604912961971402
-1.547418538796707
2.321314409012031
-1.025340786685008
0.07247149276812968
0.01909545334571365
-0.1421861068007499
-0.06175213886761645
0.04890537660979313
-0.2262378050995573
0.9633819988912952
-0.06000190105200647
-0.05494932841466381
-0.1396306599700012
1.262027895744108
0.03500371988423787
0.01733771162455773
-0.06961365309963702
-0.01679203488869416
0.2757376578068061
-0.007407363243162587
-0.1005145088295867
0.03809570864475754
0.04605922804401234
0.2258122159466073
-0.03950357675986398
0.01996951232412419
0.1812961248734236
1.437180698454507
0.2007351396259961
-0.1430303839862262
-0.08530324506576706
-0.2249164082698955
-1.008378373333264
-0.0795051933663561
0.7951459584773883
-0.114024097926521
-0.1726507549265489
-0.02964931297652024
0.1922846060868995
-0.1113883054412496
-0.01283887665647697
-0.1540450554223533
0.05332045426729621
0.405314351621829
0.06854972143195255
-2.896370455029786
-0.4238826524586345
-0.4358168632662552
0.160770522612965
0.03007750496658759
-0.1898561238584151
0.3521389435333357
0.4822083922807629
-0.1353715638157502
0.1317743802563905
0.008855604678583612
-0.06331177239942139
-0.09050791666307838
0.2326947021979519
0.1669435864072434
-0.1172184397034276
-1.370750602298849
0.03560214062655829
0.04520676715177493
0.293389262772745
0.06108098194771625
-0.2351115267661518
-0.1378036263042822
0.1042488483595726
-0.2803922925754646
-0.04117781293539824
-0.6422853577231347
-0.105712046559505
0.07821628170051639
-0.215101203674594
0.08111372937080157
-0.08121710638274748
-0.1711864224853775
-0.01566897109827111
-0.4957178332550006
-0.4130165634288273
0.1632874025359725
0.09328309586413991
0.09078997150432241
-0.03280847229775594
-0.2622940450529004
-0.06272761376345824
0.04744375374643752
0.2285567974935948
0.2441082482621334
-0.2224204183422685
-0.2236563305369302
-0.1251881144878086
-1.619726726178468
0.2182529984704239
0.05422384822619666
-0.2873678922545034
-0.0221365248918446
-0.1566352744057326
0.2898637789913571
0.135677709663553
-0.02048345894630087
0.03908870488930597
0.2655259428739425
-0.003032196412719334
0.0661322601321806
-0.4834666553768404
-0.005432003578408077
0.1925459862797877
-1.398444968300363
0.03949768777694681
0.2398231686922793
0.03042308106363621
-0.5178803409108362
-0.2694891124284524
-0.05488341080987114
-0.1031506681160654
0.1710177229259639
0.03364910162488156
-0.2220837765712226
-0.3373243550211479
-0.4691904861350612
0.1003884413101527
0.8034074178498551
-0.1902928004844061
-0.3858704429000162
-0.3339275570763104
-0.5638962921718531
-0.2191255901702988
-0.4902031120290443
0.0216080069919563
-0.02495394026251671
0.1011360927487228
0.06410802494043608
-0.9116083151098023
-1.22882272506624
-0.161967481850401
-0.5957460359450916
-0.02589249287433075
-0.06963455133468911
-0.3750701846250503
0.3631028861250709
-0.3519025312381899
0.2400440240640145
0.6920176980050621
0.07006657600259165
0.3401464423726897
0.08131252896538663
-0.2425361497597915
0.2530807741460696
1.302275424512365
0.1485139156295738
0.08427465751362422
-0.2330466240716056
-0.002847725348903043
0.1171970119802034
-0.003127428926938957
-0.04112427987464501
0.170568988291544
-0.0374299823904526
-0.1179607800843745
1.089973290321346
-0.3181821104341037
-0.0007591718122196227
0.2409494505093661
0.2551519863798483
-0.1724757322649256
-0.03398445217179712
-0.1300581556593998
-0.6302298499979805
-0.3444898582435453