/*--------------------------------*- C++ -*----------------------------------*\
| =========                 |                                                 |
| \\      /  F ield         | OpenFOAM: The Open Source CFD Toolbox           |
|  \\    /   O peration     | Version:  v1906                                 |
|   \\  /    A nd           | Web:      www.OpenFOAM.com                      |
|    \\/     M anipulation  |                                                 |
\*---------------------------------------------------------------------------*/
FoamFile
{
    version     2.0;
    format      ascii;
    class       surfaceScalarField;
    location    "1.2";
    object      phi;
}
// * * * * * * * * * * * * * * * * * * * * * * * * * * * * * * * * * * * * * //

dimensions      [0 3 -1 0 0 0 0];
oriented        oriented;


internalField   nonuniform List<scalar> 
37423
(
-0.108473888219886
0.4229016683242524
-0.4552747046018943
0.1408469245089122
10.65046608297563
4.817001056691256
-15.46746713952793
1.594919222686779
2.83918809748966
-1.502129279351906
-2.931978040872187
0.6123587868555349
-1.029787976019558
0.4174291890157519
0.1167728566984787
-0.1661962176603393
0.03064510800814975
0.0187782529293369
0.04853378437843542
0.1451321722863108
0.3032922584222553
-0.4969582151810133
9.15420404266807
-4.65095460072123
-10.83980650718657
6.336557065236478
-0.0477197611436003
0.05095252408477571
-0.009456307126826758
0.006223544140016276
-0.1347883016822399
-0.02991092915363202
0.346038480753962
-0.181339249955808
8.629273176710681
0.653776212900809
-0.4860406288291059
-1.406422337693944
0.4287176877709607
1.463745278709012
0.2983020114739745
-0.5487620436309344
0.7682633420434307
-0.5178033100461197
-1.027993672809227
1.347500607021916
-0.3195069342708611
-0.4601864779025581
0.4925674165641485
0.6084130156958273
-0.6407939544935832
-16.30146887418301
8.94377007502869
-0.06107187272480157
0.007432032490525889
-0.1233594654492586
0.1769993056506358
-0.4722644870072584
0.8164732443454388
-0.04590674593910362
0.2056055767768049
0.04095040789574116
-0.1779821008463742
-0.06857388388504437
0.1096617466291023
0.02237969106489773
-0.01408709803371226
-0.1179543397007136
-0.01402265706926159
0.05987290885737154
0.0256011844841725
-0.07145143630766111
-0.2212261810815749
0.3803629349851442
-0.4221790074018838
0.2630422534651737
0.4079139976336271
0.6839506899744519
-0.2753656036260531
-0.8164990841083253
-0.1090697762424355
0.1260681536788413
-0.1097801192569185
0.09278174178266294
14.72286813100841
-17.59673905027908
-6.345339317387777
9.219210236978377
0.5944959418500992
-0.07523532544527299
0.09672330875228284
-0.6159839251722496
-20.35624546119276
9.280155481904911
11.07608997930682
-0.1813260989286118
0.1324304272841224
-0.4233688154307262
0.07764391203914758
-0.07583161998550769
-0.1653940371200134
0.1635817450345281
0.1678879836251263
0.01160695892763014
-0.1802359582145853
0.0007410156031091495
-4.250094597829883
-22.44945357020933
2.74282162178696
23.95672654672007
0.213988936086123
0.4021037632834279
-0.1597559231277649
-0.456336776299841
-0.0881756028853057
0.7100785365797564
-0.02076253003840522
0.1079732854593267
-0.09666677262610467
0.009456017165062005
0.05857716589796545
-0.6399140753224856
0.3464002195801237
0.2349366897520303
-0.01698955418437679
0.05522641524827521
0.09279811152029047
-0.1310349726568826
-0.02825503539055893
0.009383756840453523
0.1143762772921811
-0.09550499877348177
0.2196487110142711
21.46826869325884
-19.31700571420277
-2.37091169004594
1.004857564133595
-10.10663720165438
9.081548934408469
0.0202307033821432
-0.02435072083226546
-0.04532848729254458
-0.1018767024182854
0.1715559105015064
1.754702219358864
-5.795634574009373
2.277927683454406
1.763004670977634
-0.1364829915802745
0.01384046485284415
0.1398844504280778
-0.01724192372756867
0.5523258499448581
-0.6991215383884318
0.1914533245021624
-0.04465763609377068
-21.0262651281498
3.671849208434186
7.164225882167392
10.19019003771081
-0.2195843681852379
-0.9223366234160407
0.9982043530120074
0.1437166384122621
0.4097406011083529
0.002561424256805296
-0.5021097092303205
0.08980768387327671
-0.0120943512768196
0.6601612301686669
-0.09149366016058763
-0.5565732188548558
-3.593753167328309
-21.72316056703588
22.59813397355578
2.718779760842792
-0.9484292586506906
-0.6522411848006334
0.1724674492091657
1.428202994233787
0.5186268743842126
0.2453597313617093
-0.5234231794719477
-0.240563426311921
0.4273798963954396
-0.1790525768475796
0.370218001930078
-0.6185453215350064
-1.203298422357544
-9.614266839615439
10.81756526228016
-0.6793734435502347
-2.720580303623198
1.115242509245395
2.284711237291735
-0.2543196628976854
0.5935239563927786
0.03833793911681745
0.1629764130220929
0.04557354892917625
-0.2468879011341944
-0.1311123017190147
0.04291094916152252
0.108460847201361
-0.02025949467940358
-0.495191482043719
-0.09837330507455894
0.10001914037589
0.4935456465753408
-0.08562474209342621
0.592920901670525
-0.8754952668746382
0.3681991072264962
0.2706620243323127
-0.06814776090905919
-0.03422711183386826
0.0184297277861351
0.08394514493007925
-3.224978122712749
-0.5679919966979821
-3.052848401413542
7.213371170490908
0.03281234366532102
0.03568594310585279
-0.02783520354461826
-0.04066308325266972
-0.01473665809600755
-0.07304942656942151
-0.0004245568281545066
0.08821064147369562
0.3934220247362695
-0.3776820891909288
-0.1353483354904784
0.1196083998664267
-0.321043602677675
-0.1497201642194528
1.154714456749726
0.03312309224218669
-0.1029518220208326
0.01335060349633759
0.05647812623040378
0.111092167481895
-0.29795623482645
-0.1564834532984954
0.343347520603189
0.3370887670892145
-0.7915069476364254
0.2208048911281577
0.3532066395309089
-1.135731958456302
0.5617204277139768
-8.545170946766049
3.958806189891736
-4.791835018334345
0.08429398851151201
-0.05259836520236058
0.01267803112606047
-0.04437365448942662
-2.385371854341683
1.021100994624092
1.114921584771473
0.2493492748441184
-0.5371081120037372
0.5337371811246149
0.09603623851765282
-0.0926653077328108
0.0215462517528094
-0.2902835861614281
-0.3603714186811857
0.6291087530746335
0.1160036342250276
0.08181497953850064
-0.1540985995408713
-0.04372001427155992
1.665237883301796
3.01827281149226
-0.9795076000107438
-3.704003095128698
0.009832251766511837
-0.3917528292818946
0.7150843237817351
-0.3331637464486199
0.6259695076145601
-1.989314454845281
0.4212376676578714
0.9421072794489674
-0.01988038911964037
0.009158039322179524
0.01072234977281824
13.77405443708478
-0.9993986999351875
4.730339448357624
-17.50499518531829
0.7395669935104926
0.07358369383378316
-0.03774386945994511
-0.7754068179417386
-0.1872156487616096
-0.5280199056869218
0.03294497732637781
0.6822905770624705
0.3057219604600115
-0.154113511099241
0.1167474270595831
-0.2683558764874519
0.003606349304565331
0.07088163351440754
-0.06634702544580814
-0.008140957419266926
0.04135880315755658
0.02552915513514885
-0.06688795831687884
-0.08092724331158944
-0.5339459448322942
0.3605535252432065
0.06668979023409168
-0.04323101019909355
-0.1107675286041839
0.08730874853015716
-0.06049681926455048
0.06335946417966665
-0.002862644942336461
0.06110962044607841
0.4306767642812553
-0.05900991656349903
-0.4327764682222567
0.0573026651679756
-0.02959921150293762
0.07646041956653928
-0.1041638732635368
-0.1163649683503206
-0.2341086956858829
0.4615658314948761
0.2956561561018221
-0.009917361208917477
-0.03175894513614236
-0.462597748868634
0.538273906768989
-0.0439172128229128
0.1656674591479235
-0.02065457167665604
-0.1711735595121881
0.02616067198503954
0.01217775851619766
0.05010765938936753
-0.01882456341051069
-0.04346085453148918
-0.109115751751457
0.5663469598920186
-2.158466005797743
1.701234797517954
-0.6391771625193808
0.7787293302841322
-0.1308585331743796
-0.155303380652884
0.1977720010818156
0.4217496719634988
-1.180041836704504
0.5605201635784356
0.4686265806649624
0.01265735708859126
0.06444508676160039
-0.05821108124382607
-0.01889136264018812
0.04014322972824223
0.05041001020546574
-0.185405355674232
0.09485211569693959
-0.6209284651931596
0.5905303852751205
0.2319182063062271
-0.201520126426265
0.08552306787358183
-0.03699869145507065
-0.1029264238866637
0.05440204742884261
0.1138155379837008
-0.08514738639764231
0.454339826311094
-0.4830079779236341
0.04406232297511689
-0.06633848047412153
0.1178082807317906
-0.09553212327309703
-0.1029250040860756
-0.1462376974911713
0.3804543796399703
-0.131291678056627
-0.3255449119901976
0.4781471314355118
-0.2555272235212223
-0.02942047339015779
-0.03987762775717058
0.1359944134654539
-0.06669631235469339
0.1220604394469432
-0.05023840991492724
0.08400321370127978
-0.1558252432751941
0.09317246255551148
0.003583614159904062
0.01053291218099654
-0.1072889889237449
-0.06889095718557178
0.02995650690216707
0.1369464391886601
-0.09801198897368787
0.4361232031383427
-0.5340591405389874
0.08582066226612768
0.01211527511435951
-0.432553168085785
0.6579266207038234
-0.2249586724831865
-0.0004147801968053467
0.06882638000035299
-0.2275890563912223
-0.2000145074691068
0.3587771838169307
0.02768018226263987
-0.02936277466312198
0.08665544021926672
-0.08497284784891275
0.6198606871958297
-0.3611867493623354
0.2921430835473813
-0.5508170215031158
0.09911776211936846
-0.0842429331596226
-0.0248728398323365
0.009998010834831858
0.1186065540666665
0.318012607543175
0.03200741899338463
0.4586606530589565
0.1936830820932337
0.7011916900516153
-0.1130899480656561
0.2180939723438944
0.7907548205974368
-0.307657102949387
-0.2102067707575259
0.1489777295600013
0.1543336540966352
-0.09310461293992942
-0.532716879258657
1.308331399693325
-0.5584867186774506
-0.8995648452962463
-0.03075229839305498
0.08708149374802039
-0.02105252703846486
-0.03527666834973872
-0.1384869722667223
-0.5266046341460187
0.3646107876211674
0.3004808185946379
-3.186378830279566
-2.9863320534778
3.802157079499124
2.370553804444246
0.3220044406678256
-0.3062478371041926
-0.5615934848842131
0.5458368811936265
1.819982215030526
-0.3956191746192793
0.4763217662062044
-1.900684806620031
0.3537368681385195
-0.5322807575232364
0.2371210552142958
-0.05562583731377541
0.3327847195819873
-0.5362958194897156
0.2591369371868045
0.1440930181792597
-0.1490155484057791
0.08394230418828527
-0.07901977401801256
-0.1242975942522415
0.03770727024930789
0.3170180282367017
-0.2304277042846065
-0.07001821334227432
0.0175619396079146
0.06248995856544329
-0.01003368486967803
-0.2066533670585449
0.004105203373451122
-0.01738131582240958
0.2199294794546844
-0.08216121169333736
-0.5103542619889497
-0.01715662675847895
0.6096721003623836
-0.1581346865163405
0.112706713227737
0.04542797327080019
0.2239343215614761
0.02474594812009958
-0.166550744660499
-0.08212952509671935
-0.01563282663127263
-0.1094880357403661
0.1459842655676433
-0.02086340323375242
0.1901690796387304
0.05543326263734883
-0.09224610132917915
-0.1533562409936626
0.3254906537126958
0.2144054746236694
-0.6982294507984914
0.1583333223826207
13.67068951084121
-9.152080470352118
-22.48763621573638
17.96902717541289
-0.5858987819381474
0.01999602002421858
0.622083891941542
-0.05618113011785889
0.1189671731784641
0.04533518052251038
-0.01660659417891578
-0.147695759585816
-0.07122639377591565
-0.5324932085719744
0.6107809897524488
-0.007061387435362909
-6.843509701050466
-5.444746506868807
-17.47295457768425
29.76121078602872
-7.657409235396303
10.93605856550989
4.220815600532299
-7.499464930790849
0.09441073248882734
-0.0865770205487776
0.04613389671016454
-0.05396760868916749
-0.473232011127567
0.2325488446918552
0.07670345218818553
0.5356219733450356
-0.09355820501075793
-0.5187672205851909
0.2369703477195504
-0.1209248604396701
-0.2622831847905264
-0.2822170949361671
0.5008494903641711
0.4253733901348175
-0.6440057856700722
0.01571756507620072
-0.1439131932192133
-0.4458597197281419
0.7494054825846688
-0.1596325697141824
-13.62142290435019
6.121269896975953
1.072256512357924
6.427896495206548
0.07881764776633098
-0.005638153407530964
0.1724231538423082
-0.2456026482473364
0.07925250664774383
-0.0673559908123823
-0.01189651586148569
-0.1278800423016954
-7.265869934677729
7.39374997724801
0.3930027618817168
-0.3692211588376226
0.4806354692320302
-0.5044170723230871
-11.19472360342427
10.61348193385692
10.64711051016356
-0.03961338195278249
0.5286523823446828
-0.09113443315375197
0.08719733732764902
17.97152668209194
-17.90106338746279
-0.07046329453020207
11.82499759555173
-22.92207272888785
11.09707513334004
0.8949968209007387
-0.1386289418122466
-1.557414948553818
-0.06795906305675856
0.1262468874115611
0.006462605266409667
-0.06475042965365914
-0.1146294006371863
0.1790763302222985
0.2288186620556819
-0.293265591648082
0.4742193072902877
-0.4396555248148497
-0.2033222094457334
0.168758426932081
-0.1284713437636006
0.5460139246257395
0.4390041099228685
0.09628700553697608
0.05762978616548371
0.4879924725842617
-0.6066609957300865
0.02600321534130751
-0.3077981374964248
0.1011682482609783
0.08570502878439888
-0.5511840108911886
0.9123394931884324
20.79808720809009
4.753884665595739
-26.46431136697155
-0.5879225653559018
-0.2108543577726755
0.4917439585305934
-0.4052148170402187
-0.1379429397966822
0.05141379826653893
-0.04774023274023637
0.1959132106348724
0.0263547246388294
-0.1745277025568083
0.3414546996251878
-2.635973324186533
-9.531514095729765
8.942509297441687
-10.44852551849297
6.266847131732384
1.545705062740387
19.41997593998146
-9.166858332973577
-10.253117606977
1.13739750426831
12.32455901263943
-12.80818030385828
-13.66011989044628
5.850689446197012
21.11631089373269
-13.30688044950017
12.54104659019569
-11.66340539979311
8.497254979571613
-9.374896170031192
1.162099486521676
-0.6105389577963076
-0.2594174453105357
-0.4839435666451773
0.5823757927551677
-0.1380456080830276
-27.48070915517835
10.16803632253629
17.31465226185736
-0.02066108646220993
-0.1322484298105129
0.1884918125698249
-0.03558229634385786
15.89710262231063
6.73439078361625
-38.26034783086912
15.6288544248951
-0.0591921225544929
-0.6093136248819501
0.04996042588341022
0.02556343097005844
-0.1398931756315971
0.03993135897665484
0.07439838563784203
0.001357874464941598
-1.653247339810407
-1.983136228911591
3.940394903321653
-0.3040113347962149
1.850964622797773
-1.18703607611632
-0.1222179574336912
-0.5417105893593228
1.378747723516725
0.1046955426605289
0.4798158558548989
-1.963259122174501
-1.144813438707229
0.1342340623637356
0.1767180820330219
0.8338612940899943
-0.09580390028552177
-4.719957087075231
-5.229668959234485
7.394980686457495
2.554645359741859
0.7390275530460781
0.1859613298622226
19.384149161725
-20.8041141271206
-12.24015492518567
-0.1749470640963574
0.4586477933357873
-0.5123807368112167
-0.2943406995158039
0.2801168020678318
-0.3849113492868358
-10.03000162261547
21.14363086399385
-11.1136292412808
0.7657413110610484
-0.5875890215125186
-0.7108691689097832
3.888976372092852
-0.0323799130915775
-8.57655354615124
0.06661190206359766
-0.02084219156205092
0.04783210581175199
-0.05586600391967178
0.02887608965332388
-13.82732037188908
14.94604309043573
-0.1923206233267445
-0.01562043903363312
-0.04217950910230223
0.2501205713950081
-0.2577311022410004
0.004927576087604021
0.3032659184743394
-0.05046239236264142
-2.77315824432891
3.545585604014559
7.19324153736032
-8.76569189028325
-3.219384665325361
3.933342277011385
-10.14138912867036
3.434888607492522
-0.02921386219804241
0.02816661968376931
-0.07545848659867642
-25.26747954119348
-0.0485847265209313
0.1698767233069287
25.14618754459941
1.834218849362826
-7.853828505378077
1.734054816790197
4.285554838720978
1.893897720370967
-0.4044315075917528
-2.940693604393418
1.45122739144784
-8.727646294839703
3.885645890583478
36.31095311385707
-2.958344408659962
-8.479469396090856
8.167385822839901
-0.7822882877363766
0.05268490015961848
-0.05616803751242967
0.7857714250333124
-0.05362502141701964
-0.2697603623313808
-0.1463720027133057
0.4697573863452545
-0.357013652089651
0.1728065480446481
0.04488286945661811
0.1393242345061314
0.022447245310532
-0.01884089603566462
0.03621682626877008
-0.02872321561859206
0.1650025865264866
-0.1724961972277509
-6.540339685211741
6.583684828858579
-2.949210164070114
2.905865020193822
0.0001326736590463686
4.762973749962536e-05
-0.0001803034013065374
0.000132673656817921
0.002824033155376613
-0.01410862737864222
-0.1218712157477265
0.07882466454574844
-0.01363407250110022
0.06637221882971289
-0.1315628109180144
-0.1456550137506293
-0.3342979640145594
0.4494092061813459
0.03054377153202748
0.3726389079917808
-0.4552687062985681
0.02471352746151693
0.05791627082820262
0.1702437741372422
-0.2549595799247969
-0.08828889086698098
0.173004696609424
-19.59948858772887
-7.889404997447423
-0.05306948521900162
0.128724493281983
0.0002253411674690531
-0.07588034927701613
13.02535941319348
3.770541684035765
3.29765641486769
0.0208033356958819
-0.3605639397102705
0.04283339549344967
0.2969272084575801
15.30084452050672
-13.99896699300606
-9.703974394949386
8.402096867457947
37.62314692849171
-19.68948574771928
8.119234346056381
-26.05289552680538
5.281871158643319
14.78186641718447
-1.454572347221437
-18.60916522854806
19.61717992400998
2.841360050653172
10.9545347430273
-22.81548966895068
11.86095492586596
35.19345074442753
4.904879309944696
0.6138676196801516
-40.71219767369411
-0.07827376546983691
0.131127663674625
-0.2442092688475546
0.1913553705803054
0.1929369054553293
-0.1442047750839792
-0.6200175686425006
0.5712854382737759
-0.140274202847251
0.2798088817033374
0.07897188973240427
-0.2185065686572088
-0.0638066071530707
-0.006813458979841436
0.09075020749197807
-0.02013014137256362
-0.1234183666090082
2.014699500819291
-0.3938056579050996
-1.497475476393212
0.264599168732349
-0.5295515621637357
0.2146115831113938
0.05034081030230943
12.21791669817348
-5.702889586682239
-6.515027111394452
-0.2384922767958021
0.1332589276057656
-0.03005590954912365
0.1352892586982888
-0.3521031087574078
0.5025173310290585
-0.210264900377932
0.05985067804432474
0.1293729144213517
-0.09315608817024618
-0.05340145682534263
0.00807637674112789
0.04532508006590031
0.6370492884095292
0.503896488639118
-0.5161701899850308
-0.6247755872863466
1.934776146000223
0.375105041949321
-1.071891670776395
-1.237989517362412
-0.141143367023673
0.1080060067850861
-0.09552274970030937
0.1286601098958195
-0.05466721420635671
-0.1361312124046914
0.09269712600937181
0.09810130055492376
-0.8136065743799673
-0.7422089918072989
1.694348934547071
-0.1385333684490603
0.3721800818340875
-3.908117972556432
3.330699390334871
0.2052385001271729
-0.833214363044208
3.42249268081714
-2.608323879731709
0.01904556184947554
-0.4733680825673481
0.2335541803564991
0.3040606956068301
-0.06424679345726791
0.1806032958039738
-0.3195235755493764
0.5169368625389748
-0.3780165828455815
-0.05504596277875811
0.07194313106212127
-0.01689716831528146
0.109785311957581
0.1566309654372475
-0.2664162774009567
-0.06490969211941076
-0.0001449993428851787
0.07338211967360733
-0.008327428245598598
-0.05723561935519353
-0.09637212287270858
-0.1068431012927415
0.2604508434404267
-0.07657600385372562
0.1016122211072008
0.1677152939251961
-0.1927515112204647
21.17617181373737
-13.60532733246346
-13.97688874123159
6.406044260103802
-0.01041736479095022
-0.05131997344623244
0.005210498484838158
0.0565268397190702
-0.03004798266003443
0.03709507804493491
-0.00704709539799835
1.980736657981784
-2.588251055642161
14.04061772308654
-6.702441141020504
-7.33817658195272
0.04122172795793274
-0.101654725763191
0.0007293395187171635
0.05970365825264991
-0.04733186841988182
-30.33760428539591
-0.03706962819706151
30.42200578213784
0.1127407500023315
-0.07220350141785449
0.215590856042761
-0.2561281046698872
-0.04886733687088204
-0.02522094346562587
0.06796646043058524
0.006121819879407769
0.07281748735195034
0.596907713619564
-0.2532480328386812
-0.4164771682544686
-0.06211652064085609
0.004200188063944783
0.05791633254536761
0.02396128367551533
-0.02326009464808212
0.0636778835322785
-0.06437907258864475
-0.006361451263276577
0.02985103788462836
-0.01613310574586449
-0.007356480909280768
0.04503117805516675
-0.02588843421576876
-0.01914274386597067
0.01093530451176172
0.06616570737930344
-0.07710101192132567
-0.1355447398224687
0.5713693714415327
-0.4082513690323774
-0.02757326265247854
-0.011117029527231
0.08738071331805977
-0.09009972718614018
0.01383604335517184
0.07988119531219576
-0.4352445238743426
0.4200199682018281
-0.06465663974210031
1.213131734623034
0.5395094238441854
4.221588193519443
-5.974229352103245
-0.2852995069304456
0.1404410354676868
0.04511055011575678
0.0997479213028077
0.102465059896391
-0.01769521603015315
-0.08476984390968817
-0.02606294163742389
0.1255153662817859
-0.6111884900122
0.5117360652863605
16.44489959707843
-21.09542259575433
-0.07675459941855176
0.1480738591167793
-0.0009056021347758781
-0.07041365758873196
-0.4929258249957992
-0.02389312889907771
0.5168189537366089
1.565145104614431
0.612351335695075
-2.265364561603968
0.08786812132108202
0.8138198760019496
-0.05306878463098871
-0.6634812794620283
-0.09726981195830364
-0.2427026403515042
0.317404709117158
0.07151702027811553
-0.1462190890983347
-0.05292593611269598
0.3585743731094064
-0.3725195445893152
0.06687110751213768
0.1417316932738661
-0.28888342201476
0.1538629080747064
-0.006711179371795962
9.796390745337433
9.984814649319006
0.04009607712429695
-0.5812684925885218
0.08870929680086993
0.4524631186159633
-0.2247197423947945
-0.4378128035911816
0.5901657072354659
0.07236683874246432
0.01570227139637784
-0.1417278050109952
-0.02319058116292506
0.1492161147341494
-0.2702904106074118
0.001983612584791218
-0.01068487419184597
0.2789916721534726
1.436944630430258
-0.5662331183426529
-1.678202090577934
0.807490578360151
-0.03141007567273265
0.1269356769946225
-0.1039312048914968
0.008405603511098914
-0.01430351907458906
0.02656592014302235
-0.1037268159428335
0.09146441485101502
16.12688322864886
-23.6675743415914
-3.14700460469165
6.280377642118835
23.04318286128308
-1.386404832406832
-0.1872096619081458
2.17335899672306
-0.5997445024838749
0.1671973444024624
-0.2623189587891843
-0.2477355681736182
0.3428571825203687
-0.08506710876446472
0.009861765701998492
0.03021357525390007
0.04499176776678199
-0.09940865164509965
0.004908998415617726
0.08863433892299494
0.005865314281722636
-0.1327451675329277
0.1811880673110449
-0.07279362064951711
0.4827304132641208
-0.1853616540091905
-0.395720261283406
0.09835150197235583
3.185581580579116
24.63773408854416
0.08966054051377137
-0.04430821470088097
-0.245469213908632
0.2001168880434643
-0.0002551574300240459
0.395040203312197
0.07029873599064473
-0.465083781928501
-0.4890512841878609
0.08239146756640171
0.06283106781906718
0.3438287487379151
-0.5201701937278591
0.0500251683032461
0.2576784266967382
-0.6129751038980022
-0.04784852211566887
0.7044814281570011
-0.04365780234892232
-0.03263788582280998
-0.2366784668750799
0.7382334219628505
-0.4689170693874773
-1.611840493569644
0.1135710462397778
1.498269447324996
18.60294936200388
-7.37532188399181
1.797731935154255
0.1571428522221066
-0.2724428672770538
0.04800667737800302
0.06729333760393064
8.999055944161698
-32.49117716278435
32.21284614890198
0.03330081730540019
0.06692588864174591
-0.06008347624494029
-0.02773631697610294
0.1488514697946423
-0.006179033199079191
-0.1149361196604834
0.06622619048447353
0.02652342013677314
0.04860496185323145
-0.1413545725054067
0.02730230162486126
0.2678964743805497
-0.07555366878801834
-0.2196451072647045
0.4258105743597427
-0.3002731432861647
-0.51218875992873
0.3866513287864108
0.07626755939538726
-0.02434278449442442
-0.07921502257618343
0.02729024765027162
0.4619276910135192
-1.022131798620101
0.2325170853073823
0.3276870221430281
-0.1021818559091884
0.05804197386380262
-0.03261471739019678
-0.06958360945243179
0.06224865905280781
-0.1223845025972811
0.1297194529741431
24.14070552853227
-12.92132065111606
-20.71597307263698
9.49658819525918
0.1781972075702496
-0.1752320913392539
-0.002965116260538932
-0.3188345210769293
-0.03802470691483278
0.4588967682566032
-0.1020375402987462
-11.60720704184076
14.85571345937253
-2.120951901161269
-1.127554516572091
-0.01389913644459491
0.1134611121862958
0.008662969337360894
-0.108224945106137
0.05575127756856538
-0.1718829052260966
0.1027898749512093
0.01334175266635089
-1.28716424806163
0.9560704922493962
0.4492582998949909
-0.1181645441424508
-0.01876546535363372
-0.1927287461612646
0.1954608655083459
0.01603334596902587
-0.8464215315622515
-0.6286565697085987
0.864539143416952
-0.9743025973818327
0.2083346077286244
2.549994610297678
-1.784026620608115
7.202537844600561
-17.43284828742232
12.21258425869507
-1.98227381539984
-0.1082544802442835
-0.5372216611341456
0.7517879654107807
-0.1063118240268992
1.575254164762912
18.28935865236462
-23.45836598452268
-0.04686426016090038
0.09137753919641096
-0.02813374057813204
-0.01637953848306904
-0.50894631620111
0.3141758793109584
0.2285057060049865
-0.03373526917265383
0.4961664766889887
-2.150329085629126
0.684928315193824
0.1740932212660143
0.05848422562103203
-0.1559874278020919
-0.07659001913236309
0.4941412625960785
-0.04226980542084551
-0.4861653391618238
0.03429388199616711
-0.1004107490584378
-0.4147859237830559
0.3306807084591488
0.1845159643251575
-1.808243038864851
1.707322306679851
0.1009207321402115
0.1144187920147787
-0.1226134519814716
0.02130424132805713
-0.01310958141265876
0.01324831427328982
0.08882016049343251
-0.09134877604354973
-0.01071969875474314
0.01200177426432626
0.0192230668044516
0.1135318311188378
-0.1447566722252105
-0.01257404600788537
-0.0725904964467248
-0.04259103778652928
-0.006702082207917914
-0.2792773047570222
0.04388191343390131
0.2420974734976472
-0.1451356286664054
0.07658765479236777
0.1123346413232633
-0.04378666748420045
-0.1573251259569766
0.08484186983542211
0.1523540211253835
-0.07987076507236153
-0.5987391076897371
0.7185947293547715
-0.0470975189794687
-0.07275810292888488
-0.006145888199957038
-0.5153195907996111
0.1040319613054763
0.4174335176810651
0.01162488349161061
0.01246456640356435
0.144510417397563
-0.1685998673132449
-0.3332337230312362
-0.1928202175467998
0.4201998982790475
0.1058540422088751
0.003445928945898027
0.176373225791314
-0.1601641650583274
-0.01965498974221223
0.01036870497096101
-0.143709508415314
-0.02547597525306199
0.1588167786584143
0.7385741404436847
3.873960361803237
-3.774783984022445
-0.8377505188186448
-3.936155338054308
-40.93197995166652
36.49668946976989
8.371445819972902
0.05406442167709789
-0.1551439433666816
0.08946358051662862
0.0116159411403746
22.73648090456734
0.2326627680314111
-23.41443958114107
0.4452959086029126
0.1491888879587849
-0.2015817740637395
0.04423335372964386
0.008159532318764087
8.174934916473967
-9.818992150801998
1.91400288429044
-2.950730508466553
1.319352252544019
1.631378255872625
-0.1120326392762487
-0.04888530514090648
0.03408510304962226
0.1268328413213043
-0.04113576465390895
0.03811034212313388
0.003025422500836567
0.1262057285929245
-0.06457330046563949
-0.2421597843637029
0.1805273561819939
-0.005703347730811159
-0.002003405278358475
-0.0642635799393616
0.07197033292571434
-0.02499170891797236
0.1050477482916254
-0.0005993608765735537
-0.07945667853603522
-0.07069735972141387
0.007101263707491747
0.1685933352076212
-0.1049972392437826
0.02507218053857588
-0.06935566732732849
0.03248737726220583
0.0117961094891667
-0.06884180313020169
0.001834282888191316
-0.005158544855612839
0.07216606506690883
-0.5171236885351217
0.1154563593629337
0.4016673291421564
0.1113020688753968
0.09238813601748445
-0.1694646719626434
-0.03422553296526156
12.5512781680492
0.7254009777536158
-12.74970697330465
-0.5269721723336627
0.1687262090316694
-0.118459588908081
-2.235731561424828
2.185464941185323
0.3164931854516943
-0.3611308564104241
0.513947527589534
-0.4693098566910746
0.649520416000151
-0.4447458485769001
0.06018384224560275
-0.2649584097276069
0.2745924591514357
2.220397471451387
-3.73209549038007
1.237105559559321
13.15618700615778
-13.29023815346861
0.1340511473490856
-13.68176237866123
-10.37865086149434
10.23309286848852
-0.2286466095559568
-0.2048289566169534
0.3806845791913014
0.05279098690174269
0.4041853057369216
0.1728858770534875
-0.5770711829338195
13.64616169298383
-19.34100777240048
-0.1722889549062757
-0.03124098790346226
-0.2062990778733216
0.4098290206264116
3.315954571528834
-1.315422523652212
1.795288145239914
-3.79582019286538
0.3856332836968938
-0.9996572860481816
0.4847464299397003
0.1292775723038836
-0.02202942045584012
-0.009072082003480527
-0.05880921281278455
0.08991071523470162
0.3573233377179486
-0.4943487796364329
-0.0582954124211517
0.1953208543081667
-0.2700897417001311
-0.08125711438605944
0.2513548291449522
0.09999202688241068
1.305007634998744
-0.5257297126700161
0.6576667079975741
0.1359492564868486
0.07486674505120706
-0.1107332044401997
-0.1000827971415731
0.2285080349003258
0.3187376351194827
0.01420632434119166
-0.5614519943990581
-0.2454695839699509
0.2203435116935474
-0.005238341763812023
0.03036441395694063
-9.627284229562093
-0.5278968381347854
-2.652747833362303
12.80792890101086
28.00862391569121
-0.7191763793861871
-3.65469154637888
-23.63475598996085
-0.002193020807707435
0.1423832232087985
-0.05949553672484244
-0.08069466574940146
8.308669489381476
-2.373617988858558
-1.355741040017403
0.7074323657505656
-0.4205504391485302
0.2536691472928591
-0.5405510740247507
-1.214722935237947
-0.2283631438002824
0.08447898656476595
-0.3478555244926588
0.4917396816437254
-0.1072871553449855
0.03242251155116279
0.07486464378562502
0.3354893527872841
0.06718981510823525
-0.4093812501423154
-31.96142065692052
6.982884733454704
-3.411786408882254
28.39032233238288
4.330969054087175
-0.687893682254456
-1.795761217025358
-1.847314154775249
0.01693308229742764
0.01698042801028329
-0.03391351033160121
-0.1875407163366417
-0.00509005067819222
0.6134457413213472
23.57106787598241
-0.01569907090131924
-0.07729253405434158
-23.47807627077754
0.1928465443523506