/*--------------------------------*- C++ -*----------------------------------*\
| =========                 |                                                 |
| \\      /  F ield         | OpenFOAM: The Open Source CFD Toolbox           |
|  \\    /   O peration     | Version:  v1906                                 |
|   \\  /    A nd           | Web:      www.OpenFOAM.com                      |
|    \\/     M anipulation  |                                                 |
\*---------------------------------------------------------------------------*/
FoamFile
{
    version     2.0;
    format      ascii;
    class       volVectorField;
    location    "1.2";
    object      vorticity;
}
// * * * * * * * * * * * * * * * * * * * * * * * * * * * * * * * * * * * * * //

dimensions      [0 0 -1 0 0 0 0];


internalField   nonuniform List<vector> 
19631
(
(-0.05576277255754425 0.0007036836757252328 0.009126926667173012)
(0.2302876472185627 -0.3918551588828402 -8.126567669204189)
(-0.0454103349111421 -0.06135252375332783 0.02263822871158637)
(0.7013487886277638 -1.803641793747017 -20.88213776890586)
(-0.3593363861646259 -0.01900887401354609 -0.156144002444292)
(-0.4948185410484124 -0.4375435837083409 -0.05090467591564644)
(-0.02704362721153467 0.001039916103734022 0.01562858970440487)
(1.047005272588956 7.91969480431621 -8.030330531631389)
(1.379030496664537 -1.306889609536355 -3.825722369534721)
(0.008998736778836391 0.004337629003819149 -0.001627051135593975)
(-0.1849877272751962 0.1484019587274929 0.07434420675288911)
(0.22164436097638 0.04113779289040357 0.03494806113777893)
(-1.725760802595562 0.3791664423364443 -20.50894702329572)
(-0.02665900542197393 -0.01615413422833649 -0.05253211286984845)
(-0.001949092173149404 0.001529722498274876 -0.008816611549679013)
(-0.6816087236583112 0.8549507542232104 -1.214320203735824)
(0.007900552141084675 -0.2140291273341795 0.02430385508375701)
(-5.926223574569137 8.341116336180752 2.838193965181294)
(0.03968652890021535 6.035815888543594 0.68033064817301)
(1.672898999419626 2.769371068457121 -1.451442602098483)
(-0.01247185805426103 0.1006225368468988 -0.1580208650082144)
(-0.002388668919902977 0.03053028563950377 0.09216191179691624)
(-0.3826973508378432 0.09268888944561038 0.2263114586643694)
(0.0181941377879469 0.01018775599785739 -0.01439873275082484)
(-0.08651082023464801 0.06336206311917056 -0.1626304580696651)
(-0.03033402623677954 -0.006753081281530756 -5.495116675657374)
(-0.1772524841322343 -0.007280727153283262 0.3098542852110114)
(1.319001829015034 5.248458382789846 -8.983981695720825)
(-1.257537931173265 -1.083502977436971 -0.2481005656989493)
(0.003196463426516677 -0.0002861638641152163 -0.008979063006733495)
(0.03288188012763878 -0.0101822374160702 -0.007025268710261857)
(-0.06927737607752829 0.01410210267963736 0.01409222192745715)
(0.9443362187968918 -7.447917292601028 -0.5428170106941248)
(-0.2085882300313187 -0.003816815899917482 0.08150881181029224)
(0.441538341023021 -0.7236935586479957 -2.477820848315783)
(3.50409253562748 1.869788592492879 2.241023996795061)
(-0.0049651339242304 0.009537402749136968 -0.06331717476154278)
(-0.1446366946736039 0.4207177549186116 0.9123034570936454)
(-0.1944717421347849 0.4867291350439351 0.4904746873311344)
(-0.1799062974534555 0.2283019507842055 0.8681055757784932)
(-4.630798415876393 -2.443734270454944 -5.025928598786897)
(-0.09318412112405895 -0.0567779538331806 0.07305344671834621)
(0.01529081326197822 0.004933709669431935 -0.002996493163696872)
(0.04998667827875145 -0.01272609774009561 0.03205405629460456)
(0.3209370385181196 2.756465214133403 -7.907025302526064)
(1.434572929904396 2.11087657033561 -2.640807825055648)
(0.02644903634867432 -0.01246101297781983 -0.01355082707850117)
(0.005079833740907577 0.02102755267706718 -0.1614437500949725)
(-0.1041510740965886 -0.003897205172544573 0.07572270237548936)
(0.01963653725914034 -0.07479145252887123 -0.02820170019083312)
(-0.0861951135069278 0.2080039366545757 -7.177211755284934)
(0.5721995435744488 1.124527334438379 -1.401514805047136)
(-0.06673730547436639 -0.1379093112391044 -0.01096785195590114)
(0.8824032631209434 3.196203056591528 -3.955302060793453)
(0.5261966183484275 1.954348220286296 0.04708436430469565)
(-1.014720253546704 -1.43951745167905 -1.630458102879017)
(-0.006977892753580239 -0.11576665528391 -0.2000813832509224)
(-0.1171062713973426 -0.2577691129722637 -0.08367525061835204)
(4.164527040861884 -11.05259804615597 -5.750449865741684)
(0.008601343805644607 -0.002547733066574914 -0.0010310408374238)
(-0.01488773521007003 -0.007053150458300374 0.008777069899018601)
(0.8284184680569998 -7.060134426973215 -5.431952931193899)
(1.986984125749124 -4.589174736495329 -3.838739200097641)
(-0.04214252330968888 -0.02535781021185438 -0.001848257857209257)
(0.1224480775272217 0.005922265423774338 -0.01441107134073773)
(-1.649531516757022 -12.01588795012811 6.483767794837268)
(-0.05329598690873464 0.1475768188351265 -0.1259746929449989)
(0.1330007999258628 0.05194989611355233 0.06050723683066637)
(-0.297160212643938 -0.09971851167042584 0.4299559518847048)
(-0.01186046764461767 -0.006156568490243315 -0.002872230611804838)
(0.004616934440134398 0.004066741399180084 -0.003245043944434906)
(9.099356548058781 -12.78589763635288 -19.02368293255994)
(-0.06585252044903192 -0.02448098675328348 0.009590235221756824)
(-0.01898090221495169 -0.0006145617276395732 -0.04560338535437783)
(0.1586092607709146 0.06245908313201597 -0.09281483778396143)
(-0.4588693701244359 -0.8396753239519257 -0.7538015895756524)
(0.05998709996057538 0.050414893553727 -0.2599929532152281)
(-0.4702179296321941 0.3441086822640758 -0.5448135129285911)
(-1.207052813578198 0.2293513753117062 -0.4485800309243249)
(-0.608324189014207 -10.85202624824022 -60.1743581608128)
(0.1173858168061707 0.0003749264656724006 -0.03170067837401296)
(0.3350750564461233 -0.03544445650330722 0.03654051240720821)
(-0.4760034669980744 0.1342019002836063 -0.0380465770251162)
(-1.239532947838082 -0.6533252754816148 -1.618437270430315)
(1.617295026730119 11.54031879635636 2.405884738630065)
(2.439221758132778 -45.11465687555545 4.588853885546945)
(0.03501863936793553 -0.04373290660980322 -0.02471165952999493)
(-0.5948791818617325 1.16731404003229 -2.128026021558139)
(3.082298755270964 6.877795625232321 22.49290360697955)
(-0.4392213753797445 0.1016898260812957 -0.1551213895775996)
(-0.2007425763716433 -2.79893499124037 -3.552283924225097)
(-0.06943146512904644 -0.08924713286059541 0.01510723377897089)
(-0.1245015510332878 0.02784421935872958 -0.01471455433413548)
(0.1325663353460219 0.0605338899821945 0.07125704407366759)
(0.4020072433252366 0.4688389188859066 -1.25692488175741)
(2.288782609491944 18.78473652572672 1.197991717701976)
(0.07230232530099651 0.1790505535043853 0.1740022632551941)
(0.1990530110161304 -1.937390558938214 -23.52536618400413)
(0.09720534699168872 -0.002912951178222573 -0.09390650263465783)
(-0.02567427589659307 -0.1092869548252988 -0.04645024316569459)
(0.05281309250569659 -0.01063510689944267 -0.06164488207304921)
(-1.06674228971494 13.00610353208614 5.159529171589162)
(-0.5027790694031842 6.65353141169911 -1.490252230969949)
(-0.01264612705215216 0.00429771065781227 -0.007916763566151831)
(-1.730739206196636 -10.11206751063486 -0.8619299235240492)
(-4.02757298143671 5.190270018627403 -4.577689130309727)
(1.51004822671164 8.815394043163616 -1.956234133199211)
(0.2736842789864048 0.06517422443593154 0.1173653018941937)
(0.06031806855897781 0.006010249719854525 0.02654469219174373)
(-2.076977961746448 -7.165690953357458 -2.452872252977264)
(0.8379365847504332 -0.2236792021179339 -0.8998862140201369)
(-4.459765441809898 -6.765784068112909 3.716382464317967)
(0.4059081962614917 -0.1195982098604617 -0.5187508281049376)
(-1.231148066045322 -0.09876475932752693 0.401040500787414)
(-0.01354514470441262 0.004969945770842051 -0.02372431293531453)
(-0.2896734853681762 2.220890175522502 -0.6974459804166084)
(0.4740918214143504 3.701160452878624 3.391586639886841)
(0.007286584931153618 0.1741002942631004 -0.09771595068741885)
(0.7914880941386507 1.238300154142064 0.4234872463984655)
(-0.0712754544949319 0.01903571798725905 -0.06220488818649236)
(-0.1539220283911758 0.04692776042948413 -0.009535911528842084)
(0.03026962857143902 0.009000911843794035 0.04447563986412663)
(0.009110200639933159 0.07721742987051958 0.050326435104753)
(3.577050540730643 0.4343850990461944 -6.158204401927138)
(0.1138812198592259 0.03037246690760984 -0.09406994873727897)
(0.03013676478047944 0.006614379515826638 0.01562933983678955)
(-2.500382648760697 0.5746309145151373 0.3076974514621535)
(-0.1245808658127151 -0.03922548839175768 -0.1370287757227709)
(0.01285054922237997 0.002850078787042402 -0.002144191868153117)
(-0.801794406074203 -0.4268114642612529 -1.105281348666434)
(0.047650239359582 -0.009751286665289126 0.0009768416712217804)
(0.3047447622929089 0.1199694974523118 -0.0129220359788144)
(0.4036726927968495 -0.4467723791836431 0.02714513794808465)
(4.76099975121154 4.081452889362571 -0.450555713825489)
(-0.07301950194415449 0.1581479418489541 0.01940474373955584)
(1.263758092613713 29.08727197353186 -2.043905483921969)
(6.460114912639629 4.862795785145422 1.613517783303983)
(0.1020658444454922 -0.4526336256100663 -0.4798537846094066)
(-5.051891280492074 7.015720673945427 -36.52601120815746)
(0.3851077369606789 0.002526487810937478 0.2349493326469887)
(1.158855914112533 5.732726261191559 -8.180846999048686)
(-2.194291443446071 -0.02944526462942298 -4.81802525503192)
(0.4368792378907711 -0.1495364491468596 -2.309526817592354)
(-0.00478251744467842 -0.002124309619628255 0.01419846913987501)
(0.05151954086326435 0.01771450230979642 0.02544265095958394)
(-4.60238346831868 -0.8549796680780853 -7.288351065968484)
(-0.02593367144264981 0.002965000048141887 -0.003696764576384438)
(0.001286245055083635 0.009677159491910012 -0.01363990521204048)
(0.009936306203719974 -0.009307333114846878 2.452735984931256e-05)
(1.369006181273817 3.336728712720689 -5.575184813246254)
(0.0717705351750329 -0.03296943513533932 -0.08998189332382703)
(-0.02042779583113693 0.03986026365797638 -0.02535147477531585)
(-0.08397807004699778 -0.02421181710608124 0.02504877673114459)
(0.04498468510186969 0.02812616141856237 0.02309163350111714)
(0.1860690744362857 0.0710223376809004 0.03732319372453614)
(-0.1446054730816285 0.04371251368923027 -0.2045657298006264)
(0.007873687394233764 -0.007019541061463986 0.005901777307566106)
(0.5940177857443139 0.0178327296095193 0.5197184498018657)
(-0.9266386631601762 37.92175851197461 5.4732390971476)
(0.124035308400738 0.3013824441386002 -8.709828218375373)
(0.03775230792328062 0.0416152295066517 0.01996550105560103)
(-0.01405289655565831 0.0007490921101747171 0.004693953210434674)
(-0.09092811698254437 -0.04918550991487681 0.01223383779768943)
(-0.06433976766208044 -0.009753660769578752 -0.01097179418197172)
(-0.0227599883615372 0.0008353306366720061 -5.50228837063388)
(0.004923348461913335 -0.01033250169118104 -4.932501248107621)
(0.03188900619075207 0.04258702525881834 0.02525417794435629)
(-0.02829983340894179 -0.02151019007786089 -0.03917736437996398)
(-0.343350027465575 -7.676083262868853 7.452084611515184)
(-0.02017283431063453 -0.04805035091821327 0.02571166415954278)
(-0.1109167994035947 -0.2232867675777618 -0.09798675162797782)
(0.06898314990851684 0.04020719583773114 0.002863639831853945)
(0.2141429450299104 -0.009699219083916168 0.07525740066893283)
(-0.02611920577763813 -0.1728535498667129 0.01395424469007211)
(-0.179042236542505 -0.1492471103044781 0.1352835168074752)
(-0.2206351899911872 -0.0637099416799108 -0.08466866807957515)
(0.003545918128724048 -0.01653375653237914 -0.005264393681439156)
(-0.1753721121094647 -0.05174328235844827 -0.1631145197594314)
(-0.06486039639147123 -0.001810552471107243 0.005615098380856803)
(-1.725328210146123 -1.648335571709108 -5.894960521501185)
(0.1294894230775164 0.05461355499896708 -0.1661029719354339)
(-0.003510220017181673 -0.003452463323488164 0.009479707533424669)
(-7.737922784931302e-05 0.0001029366782486678 0.0245844822466738)
(0.01529619495339329 0.0271952541445426 -5.487181411510288)
(0.04031876060384625 -0.02023731351715303 0.08077770414680895)
(-0.006629114008719544 0.01082820325138074 -0.0454351459530548)
(0.03088840490095933 -0.1344182412161749 -0.1324623532750283)
(-0.07867988456931749 -0.02686908868201324 -0.07051434732646317)
(-0.006523586025076224 0.0150045169401613 -0.07269852421928885)
(-0.07407312860276136 0.008797446942287932 0.01340965494871952)
(0.01866852372587017 0.1176444610837101 -0.02635157850522344)
(-0.01109057769983202 -0.05981551572611037 0.104735998947994)
(0.399708327942381 0.03281206297339992 0.0723374156168618)
(-0.01823368717687988 0.0007501720924734108 -0.01261323104953382)
(-0.1642894721622201 0.1247935290305739 -0.1976339519196524)
(-2.147322204198519 -1.172464279668742 -0.5969489015632979)
(0.02794438069791813 0.1875928362126687 -0.1353928136252559)
(-0.01332890398733309 -0.01950198795139776 0.02417024007488568)
(0.04695053763752215 -0.00622769484436676 0.05913574080324956)
(-0.07705010347538996 -0.05343260519203873 0.007077214590210129)
(0.06157075227482319 -0.03677095896339991 -0.03619830033713724)
(-0.03614341406787963 -0.009249107289916979 0.0124289591010198)
(-0.02012613062277096 0.02049792625439963 0.06025415939169726)
(0.02483008095672612 0.004578607111286069 -0.03022280608401405)
(-0.007396979058534816 -0.01025580169518338 -0.02517982914069992)
(-0.07611925573300661 0.05287042996958072 0.09304182593906656)
(0.02682899800193195 -0.09509689531523295 -0.109911276828419)
(-0.02563910984327697 0.0499066248328771 0.03889031691073107)
(-0.03069408541035651 0.06765888573537521 -4.852838241579938)
(-0.05290559626137004 0.09049968438811179 -0.07676603004986077)
(-0.04548840663925466 -0.001904233652427284 0.02629326265059026)
(-0.3853091123995505 -0.01408194847532074 -0.09015757172388791)
(-5.918171222911214 -2.668467265302747 -13.37540428315277)
(-0.01666927129309383 -0.003927847724819918 -0.01627652581403308)
(0.2062777298471222 0.01272129663772793 0.02879317619801229)
(-6.07169211209969 -5.018246636656958 6.473634368367731)
(0.002709465413275521 0.006761048599687625 -0.003842549760501001)
(0.01429145893800212 0.003689779070153677 0.006103788104377487)
(0.01095219544620347 0.003210564258359287 -0.003837773973524194)
(0.4418339395310098 4.374385323021944 -2.697925797239956)
(0.04780283478008915 -0.04861713696155855 -0.01819297180258597)
(-0.2161819269992532 0.05692154346521468 0.1826308706909304)
(-0.005075762564899583 0.02715372357391892 0.003275167896995346)
(-0.001449338837456373 0.00157709262938843 -0.0007307870256215745)
(-0.003283723863433587 -0.00441131240983447 -0.003681113375371135)
(-0.02307357389449831 -0.01525765382214028 -0.03746062222002023)
(0.5267794420959691 -0.1799786976254741 0.1137159265180978)
(-0.01607122477083756 -0.01047287548763511 0.0489949206584872)
(2.712046828201769 7.003957437590523 9.542543008524529)
(7.133650353807459 -6.36808035108933 7.905645394251424)
(-0.04321922282206406 -0.008235480046887785 0.01048732412351895)
(0.002036651007526071 -1.115499121288565 4.149842035861447)
(-0.5845422311765948 0.3510544210333328 0.9172509005918985)
(0.1320536371513329 9.490400803342379 -2.11492806531944)
(2.310003956783545 -0.2392240107536334 -7.51581312200279)
(1.790640966811089 -0.01719013136642789 -1.801210828127257)
(2.930954962789482 -9.207817833624357 8.052741940245795)
(0.5442635608797681 0.04006077853079784 -2.889452680783482)
(-0.4250093382394272 0.3166773135266165 -0.3323897544409296)
(-0.205393092645251 -5.293845542785862 -0.9169155816443438)
(0.03631046689212996 0.008672902038924108 0.02458966591712447)
(0.2220263876304582 -0.01290520798294668 0.02863214443703589)
(-0.02189984508325418 -0.02130138812072638 -0.04818511046521302)
(0.0474781919790689 -0.0199239535548756 0.01523500107072237)
(0.01775454103656447 0.002991269815196384 0.01926252653309008)
(-0.2967882352813443 -0.3880084918614626 -4.957305234361034)
(0.0005669646101514273 -0.03291332303219556 -4.84248459886499)
(0.02243901453032104 -0.002500441751622548 -0.00305594800002216)
(0.8009401388911095 1.108875545415499 -1.177973543037033)
(-0.007675402570359483 -0.0006470530627555411 0.01189452311306583)
(0.5636588919488192 -3.433719729384622 0.7042065162800397)
(-2.005884275493059 4.233232869346367 -0.4400393543734292)
(0.03870129868077539 -0.1017953390487363 0.05385382822372541)
(-2.056537067093657 0.1707356964659125 1.041576243344869)
(-0.001380545279545228 -0.02128981607124006 -7.899226002490966)
(0.5587865681533299 1.599377669793084 1.876202547777334)
(0.9562828074774445 -1.184091307194489 -0.6902130354172019)
(0.1656459593554748 -36.36134577621709 -1.999209540684322)
(0.5334127477349019 -29.22604984355002 -2.877901366030055)
(-1.400093524003244 1.055175900789358 0.2715051876980241)
(-0.006326055244629683 0.01420675146196834 0.05714207771537641)
(0.2049212673159959 -0.2422727047398698 0.04867490053688528)
(-0.2646723033892679 0.3829366339355181 -1.017410960313847)
(0.731499819353317 0.271023449212715 0.03820819087166641)
(0.1676116889005799 -0.07568548582562297 -0.129779847582564)
(0.05782354433686814 -0.01646646607167194 0.01858299779521618)
(0.02916837118875007 -0.05603191097866529 -0.0707141880626444)
(-0.05731140808612178 -0.1152591730591963 0.07360924393257316)
(-6.342611555685618 -20.33752826767855 2.554784174246874)
(0.03476954433781154 -5.483169363957156 -38.96078729628637)
(3.580078441373909 -5.552374845483286 -5.8061740214138)
(-0.08074250622585175 0.1408677867812401 0.1648382060233907)
(-0.7284782709259157 -3.385819033788618 -2.741368477129337)
(0.001333157465740542 -0.009898994048226157 -0.0006317999521768091)
(1.704127929638297 7.215993471631421 -0.4681966163190228)
(-3.372676582254944 -37.66204282799258 -0.7757016689005494)
(-0.08574604187884809 0.06536494821120775 -0.02592641353565095)
(-0.01214098709373439 0.07619755193940153 -7.423329008657801)
(-5.084054124019286 7.875267375285414 6.089947942144877)
(-0.007629960635843589 0.003241288605916336 -0.006519945593314994)
(-0.1271780367544841 -3.36004776764528 0.4483508586585814)
(-0.721597350253164 -0.4164154821911795 -0.1782015368017401)
(0.08128046733312866 -0.6040651652517989 -0.02809721332249546)
(4.14848688321265 3.57723930054521 -45.60154858724346)
(-0.8341383235126575 -5.784307869358009 -3.746928998162193)
(-3.32353779996629 -16.2009346334705 -1.335567909704049)
(-0.6238654189552904 -9.527439974434003 -41.14178495826695)
(9.519871563074613 26.81005325715103 -1.233267626831145)
(0.02555354465085941 0.1567527852718964 0.0135686539776583)
(-1.207803046141732 8.297666216021479 -1.241192656169371)
(0.2344881202670272 0.0406508642935593 -0.0916223374903582)
(-0.04047344116280789 -0.01626728653039613 -0.00523333310576425)
(-0.1163967956220499 -0.09315123350572659 0.006044483520107773)
(0.03594820086088113 -6.945794838369349 -46.00232764864466)
(-0.2152947108873564 -0.3436130248256545 0.02148354215957621)
(0.001240219406030933 0.001589456671582394 -9.995948713411944e-05)
(0.005182788926415605 0.1708562191065074 -0.3273913766472054)
(-1.628654824028899 -0.4521868376560588 -29.01641082579611)
(-0.06888900872637919 -0.07401889016113897 -0.0334127710650657)
(0.1007620023699056 1.556659547929566 -0.5798801597841345)
(1.456433819132276 0.5349108864790654 -0.9710579423847593)
(0.3930542836566761 -0.9795108483095156 -2.754692922361339)
(-0.6653816626944025 0.4632931600597338 0.3139521934043398)
(0.01345359214306704 -0.1244559123477835 -5.555865653820473)
(6.369196228995998 -13.83707853704808 3.414561559736587)
(0.03815432536611182 0.01130788357288594 0.005929257060498633)
(-0.6817260110109358 -2.859361936642335 0.670452474154478)
(1.30218238546129 -1.87389859346236 -0.02135956494803509)
(-0.03700010293507048 -0.01694478954354454 -0.01881611706200732)
(-3.951764008811273 0.5480074666072584 0.09404970140211988)
(1.185321185660858 0.7939624961373798 -0.03454429335129464)
(-0.0002378216076571086 -0.001783251649276306 -0.001948706240998509)
(0.01735395184449528 0.006995620754717173 -0.006868735274776483)
(0.01215036916117541 -0.01712497253882867 -0.09504068562352536)
(0.1928135285172874 -0.0789368020123238 -0.184925184040732)
(1.572922406395799 -5.884657975395049 -3.752386064969415)
(-1.908290274453923 -13.38310779904827 -2.254606261501768)
(-0.6900307656750285 1.52789933187349 -1.396584258502774)
(0.3418122237488552 -0.8311766132381111 -0.1438633907606772)
(0.02950915340693935 0.00194536631523981 0.01117697022367924)
(0.03651770936778462 0.08449663659819626 -0.1564669237301899)
(-3.068027753600826 1.503884836529206 -0.4760609301228302)
(0.7712134287768313 -0.8934496802392284 -1.297069060026526)
(0.118735562505045 0.02727642790949508 0.02230187510975723)
(0.02218456058360182 0.05905413326753271 -0.010890244201199)
(0.2985407191194991 -0.2498893861848093 0.003394705237544204)
(-0.6528786075675426 -1.027058460380596 -18.38429214395949)
(-0.03036646923362455 0.00387042529609325 0.02029136880246224)
(-0.1228921682969719 -0.01884319832686211 0.04557257318260517)
(-0.01077421726641546 -0.005444631651692858 -0.002941205783453857)
(-6.393540532807114 2.695106246936168 -4.809787444299833)
(-0.9293428538049401 -7.857680782772317 -0.7853675922324306)
(-1.175081776980134 1.579098193237109 3.609043579715557)
(-0.1176012327131179 0.1457045508524302 -0.5940764238153706)
(0.02845654297256192 0.06463763832853722 -0.07943411031166268)
(-4.234725700278971 -6.289858889888643 -3.648168747247944)
(-1.491705413774236 -1.006066460722974 1.447765382871403)
(-0.1238288233784194 0.332769819909613 0.1831186094661517)
(3.188394707611873 1.311114482126356 -1.191864812136257)
(-0.01130673689599534 -0.02556520055271604 -0.07967019159382997)
(1.963336089577567 -1.284158475377013 -42.0731713042824)
(0.268536988951988 0.1960455227229464 -0.1285938111315368)
(0.0147649328001595 -0.003845728185903669 -0.003939402768660205)
(-0.8035080605213859 -6.501699630645238 -1.268279472748944)
(-0.7114833437839005 -2.267123439869539 -2.160194406860277)
(0.02744787490892772 0.06125806178120236 -0.003701266566784156)
(1.07929306718149 3.881413690842144 2.822885233507156)
(0.01144537040082973 0.08549030021064627 -0.00819813441492722)
(0.02031636889521907 0.01127055300852507 0.07133875044819633)
(0.01315794058057966 0.06219156089301689 0.07995213235585499)
(-0.03713817647875532 0.03674924615903528 0.02820722652096426)
(-0.001057552618746269 0.001186223640545375 0.0006863650220514218)
(-1.266966593931408 7.445349173053573 0.6040317643827144)
(-0.3170467908541885 -0.2089463355671615 0.08687584769803108)
(-0.01453054047054469 -0.01881355775663143 0.03441667756817007)
(-0.1504973032121334 3.090005369704675 3.89442929592413)
(-0.02788919537370411 0.03859101771887484 -0.02508242885876737)
(-0.3338681215636507 -0.4085919148128667 -0.2131516715080341)
(-0.2529792345465867 -0.4767692803515496 -18.18035905731155)
(-0.6654487891700555 1.580485946562508 -1.263018942088733)
(3.223488133256845 9.210807796086021 -11.65074308902796)
(1.402516092421567 -4.977315561234116 0.5872830103631209)
(-5.062092670408084 8.253286794264872 3.98309385572861)
(0.6053152128001285 -0.686840732549977 -1.664291463627389)
(-0.0594058059496228 -0.3425457182684735 -0.00803117075625135)
(1.274211395390396 -4.451465741037074 -5.973813156686239)
(-0.009295533270626611 -0.03011256838688547 0.03029488019895129)
(-0.02873721484346385 -0.1143348852207726 0.04082087049682067)
(1.160810206990686 -6.221435775892617 1.885035511484734)
(-0.06694337758044067 0.503639203355758 0.1168398330962084)
(-0.7919275603076901 0.1129119422289751 0.1528582616339055)
(0.5775098663020262 -0.1113895921283828 -0.3104264873676845)
(0.2105109025010329 1.120124791282124 -0.5682830172599681)
(-0.02135518517248838 -0.01581020080451375 -0.026437031028823)
(3.51072815777424 -5.469458711569875 -2.000151142500263)
(-0.1352878128460354 -0.001299656322942037 -0.02928386531809773)
(0.358029668716365 -0.03615019748638162 0.24661381492921)
(0.000471827043577679 0.0009909270945452188 0.01328175880731348)
(3.795373212841693 -1.353700914824423 -18.19499061238531)
(-1.217408368843822 -0.8813125991691138 -0.3993988349804211)
(-2.012617895903753 26.88557379351617 4.100636452317683)
(0.2690989204211003 -0.3169733612104406 -0.09846953190096505)
(2.619831155381712 -7.978274622837699 -5.740539339664148)
(1.415444044967023 0.2265017778879601 0.4040116309836624)
(1.673284751087894 -0.8366558794125424 -1.252744441996676)
(-1.486019611201812 0.7946673112365665 -2.698229026403296)
(0.9548270243031844 5.179444395489678 7.135983170351285)
(4.232459981843633 3.075868814788369 -27.43698084575042)
(-1.235012369588641 -3.352431978713107 -0.7906032290532852)
(-0.01819303330656249 0.04447059095508173 -0.02600862529210601)
(-0.006089385601787881 -0.04090567049319645 0.03260542179338335)
(0.1154596849906514 0.04840096190215358 0.1044974311403008)
(-0.04493502562575376 -0.01188799495155561 0.03063375008723113)
(0.0856353066326226 0.2103913635780408 0.06990637297979201)
(-0.002857170978505547 -0.03836236853546562 -5.472678781402149)
(0.006190289649229427 -0.01087897504262188 -0.01470779533679404)
(0.04467270186654399 0.06588401168391209 -0.001631240272203079)
(-0.3411201538391948 -0.6792717872409846 -26.01166784604355)
(-0.007833032334468285 -0.01409424012381728 0.01847697902742162)
(0.2595441133677955 1.086580275008937 -0.8422240317518178)
(-0.4799755711013333 -0.6033768058756563 -0.7379783438830627)
(-0.1889114063212752 -0.1043289647510255 -0.04379806412619477)
(3.894884521550388 13.92764548479098 -6.930637552676195)
(-0.1230173331728629 -0.1012433023209915 0.3415129447817638)
(0.1148205731064256 0.3709384346811764 -1.934903488057029)
(-0.02529467635123444 0.0254883066971801 -0.01189510123655297)
(0.01409895232776905 0.04640552970332446 0.3680369527509889)
(-0.05082478570312469 0.1379526611004654 0.05146018274933316)
(-0.05273748868813319 0.07837791193075636 0.05145032405175192)
(-0.07431690047017604 -0.02220842637691981 0.004267128066716237)
(-0.01114069132615376 0.02127863569780809 -0.02042656965695513)
(1.544297693516533 0.2353910911909436 -0.236011542634969)
(-0.001463509861881492 -0.01182891187522738 0.00348374704402194)
(-0.02021670944938571 0.05651301663269154 -0.02787569479177859)
(-0.0005377104970603009 0.00123438672386697 -0.0007751977944158651)
(-0.1437622313653976 -0.2409063413228501 0.02442563133285211)
(-1.26124180189634 58.23220728333633 -11.08066412844448)
(0.05159152484705021 -1.500095028204225 -0.5835833261550194)
(0.03420210922202045 -0.02238568168684555 -0.01678083120268823)
(0.05854009933112272 0.04270007038442694 0.007500509770452831)
(0.7029543771703457 41.66823584065569 13.54859527150629)
(0.0535297636256974 0.0240668516549702 0.01166795012088114)
(-0.003371765590880958 0.07119565073721575 -0.01666162805783187)
(2.825214339926251 0.4048157496132081 -0.7840730912175844)
(0.004012896568341889 -0.007004212490418167 -4.98990063202872)
(0.3059780877625939 0.1648289481562006 -0.1294052931816836)
(1.638200687231342 -2.86885271863948 5.518358131818213)
(0.1090424556819228 0.4059967852015321 -0.8049616051911184)
(-2.120306436113281 -3.383261843541304 -3.569668805629966)
(-0.004693798825207579 -0.01815956071671076 -4.784601485127909)
(0.01626883345429117 -0.02359308375327441 -0.02746367545964605)
(4.506707424294078 54.05979421162266 5.005883052500678)
(2.169742569855141 42.44042819377518 -4.565121507189019)
(-0.02383052996832064 -0.02180222578696174 -4.975394296414986)
(-0.006489782974846703 6.716812182298674 6.26717082017758)
(-0.01575235096491509 -0.00415009896806264 -0.02092407085253714)
(-0.1927338452585675 -0.0534879385116398 -0.8979776469478552)
(-0.2573467098276689 -0.1748284335445565 0.1930800470465837)
(-0.001556301768364404 -0.0002205589023389282 -0.0001423025852447231)
(1.598118849447278 -27.73166821267673 0.2393475607755766)
(0.5211349548978998 -0.3242584035452916 0.04595370611052112)
(-1.842628445263851 -44.76564715594264 -3.243496203570726)
(0.1384904359426853 0.09019374010265009 -0.04612745507786749)
(0.3011205414749982 -1.531000443494639 1.337184957961212)
(0.7451315274746458 -2.191405366396067 0.4768728989783682)
(-0.2913910695668387 -0.5905367423841734 0.9113782939594935)
(6.596249767546166 31.7518583567161 -3.276354848528001)
(-0.2521835030978474 -2.095773334716304 0.4111358608032227)
(-2.093319609359824 2.543442068930815 0.7893577345378728)
(-0.3827724941043083 0.1992153135144958 -1.215520254905368)
(0.1866497672957553 0.2339246295646927 -0.02248575702948666)
(-0.07186260295535687 0.01818503840949781 -0.6268395415543625)
(0.06636642591526352 0.2145614091829849 -0.05844945336017219)
(-0.2594778230144692 -0.5784812829310677 -23.93340950592224)
(-0.4509945576618379 2.306069073501597 0.1813254425560924)
(-0.01820764217034701 0.006374976114432759 0.006221236073912713)
(0.07545031814632583 0.02625986878917778 -0.00466878743031972)
(-0.02058018398838488 -0.07004895005718376 -0.3111890305690822)
(0.3088712331516924 -3.912584602219752 -4.956418522942095)
(-0.1218492893578631 0.04406446477467239 -0.03728477133334519)
(-1.905858822923334 0.08885434139229882 -0.7228249998587043)
(0.7508369138268697 16.17789384416969 -6.416896933411902)
(1.421703450368793 7.665312337194452 0.07115062778195722)
(0.009966169024383839 0.005309337630667583 0.005026255198404685)
(0.4927729204398793 1.14017660603562 -0.01551835446956257)
(0.4836156448420011 -0.7164710589208019 -0.4990320014324359)
(-0.813606764160631 -1.860127861996989 -0.575011487132369)
(0.3452429173318641 2.82590219206272 1.244573640388593)
(1.819213750697954 -0.01478319902733793 -0.9575357944063583)
(-1.802722530942204 1.568401138525947 -0.9904431412533019)
(0.005557986783384685 0.05239818136762475 0.01725098019375793)
(0.3432378615241236 2.696303449830561 -0.8468064004422459)
(0.0189533838791679 -0.001112243797783873 0.01015999016845218)
(-1.424584358232227 -4.825749699283373 -34.79240236048184)
(2.676277495651977 34.60028352321287 -3.239332075253694)