/*--------------------------------*- C++ -*----------------------------------*\
| =========                 |                                                 |
| \\      /  F ield         | OpenFOAM: The Open Source CFD Toolbox           |
|  \\    /   O peration     | Version:  v1906                                 |
|   \\  /    A nd           | Web:      www.OpenFOAM.com                      |
|    \\/     M anipulation  |                                                 |
\*---------------------------------------------------------------------------*/
FoamFile
{
    version     2.0;
    format      ascii;
    class       volVectorField;
    location    "0.8";
    object      U;
}
// * * * * * * * * * * * * * * * * * * * * * * * * * * * * * * * * * * * * * //

dimensions      [0 1 -1 0 0 0 0];


internalField   nonuniform List<vector> 
19631
(
(5.042739276718646 0.02791247019107042 0.03447724263886563)
(5.021283933767813 -0.04271586822793998 0.01549983037025609)
(4.99422424831875 0.03355458756592856 -0.02095544474417054)
(4.367743095814721 1.179031238279166 1.379687676546078)
(5.022516333628965 0.04967015186743667 -0.02720735875198011)
(5.049619058170292 -0.05561272371516951 0.04131473277112509)
(4.986112138725822 0.002043996229911325 0.004133295305671377)
(2.571553064565123 -0.04046584040056371 0.236291887985921)
(4.267182434002604 -0.006737439312851479 -0.4339400251438554)
(5.00879750126028 0.003134689341117376 0.004180141752255013)
(4.950686852478491 0.05248523258603269 -0.04980888152814653)
(5.090723905580144 -0.01444301651312616 -0.01426209328967591)
(4.146517288367511 -0.1968904777307907 0.05080455899317702)
(5.084628857080311 -0.05077943390932978 0.01611478703321804)
(5.001420209238035 -0.0005166770515769644 0.0001673310119706508)
(4.929224315186704 0.1456862161054188 0.166700247977205)
(5.077665772198985 -0.044533937816845 0.004591885978425398)
(4.608466338933374 0.4063888727125032 -0.2571492810562376)
(4.669928214879337 0.3556019748204344 0.1117175712927541)
(4.805325996514651 0.07105088430388615 -0.09421232445543981)
(5.02209098562947 0.05761563701450901 0.03682155543376243)
(5.083982588835968 -0.00641216826626199 0.02879495916534603)
(4.522943811219752 0.2010677642996598 0.3551632442369571)
(5.001656774930555 -0.02744760837566532 -0.02190491919927846)
(5.082896209740482 -0.01119724210452302 0.07069411210457822)
(4.992672582828543 0.03316919807402971 -0.008683486927575581)
(5.111757304994144 -0.04418377782095857 0.003458063649593971)
(4.1594956278127 5.714222660691166e-05 0.1187549606025295)
(5.075581525683733 0.1210571279754911 0.2909552437186181)
(5.002972827581573 -0.00298309927546416 -3.678495721386147e-05)
(5.083349376925995 -0.01978250316051405 0.03737982154249528)
(5.084958032302681 -0.04676433119311101 0.01203842517732218)
(5.058842658747302 -0.0468801449126046 -0.07858669349870619)
(5.011330713919628 0.04290222402289336 0.02176926507052994)
(4.475505730960221 0.03148908173645404 -0.05585137264621012)
(4.36816033453104 0.07670624629457759 -0.5027567162360235)
(4.977794185635448 -0.003206833129080278 0.003500121109930958)
(4.831907613259607 -0.2586503406002673 0.07400333693005995)
(5.065352473167254 -0.02324042366439416 -0.03923596689924058)
(4.968342857433542 -0.2242764168800998 0.07015437938242804)
(4.96189271630064 0.1048390691071881 0.2834797866864767)
(5.034798644281776 0.02202677163388938 0.03502656737181827)
(4.997374719642086 0.004323366583652023 0.0005890655467075708)
(4.999634651238795 0.03812005942960653 0.04382464166292951)
(4.613594964730658 -0.06037722861111698 0.3212423707041273)
(4.474208094576173 -0.2763106288557671 0.1528058848144114)
(5.001421861823252 0.00367869176929352 0.001645058977864539)
(5.036426868522655 0.04783746294377983 0.05254582488857214)
(5.049314261696402 0.01537756411875699 0.05310030415756038)
(5.083006352838435 -0.02849560559443952 0.03340651851432765)
(4.857299383986484 0.001214836724538799 -0.01892137131805538)
(4.907310027771472 0.07680643302561128 0.003169655427820114)
(5.090510236303428 -0.01407733939753045 0.0395954555739005)
(4.624717438751599 0.0507967737785592 -0.04902463701283852)
(4.93440306876787 -0.01184375878409907 0.1182386501133742)
(4.911638664195364 0.08634243378578521 0.1521879708177815)
(5.100974627285649 -0.02274936806663581 0.002222368432725898)
(5.080079557131425 -0.06187387977632566 -0.009184300849589225)
(3.670286698065086 0.3818125218392113 -0.1329155722120757)
(5.004068192084052 0.005665112524325428 0.001296887734784262)
(5.009839226987904 -0.0004616546129231408 0.004592750387360492)
(2.928859506648758 -0.06476773622065779 -0.1286434362328492)
(3.803704271323452 0.4227513294801614 -0.5046370716853469)
(5.027007754385959 0.05102022492085477 -0.01821503698959617)
(5.0688932459072 0.02543623408640071 0.05418915857909628)
(3.424530280752816 0.09642936583815412 -0.007192294618146538)
(5.075170961883368 -0.03314883026549733 0.0340170620419519)
(5.087355041251342 -0.005735050045347433 0.04195355814304619)
(4.957123291595575 0.08546753014263408 -0.01815269576041947)
(5.010327383412165 0.003307528708151683 0.004765076787129272)
(5.009571235136391 0.005921638051676825 0.003061609481609477)
(4.917099852192127 0.6237117009054505 -0.3422805446072366)
(4.994846626822474 0.0291466978161515 -0.03834543484987116)
(5.066532884371616 -0.02516685844402857 0.02114166839919947)
(5.119302264435904 -0.06212711747296745 0.02813835743753418)
(4.932338987411208 -0.06200257422711866 -0.1103498772004263)
(4.942736871293274 -0.008292815988018719 0.001991190622458219)
(4.966729797895523 0.239548826488049 -0.2422945314229097)
(4.956353478603828 -0.07655113393849501 0.02288522960956509)
(1.439126492055957 -0.1543719193677487 0.08228387207063423)
(4.994844108700245 0.007367914790464743 0.008679789498419027)
(5.017911663231922 0.04126181995512229 0.04535556616993064)
(4.913341016542603 0.1348797420273926 0.05079744260918861)
(5.070435581710932 -0.03203056605798867 0.1229692671343588)
(2.262904895089484 -0.1584185637049387 -0.2245947607353294)
(2.323078250874539 -0.07663536328699525 -0.7539332602340435)
(5.091256539146087 -0.02343655501528136 0.04877286053193919)
(4.932388208590985 -0.07511735659347608 -0.09041898391080189)
(2.95237227454314 -0.09490843426898314 -0.1033734245562696)
(5.019493350929322 0.06109388320155486 -0.02769636829232558)
(3.64133848625423 0.1758882334447267 0.1359713949572227)
(5.083019424445959 -0.03851462632273669 0.02532492837381808)
(5.074103255997366 -0.02182876566287154 0.02589184206252616)
(5.06396308509401 -0.04205168576282983 0.01324303670766121)
(5.039269481618248 0.01775480195468227 0.05033442197079984)
(2.988573440778357 -0.5538488098848596 0.273735828840287)
(5.037597079766749 0.03299762488405994 -0.03965761203817982)
(3.284977468941348 0.3794557953438079 -0.01347877098124736)
(5.076107136409814 -0.06793418605322311 0.02318565207866474)
(5.083022208484881 -9.047254480917105e-05 0.05728352645364022)
(5.066189926129007 -0.04446700648883824 0.06043187679819877)
(3.291528748599915 -0.1212703056689199 0.3344697256368954)
(4.073440932354037 -0.1083553901348979 -0.0619375603603999)
(5.031857939727545 0.0440019649512231 0.03254012950026294)
(3.993407369304174 -0.01587423266124103 -0.09442776411862043)
(4.834616653085753 -0.1546557272695625 0.05699277920409253)
(3.471107942481002 0.2184541638880587 0.001532924188372477)
(5.0838459507553 -0.03746989275547628 0.05976619517886739)
(5.086668453410057 -0.02392465225564662 0.04025794155298942)
(4.384108931556677 -2.204344110663561 0.3283629679237358)
(4.970746513659869 0.2447118741904808 0.1806771349633619)
(4.906160019130059 0.09294917614965373 -0.1511618317605616)
(5.16149646871762 -0.04357332236366646 0.04925507802743637)
(4.732279119058355 0.03781168802598017 -0.2189555022420189)
(5.042664935397943 0.003818398605321362 -0.02846320963683359)
(5.059286405282551 0.08285621513312787 -0.03228990058520229)
(3.79803155538211 0.2621887151314307 0.08373895669593975)
(5.075598108580636 -0.0360727884433794 -0.004077423134857208)
(4.889289734771959 -0.166715777324028 0.07863315550335914)
(5.064348016757452 -0.03881677286092144 0.009911928499943386)
(5.070774526052515 -0.01302353658227033 0.009871823011551104)
(5.067957332995207 -0.02442670813662003 -0.003794686125391558)
(5.070244796805465 -0.0307089097285188 -0.01069641888958458)
(4.199393117684668 0.150111475526867 0.2233340993792501)
(5.096326712250635 -0.008663779504436227 -0.01167330263769967)
(5.059935275037169 -0.02565893478746537 0.01652879307639929)
(5.140250690731003 0.03067974847735808 -0.07421698049019507)
(5.059799239789587 -0.01817501949891965 0.006485014975541771)
(5.013252805267528 0.0002462992121038656 0.004668790133048981)
(4.66299277841418 -0.02225575697966812 0.1482389028637819)
(5.029556251194656 -0.01603473593550754 0.003365417755644996)
(5.008136884615957 0.06669878060651996 0.06429203336686824)
(5.120233010991711 0.04651185068576114 -0.1378532392795916)
(3.716312248975551 0.1727743983607773 1.006053112902187)
(5.047120995186562 0.04624390057534381 -0.03796164195817775)
(3.704491317905629 0.7975603396802418 0.5676088883616497)
(3.862370943468615 -0.1872795193640109 0.0266554313690588)
(5.024348554141362 0.01734025936814207 0.05909829579614327)
(2.804430739690111 1.181806355389029 -0.3088219053582613)
(5.044207242980562 -0.03847863155996779 0.04506040404131094)
(3.160192854915273 0.436140841513754 -0.50147761906942)
(4.992069082408827 -0.1606668889655691 -0.4756656488510191)
(4.62661647070103 0.03704746167475888 -0.1533800121833927)
(4.995221296215109 0.006957688137334244 -0.001824703804705962)
(5.109590819125972 0.01580963755199178 0.01883084317398943)
(4.748325441694083 -0.6039835611611284 -0.1416695246145914)
(5.032931224257066 -0.01967999200251885 0.03845316116086151)
(5.004763555107036 -0.003327488074533159 0.005229627221025994)
(4.991212848835065 0.003052294517971303 0.01267384669827561)
(3.158516994546788 -0.0008743711541541969 0.03851637560191378)
(5.086851850548726 -0.02645843565623557 0.02164380158808906)
(5.077080215969485 -0.02191035587343851 0.03294341683952402)
(5.07451886652329 -0.01843860361236882 0.04913187088167283)
(5.066461696135541 -0.01636297351922904 0.006312494393842976)
(5.077915117112123 -0.03079880757978849 0.04909400599627583)
(5.052333368731007 0.01266372214517194 0.09867013857015884)
(4.991170404596346 0.006895363194839156 0.0005290527736020153)
(5.024398796620265 0.1106297751405272 0.2044499977356554)
(2.548789021577862 0.02098217867418633 0.007940349604602725)
(4.87573054437174 0.006448837947503812 0.004563690567382709)
(5.064840304546788 -0.01553139147950738 0.02287402457355078)
(4.996970068111359 0.003730007867656049 0.001717727139933691)
(5.06405290158442 -0.006239218676562023 0.02399415975807609)
(5.067181092483025 -0.02242639394377094 0.009213043384315039)
(4.983261167076175 0.0172476916408834 0.005814335094651208)
(4.988183438376284 0.02742419616035907 -0.008237465450513086)
(5.069174142776598 -0.04445371949277368 -0.0001120868863627699)
(5.029176879059318 -0.01146960373765286 0.001072016331495213)
(3.690304467141591 -0.3096488214049382 0.3064602506668692)
(5.0416297094956 0.05305038345536455 0.05477250103903535)
(5.042425579254196 -0.05951699367397224 -0.01590891927948474)
(5.068254104460925 -0.03504811486044406 -0.01945005036946927)
(5.105877661145635 -0.04673564596582275 -0.006700884119308816)
(5.076048743731687 -0.05472090402042123 -0.008892975008936954)
(5.075250522899968 -0.02751482925481082 0.04923316942186621)
(5.088976395038856 -0.0355185790999607 0.02204973583320638)
(5.00345634154363 0.007389818240539327 0.005358020106860305)
(5.074580568606178 -0.0140121123640845 0.005340679646868982)
(5.083270493783094 0.04489207405699756 0.06338397886066845)
(4.444931033279348 0.248008992831285 0.4109353978663213)
(5.072811700448654 -0.06139931978973994 0.03182527576859176)
(4.999655031451426 0.005983125359419965 0.004324906477011518)
(4.996963746049487 0.01263315322541887 0.005926351055819996)
(4.820062107265755 0.06296967571138122 0.04817536487082834)
(5.011301994469901 0.0092166261636229 0.00666883427159441)
(4.976294490491952 -0.02334867379593056 0.000577808986307404)
(5.006804954090096 0.002322018664704415 0.01107672860734038)
(5.066453610043245 -0.02661789194643932 0.007171264592929022)
(5.078881461377319 -0.04037412203582217 0.01011633029627954)
(5.058496237340512 -0.0260396914864717 0.03392759985242129)
(5.076308679561578 -0.03070016821068133 0.02390376370715028)
(5.013984767254506 0.04477532031283139 0.1560546286408326)
(4.985684144960957 -0.3232232728804552 0.1293958099596091)
(4.997308138881846 0.001481193730431807 0.0002556838154805782)
(5.082866710002673 -0.0311551862674134 0.04437597075015341)
(4.761252521661734 0.1386811741450929 -0.3300558024976616)
(5.094020143957522 -0.02101952550119207 0.05686831272371147)
(5.015746732853213 0.01690609916907722 0.02137177916421002)
(4.968682086075669 0.06110426318170143 -0.03490331729443898)
(4.977025697239207 0.05129850339376381 -0.03243984063943375)
(5.064320454113033 -0.0221685041097006 -0.0029049994662392)
(5.063056779856175 -0.01451493514759212 -0.007403623163137982)
(5.012144521937162 0.02383165895559814 -0.02336256401596724)
(5.066729020613169 -0.03339920173984978 -0.003514253835342165)
(5.000659679276119 0.005608048713836484 0.000406336963489328)
(5.094991559424943 -0.04559064045738132 -0.03015651754360156)
(5.068179775177691 -0.00721355072913624 0.00661921892614652)
(5.078958823769673 -0.03281687697399427 -0.02877412686862007)
(4.891664880942509 -0.02382145095755974 -0.03027461573757083)
(5.097689639772612 0.02154123865262766 -0.03111720117070663)
(4.983095210046279 0.0199891602047201 -0.01603842493343953)
(5.102564155200016 -0.006730715609056186 -0.01864821916157948)
(4.477094983382261 0.1193042415463808 0.00480275956893639)
(5.009663460658795 0.001811533053344771 0.004087722261529484)
(5.05268135561337 -0.1333650854933955 0.01224837634810987)
(4.418469785127565 0.176853815123771 0.1442018696501572)
(5.010241447287473 0.002644184900387707 0.004695444704439098)
(5.010253541761977 0.001326030816794922 0.0003003769734452998)
(5.008731100709687 0.004898774610432963 -0.002075350739154482)
(4.310401323904963 0.2485788742415369 -0.236761614394947)
(5.001296550307577 -0.004104908414402675 -0.005920236682299991)
(5.033573863491094 -0.03621842789200984 0.002312574053574568)
(4.973381552524133 0.04178208899173776 -0.02198360672880003)
(5.000932152153613 0.0008862551455031539 -0.00122419498951213)
(5.017258140910425 -0.00586285442314956 0.002868875218022153)
(4.975949506730254 0.09296338745921547 0.0236138406513389)
(5.03831315982018 0.05924191898187619 -0.06670116335013522)
(5.038722048014137 -0.01249173089952613 -0.05333668040462378)
(0.9473624870544467 -0.06542448521750673 -0.334841007637979)
(4.125728803045154 0.04518587451055698 -0.04473440335405725)
(4.989590406204613 0.01328666289261723 -0.02293168107395941)
(0.04314189955784385 -0.01742651970173116 0.01657550084421737)
(0.010315612369815 -0.04414086699912802 0.02071339892818211)
(3.686795779879122 0.02266569865671448 -0.004417026063194045)
(4.131948676532407 0.2001442099341645 -0.3632265972289518)
(5.016876475358957 0.2092503852309982 0.02972044011231175)
(4.22609780312118 -0.4668244935510457 -0.04948063262846422)
(5.133945144143522 -0.02368110124815328 0.0239653951387004)
(5.009724978922544 -0.04711575814397516 -0.008957049066755342)
(3.612853230212831 -0.08395470198777072 -0.02391442853798905)
(4.967748286505804 0.004357572631241207 0.00295361173987995)
(5.079520267166457 -0.06209128788899204 0.05274969034597814)
(4.990441167339919 0.004134585490730702 0.006310782992662819)
(5.026786887998307 0.02619208704664695 -0.006574612062128123)
(4.989528116952571 0.009269789400743743 -0.005843252080509552)
(4.948179743094984 -0.03861403182743246 -0.1027946026219519)
(4.952869687579064 0.01287715673831455 0.007109706536840872)
(5.000821582830679 0.01764184197341458 -0.005428135122927159)
(5.05699744113276 -0.1227824059482147 0.07918259695125106)
(5.02593346494982 0.00527767036671851 0.03945433510071996)
(4.879943729923342 -0.120829130094347 0.03009284689703989)
(4.387500598530366 0.2270078041130813 0.2494493292133056)
(4.988109565249248 0.09355137488106835 -0.05712057787473633)
(5.126294697487064 -0.06574832596465607 -0.0053566806402645)
(4.968129665966729 0.0159306327813463 0.004089796245034304)
(4.82038298425094 0.1875371287136781 0.268914302311074)
(5.018368226454247 -0.1100245574081476 0.1443328404580671)
(3.875452594767684 -0.09748450009606648 -0.02601203631992618)
(2.368280164284627 -0.0290302264140603 -0.09044609811685071)
(5.005617739975787 0.0203449769724892 0.06728173084654969)
(4.999297755906778 0.04961412363088369 -0.05323205042101851)
(5.029396650884815 -0.1148151211217489 0.1352084160315008)
(4.899466350499328 0.009379931471713438 0.009240577579409203)
(5.003216394123712 0.1223007586894199 -0.004943780128937956)
(5.053590000571202 0.008838138620339196 0.02179242191745765)
(5.023064067074428 -0.07338214732499219 -0.05171613467663397)
(4.975787366055826 0.09958546769117549 0.07744366177192477)
(5.07560378739453 -0.0674349205317528 -0.01480750027803112)
(1.989205521425595 -0.02956082314539369 -0.01486776165171631)
(3.599419928784072 -0.09554727076387705 -0.2558373621191152)
(2.632730019248762 -0.288848830702801 -0.1384309143874897)
(4.989482895961391 0.01912281495690778 -0.02214600238174449)
(3.734035331300564 -0.3239016523099418 -0.1737326278854457)
(4.998165590709587 0.007188895099012888 0.0005990778737809653)
(3.133381581089475 -0.04811673443193575 0.100579601105542)
(2.652482899001749 -0.2664706552861477 -0.2059685689187518)
(4.997386768387848 0.04370095975359839 -0.0179345831174271)
(4.704692746972991 -0.004245088163787965 0.01002055345590117)
(3.488042630388837 -0.1073627047707714 0.05887469972995431)
(4.996308554066867 0.008659321066429243 -0.0004159946218628371)
(4.995051984880619 0.06544974814112577 0.06764826402034668)
(5.032194476581404 0.04936021838799668 -0.103479266220117)
(4.983436882844563 0.01073846339625715 -0.1415442181529248)
(3.0113801258918 0.3499517618346324 0.09309488967161099)
(3.258093780994485 0.1715543998132616 -0.1296863943714142)
(1.286163627794356 -0.06667884863317938 0.2706016803983715)
(2.18275148853534 -0.07166477183631259 -0.1317279175593913)
(2.856775463677372 -0.1522722441905207 0.149302045524626)
(5.087099708268595 0.03239844084622072 -0.07115353520245049)
(4.277385285766447 0.009329797545070108 0.07752639195051464)
(5.128852041085287 -0.008719685317897583 -0.03704220188416611)
(4.978190470105271 -0.02765077808054682 0.0314710713715031)
(5.040415462819774 -0.001060179473803741 -0.06123873013528949)
(3.605824680115407 -0.4497098580396274 0.765323465181255)
(5.139242775485961 0.0264333066786634 0.1705930121459707)
(5.000016069872276 0.002680880047857185 0.002685059258037149)
(5.031690371020515 0.07280577851657996 0.1527637495295193)
(3.61399015110965 0.1340437996645083 -0.3129264409151293)
(4.981477136842055 0.02589508666589859 -0.04215219809076329)
(4.781432871070257 0.3799583464279268 -0.7108540804444002)
(5.006438794902976 0.04670515248755978 0.179715826339623)
(4.355175508846795 0.1560113621657986 -0.377783669798484)
(5.214294910229644 -0.04303608088834217 0.1074432796231439)
(4.839961826387054 0.005341787362706546 0.003670209752157601)
(4.913213824113726 -0.2187499674732271 0.02049033996363863)
(5.042458841508183 0.008577553610615926 0.04203742365655498)
(3.64819745833497 -0.02556670289620882 -0.1535254326294286)
(5.059102229837166 -0.09060385207405663 0.02815237007597287)
(5.045342261165974 0.01277375373141638 0.0281063816705507)
(4.825782249838459 0.475270886774927 -0.01246081633687827)
(5.097126304054166 0.110845842917645 -0.02289871306557033)
(5.002566615903255 0.003411669439122586 0.001934146154950605)
(5.004599724450146 0.008406007691076016 -0.001873946771017236)
(4.996118567105265 0.03643408675406434 -0.04752196181124711)
(5.040551819716783 0.06585716784766447 -0.1928001925883509)
(3.795235232100833 0.004712834940686063 0.1360752790401416)
(4.176142647344989 -0.045487355878977 -0.03923055057933444)
(5.070154778114587 -0.1193951299916969 -0.07242726880224529)
(5.100772725347352 -0.01039475938720322 -0.02170701571467356)
(5.001263474466357 -0.0006918251904416509 -0.005506014482484476)
(5.096474122477693 -0.05425120780869662 -0.01253538542881194)
(5.04504216863516 -0.1049560330955198 -0.08445198517175431)
(4.310308418715955 0.08183156451855422 -0.1133051669599587)
(5.073998642609184 -0.05414274019899906 -0.01200407555747103)
(4.988021836792137 0.05354876259483896 0.01471673434871742)
(5.020201198027975 0.0376997518389912 0.06398386516602927)
(4.73609278497273 0.08685915718282321 -0.08502889214938501)
(4.985147499818321 0.004501339779271901 0.002460175585766803)
(5.015007540528091 -0.002902534207259508 -0.04984514750039325)
(5.001820786876599 -0.00172393634795885 -0.001867945241192868)
(3.238349227007502 0.006161487438691493 -0.5781275349823871)
(4.620397171569656 -0.5087957151153949 -0.01216957802072509)
(5.061338711021724 0.1887832109914223 0.5550278957077167)
(5.09194621465505 -0.07329377312674175 0.04330871128503533)
(4.919000107168105 0.1130866651255316 -0.006921969020370926)
(4.669151046762056 -2.426600887392002 -0.2842170921505742)
(5.026448241236106 0.03385114772178369 -0.02840963340953129)
(5.038674922731947 0.0541115513618574 0.1578830048510263)
(4.505598152734529 0.07745339129350486 -0.03121808799190274)
(5.001651161156103 0.002793305877790569 0.001269452780026398)
(4.113277342155249 0.1241303871842973 0.3048704677851159)
(5.088919604692114 -0.08434892936252905 0.02643169041815829)
(4.99562538282508 0.004557343739889364 0.004990258746854226)
(5.123129666863648 0.1375003764966719 -0.3071117035586856)
(4.819673981495797 -2.06261323789864 1.169680637036229)
(5.019970253522826 0.04932015799761628 0.04879737766334412)
(4.44069472886599 -0.02446579538555501 0.107827753709279)
(5.063490950055423 -0.02557369679651722 0.005219003601739892)
(5.013064724042365 0.02464526567310961 -0.02049271170169945)
(5.024879183437628 0.01868861690000894 0.0009876141708151614)
(5.054906307136212 -0.02114698448116716 -0.02947743271758181)
(4.999613478086862 0.003591660848277708 -0.0004801069861244888)
(4.33136346439033 -0.3829805250803999 -0.0911133484115018)
(4.9654522412247 -0.02992291885060807 0.01227077246204515)
(5.025053883994089 0.00284233312208572 -0.02152061212335807)
(4.030162712101697 -0.034960097032634 0.07806984133647306)
(5.04276992240408 0.03530096701809101 0.04583998044501298)
(5.088449578771528 -0.06688613337596508 -0.07181752815759944)
(5.116156568946041 0.2272589417386996 -0.07606138308535719)
(4.61709967616084 -0.135918736609573 0.09719630227523494)
(4.435488565859857 0.3727838302948451 0.3128534810200387)
(5.215893557091468 -0.05026421734263355 0.008400135294417081)
(3.907044983821736 -0.3935792435122974 0.03207146784398299)
(4.716701103314161 0.06035474033308064 0.1903128420457008)
(5.095659799856712 0.04447287688613258 -0.0778494738979278)
(3.796623595328547 0.3574084660854864 -0.4740753013673322)
(5.01453941278861 0.06490755888261618 0.02614990644160128)
(5.115819844067799 -0.01425612047574473 0.07261097002760038)
(4.280115678829131 -0.1074042536679142 -0.1449047535422253)
(4.950757177454848 0.1326134211289131 0.04629171603701158)
(5.065210481051637 0.08608326517787397 0.03514156070882923)
(5.068474455947608 0.122441926018683 0.05563364800077648)
(4.958405282667731 -0.1042086178918795 -0.04079227875035425)
(5.002090676725194 -0.004507232975675474 -0.002262157826843963)
(4.645475846864033 0.1691049804526025 0.09137027470304342)
(4.99555406874073 0.002168441019736511 -0.001105348825448657)
(5.057113137665927 0.07176494878746456 0.1020736128581665)
(5.011015115842771 0.001941788462484854 -0.004113689397105512)
(4.611217129712749 -0.1264622975389512 -0.03542827438741248)
(4.22435780356914 1.745629604868016 0.6645048903473413)
(1.733621154817333 0.03286459130010678 0.008234299455927435)
(5.077694989840056 -0.02794296482439299 -0.08998900930275838)
(3.023988878560818 -0.1445874880076782 -0.1717994596711557)
(5.071771588531744 0.256492082070792 -0.02024862211514568)
(5.007044285506255 -0.001753841222475661 0.06249077532493422)
(3.055136375961325 -0.4324699390774889 -0.2121398039854353)
(4.164592408179851 0.3485483254957752 0.05435490791295892)
(3.849825169120245 0.4199515770001982 -0.248657047775475)
(4.724379890750275 -0.141781162147709 -0.09550962451602338)
(4.993248194785163 0.001888352208659308 -0.002609330066473899)
(4.99223758806581 0.034712773859019 -0.05458370782528044)
(5.029180872334865 0.06998477485013775 0.07736094244652462)
(5.023012357670487 0.0388227358927789 0.03737844110220214)
(5.012417248714319 0.01653888889224133 0.02523577015444079)
(4.985101282096743 0.02701559252331863 -0.006261746522329126)
(5.011225425496476 0.003722281115573189 0.007311161847641741)
(5.040908431334108 0.02033525687144047 -0.05646375697828779)
(3.683059121435854 0.1276289789236422 0.08794709551711764)
(4.997785389221781 -0.0102989122263343 -0.01190599614830664)
(4.99935034194796 -0.0791098272303162 0.02024035014428201)
(4.928125970435982 -0.2714613254102822 0.06863140095514406)
(5.027846229618891 0.05183680279237587 0.05588127506166543)
(4.44599023782447 1.678862167081173 0.7662664227906015)
(5.125835039858524 0.01649735521412545 -0.05001666169507096)
(4.93740293439261 -0.02395551205349564 0.1291368745311729)
(5.044289458427514 0.00869865147903864 0.02611418260656884)
(5.056293172967723 0.09161047372974888 -0.04893539286168604)
(5.048615354963313 0.03540438500311102 0.06904448636920364)
(4.983884982032735 0.08491183963633302 -0.05497939966960899)
(5.003175754361217 -0.007410896790310707 0.001856567668126122)
(4.995574253144714 -0.0001789041791448976 -0.008999231922973892)
(4.873166120379257 0.2759423629198601 -0.07171300315064059)
(4.998120612006507 0.01049686713220578 0.01364061513095037)
(4.93988498336023 0.05868704947074709 -0.08424005638922825)
(5.003272736436656 -0.0007415358537244764 -0.0005392453463950012)
(5.027561711457543 0.06741341068801804 -0.01019160205813779)
(4.076967422189029 0.3304469108286003 0.2070898045954288)
(5.015803248838935 0.03593018751788189 0.1583902284820073)
(4.997502051529524 0.001717521433113598 -0.003076793427585769)
(5.049515604540296 0.001259892121694708 0.002379119761349392)
(0.8968810482421969 1.085548594634268 3.261322547628283)
(5.014298268616889 0.03267978792307762 -0.0104862968456833)
(4.983310246505709 0.01149144049806211 -0.02070758538239692)
(5.113692911673734 -0.08555516138273821 -0.03858956095304437)
(4.975763960829802 0.01021939488359368 -0.004727683363955763)
(5.049652715476624 -0.0357573943734208 0.07819232310338461)
(5.275011287515943 2.503904551689235 1.569644214306552)
(5.013675647726992 0.26295692758346 -0.1862250280214107)
(4.265273997438411 -0.2701495847456158 -0.1582148835808494)
(4.972614890876748 0.01017806966548829 -0.001000113198188844)
(5.00365395263962 0.007983851381823448 -0.006124617062671278)
(2.759259163331977 -0.1136464094261386 0.2850691975607793)
(3.088252833641349 -0.3622795274334508 0.1107457058826796)
(4.981530298530322 0.01654660864090756 0.0009197501923405085)
(2.699725736563671 -0.005744220961956174 0.05912289260114913)
(5.002995326212853 0.01080831540418811 0.01708895459181316)
(5.162640653967221 -0.02182069681218729 -0.05049566921042779)
(4.974458847277242 0.1739189160317498 0.09060576590444734)
(5.001415452451313 0.001689177608479061 -0.001103850422033578)
(2.888949503404524 -0.2867952028405275 -0.2930552002014365)
(4.976019600897333 0.1266156180517133 0.04713671761906034)
(2.773706021049872 0.434077878189899 -0.4785021455129742)
(5.077645275874764 -0.08616694640045187 0.01872994537804952)
(5.012738078657208 -0.1204534743355438 0.04064953547694845)
(4.864131874678501 -0.09691098585210277 -0.2039471906596751)
(4.856055755540373 0.0570961242598564 0.04275066645760872)
(2.474764781421931 -0.4702666722225386 0.8674950218211431)
(4.831560702228337 0.01533047097684075 0.1084217444817376)
(4.992434079433814 -0.08522222910204059 -0.02259894857151388)
(5.027239647027373 0.04645580910532315 0.05754058348652723)
(5.013726359292085 0.1268968500950434 0.1189376210547817)
(4.935599126358632 0.01494872180195154 0.001055226341299653)
(5.002693828891132 -0.002869318029266291 0.01399863060640552)
(4.320139368418695 0.100465217132966 0.07783513156464568)
(5.025151514830956 0.2894595594080628 0.04897544686200497)
(4.997587979640246 0.0008875199834591656 0.008185668198981396)
(4.984632167056716 0.01273730497857365 -0.0008958367221517273)
(4.916292297576832 -0.03708542463985438 0.06616729962204627)
(4.523482045180919 0.1110608159179925 0.1152627295108455)
(5.027794104287448 0.01651608175065927 -0.02131745479657166)
(5.054376803718631 0.1118062108252321 0.07055162065137745)
(2.576241980802092 -0.1408401665221017 0.1242852374740248)
(4.626363814414187 -0.18468901367891 -0.04211765186743407)
(5.007830328294965 0.003628700550127912 -0.008709286731123752)
(5.044213508076922 -0.1244635939621736 -0.01794325400170809)
(5.177047827472928 -0.02770955839450454 0.06235590416191964)
(5.127429935650765 -0.04084642749174618 -0.1380383047446502)
(5.032941538389943 -0.155344133511478 -0.1558158888712275)
(4.199885946294549 0.1704867640763445 -0.3703505269484924)
(4.829028412646762 0.05129776430912115 -0.02033447100060619)
(5.018521517203087 0.02158202462905421 -0.03542804550448694)
(5.176632476435588 0.09069129278433007 -0.2997273107614032)
(5.001225563548884 0.05168057674046164 0.02614506204403661)
(2.24460812563807 0.1787718464359587 0.08704323908461623)
(2.888297844396027 -0.08411276009529245 0.1237097161710532)
(4.623556092219061 0.03037159545719934 0.029673390691396)
(5.001128523256484 0.01799480901201661 0.01803510067916212)
(5.105062964182097 0.1722997623297637 0.07324414578495332)
(4.998492536371407 0.003412336345932186 0.005527950150235893)
(4.06293050316557 -0.2463234134882178 -0.2219423669842305)
(4.993798401808209 0.0009423207674274359 0.03329387136655277)