/*--------------------------------*- C++ -*----------------------------------*\
| =========                 |                                                 |
| \\      /  F ield         | OpenFOAM: The Open Source CFD Toolbox           |
|  \\    /   O peration     | Version:  v1906                                 |
|   \\  /    A nd           | Web:      www.OpenFOAM.com                      |
|    \\/     M anipulation  |                                                 |
\*---------------------------------------------------------------------------*/
FoamFile
{
    version     2.0;
    format      ascii;
    class       volScalarField;
    location    "1.4";
    object      p;
}
// * * * * * * * * * * * * * * * * * * * * * * * * * * * * * * * * * * * * * //

dimensions      [0 2 -2 0 0 0 0];


internalField   nonuniform List<scalar> 
19631
(
0.1292124927600189
0.7974613962755261
0.2564024162531572
0.6011844227262945
0.3091643856218668
-0.1698792318249415
0.215621603703015
-0.5021056834193487
-0.06429707138048683
0.1380651861853922
0.3490253746181038
-0.000740424741411651
0.1670786936018477
-0.02180846910634037
0.1965888063568772
0.07759034612260181
-0.1824398421371148
-1.276994213817866
-0.1140755594142442
-0.2002668084847888
0.1603347055300259
-0.07277737279764392
3.226408481099048
0.13005960017299
-0.003541529112717455
-0.07378224817951237
-0.1295645889229958
-0.4849365537218803
0.1496974747733335
0.04751307008550096
-0.04154916821939185
-0.05508398245213197
-0.4454271422720294
0.1927142549492143
1.724001120059515
3.185861676739711
0.2172794513460473
1.179176377648321
-0.06696377782742306
-0.2902461421646654
0.2906588336906998
0.1941350706314817
0.08148656140751963
0.2866955976000441
-0.3572398327355236
0.976837021985001
0.2401657256625478
0.326100372287447
0.08257031763204459
-0.003052159734891134
0.2790513402198885
0.08474709674366926
0.004304679169497351
-0.6151249170388566
0.1215244653241951
0.2322013569585562
-0.07182479030546632
-0.1226916182266858
-1.480064480305445
0.1994105750133273
0.1148988406073414
-0.2892172374256879
-0.6787053707991108
0.09203673627478476
0.0587460153181903
-0.7832724350639755
-0.05583845801987403
-0.05833196863105721
0.5177160568416354
0.1543898836218718
0.1780944498781905
2.110798364280449
0.3307760989692191
0.157772161034717
-0.1003393246334929
0.09512242771765608
0.02052403883114602
1.488445011423223
1.125183142279135
-0.6577043253080279
0.3098637325137779
0.3607661941101157
0.5458180041180821
-0.6484201731758265
-0.4616948944311626
0.1475512486909513
0.01513910081229225
0.2097071029678297
-0.08905367109649991
0.2585908251697971
-0.2002973758311325
-0.08394349779589351
-0.0374025887825991
0.008173186365701862
-0.3688426508348666
-0.5778433592108807
-0.7244286523827185
-0.3791235126711569
0.03471323419127252
0.05386966493435312
0.01987859577554783
-0.7974781407756693
-0.2048157054137928
0.1290358619256497
-0.3743151736190006
0.1273297412746865
-2.348353029292185
-0.02592598455686123
0.03152108180368504
0.1670997686467018
0.4785580889707255
-0.5393796707054715
-0.5585767060393437
0.02990965144680777
0.01519136794197285
-1.058662847139718
-0.203528478852394
0.01186128875822231
0.03768156942734801
0.02826587189011998
0.05887891931451145
0.01686713888975543
0.01206597022985804
0.09661475463542014
-0.006205172262981259
0.05252858457251408
0.5991308278285483
0.08546524468146635
0.1438813612515313
0.2558400900201536
0.1461210780074099
0.1536472721701286
-0.1058352419500485
-0.4431657434975924
0.1237623113047348
-0.9338207107987568
-0.5305038478428936
-0.1457008153918033
-1.10689674608316
-0.06844865564681159
-0.391138917017526
-1.024761534318394
0.3235571104581795
0.1120178871013792
-0.1596727383071356
0.5771880063024833
0.1035622712348466
0.1058821744780766
0.3098775679999706
0.1123385952779636
-0.02671881090598497
0.06953337457172341
-0.03166791317907191
0.05044558387168309
-0.01472551218781295
0.2070735771392175
0.2827825921118493
0.1015837761461555
-0.2686162963561199
0.4555497867250257
0.1239087907115055
-0.05573359387640422
0.05923662984526229
0.01303886227188832
0.09472384064583457
-0.1916127234087685
-0.01978275078482112
0.06551206677689907
-0.5792963533333927
0.1165807581785089
-0.08096820745261085
0.007702336951250699
-0.03862531581410909
0.1272094315623371
-0.03920305588490716
-0.05900179344118759
0.1766594507865475
-0.009514710915953588
-0.04238596364271538
-0.4641485602231978
0.06837806792635047
0.1864268411535718
0.2059233703691598
0.9173836342298357
0.1712516218872869
0.09858119982607456
0.009027820232444105
0.02556703522891695
0.05773348381788725
0.02738137124219179
0.05681348351312895
0.5957104736705339
0.2737196428290662
0.2581751718058735
-0.01217524378354058
1.069940064881803
-0.02079974212215324
0.2894094784199679
0.549478026899237
0.4485635688940877
0.0526474355574339
0.03286882389410404
0.1278296729410739
0.01340983597578595
0.1283382038891497
0.02643935561160493
0.007677972316202891
0.01676009336766738
0.06094649928067781
-0.02589225359308529
0.1590106649675487
0.02980438113448312
-0.627065627200281
0.180306859095761
0.05400942786368756
0.7370167158953326
0.1229497929128625
0.1704365861163512
0.1382992411212369
-0.2719279045198383
0.1302250932620768
-0.09013115765057665
0.4772689346172276
0.1673192844922435
0.1434013522210599
0.3022995164734181
0.06735530031041136
0.1498612982716222
-0.7169280662198912
-0.09193601195002864
0.2554230277022558
-0.4835140463373562
-0.4003520883035688
-0.3698793627481776
-0.543925500523897
0.0311537706381212
2.168713081371044
-0.0922201642450499
0.9425027513588666
-0.317535166462353
0.725821542468564
-0.2211879140236262
0.1505617101705306
-0.2239541660607697
0.4385187861863606
1.371832302177031
0.3699331236966249
0.2057930952160905
-0.3630022677649059
0.1324635195418862
-0.3059569969411896
0.1894485285073471
0.3153860753545197
-0.4367000604572185
0.1928360094605684
0.7407138288687259
-1.184611398171758
-0.2040564348254018
-0.5144404816612204
-0.1638031314338599
0.3157731032498015
-0.2152888793949269
-0.3288641814750385
0.2161506547399856
0.4244876637863237
0.2902831088999387
0.4032488192984123
-0.1798798807846723
-0.1618523444616217
-0.2964057374174403
-0.7649788730571988
0.3165031856138126
0.04744173876090464
0.1160347201344055
-0.8691910998827802
-0.1721983283369019
0.3139570725083948
0.2060229119654335
-0.4975139682709601
0.0841425547317157
-0.5881751823458344
0.1901164559545792
0.1910228734114234
0.6552607949025648
-0.6416674520968002
-0.8202711466531512
-0.436983173813347
-0.2740192294760266
-0.1033267982382228
-0.2786069433755802
-0.2413178197169804
0.2341575370542937
0.2220121359527058
1.557118968519656
-0.5095739549491362
0.2125282669375277
-0.295289528683254
-0.05644888689185111
0.4251926598658746
0.009822039624549687
-0.6004197587785312
-0.5102431088879695
0.08881902243989948
2.309243804807201
1.77785199663658
0.1349548471208988
-0.4688084264520506
-0.3617586235289881
0.1520067046881323
1.431091983471442
-0.540277249605483
0.1723762935273838
0.199051333320927
0.3800540399104618
0.2299519220156084
-0.7073900862762127
-0.4810814130581976
-0.2894367332174323
-0.1088586567654142
0.1955405485260234
-0.06959059459582298
0.0005695402349523093
-0.08611678316379472
-0.1218568231681788
0.3324283107178581
0.2950507794078703
-0.005885684727602416
0.5083771873119132
0.2629182434753303
0.1552122795994578
-0.4673433735644063
-0.1395972177018406
-0.5144924023529792
-0.1146152431131232
0.6816300565745715
0.0486578777265541
0.5251253436913802
-0.4319584565837195
-0.1255860602143591
0.3246975957996799
1.727854392328917
0.03463301907955964
0.3116723373094948
-1.293781990487499
0.4596255123192407
0.06829538500985581
-0.2014241404111274
0.05776154514324335
0.2482897541174449
0.1045660362762691
-0.02820672840209466
0.2415769778778662
-0.6024344908812157
-0.1355259810105945
0.09967325981288931
0.263327114713207
0.113361862785266
0.25774133696534
1.022168252022289
-0.3631857119526205
-0.3710356945856823
1.27442503223143
-0.4133015138500562
-0.8831591294021077
-0.01178193358428369
-0.628549477143764
0.1917830619366368
-0.05310801560976942
0.03701554335734973
0.4244758598719439
-0.09948489065099166
-0.1184403006402132
0.5853281577602655
0.1212333582065148
-0.6402294340105598
-1.767100248919663
0.03573958712045461
0.1765685734539181
1.04205692948972
0.4470337072086076
-0.1669688462694865
0.09809478082741843
-0.5150596152933308
-0.1013108419780117
0.1008150269595978
-0.3555211446376104
-0.1008682548599112
-0.4849101443114591
-0.5508328796547929
0.2271066420422747
0.3383087547780073
0.2543535463425309
0.136580119536124
0.493594720291896
0.3380698545433838
0.2000425356120505
0.09385113983583217
-0.9110889090361577
0.300326440666232
-0.2449740200873552
0.4654790621764883
0.216544036431973
1.01757624683465
-0.1112771216097767
-0.1447006945281506
0.1373199098140086
0.1731657394429345
0.07479102829768428
0.2965694861928329
0.3037613202165864
0.3298608265951993
0.8481352352473676
0.2737706630449313
0.6022970120162902
0.04950117245584702
0.1785862297843752
-0.5985951621992579
-0.135982554069088
0.1224450403263901
-0.1567286835741699
10.77731370601001
0.09116484761301925
0.08082156099291378
-0.2381784823937445
-0.02631540286878441
0.1188230449687131
-0.3409776005197048
0.5565072414239836
0.03421699543390638
-0.01467085798801106
0.1097387497760778
-0.2304110695747105
0.04908005413295324
0.04520073247176577
-0.8137788102920871
0.2802820279170926
-0.2425828167236792
0.4385039329317539
0.1492811584845181
-0.1138532790939624
0.5474230188953207
-0.3860136319736989
0.006588165635420428
-0.1519256898047836
0.03454909528510867
1.028570791349601
-0.4916083674725161
-0.4052731689115735
-0.3013301723092837
-0.04058772874210566
0.2514298838465366
0.3086061309041478
0.8572659127208964
-0.4426699568234231
0.2454788832111357
0.3819811352178138
0.3997041516925228
-0.01659065650401516
1.172636048897591
0.06103414532646568
-0.02087489733163284
-0.384057228843613
-0.3853324058267964
0.1496069727721445
-0.1675834156617512
-0.1775878788822371
-0.1797439365751338
-0.1281903734237207
2.014739866314374
0.6968126666098112
0.1422956852305838
-0.2247953757262733
0.2462486927375922
-0.7143366479047678
0.02851368719362265
-0.04839574651303016
0.2718393975045462
-0.3247625324081436
0.06907519026907494
-1.300799120773385
-1.169450853597883
0.8119311398884358
0.1573579520589262
0.04436422817167288
0.9690377280801824
0.4549863529776942
0.2742347219520335
-0.1134705106027944
0.1726222476797235
-1.164943713981429
0.6632095780486678
0.1435829352414904
0.3586602695894913
0.2055292987588071
-0.6205612642587059
-0.5762047613209746
0.2366784183164429
-0.07831206152029949
0.3909382998032994
0.04234470600834806
0.1658736550533376
-0.02023399442140067
0.8321272988415216
0.3309569624724227
0.9248496630042899
0.1721373566035956
0.2383701977052112
-1.743643105086577
0.08397890490720812
0.2300593504196092
-0.1171061012501472
0.5855392368157517
0.1963133960911777
0.101440193459577
0.03642592158798762
-0.2558990340599306
-0.3096594805112384
-0.252735339744671
-0.7489386153594847
0.09766371634942923
0.00101893918378136
0.2115409271005921
-1.489484208824653
0.3057480856824827
-0.6015977348834046
-0.7589472089124045
-0.078362030317442
-0.7736748759945224
0.1966848996076568
-0.1007614222185312
-1.57803162677654
1.505927393973999
2.037899677939617
-0.08847274274814824
-0.741018508719079
-0.117538659520903
-0.5181800133841736
0.3454602517716098
0.3166260585819643
-1.012074923235096
0.2110219979903587
0.2490565970786486
-0.1749886026141098
0.09453296115100453
0.3103016273707941
-0.3702038671697355
-0.1661529557749225
-0.02321442071293029
-0.3083196743491973
0.3657696371864353
0.8686609197045587
0.05515266617907475
0.08344544206370325
0.01891324573844989
0.03861434427505377
-0.2206814512677038
-0.3095431833064259
-4.969457291868275
0.1261012783558147
-0.2826230125149979
0.3341279402164413
-0.3023520569492137
-0.6376099494102679
-0.08601111388492243
0.02046749834425422
0.2644578014312922
-0.02455164703551073
0.571036376016934
-0.4982257012276982
-0.2113482449415276
0.3273042604413325
-0.2656019201859645
0.3000944825165184
-0.2421532238930427
-0.6517695317157983
0.1317986783440861
0.05016178905362866
-0.5019524272676157
0.3000482829811913
1.055340680985227
0.7458767391562302
0.07356033030960539
-0.5918143938709749
-0.005461177269652159
-0.04031636389497337
-0.3998124560675332
2.178296273769702
-0.5596089759470192
0.3469267537470627
0.4350852845198279
-0.4453389036468847
-0.4891382000277849
-0.2830965820313565
-0.02374423999114355
-0.2050177448369251
-1.285775166258447
-1.021365218085398
-0.2458516621043627
0.193532441299402
0.001953844113928996
-0.1088446399040452
0.3790067946745864
-0.1039878772569498
0.1458836556627382
1.301674956177142
-0.2782985586219401
-1.040963545423014
-0.1852334827623119
-1.253074251026904
-0.03667154839022205
-0.3637290382892834
0.2326739488932654
0.8119572384929977
-0.8951433326046353
0.05435143329390591
-0.5438882803555697
-0.6708678841509673
0.05263428889671033
-0.5285314475772191
0.7898394824429978
0.1985669725068248
0.1039033472033163
0.09435013391549565
2.120061824030587
0.2712899080153685
0.1400611687248524
0.4485368577063
-0.2952396554184263
0.004087952081565861
0.1715410333992451
0.2716620495824925
0.3234730857172977
-0.5946082253379031
2.123498072136263
-0.09916607133941602
0.5507799056527204
0.2938160195836699
-1.015132559245597
0.2890783685843535
1.045634571057137
0.4279365207733023
0.3536875077504851
0.5675699643343196
-0.1161934334805972
-0.6392675281343563
-0.382353225234987
0.1191118777362257
0.6938327944234899
0.2800296101924361
0.4394156445146772
-0.6761838548690173
-0.01375691710244731
-0.03493051499662229
0.8332900319957204
-0.6741445755163892
0.05894734317863903
-0.04705289295201586
-0.1521820835285329
-0.6151124755715468
0.1268651610962785
-1.617691395887374
-0.1089996208161485
0.5955335430743529
-0.7857195357805675
-0.5157654568108389
-0.005249517119577217
-0.03944602496533731
0.220402391257852
0.04744477401228176
-0.3795590279693068
-0.06217694307846802
0.03215687192516629
-0.8560369927740379
-0.2386505732949784
0.5583045500212018
-0.007154534380862574
-0.1426013169348663
-0.06288526579622572
-0.2188490618141362
-0.1577463452729416
0.2195196621059764
-0.2956617373526547
-0.2720395942557206
-0.4425764874198934
-0.5737472285892722
-0.244179779463426
0.2777183961570155
0.2728629497450895
0.2151898918493272
0.2048757613600801
0.1865651828577164
-0.766637291530365
-0.2277264185331681
0.05840226951214657
0.3623505231005384
0.1673570259451868
0.2187513556834972
-0.5678995481749127
-0.07420307164451115
-0.0295029355969563
0.1794808641694511
-0.1488518657522006
0.4066195281370053
0.07911883221497153
-1.060941140354613
0.05187755898792854
0.07851819012785966
-0.3168592307336202
-0.1968478089935359
0.06387874777045403
-0.4067572138527976
-0.5328628636429363
-0.4829435407865288
0.1246286053089281
-0.6304386667538083
-0.4727613601215407
-0.3611063194161764
-0.4274022078028989
0.4482183347243823
-0.1535016277431761
0.4848980433392743
0.1837863257731297
-0.4046673987170941
0.1537421469415875
0.01010989287538668
-0.1711993895174015
-0.1965648809141724
-1.441684289835039
-0.2393431461715013
-0.77913044369
-0.6510504877720407
-1.094594056159844
-0.1333148385013749
-0.5969226969147511
0.06235059870051579
0.08187542202226579
2.576088027796047
0.7581951268681241
-0.001985803317042074
0.105532775950618
-0.913826068078997
-0.004896199068018215
0.03063123755165252
0.3832533142443002
-0.6056277521604705
0.04393739240119582
-0.6388633465599853
0.1085332185487883
-0.9719294756589031
-0.4679033708154964
0.6588605516961015
-0.5697726133560805
0.07325612491484246
-0.08699530942554945
-0.2096889907198639
-0.1247483827246448
-0.02839158090969817
-0.05236942038637317
-0.05511992471685973
0.4305225602606869
-0.3671908432809628
0.1553197453744522
-0.06819971542264806
-0.3737087331544899
-0.5589286005647852
-0.4009440228807985
0.05256023790921729
0.04124547759381639
0.6322694610369564
0.07901968171873203
2.247139176177148
0.1508151687362574
0.09047837693293498
0.6037415129085876
-0.2121652610423799
-0.05086295851485306
-0.4943127525362125
-0.4053459223540402
-0.05697999382222821
-0.3694666627505258
-0.1784301629726739
-0.3937435634140329
-0.461451250294859
-0.2631677109393849
-0.6258643858445914
-0.4498903012306678
-0.2951166769468322
0.1761034184208647
-0.2262684924167169
0.1392009063214857
-0.6080515564491472
-0.2415767324984907
-0.5213409108495212
-0.08444012072370599
0.1771963471655193
-0.6593800233608933
-0.5387714063099749
-0.2085744446702234
-0.6739728467015913
-0.8285333932642885
-0.3016994398544483
-0.02654633172598419
-0.3348385279580903
0.3051197755051763
-0.01608479388567176
1.940158101586974
0.1553301484402486
0.1035014090944004
-0.06820972976436628
0.1797028013335921
0.3150091382811562
0.3729886775312483
-0.4040880324395247
0.4997824067356957
-0.003850621260160654
0.1163373052069025
-0.886789579684367
-0.7979483978683096
-0.3761104516307347
-1.044844274695871
0.2880430572673484
-0.3537480794743343
0.6080126552233263
-0.1475714733938995
-0.5068254638774901
-0.001626455239210433
-0.1704239228084425
0.3188260546726353
-0.07952346353824911
-0.01445842352437813
0.1271661597473938
-0.1006329707964009
0.1306348107976798
0.2312539041869116
0.3603204596946454
0.1940698111247453
-0.02306210329598085
0.7526789557811741
-0.4441932093277733
0.2396387330630803
1.134764939191208
-0.152618085450579
-0.3867111435182597
-0.2490898519493717
0.4126877584190093
1.191687343984932
-0.2033146043667511
0.2491504160945681
0.007021799609115846
-0.05222305896064446
-0.5462743690521854
-0.006889850223089097
0.1073159280425055
-0.194583147803035
-0.2133920484112711
0.08529870883387394
-0.3195414420251473
1.109255168018279
-0.2623165320511876
-0.4124322118332481
0.06807291036875063
-0.009289090027707593
-0.01944861194629263
-0.7472602019625442
0.2747581186937076
0.4224595973619181
0.04929595650608317
-0.2673071114924379
0.3940825168827727
0.228771780885101
-0.3141784112020129
-0.09925313940923758
0.2393567774849885
0.1428905514885104
-0.4393385105002539
0.07411527992758453
-0.133293330961928
0.294685148974847
-0.2311867079353447
0.9576790572781214
0.1815713130418714
0.473131099282738
-0.6031886646571321
-1.485100590617638
-0.2704733936845061
0.7249735799449333
0.1240253427262762
-0.1061521963767974
-0.2995338905103235
0.875351787729129
0.1106986630025856
0.1481553236179017
-0.1103501006718161
-0.06899101214258609
-0.08385068707327988
-0.1291280093930356
0.1169290584760256
-0.2297225328131248
-0.01564119595443638
1.215510031048912
-0.03250830376615969
-0.05435212098252781
0.2262675590990549
-0.1509813175710898
-0.3720595346905635
-0.07664334178372859
0.1289853999280952
-1.197207124543383
0.615885430590517
-0.01208024587654809
0.4047969336588006
-0.1167851143730912
-0.09155148854805228
0.28437437153381
0.005711888123943659
-0.2086694293379766
-0.3474329398567141
-0.141176562193182
-0.5332681065517736
1.421812884641618
-0.01629864978906441
0.003753066059026596
-0.0734167677780968
0.08105601386926543
1.62056778159105
-0.1015446498695463
-0.1545788136575134
0.2730620303121183
-0.2111795645651577
-0.06843553987270613
0.2492921244049369
-0.2039141765643616
0.2938571811153369
1.579605817176686
0.3775542936947996
-0.2821825364802343
-0.4983216578201196
0.1950292217344425
0.1774540257715516
-0.4161558983095349
-0.3045104351027302
0.2252746895181941
0.09363517609853231
-0.2043463271034091
-0.02820663656922586
-0.07669114238866416
0.7216730641137954
-0.4288491570829796
0.2967930630971796
-0.1615990188944731
15.40002706918954
-0.04935867512298109
-0.02284569239538648
0.5023256926682061
-0.4730041165071938
0.540022084127093
0.837997456693836
0.8011298518022091
-0.07051762655932026
-0.3387397879638044
-0.03321544376987787
-0.7047899540971768
0.01851104841729316
0.1082162296974171
0.7831141449084228
0.007646523295244368
-0.3785499758478397
0.7344279274980365
0.1204278454540531
0.5674541969118803
0.488423636621415
0.3655496729597633
-0.6546800913163605
-0.09972047549409462
-0.01054548577316148
-0.5336705277897752
0.5777850885258056
-0.294365925930978
-0.5980756612207518
-0.02617775148904015
-2.320701381953243
0.4659792509914355
-0.05812306906510774
-0.05414382800513895
-0.70925521534959
-0.4976514681342419
-1.37059777939186
-0.07643517280409808
0.05496857618680059
0.5605238625980759
-0.197305257716258
-0.935219987145022
-0.1132006621866673
-0.6833962748064187
-0.01552968593041641
-0.3489621499816588
0.04912851704688313
0.3508281378042402
-0.09424018794451759
0.009011307616420147
0.2366872286730583
0.3495389602437635
-0.04939162491759404
-0.5897633021084248
-0.2819015857524179
-0.2006355992793681
0.2247876693290009
-0.3587722466087534
-0.1392127616540808
0.1746158489742096
0.7194234721823591
-0.01223228926264059
-0.2044044228134599
0.1031924196668337
0.2570925871010184
-0.3406747364748613
-0.2987370768707218
1.176452031608369
-0.1975242929731973
-1.041029748450292
-0.3033357963991425
-0.03090539592666427
0.1009551163796331
0.4466403267975309
-0.6093310011980638
-0.149854644192105
-0.6553727254572699
-0.4870993447569436
-0.4160012269231727
1.95005460779298
-0.07310747821128696
-0.3781761752047063
1.623392538299543
-0.6023430789087454
0.201271361223211
1.098425582186703
0.1137712227971386
0.2023748560110215
1.133043658878496
1.447372135340082
0.4572518020353262
0.6311833148266625
0.7817394478821615
0.448715881527333
-0.2994793784173824
-0.795030935563073
-0.9268430571278751
0.1038619060677093
-0.2384511498032436
-0.05628763983008146
-0.475625157815645
0.07581785833576836
0.1402635132762392
0.4474641355809647
0.1810894161586403
0.1675929551845217
-0.2848778931978312
0.5760775013282196
-0.04645993672159981
-0.2163353982560566
0.4116923159618048
-0.1926219824295089
0.4760899139559044
-0.4681122602714853
1.241627121831322
0.7781436722972485
0.5852143352241932
0.9336236001766894
0.1430993461276653
0.1768632878660699
0.1024335309567978
3.772416529358427
1.640290561233694
-0.5969762838733252
3.377245475331594
3.223862370296912
3.250608230765814
0.174486132355241
-0.01085875690196342
-0.6286850867034601
-0.2782821485691557
2.594791867617712
0.1336982805313648
2.99701456845307
0.08178805996124079
0.1755369512805822
0.1901773458666457
0.192819566786249
0.2066333767124353
0.2222670455760653
0.2452728369834603
0.221149059262214
0.253911658891624
0.2616412578524372
0.3989845634682367
0.167410749409268
3.284229409271553
-0.9187535528024945
3.887788114048178
0.1830000457795281
2.659462274239631
0.4343317534986911
-0.2284400310870686
0.6406661012305629
-0.4686091158248117
0.6484793183582562
-1.205383872254769
0.790346549361172
-0.8546935573436603
-0.213700003460354
-0.5269235384090086
1.229145302890017
0.323788445847622
0.3541503270009707
0.1132314067627856
-6.334182037240675
0.5229905083147104
0.5187900367701693
0.3722076550818701
0.3620095509881639
-0.6328014605364566
0.1186930990200548
-1.107356402502576
-0.0540130684485127
-0.2699481922938999
-0.3689814008010661
-0.5996259968731777
-0.1006315537713853
0.3288698992844337
0.264402886410004
0.3780600247944708
-0.7604581664959355
0.04542667349069041
-0.4065238526727357
0.1500418578150036
0.2873326615751564
0.0630513487509404
0.09927616504735579
1.185308536335278
0.1764058829567333
0.1927035194981932
0.8680761140937627
0.9800719754524477
0.2860164893728021
-0.2004713250695238
-0.1115814857669371
0.09196798112132991
0.7570906385287283
-0.2216204416020824
0.09628149424328904
1.063023350455176
0.08706282968568428
0.8809147832305423
0.09344017709955277
0.1436519141482497
0.6425204150889736
0.1009027142814707
0.1958788991205051
0.06767805473145649
0.7474400806983148
-0.04883700678001238
0.148338745430588
0.8564312865889634
0.2766715194949385
0.06827537372709568
0.136861731057596
-0.4355659885148279
0.1784577844859024
0.1673121299426656
0.3725716774049482
0.1020877713935925
-0.3018481387975941
0.1465799910502794
0.3171827334827775
0.2301290155229503
-0.1213834778203186
0.2152435630486488
0.4804609137833361
-0.4507725967908362
0.01082096264737083
0.05494507454835704
-0.2117392759664671
-0.4526305982247424
-0.2052292628075354
-0.2385440594577675
-0.5958686147872907
0.2290881037548196
-0.1209260380076129
0.3996959538136191
-0.2929926058954429
-0.7730547598474289
-0.9288640029589657
-0.583388312251919
0.1415206609930277
2.485986270642344
-0.05093668213854852
-0.1972142519945898
0.1745945479244867
0.08595918968694967
-0.01021124371402833
0.1704384131185933
-0.07022186941653756
-0.1465254317513916
-0.3835554030671252
0.3692435968237788
1.337350453659137
0.1858116866730059
0.05460186651392521
-0.01270725792846448
-0.5161150854777111
0.08696808129859535
0.176805274638151
0.1648243275163035
-0.2577070947092543
0.2591336901033559
0.3783215903533851
0.5297084161689769
-0.1037912805067083
0.2150288559904978
-0.1081894091517419
0.05704861679412238
0.07487489546663034
0.4840529188913031
1.926403240947171
0.09674908542109788
0.4201552873748469
-0.2139157827145356
1.547439752045419
-0.3728284859290719
-0.09902313290166836
0.2943355489450885
-0.2175011827497516
0.2268432411169871
0.1044863186078922
-0.1846315770553686
-0.330326432616213
-0.1406176585720887
0.4025194318459108
5.380564222803017
0.8146122217405938
0.4144620597864694
1.843097302143014
3.191268914980363
0.06144211230267423
0.5188411451077134
1.057507463825005
0.1404067716827211
0.2340529547724706
0.1604967398810523
0.0958220140810644
-0.140124686259899
-0.07744889419124432
-0.6478600298226789
0.1098507749853666
5.522386965649718
0.2728933458587472
0.3428517348589659
0.05243443309532945
-0.2038256140245158
0.424316712903247
0.04342762102788817
0.03748567716827
7.393663295861873
1.388690783071581
0.2686528343410304
0.0702680812746273
0.033158805493551
0.5519030243250148
0.3428067686298938
0.1946596789913231
1.010822978303344
-0.03848899855641014
0.374259391959993
0.1055001702484373
3.459286067720268
0.2023929110673154
1.24011814567714
-0.007138666550636
0.1383042333821211
-0.7181679159179585
0.08327825164997157
-0.0045483642061498
0.7946242417007572
0.01423083072852298
0.3204750949171473
0.2438997730977586
0.1433044361858303
0.6256630288217808
-0.02583015910497932
0.0635871971997078
0.0888744521909499
0.06989655792993657
-1.027038475037205
0.4296113167864375
0.07056849264660334
-0.992430864922388
-0.9115098135010373
0.2210174874455113
0.381145654054292
0.5344169926350412
-0.2642745443277825
0.389821503544073
0.2829230348505645
-0.07971526845327329
0.389979656044791
0.4673850600489081
-0.429258861759339
0.3395148445705433
0.996349626540988
-0.1344425867745162
-0.2685552407741459
-0.3631779522845082
-0.1460571846127111
0.4906500761586486
-1.056651496475967
2.20075643063416
-0.1731881959129713
0.0905582866232178
0.1039315288987399
-0.003941211080938245
0.05481699799234255
0.2191134595891112
-0.1250366209163843
0.9500318296811285
-0.2804495448598555
0.2439067994833831
-0.0752630453917834
1.121258369585239
0.128758948183214
0.1255640373253163
0.05707711029902459
0.033569976036518
0.2959955719899319
0.1079608153834407
0.02468801617268398
0.1374966878870337
0.1787798393424973
0.3876409087664137
0.005866618777532683
0.1299939273890058
0.487050865597623
1.065198711022433
0.2612901268994904
-0.7145572333156056
0.06112133547250664
-0.04914094980080264
0.06568195834557546
-0.0153492021085982
0.1793059341203604
-0.3721509613261397
-0.3182161971392631
0.1267163253222482
0.3176659007051841
0.08629702281724407
0.1063234001352207
-0.9535633238254367
-0.152275305967137
0.4883602994095756
0.1756581524806681
-2.333243144498632
0.02434719221102964
-0.2444342476979131
-0.05195045247321439
0.1620814431307356
0.08833029628249796
0.02522272542448604
0.5076364534280908
0.0034307814143676
-0.1411477940333017
0.07150835961865237
0.005212332501231339
0.02866863761293831
0.283866100269182
0.3657138957952282
-0.3252253825145249
0.7817285261287426
-0.1316565634144668
0.1982221152479289
0.3057539959374144
0.1328560716308291
-0.2425478253271036
-0.4380812374396093
0.2225697853003618
-0.08865553977717884
-0.02963568969147405
-0.6093691414855575
0.2545794211182156
0.02364193631577054
-0.1555547402055553
0.162097949181439
0.01702426612105066
-0.1597447049578323
0.4683096253383518
0.5295640295531978
-0.4374142805803123
0.2829627837016124
-0.06197341584698045
0.1750800644334352
0.1025483319306985
-0.396972304646615
-0.3425024653214257
0.1444871889026292
0.1910423838397576
0.07234605754435619
-0.0972478641019472
-0.3253390941584588
-0.05440657003219677
0.4778273040894195
0.2685235942927118
0.2039894146483384
-0.1736956973958463
0.09643021565978242
-0.5846424080666436
0.3874314206581559
0.1343250532311879
-0.03775631254654627
0.1534972977798586
0.1656665734184486
0.02656173152927387
0.2278093649346656
-0.789101365461591
0.1368569777953564
0.2040610421358687
-1.520738553282851
0.1010512527383337
0.5674209026670168
-0.01214170370921519
-1.992433298236307
0.08039065197913924
-0.08157981610030071
0.08542883530215734
0.224689068188759
0.1089145050325469
-0.3143225209607293
-0.1436670595440269
-0.05152134469105574
0.1653370789530486
-0.04202649698916344
0.1030677466375018
-0.4522473434302856
-0.2287767575901387
-0.3597920387306357
-0.3724335398785733
-0.359716939406338
0.1031006419323508
0.09853333131485216
0.4652167726877988
0.1466830527858721
0.04164279970820695
-1.112379387245117
-0.005121065643371522
1.180088381740894
0.6395162266725355
-0.005952050613330584
-0.3122990045751369
0.128776864209601
-0.3359699562988201
0.1627254666254825
0.9895188961766507
0.1137129160453783
0.323734904941882
0.1521700686462621
0.1587464213069129
0.5610849052640015
1.814052147241181
0.09204105942222623
0.2559067419031224
-0.2563264929256719
0.08366202407006024
0.4575150446248252
0.2316784242490263
0.02955058505175984
0.124037640969992
0.08233441613167891
-0.09361823619766518
1.406706733456775
-0.07898981506190908
0.2497397555896417
0.2051941341087215
0.03302062181672046
-0.1581725686548863
0.09893515850524331
0.03485993862810874
-0.420349690193785
0.06858809513602014
0.5661444549395972
1.047518619243583
0.2834262888023384
0.3171144857253458
-2.502620046978059
-2.758577428631863
0.2750949515824727
-0.003943462734333245