/*--------------------------------*- C++ -*----------------------------------*\
| =========                 |                                                 |
| \\      /  F ield         | OpenFOAM: The Open Source CFD Toolbox           |
|  \\    /   O peration     | Version:  v1906                                 |
|   \\  /    A nd           | Web:      www.OpenFOAM.com                      |
|    \\/     M anipulation  |                                                 |
\*---------------------------------------------------------------------------*/
FoamFile
{
    version     2.0;
    format      ascii;
    class       surfaceScalarField;
    location    "1.4";
    object      phi;
}
// * * * * * * * * * * * * * * * * * * * * * * * * * * * * * * * * * * * * * //

dimensions      [0 3 -1 0 0 0 0];
oriented        oriented;


internalField   nonuniform List<scalar> 
37423
(
-0.1101840503374736
0.4221730675584586
-0.4552128716378332
0.143223854423052
10.13616693168581
5.439134582976226
-15.57530151458436
1.599476553134321
2.842484177464035
-1.503725227891687
-2.938235502735598
0.5873208331997914
-1.141462520483965
0.5541416871925809
0.1169122901185718
-0.1667140232916819
0.02981473501527412
0.01998699814169142
0.05280287153795954
0.1399875422493851
0.30470853295505
-0.4974989467950102
9.172111246004723
-4.662375319112672
-10.85477352054546
6.345037593650561
-0.04090631721166558
0.04646068683986055
-0.006380367605245657
0.0008259979504131481
-0.1697465787579871
-0.01603782321098291
0.3647746545685223
-0.1789902526223355
8.630955026962768
0.6531363846339751
-0.4547209804955273
-1.422739481856217
0.4241710043695479
1.453289457959428
0.2934135616873175
-0.5468568356737437
0.7684991617974207
-0.5150558879088334
-1.133450612871086
1.360044198048908
-0.2265935852092416
-0.4590898428906707
0.4926826199483438
0.6064617005989994
-0.6400544777401204
-16.29534307620181
8.909215929967843
-0.0564795748906212
-0.0006500633012853803
-0.1160890346134548
0.1732186727849254
-0.4727559465976454
0.8142852503098746
-0.04811574207191907
0.1480375673750361
0.07040848250007649
-0.1576089060322465
-0.06083714387671872
0.1021728698488497
0.02258845533953204
0.0009873609440754813
-0.1257486861581306
-0.01340395753100779
0.05603713996595005
0.02719416056290515
-0.06982734302212999
-0.2204053823857182
0.3795818149409785
-0.4242161214655565
0.2650396888935968
0.4089600246845189
0.6866482423722017
-0.2772552956646427
-0.8183529714637613
-0.112802817966977
0.1213503196510607
-0.1080451768778825
0.09949767517031581
14.69783627106644
-17.57442394291322
-6.306984866158643
9.183572538193552
0.595016951993412
-0.07876786936123845
0.09770452338478036
-0.613953606027246
-20.31664408034304
9.237566217702318
11.07907786265186
-0.1720192448858739
0.1251599179166522
-0.425896619669018
0.0747087537547218
-0.07070748971330465
-0.1670046958203689
0.1630034317592097
0.1654390805052017
0.01176515741299454
-0.1785510971455148
0.001346859190871379
-4.252675080112964
-22.42043338026494
2.715297179098342
23.95781128156084
0.2153114238489026
0.4022619601544126
-0.1590707885638984
-0.4585025954722616
-0.08785570457585486
0.7121271530930642
-0.01609436659503214
0.109807348748338
-0.107892943346417
0.01417996117025118
0.06383963535553125
-0.6380437682120886
0.3348763055167449
0.2393278272824446
-0.01810316943847915
0.05732440807359955
0.08863444990812742
-0.1278556885841069
-0.03153803082633518
0.01097855709261764
0.1174185837317407
-0.09685911001505168
0.2587417058388247
21.43469480652649
-19.3371498806197
-2.356286631731725
0.3944004923880739
-9.166252110014128
9.70686039262587
-0.9350087748470802
-0.02692231998668587
-0.04424170442901414
-0.1020162915470337
0.1731803159390373
1.934256387641374
-5.795823046030112
2.381744503393065
1.4798221548738
-0.1250689255112314
0.01165150605054563
0.138082243544289
-0.02466482409987292
0.5564745094878052
-0.69996085015612
0.1899734146841556
-0.04648707403646514
-21.02773032733688
3.689348859312222
7.153110827577348
10.18527064054251
-0.2180497255075657
-0.9239923255315685
0.9930023669067423
0.149039684025378
0.3195912935206895
-0.0109919482232252
-0.447246650874021
0.1386473055795509
0.05912948420877003
0.6450043772465373
-0.08088233615842769
-0.6232515253614244
-3.593494007132857
-21.69533639941991
22.58297899040504
2.705851416168066
-0.9345368861481632
-0.6708322592393872
0.1700689839592537
1.43530016142376
0.5184133409120681
0.2470008929092603
-0.523049702800985
-0.2423645310420069
0.4277937309323074
-0.1773815651378476
0.3673459367037306
-0.6177581025325786
-1.290149632045758
-9.475770871204814
10.76592050342667
-0.7140462610998733
-2.727397481961629
1.179444486946803
2.261999255749005
-0.2527839914214362
0.5927220177687369
0.007034080855268171
0.1884158137820155
0.04577617586079413
-0.2412260705339309
-0.1328202461985067
0.04492958011377946
0.105347015831538
-0.01745634976694663
-0.5246961811986057
-0.06579688144788085
0.1062990194646881
0.4841940430841985
-0.08828523855412757
0.5982858464602726
-0.8723406058692631
0.3623399979229748
0.2669101688544904
-0.07078647472888433
-0.02761767653314397
0.01780754595116088
0.08059660529682973
-3.217948633890177
-0.5756160629773425
-3.046383197942156
7.206495384991192
0.03300264592222812
0.03339675044543285
-0.02826002993347464
-0.03813936644997964
0.0004060844949861745
-0.07653550163719913
-0.004043777926708206
0.08017319505591472
0.3961832821641248
-0.3802846826962452
-0.1341423418936634
0.1182437423779448
-0.3160846617097355
-0.1526921887591745
1.155425092774607
0.02993883428821414
-0.09893982180781659
0.01371052020653477
0.0552904672847099
0.1118646734051818
-0.2988262156840834
-0.1570980112839707
0.3440595535369059
0.3368645846911886
-0.7915014455352176
0.2283410224715431
0.3559762421286694
-1.139728007814439
0.5554107431667757
-8.54155728999384
3.962104990701815
-4.816819544755582
0.07856717874919529
-0.04409521194137646
0.01353350591339955
-0.04800547275276802
-2.381458917637677
1.013835300764045
1.117495136144441
0.2501284806710284
-0.5426100891671473
0.5320220757869583
0.1024031563743601
-0.09181514305322906
0.02238970460076893
-0.2902764945824232
-0.3577975136987612
0.6256843036719464
0.1162305643495464
0.07730083924759054
-0.1541132290590565
-0.03941817456865489
1.66742062239933
2.878221032942088
-0.8813801040503235
-3.664261551490775
-0.06784495431982544
-0.403347124244645
0.744978954652096
-0.2737868761907778
0.6571975167209406
-1.937081310688701
0.3681571978374152
0.9117265960566372
-0.02101595513534859
0.009498229028188896
0.01151772609262718
13.76257631902554
-1.035879164942248
4.766059455300597
-17.49275660927643
0.7422697475840857
0.05747620901399444
0.01913950213845076
-0.8188854587683818
-0.1858725237696685
-0.5248196579629185
0.0317714944266133
0.6789206872735988
0.3570161921329978
-0.1514685855318107
0.06787426716012404
-0.2734218738010344
0.006463317662012131
0.07281373932179845
-0.07011559028936017
-0.009161466719606375
0.04538676014433513
0.02333728041109619
-0.06872404056838156
-0.08007410472159164
-0.5343832913951005
0.3616734046935045
0.06453088405582449
-0.03967173595194814
-0.1076013085823606
0.08274216045488822
-0.04824698504245101
0.04628377391229663
0.001963211113511358
0.06221889550752618
0.430385253947196
-0.06102206135320648
-0.4315820881319044
0.04326584382942977
-0.0263298485660366
0.08555840577412165
-0.1024944010559198
-0.1162051482360773
-0.231977243376451
0.4600470650043245
0.2961448097176604
-0.01008799782452443
-0.0345043581459582
-0.4615047603821544
0.5367318808031519
-0.04072276230955494
0.1627599307235959
-0.02003741959245572
-0.1707067347090838
0.02798422354270081
0.0160146620230305
0.05000658418604405
-0.02407295731653206
-0.04194828891251467
-0.06706625166695344
0.4982898100287498
-1.998631850265898
1.567408291824396
-0.6266810335078498
0.7780641678520085
-0.1311013118577071
-0.1542802361093329
0.1925013577504297
0.4247177244773135
-1.17979792222296
0.5625788399470554
0.4656618736348785
0.01830994241199819
0.06013470808177663
-0.06386686674634333
-0.01457778376652434
0.04198605248025614
0.04768754502584663
-0.1836677086131891
0.09399411108117114
-0.6209225520479785
0.589759712541521
0.2330969036067103
-0.20193406412668
0.08721589024846295
-0.03762427753613967
-0.1055430850402191
0.05595147230610053
0.08785779062287258
-0.07860481610148236
0.4814778529059676
-0.4907308274416718
0.07522452087189188
-0.08634606150712673
0.114020857629579
-0.1028993170175142
-0.1023446365371655
-0.1471716475514956
0.3794550799785685
-0.1299387958855108
-0.3240428377710531
0.4752514644715535
-0.2535532632304519
-0.02160275040092162
-0.03425534514809735
0.1281978288150891
-0.07233973328684681
0.1215187014989199
-0.05031096211825515
0.08781875284540555
-0.1590264922542363
0.09656983948044083
-0.001516467550391697
0.0009149018283764508
-0.09596827377401697
-0.06370170607392492
0.03753250562533338
0.1274085531742463
-0.1012393527690526
0.4226601137625015
-0.5378752228611897
0.08542626939628468
0.02978883969195696
-0.4344449149977795
0.6587580932194328
-0.2253396516924732
0.001026473435842811
0.06920694677392419
-0.2251460403173544
-0.2002316264294298
0.3561707199472633
0.02803624330928083
-0.01894267337685328
0.06857671409145887
-0.0776702840423953
0.6189581106795167
-0.3624746455264835
0.2913396520771707
-0.5478231173003257
0.09619200332722307
-0.08049448098002925
-0.02778023180266563
0.01208270943332927
0.1188803205485185
0.3180752693385449
0.02870628370977747
0.4585991711517398
0.1923032251604772
0.6970049242402272
-0.1125511717515149
0.2160764366088806
0.7892276397643748
-0.3082991521725871
-0.2238993931052737
0.1499759755710842
0.162927245292797
-0.08900382778185358
-0.5260769127143178
1.307924849739624
-0.5604865547223967
-0.9001304838116632
-0.03127959998505818
0.08741862607376229
-0.02174510829718403
-0.03439391780949612
-0.1431052336295427
-0.5166992437662549
0.3683034900749541
0.2915009872087154
-3.18046110877918
-3.001249016312305
3.805634665716501
2.376075459485388
0.3430054900682861
-0.3202831920496631
-0.6068996735047636
0.5841773754169317
1.821387058844681
-0.4008825724242082
0.4776153214138656
-1.898119807835048
0.3520959120417018
-0.5302940236911727
0.2420377469647951
-0.05598948851635551
0.3348167434334659
-0.5386971925567291
0.2598699376188814
0.1172313134664515
-0.1289087096743626
0.07775291069923551
-0.0660755145243276
-0.1253829862728464
0.03883052090067323
0.3186030290337877
-0.2320505636903434
-0.07838839127686308
0.009972710106089779
0.05713031412803166
0.01128536702298984
-0.2053004379059628
0.0204039581381337
-0.01345437156433962
0.1983508513051493
-0.07869237118584582
-0.5065712389139951
-0.01560231406217329
0.600865924117697
-0.1540496730604098
0.1215525710667193
0.03249710198352513
0.2245248087154651
0.02499766797458219
-0.1686740984198248
-0.08084837831267583
-0.02060905121458249
-0.08735538949358905
0.1314332241011372
-0.02346878341530365
0.1901404247981338
0.04935705167124605
-0.07483559952019901
-0.1646618769758411
0.2908284072350042
0.2222564208181586
-0.6943783491807112
0.1812935210844031
13.66600546510269
-9.155303184634056
-22.47304256303737
17.96234028266629
-0.5873857605182671
0.01613695799356794
0.6199774451406468
-0.04872864266726872
0.1210285085746006
0.02906438841155232
-0.006632867680898082
-0.1434600293398586
-0.06987185419852872
-0.5337525307054011
0.6104624292293384
-0.006838044341919951
-6.937057309625
-5.455107212203012
-17.45782633582897
29.84999085790646
-7.695324628812799
10.93767993767353
4.22872646447972
-7.471081773425127
0.08992857107261266
-0.08072085762441529
0.04403070997172999
-0.05323842344200733
-0.4723106045602251
0.2331657112773886
0.07653225873098091
0.5355275806058891
-0.09404360897460037
-0.5180162303997536
0.2357937788952832
-0.1212675524783554
-0.2616978739801087
-0.2823345883620531
0.5006533937781521
0.4264703717099641
-0.6447891771893636
0.0134998219390901
-0.1468229680780293
-0.4467324796771524
0.7597472382135921
-0.1661917905021229
-13.61735261831431
6.154500348631662
1.044371456706116
6.418480813083753
0.07620034409966442
-0.004799245536679874
0.1750819550152931
-0.2464830536043626
0.07843990323713988
-0.0672997281311082
-0.01114017512164738
-0.179584094958128
-7.182832333247033
7.362416428360681
0.3888789750479634
-0.3683415714973939
0.4799181897639249
-0.5004555933420702
-11.09831609484586
10.57817782108695
10.63790336076842
-0.04119895267032767
0.5324810840880457
-0.09271360699037352
0.08980801774973043
17.97140126054603
-17.88734210750823
-0.08405915297855529
11.79220154478902
-22.88269596009062
11.0904944153036
0.8956136240449081
-0.1428053066467929
-1.570469448626618
-0.07396499977112966
0.1241662722666744
0.008072886618107266
-0.05827415913090967
-0.1149841884109345
0.1779996704406904
0.2296922702094697
-0.2927077522426477
0.4694006553865887
-0.4463520128698386
-0.1985725284321335
0.1755238858933614
-0.1289262998093843
0.5445158220948532
0.4398776039229633
0.09356279459105286
0.06484544792202368
0.4866212039975558
-0.6056123870847993
0.02717603999509205
-0.3088436271888428
0.1024912276991485
0.08508484700470369
-0.5531104112423749
0.9210269394289179
20.79319817197239
4.745866739444175
-26.46009185090253
-0.5853728331182678
-0.2109806092188094
0.4909941450589609
-0.3988602742552699
-0.1379838907222602
0.04585001989439219
-0.0518646900668146
0.199648122325745
0.03839409193004906
-0.1861775242030225
0.3344301671330617
-2.629035669588622
-9.533563240014333
8.944650275850693
-10.4298393849236
6.287614394719363
1.513189320711559
19.3582908706064
-9.088652057762314
-10.26963881282625
1.118702738962159
12.33035320863754
-12.79591956287826
-13.68329804830453
5.871741550591723
21.11297844467158
-13.30142194696826
12.52719265391845
-11.6960090664936
8.479510551382127
-9.310694138841345
1.161290014922913
-0.610287070039559
-0.2596632928826982
-0.4825540584532016
0.5814469790312942
-0.1400918732603159
-27.5904191709619
10.27449841672659
17.30577341011554
-0.01895662456465639
-0.1335341280564464
0.1888314043558681
-0.03634065176905717
15.8803240224234
6.713155030080652
-38.24161123115428
15.64813217862264
-0.0588047980818599
-0.6056166433103237
0.04666333884838936
0.02574966815107992
-0.142720030552569
0.05278540688301956
0.06418495549063999
0.001828862517134944
-1.646045447306104
-1.974192063539302
3.933769808479045
-0.3135322977454212
1.857191852434648
-1.177157972950802
-0.1276515080738085
-0.5523823714695761
1.373258117979705
0.1105674680728854
0.48274618336396
-1.966571769494269
-1.14356377969768
0.1309328464538807
0.1748630137088433
0.8377679194127904
-0.09482493654585109
-4.720440328093025
-5.262738045184681
7.403298602135794
2.579879771077897
0.7367806293322965
0.1833798568531866
19.37307351641637
-20.81117729389359
-12.24519427090615
-0.1701536594143097
0.4557510272107366
-0.5136458325942637
-0.2857096466999535
0.2826562354609757
-0.3852011485515619
-9.799063278502885
21.0010078597869
-11.20194458122761
0.7568948751745405
-0.5783542630721261
-0.7046175248750347
3.876101884768191
-0.02757057950502458
-8.568971633397469
0.06981974236761546
-0.02336399295301095
0.04674436867330425
-0.05049323038809653
0.02711285465782863
-13.82745772635743
14.89091789222388
-0.1914292543821097
-0.01660243210796155
-0.04250944025870523
0.2505411267079085
-0.2296560991894094
0.003830909666194782
0.3111516870969474
-0.08532649759934227
-2.775412303104525
3.557056185070558
7.182175397397057
-8.750408246856466
-3.248586695247898
3.932489820565484
-10.14381880935341
3.43591668577692
-0.03867023304208688
0.03325919858216578
-0.07366824258675141
-25.30677043958347
-0.06295309043423752
0.2168407440855465
25.15288278604532
1.795172207783801
-7.907775156417309
1.896185792884097
4.216417155457056
1.873591451174918
-0.396358915414785
-2.93173529775612
1.4545027619046
-8.729554356102547
3.900298302044243
36.30203227894027
-2.96622009428881
-8.483407310977059
8.180204427601623
-0.7815612520797652
0.04663455207560404
-0.04990462599196762
0.7848313259633394
-0.05599994699355802
-0.2728795524382557
-0.1406305738806611
0.4695100732515282
-0.3570564011639757
0.1719889887459409
0.04602296455623954
0.1390444478095597
0.02405240633651737
-0.01758908869067564
0.03690615621735007
-0.04216872315784458
0.1558472205443578
-0.1505846536338925
-6.521203642185826
6.571417440052331
-2.953840014459478
2.903626216463863
2.867755892214688e-05
0.0001803041026163652
-0.0002089816643520632
2.86775576415751e-05
-0.00139325666351324
-0.01657409917066448
-0.1120089643158694
0.08466510718547454
-0.01749588493683436
0.05916205159709819
-0.1263312738712965
-0.1808047243121279
-0.2806036634606745
0.4219691639804399
0.03943922376139807
0.3097460902373633
-0.4587524380817194
0.07334245956192251
0.07566388827090974
0.1619278711166199
-0.2555263104776089
-0.08107459491421438
0.1746730342488051
-19.53071612554614
-8.080038873221119
-0.04884377989925562
0.1257473791982394
0.005896340207391874
-0.08279993953298974
13.04089331710265
3.791890615604818
3.259242043605563
0.02091433885410878
-0.3618213070008459
0.04375693367601832
0.2971500344340694
15.26824223289966
-14.02377660735734
-9.668333522920175
8.42386789738296
37.50503361328968
-19.76555591411481
8.113887144794209
-25.85336484395541
5.301785926021718
14.78434004086446
-1.448705996848963
-18.63741997000347
19.55747529273445
2.887385469513474
10.91739192783722
-22.83808264336066
11.92069071548982
35.13991271807657
4.87163234275298
0.6354873788794134
-40.64703243950046
-0.07884387042489718
0.1265622561659719
-0.2390579003368811
0.191339514558339
0.1887236319840618
-0.1400718460932527
-0.6209748559671506
0.5723230700824961
-0.1342798704885496
0.2780336025614494
0.07251770161839965
-0.2162714337317115
-0.06444296570878544
-0.006201886247475093
0.09474768268444259
-0.02410283073642073
-0.1371424312597847
2.016359919639673
-0.3924788660478291
-1.48673862238292
0.2973416815695496
-0.5291010194233019
0.2151086435517729
0.01665069429174593
12.18353367650085
-5.696920468588662
-6.486613207856768
-0.2353257116564687
0.1444515645284377
-0.05791844256723569
0.1487925896732873
-0.363741609472116
0.4924158982163553
-0.2123976207204827
0.08372333194509535
0.1232384520237764
-0.08633229581664638
-0.06017436634517859
0.008717481149371315
0.0514568851852227
0.6759036516601452
0.4693639960524277
-0.4848018603923374
-0.6604657874420563
1.942994511197124
0.3761349052998262
-1.07995074586086
-1.239178670745058
-0.1403820327185125
0.1065316276023786
-0.0971195788270659
0.1309699839168889
-0.05179723836481252
-0.1286385792747542
0.07726995080014244
0.1031658668132117
-0.8018808861944167
-0.7861141839873321
1.752224729051825
-0.1642296589211735
0.3868742669669801
-3.967144727859986
3.320772772279792
0.2594976884609721
-0.8532009273269633
3.425442970596222
-2.596187726894585
0.0239456835583263
-0.4738028099873502
0.2312821112788062
0.3073810538741429
-0.06486035520089885
0.1863843439513599
-0.3206240426685581
0.5110654746689232
-0.3768257759855725
-0.05660528705738201
0.07359724781142317
-0.01699196077215613
0.1007247337856512
0.1462180018361541
-0.2469427356266056
-0.06458661184471585
0.004805295028299448
0.07127752413655582
-0.01149620733845304
-0.05776161360344372
-0.09665971552480968
-0.1044209202036988
0.2588422492872079
-0.06664422784652856
0.09421929237900338
0.1598322300720321
-0.1874072946317842
21.16850160318106
-13.61114270713129
-13.98611736036062
6.428758464397986
-0.01137681185003555
-0.05072966385586057
0.001300830746795183
0.06080564494070493
-0.02887758112193758
0.03618190218720818
-0.007304321072667848
1.976501547101334
-2.575584138929204
13.96142652585748
-6.655945675091274
-7.305480850701978
0.02914723604265243
-0.09644019278062185
0.010802692345479
0.05649026437116771
-0.0422168041792686
-30.319517660422
-0.05931062830739318
30.42104509298126
0.1130843215994033
-0.07638704180407148
0.2190984863110327
-0.2557957661317161
-0.04953619188139096
-0.02504858426970245
0.06736466043231723
0.0072201157024102
0.07944376801110797
0.6007410989194019
-0.2534460520660213
-0.426738814933831
-0.06363922353066656
0.003059387065298453
0.06057983644670297
0.01990569479765311
-0.01888181347272432
0.06850121024199637
-0.06952509158342532
-0.004232232417944949
0.02756871680102069
-0.01527154265099156
-0.008064941750826534
0.04679618690505864
-0.0335382205958168
-0.0132579663245666
0.001218792841647998
0.06042099785818087
-0.06163979071562598
-0.1389955640097469
0.5711627676536378
-0.4100527998372563
-0.02211440384607031
-0.0114972630223898
0.07630049061834013
-0.07834448274192223
0.01354125512080505
0.08179611122270673
-0.4352527868720846
0.4107430521579161
-0.05728637656881233
1.241049561618366
0.5280955861644873
4.205760030123002
-5.974905177976063
-0.2848395660417002
0.1420823950239612
0.04385527297089546
0.09890189801980007
0.08969210616710922
0.009019348901541237
-0.09871145509248551
-0.03093339249258234
0.1325056324896248
-0.6082546812199069
0.506682441178455
16.43571264535545
-21.09049487482896
-0.07318449304203442
0.1460088746180299
-0.001937982578873778
-0.07088639901712472
-0.5044264144787409
0.005268764389272424
0.4991576499993987
1.546047738261755
0.6174708241399357
-2.278776180785343
0.1152576183967897
0.7876795430596825
0.01385902177776036
-0.6826599051666252
-0.1188786597012052
-0.2586528044359329
0.2777947211537287
0.1108851433036739
-0.1300270600529759
-0.04781627239305715
0.3597748163162149
-0.3541893621977049
0.04223081822794383
0.1290466863859882
-0.2783687219926758
0.159203625514266
-0.009881589927350443
9.705252282500222
10.07084828850933
-0.008512029060640821
-0.395757619532363
0.08525923672826385
0.3190104118394888
-0.2252369341083957
-0.4384798916289526
0.5902698357846642
0.07344698994777385
0.01032024184719925
-0.1404899722715741
-0.01691958162844186
0.1470893120279183
-0.2781851349228383
0.005666278004412195
-0.006085606599262988
0.2786044634854781
1.439508795901881
-0.5664445422679298
-1.677641208946354
0.8045769552273376
-0.03137034709997893
0.1244763581987058
-0.1043356758495796
0.01122966471990763
-0.01358956729222626
0.02490361889529967
-0.1098792934299956
0.09856524181116276
16.11976023404892
-23.66085536233521
-3.1448242927205
6.271791194515185
22.99175651773123
-1.385924063627213
-0.1772172197016569
2.166295521127738
-0.6031542378423165
0.1626066717800848
-0.2637012340148112
-0.2422137610644509
0.3433083232799598
-0.08246750446784312
0.0123737785982428
0.03103739036914441
0.03905633547801012
-0.1003027139961285
-0.001660020619625752
0.09272896972301715
0.009233764878957553
-0.1335760943209605
0.1748401602140522
-0.06818638590326287
0.4670825383682027
-0.1682684936073326
-0.3951098222175868
0.09629577742001419
3.187620063140195
24.60011688465038
0.08644193060616473
-0.04612781280986795
-0.2379306286306764
0.1976165108033591
0.005332418554215173
0.3912510202080004
0.06738403481205385
-0.4639674736065832
-0.4692932990247445
0.06224270372238638
0.04943582615336115
0.3576147691089661
-0.5204418776980193
0.0500942974710878
0.2576174435445648
-0.6108860070741603
-0.04648932431662018
0.7038074053828077
-0.04643207411553438
-0.01249879389560437
-0.2290823372249016
0.7330120621186248
-0.4914309310663887
-1.61976041500373
0.09996935535044468
1.519791059650327
18.59381350031692
-7.383516955149655
1.830596771919695
0.1568050092255258
-0.2729678936412364
0.04900396236182258
0.06715892201189058
8.992945348898857
-32.49379809676577
32.22504288161053
0.03421683897596435
0.06288904046177658
-0.05511982697295646
-0.02404921840682336
0.1441719274776703
-0.003187813777926862
-0.1169348953157978
0.06403593651151186
0.03726787676876648
0.04390048782196312
-0.1452043011204443
0.03326089048643689
0.2652079826577163
-0.07702929642441482
-0.2214395767462995
0.4137972704233887
-0.2867959608089459
-0.5102252111275891
0.3832239014728142
0.07724509534427963
-0.03019627024179269
-0.07788859240737007
0.03083976729028699
0.570859725565343
-1.062847751626594
0.1519602554707979
0.3400277705014268
-0.1035067400472116
0.06227968799062223
-0.03195744099717757
-0.06421137636239531
0.05893129456216711
-0.1158024037556961
0.1210824855424058
24.1611676748874
-12.95444391993235
-20.68435745611451
9.477633701181565
0.1826490381654788
-0.1811298894722521
-0.001519148710805759
-0.321127815709921
-0.03521511876019792
0.4586289522084059
-0.102286017759066
-11.60121910169118
14.83103481364033
-2.151045424235793
-1.078770287833813
-0.01557555292776192
0.1154404420815291
0.01559898567435196
-0.1154638748450125
0.05857810566583593
-0.182523434200005
0.09887797906512584
0.02506734944539262
-1.286827926454752
0.9515967892918954
0.4540309746835893
-0.1187998375538415
-0.0193928556229802
-0.190345874479849
0.1916232732301116
0.01811545685130481
-0.8452177369171379
-0.6280252528908377
0.862955919734482
-0.9914865293645079
0.2029450387526609
2.563847750101684
-1.775306259471394
7.178600762737522
-17.39818742264623
12.16831950580712
-1.948732845623344
-0.107214788118423
-0.537368977408563
0.7485375201461089
-0.1039537546150889
1.575870324598796
18.28785672458996
-23.45722105636113
-0.04104527294559768
0.08346238330109282
-0.03160430675645814
-0.01081280361582675
-0.5046973342074969
0.3088231708797848
0.2190914196141402
-0.02321725632118659
0.4958402935588832
-2.149449991419885
0.6788210259930039
0.1627789400687955
0.05723985446219139
-0.14513602934117
-0.07488276522063166
0.4924167735679411
-0.04303101579129166
-0.4840375307999594
0.03465177302826515
-0.09973786391986271
-0.4143681144924504
0.3330773750251035
0.1810286033550129
-1.664963170170852
1.494932565478866
0.1700306046679153
0.1219682461313372
-0.1185685837085586
0.02240251288074562
-0.02580217533181138
-0.001556421595170641
0.09165690277985755
-0.07762935106196699
-0.01247113014046627
-0.007192412116378328
0.02353250695359836
0.1239735028377844
-0.140313597695411
-0.01575335189851372
-0.06953948193286884
-0.03941667875906399
0.005752295571279737
-0.2565077047070146
0.01447766198580564
0.2362777471313656
-0.1462819626904465
0.07826984740598887
0.1094401407449345
-0.04142802548281554
-0.1397387863045399
0.07159526996431863
0.146127950140686
-0.07798443384601768
-0.5993121798291541
0.718151162757754
-0.0474510871515484
-0.07138789590887201
-0.001112904449859578
-0.5131407688215109
0.1006229916717251
0.413630681590024
0.006195952273588788
0.006593188579426747
0.1491730744589424
-0.161962215323231
-0.3256294624013373
-0.2007848735433737
0.4318584236018452
0.09455591229391916
-0.003917598961655469
0.1775488342780526
-0.1567662467657155
-0.01686498858458448
0.007829763247535565
-0.1416994542101114
-0.02453370039120804
0.1584033913298582
0.7365063957228009
3.849319090945535
-3.727549269453435
-0.8582762175571234
-3.913160089837096
-41.13020666542298
36.40487589312687
8.638490862146318
0.05198571919568867
-0.1575199269358326
0.08531077141944937
0.02022343630102222
22.45987860763982
0.2144709964252762
-23.75006296445259
1.075713360423547
0.1492301075264245
-0.2006604320987902
0.04376539451631415
0.007664930022284628
8.166039764296004
-9.819606455690286
1.929177608428781
-2.70489460174462
0.8946302130891619
1.810264388630608
-0.1098843936263293
-0.05066411627970645
0.03228927486219602
0.1282592350135588
-0.04360593756520195
0.03352711917195274
0.01007881837646311
0.1264536345670073
-0.06852384645653195
-0.23696260804509
0.1790328199033989
-0.002879151452081066
-0.001920715638302591
-0.05731789348024718
0.06211776055758592
-0.01425505519321255
0.09488751389250014
0.007195536151336918
-0.08782799487401605
-0.06961765908556011
0.006302215608352808
0.1698593207975864
-0.106543877349614
0.03090639794343198
-0.07188879741358396
0.03424458493330965
0.006737814514608603
-0.06232617057283203
-0.004611778140684412
0.001653748351924714
0.06528420034246585
-0.5206013710672558
0.1325545353668345
0.3880468356829566
0.1103821799984485
0.08790998046346649
-0.1666026189259487
-0.03168954155721396
12.53492222023351
0.7280789679677304
-12.70586332035254
-0.5571378677531637
0.1745582888751821
-0.1235715645972942
-2.246171134084505
2.195184409738172
0.3161711658300599
-0.3592421728823523
0.5146159295757
-0.4715449225609598
0.6489388445736273
-0.4441777627023298
0.06179821754809096
-0.2665592994534672
0.2793197064264503
2.297511612125572
-3.746074408628424
1.169243089948769
13.00170032478762
-13.17097890969236
0.1692785849269332
-13.64931928876669
-10.36158134423622
10.18344290677296
-0.2215958068156872
-0.2074063705719473
0.3771224484157543
0.05187972892496039
0.383852208371075
0.1843932823126065
-0.568245490764257
13.69377330628355
-19.38655179537701
-0.1834569748328692
-0.01969621659517794
-0.198418221215097
0.4015714126078797
3.243137992034758
-1.300044602724696
1.898559538951136
-3.8416529281204
0.3718269625489598
-0.9956205523944777
0.4957157670036671
0.1280778227803201
-0.02161585030080964
-0.005831832831771594
-0.05774600288036504
0.08519368598886592
0.3726903160299074
-0.4921565041346815
-0.07052504671786258
0.1899912348061028
-0.2624349951004068
-0.08945036696471248
0.2477795644350277
0.1041057975960975
1.304338918156482
-0.5259945040419248
0.6611643817259447
0.1358001790453983
0.07460564826358253
-0.1002293735624534
-0.1101764537727346
0.2282426735275447
0.3179050393296618
0.01408858568359228
-0.560236298561032
-0.245365746034139
0.2203803880695172
-0.005974550375099381
0.03095990829123895
-9.593307238327487
-0.5217463421681309
-2.760735461207257
12.87578904167435
27.9395525968777
-0.7265844090893316
-3.604498997983196
-23.60846918982525
0.0005771567238644782
0.1398652529596207
-0.06405803510620743
-0.07638437461723818
8.303147554705976
-2.365527282475233
-1.35850997559389
0.7041179538603045
-0.4170852875915488
0.2507176491725854
-0.5377503155135616
-1.221340310955152
-0.2308075341111315
0.07582935698539861
-0.3398340376952802
0.4948122147737796
-0.09659184440444349
0.02644743968719711
0.07014440471335119
0.296800121125851
0.09255455330092148
-0.3836023788763389
-32.05332433675454
6.992232396631614
-3.34447400733195
28.4055659474736
4.338774699053245
-0.6560096636169473
-1.80540502537064
-1.877360010043883
0.0250737284040251
0.006192973599892763
-0.03126670201726315
-0.1878807206509785
-0.004432304007812937
0.6157971948539054
23.46286195638559
0.04640882335403101
-0.07829857851435615
-23.43097220107888