/*--------------------------------*- C++ -*----------------------------------*\
| =========                 |                                                 |
| \\      /  F ield         | OpenFOAM: The Open Source CFD Toolbox           |
|  \\    /   O peration     | Version:  v1906                                 |
|   \\  /    A nd           | Web:      www.OpenFOAM.com                      |
|    \\/     M anipulation  |                                                 |
\*---------------------------------------------------------------------------*/
FoamFile
{
    version     2.0;
    format      ascii;
    class       volVectorField;
    location    "1.4";
    object      U;
}
// * * * * * * * * * * * * * * * * * * * * * * * * * * * * * * * * * * * * * //

dimensions      [0 1 -1 0 0 0 0];


internalField   nonuniform List<vector> 
19631
(
(5.041063812771923 0.04615625439122373 0.04272502533298829)
(4.994726847377048 0.349494335792278 -0.361701700374544)
(4.99600878002439 0.04124860659898587 -0.06362736453815973)
(4.249728127398198 -0.3052112728733488 0.2412783279501974)
(5.020398221880587 0.0786172813853987 -0.126049860249626)
(5.073293518794578 -0.1535197556324816 0.08459466123307537)
(4.991427653930934 0.003546748273922216 -0.007668142802372021)
(1.897284247237358 -0.06800456080376628 0.05670556118231771)
(3.930705812410461 0.04796158964225775 -0.1324604411564732)
(5.008919307191269 0.0226140135010197 0.002785346325996624)
(4.983872779176709 0.09820631521756761 -0.07153801432744866)
(5.072555574188859 -0.005433593876668123 -0.02443082391369156)
(4.537684512053931 0.3698669877339097 0.4105329210349319)
(5.067833399227045 -0.002712400235033137 0.03387408264878834)
(5.001936872390731 7.964845999284858e-06 0.003132510190416741)
(4.853742960399133 0.03969568652464992 -0.1818009960046604)
(5.084906703549984 0.1238511154518278 0.02069058912162296)
(4.614894958942141 0.4651235445324425 -0.157992689132117)
(4.41374385870364 0.386837606614589 0.02908577187923261)
(4.173073147151793 -0.0930549571771508 -0.1969531362812417)
(5.022268718401611 0.06668927233427036 0.036257126542651)
(5.086142264771584 0.009981579787956159 0.05955372495303423)
(4.327545063346225 0.1590299432453669 0.5618590045963645)
(4.970738848673375 -0.002640981189146928 0.00401289906433156)
(5.085786287361613 0.02787528653447175 0.1164681504815872)
(4.986333621904365 0.076800109185549 -0.02021487005089011)
(5.051843187939692 0.009328412850895976 0.07556690814212783)
(3.680335964424992 0.03377958379554685 0.2325015762023535)
(5.015314437057599 0.1619271776853314 0.201300188612141)
(5.001532314688694 -1.636578847482901e-05 -0.005517217993501615)
(5.089898741907203 -0.01039106053202296 0.06329625391239209)
(5.084925649984639 -0.03264963616005649 0.007936425127292568)
(4.991430386930493 -0.07051503304740832 0.03661007580747328)
(5.015081403736311 0.05586419375525743 0.03542904781859302)
(4.300374659893402 0.08551024136180695 -0.009815382525022766)
(4.44251690077626 0.3165353770307097 -0.4890093092025181)
(4.923375590278249 -0.02133780991934023 0.006318251055750514)
(4.998749589820503 -1.510697071750815 0.4875329414944448)
(5.106174013232887 -0.07880026901323861 0.001391269258788341)
(5.149464655800339 -0.4000991793861529 -0.1294734745866876)
(4.328281097612444 0.3417032407983578 0.1278543238808522)
(5.009439746146279 0.04649826132414257 0.05811733050870683)
(4.998591060970817 0.001432922680535286 0.004382384558683125)
(4.996026907967192 0.001631954198202862 0.01652624124373711)
(4.408476704714185 -0.4542018054121243 0.07794249466862288)
(4.577306505380376 0.09934005830291509 -0.06561231976732786)
(4.998563289987744 0.006308019558955097 0.001009287240133312)
(5.001573408918838 -0.0214605697466876 0.03652471005575086)
(5.039903627914155 0.05240984204819103 0.02755545939297434)
(5.104317795247582 0.02382042276469189 0.05134225019753553)
(4.721548048433008 0.157884054378987 -0.1756922533274556)
(4.791333436245092 0.002973660023614208 -0.08254904261883957)
(5.103213495611167 0.009775437760464425 0.05668163123272926)
(4.161807354859889 -0.1463055576061316 0.3131413223598229)
(4.975461720403484 0.1476270559933925 0.1290780326887319)
(4.824109449376285 -0.4085669134369834 -0.3383855936581474)
(5.111707885541469 0.0009344020404631078 0.05180859641322729)
(5.088217122804889 -0.05607668154087937 0.001145697855890622)
(3.626919803140495 0.07366642733431929 0.03880929882697205)
(4.999515601085149 0.009670350309260341 0.005302118097113093)
(5.013344235115492 -0.002991556003245789 -0.002768536848476703)
(2.321148120450453 -0.1418184312025536 -0.08177646652026806)
(3.361048368105402 0.1984254004037062 -0.07955664457610033)
(5.041928347246073 0.05858752033098587 -0.05023559602037964)
(5.06528114885169 -0.08001491729662936 0.05385732195445118)
(3.329665509862198 -0.2237082078462994 -0.2372126323253598)
(5.081493085482489 -0.008490097988220579 0.04522266914092025)
(5.096721630915975 0.0319026210865847 0.06612926950724993)
(4.928233711997574 0.08239158131337386 0.03670671479603613)
(5.015241978308971 0.00226860241661109 -0.005179854163553714)
(5.012255207092385 0.02137303751306993 0.005416248140490085)
(3.977240892957934 0.7475027726743553 -0.680995434723956)
(4.988896944760112 0.0265302803487118 -0.06492457863695864)
(5.07338144624297 0.002523486921791703 0.05305675249036339)
(5.081510469156296 0.0133591971210968 0.1349880016989139)
(4.953512709850622 0.09991969408946964 -0.1865974966782632)
(4.946299254635994 0.1088672375050955 -0.04458220255054147)
(5.115463391046789 0.01222575501417602 0.1267072866713272)
(4.733083318877435 -0.08418571184073774 0.06398353871196502)
(1.247466934333845 -0.1538852355913864 0.1519606520689788)
(4.99493513125324 0.01758811123835136 0.0065195813678897)
(4.978508318051498 -0.08234103101313775 0.1482910382830943)
(4.924820891024943 0.2731304514726784 0.07232905167370404)
(5.401326236051373 -0.0593726913403198 -0.3445722595995062)
(1.936897072746338 -0.02726074174163145 -0.1302497781238998)
(2.386619278997529 0.09331681048527135 -0.181321850849248)
(5.096296985234686 -0.01659766396494867 0.03842666060371108)
(4.848653592724062 0.1101113230064925 -0.1494652773583623)
(1.842311043836843 -0.0167568163566018 0.1239547666328496)
(5.024092250105174 0.05509680541880641 0.01901636166354491)
(2.584573237841092 0.204337057182755 0.1526441777255855)
(5.089514771030699 -0.003918550767323067 0.05393348841514315)
(5.088140201154062 -0.0037034447257271 0.06110113933084)
(5.086921255695671 -0.008992568494472509 0.03585352491140304)
(4.9828684638362 -0.0108070981589114 0.08919102720428666)
(3.182172477291883 -0.01632693032173073 0.1783018714468311)
(4.956408786717679 -0.3869694491637093 -0.4757570828887136)
(2.539133739730052 0.215063165995021 -0.4932484969411182)
(5.078099064918343 -0.02301934943832022 0.06007697140926947)
(5.071045624678089 0.01405350513802456 0.04011805043756207)
(5.074253391280403 0.03943274413877184 0.1317574902122367)
(3.111105205955361 0.3792802916796448 0.1044942070498949)
(3.491993691982098 -0.06980721769667909 0.009029993912306565)
(5.034565789313488 0.04989926421726493 0.02800973295585058)
(3.833212597401562 0.1278935522067662 -0.08041007176643056)
(4.465563931017483 0.1581611472989466 -0.1303868018954863)
(3.674921416011733 0.13270991834137 0.2423598205019873)
(5.077682955576027 -0.01094632261866088 0.08941144768316618)
(5.094654562142582 -0.03615732924381428 0.05132211423421597)
(3.564556312604854 -0.08895590732663407 -0.1557208661858963)
(5.004656038493966 0.2734356677543059 -0.07232775282207986)
(5.000438044961365 0.2039216331229187 -0.05079560478008566)
(5.128792996823039 0.04291502533807053 -0.07513237128959997)
(4.829547119507707 0.03712611123224048 -0.07455906719978886)
(5.068106335024718 0.01555408142962023 -0.03670403463267631)
(4.974267066883045 -0.0645727443153144 0.05817466714828942)
(2.952316256922495 0.5902141920327608 -0.1382390670998973)
(5.085612534128999 -0.01115848959393427 0.02333629209645597)
(4.810349122151353 -0.2016796190373617 -0.07438147870746642)
(5.074184425637461 0.003548848562455907 0.04101737775696713)
(5.079981816195849 -0.004009498642728061 0.03377811779902493)
(5.083979527264107 0.009603744707591441 0.01417413005625726)
(5.090155271955433 -0.003404480059872753 0.01618513921645903)
(3.737889787936877 -0.2724555060865065 -0.04340494724770626)
(5.064778539788102 -0.007838578471669173 0.06259518169939704)
(5.072209543251596 0.01087513379675984 0.03590996768674214)
(4.943199458117467 0.1919379584073967 -0.08282850789869843)
(5.042680453897962 0.007412102475399536 0.0334678068263275)
(5.024274687126839 0.005637759186688174 0.009487308954177893)
(4.733929263930436 -0.01405976604239663 0.2080607788166322)
(5.042842609161355 0.00228457673290817 0.01118483485670766)
(5.020720325428827 0.05505349825007602 -0.03448847728725434)
(5.097023795870236 0.06414785584341465 -0.1182381136477757)
(2.555760954348198 -0.003900909151956691 -0.3543962439466329)
(5.04896553470623 0.1259200201973925 -0.05436776369434997)
(3.657590425392588 -0.5724524395602614 0.8529222191334723)
(3.729839593924034 -0.21933250204229 -0.02331186871972669)
(5.05897443845133 -0.01724234424328155 0.07732786399075106)
(2.390512937136231 0.4071540166867095 0.3661174364454601)
(5.042883810720724 -0.01396597505136156 0.06579216965666411)
(2.62079683493325 0.00411397752456031 -0.0465154395907798)
(4.433077183606978 0.05682089873570628 0.2658746743770606)
(4.356888459017295 -0.01406901548125588 -0.07142959043597534)
(4.98132675582976 0.007049609993370159 -0.002139061103505655)
(5.114552686315333 -0.01185926344520209 -0.0541365485216411)
(4.228748551543503 0.8130469317419654 -0.4383948905754095)
(5.044629158144513 0.001543590601769177 0.05156785991408241)
(5.025953239107655 0.02124747157351372 0.003358175730996199)
(4.989171473479416 0.01395063158796815 -0.004698528589544448)
(3.044858307447807 -0.03733181511980461 0.08902668397820594)
(5.083752047321407 -0.01211180890205718 0.06293634718488768)
(5.073877943544774 -0.0007157627020533755 0.07231861818037102)
(5.079457051399651 -0.007026196551813857 0.07089949559594996)
(5.069845290972173 0.002158279028864739 0.04292681764077104)
(5.078450695387885 -0.00352581503054391 0.06903140602937563)
(5.053944089425776 0.07624771744368451 0.0739929632592841)
(4.988942687032486 0.02084144155586209 -0.0001991567970578311)
(5.004338926551024 0.1786727604759712 0.3160030872754814)
(2.572294585614217 0.002526925909409171 0.07822092818687106)
(4.669835703503114 -0.02918292858550988 -0.002038535640525065)
(5.058496249626614 -0.01120533727013264 0.04915785349781181)
(5.002035407485955 -0.0001328919151925837 0.005724536250847832)
(5.07160850214289 0.09281210645035251 -0.001596735023415292)
(5.08391339272727 -0.001333713090333403 0.03085701281217974)
(4.980163238969747 0.01011017505385421 0.007409322327567782)
(4.976825236562883 0.08723768312054588 -0.04225399468450594)
(5.096314317854181 -0.02526949295908103 0.02919588238842483)
(5.040213848572397 0.02151809161883382 0.003767321549475252)
(3.573784941145992 -0.07606218190159891 -0.0515277025861066)
(5.038176096276945 0.07887209519233011 0.05815620466764165)
(5.106794858917321 -0.04012875356459564 0.03444929942363834)
(5.077930124388659 -0.02250657999235183 0.03990858791397453)
(5.106468303496884 -0.005033320696877961 0.05590772965833018)
(5.067497479871514 0.0001223050353363208 0.03087107703646182)
(5.080340254645133 -0.007128652811027876 0.08262172171996034)
(5.105235972786342 0.02307656369961175 0.05049578707202963)
(4.996896385338813 0.01375823846960074 -0.00823587204889756)
(5.081556462559615 -0.008133163571815717 0.07226008592651366)
(5.046987921422914 -0.04194969117154117 0.09693472214224767)
(4.411660402653784 0.4224726075807427 0.1694125072909899)
(5.066356791564543 -0.04614050026155531 0.01082667848277821)
(4.994780641826915 0.002274996225310376 0.002744638730566945)
(4.987502096814285 -0.01130402865163726 0.01146743361338334)
(4.647418512117989 0.1097569710803851 0.1256809574852736)
(5.004056610075393 -0.01365136443908111 -0.003632712552631235)
(4.968416188854495 -0.01144951638821269 0.01470553429599217)
(5.000460304020219 -0.02001600098189328 0.0256388172302221)
(5.078022013283757 0.003969307889196389 0.02035187881844982)
(5.080789089007207 -0.005110998551798278 0.06897331343312332)
(5.062653929670433 0.00986425488611303 0.05307064734614013)
(5.07987265862439 0.007582019277981227 0.02057449730512254)
(5.008795683969995 -0.0189289187093933 0.01885284468794892)
(4.977108018051924 0.02850133461943809 0.1370450211046175)
(4.992442548248252 0.007574813580321082 0.005015276816624034)
(5.096850371311091 -0.006605698530103977 0.02930322072244879)
(4.703810879834201 -0.0001760580413820026 -0.307551457277059)
(5.104344050197512 -0.007244703488833949 0.02943549806935845)
(5.002299994066607 0.0432300416845813 0.01143464990679467)
(4.976852723476214 0.03110683779616919 -0.05174589903879163)
(4.964461085408101 0.06771488292548607 -0.07822071311366566)
(5.074957402243646 -0.01071148614878433 0.02083252552859426)
(5.075239289294756 -0.00340147567660131 0.02112396995328243)
(4.999525495697883 0.02253569620799597 -0.02882567753687087)
(5.091153878450149 -0.001935118737280135 0.008350300870820119)
(5.00525034526992 0.002590091256440836 0.007181732657229202)
(5.088353357430635 0.005498756560006383 0.02814714984302702)
(5.042005505380657 0.004471339355329384 0.02520868365236868)
(5.07543387389791 0.006097962320435413 0.007880223840787501)
(4.756836820209555 0.1722313547651124 -0.05600172949625971)
(5.044390141589115 0.006628590535835635 0.05185055317926228)
(4.985832203669557 -0.02469730840593589 -0.03479975659878751)
(5.052174325325156 -0.01518484401544103 0.07470977145767439)
(4.129503456848204 0.1646467323990265 -1.1523235553352)
(5.010345988546953 0.02717018295613884 0.01339367996287636)
(5.044301640592888 -0.01526457815489298 0.1099402411004411)
(4.698770280372736 0.09498766102421929 0.7096377557343629)
(5.019701211875152 0.006977023781765313 0.01938085174181)
(5.012648031287232 0.007830648658854206 0.0143345278888557)
(5.018802420929219 0.005930044195582784 0.003136152924731656)
(3.733649715743113 -0.1093899312814851 -0.2873858988224114)
(5.002585567407668 -0.02309786530586731 -0.01700538945858147)
(4.968013193796658 -0.04761996166014766 -0.03627229683353483)
(4.956750902789862 0.05903917987021854 -0.01665084719959362)
(4.99878509741994 0.001666661878459231 -0.001639327497642477)
(5.025830055491971 -0.008264489031704686 0.001260196126622865)
(4.982936498935832 0.1281028241875571 0.03239236048420763)
(5.024382576851921 0.0567668162247886 -0.09874172376798611)
(5.036464925299153 0.02895825385344302 -0.07488778417313094)
(0.6998667247161215 -0.002629434615595262 -0.3430048106679986)
(3.606573155331503 -0.0605397204628694 -0.2168760054851977)
(4.976718760281543 -0.01018967185081132 -0.02630094556910494)
(0.03307320256730879 -0.006822320805092007 -0.01717313582705643)
(0.007133861904658342 -0.01027780771215079 0.003288600683908497)
(3.225081252483893 0.01820312746585723 -0.02618377496470584)
(3.793310555293416 -0.1541314720031549 0.01098336230683872)
(4.66496945941536 -0.09125646967273021 -0.09413922297051679)
(4.151317809670915 0.06850763006071696 0.7088313187826791)
(4.950824729449276 -0.04904992406854883 0.03589752792599049)
(5.017940292009762 0.002632618842866646 0.08240855324908902)
(3.176727085854896 0.1555334036913356 0.1594829357977559)
(4.94599707428794 0.005150798879390405 0.005914177264082481)
(5.14948094323073 -0.05136178577480405 -0.0003925168893807588)
(4.991096975745136 0.005429912768698082 0.01690415664041714)
(5.043029852018589 0.03239100673760992 -0.01066334419895196)
(4.983379068009964 0.009123041671252939 -0.01554492472319721)
(4.964140676599865 -0.1456988139291641 -0.2366573704287336)
(4.943777671474844 0.03195868610132684 0.0569630217373979)
(4.982298820475747 -0.00888318877611699 0.0004968217732227859)
(5.012958274693022 0.1414162328660827 0.07712768518659917)
(5.032347181830036 0.02562900899392319 0.04118162586559629)
(4.698962296295239 -0.04629805455170254 0.01235819397739184)
(4.726759322598295 0.1142646174374351 0.05180631050698012)
(4.988926246197422 0.06500436489852549 -0.08082995191275755)
(5.107415725688517 0.1092765363546266 -0.05113394385631626)
(4.935972036109716 0.01221010831682707 -0.01632692732521776)
(4.818542088479553 0.5260216886436424 0.2683232437600324)
(5.100383327013345 0.05270100218151447 0.02167222576159711)
(3.380824795695353 -0.02399598709119044 -0.2023376127438264)
(1.997520863939623 0.1901001447554143 -0.1529236068819013)
(4.917996505854787 0.05999760032002059 0.06129721150635963)
(5.004443977787039 0.0441623685289032 -0.07679174159183752)
(5.052938064391518 -0.1263084209900003 0.01219034184830683)
(4.624597406082191 0.09045575329471327 0.123249728282666)
(4.942529274822697 0.1906093534411076 0.2168674188012102)
(5.055562537753454 0.1229588166636326 0.01506619498137214)
(5.003110345077306 0.02004571648144063 -0.06458266621543975)
(4.973656867748693 0.1236524765329808 0.10276033967511)
(5.091832345192859 0.03450450665039563 0.08528977878886371)
(1.774904443889147 -0.1883616378936836 -0.1640537392600512)
(3.639435851090356 -0.08997916521692248 -0.4005278008105858)
(2.43171457592983 -0.0818080186225012 -0.2075346163693435)
(4.988475139608153 0.09705127006817567 -0.09584323116342122)
(3.341696903671876 -0.1166432767872951 -0.06282099681994727)
(4.995354195363638 0.00150415942015464 -0.01062679377841969)
(2.548586223773626 -0.112047490786077 0.08255613700760672)
(2.209327643605291 -0.162990827053467 -0.2295890803670909)
(4.997052591215827 0.02373911041446893 -0.02687776531493279)
(4.411282676566458 0.04946584517350536 0.04549772189510135)
(2.951278704934525 -0.09663319069600476 -0.163855212769158)
(4.992126624880222 0.002908477663279964 -0.01097626437300175)
(5.014218080240668 -0.1611497144183347 0.0644261140146556)
(5.017888824769795 0.07469282979542285 -0.134657133973917)
(4.954727833972801 0.1542077953547656 -0.07806744690347234)
(2.758188550202573 0.2629200453688524 -0.0007073010407264812)
(3.277130651155354 0.305862596356201 -0.04670474582141423)
(0.9774472491749943 0.002177533128262652 0.2359740724648483)
(1.9184107749501 0.04404191471008954 0.2215655165072482)
(2.520619664440812 -0.103797733844307 0.4824338225141598)
(5.08437650197367 0.07054949780602879 -0.02511880822977031)
(3.661561906505364 0.08145495899653497 -0.09205796685713344)
(5.115452886761199 0.01781564025344344 -0.09823596226817186)
(4.976097586932671 0.04261020920163641 -0.01573677931817156)
(5.004809253139925 0.1020380353511197 -0.07790065945739687)
(3.454898372090267 -0.06631778776722135 0.02520899360655965)
(5.07174197750324 0.09266738733200679 0.2164180981800377)
(4.998252408797947 0.005560401885685166 0.008301850779976387)
(5.013413137463156 0.08677775400863338 0.09794780694492336)
(3.503556660092904 0.2622751208044685 -0.513918516284953)
(4.974919470241298 0.07311492910850372 -0.05113705251440739)
(4.769078729191254 0.1910650995261256 -0.1094128485672925)
(4.685999399691507 0.08693359047844194 -0.1412324074728175)
(4.336424045846706 -0.1315276752785981 -0.1225848310998803)
(4.908589068363122 -0.02630879773560455 0.004301922156642605)
(4.743656587807012 0.02133034544525124 -0.0618485706582169)
(4.755305158042049 -0.4034506834464189 0.8747868462565337)
(5.046123217226773 0.03032311486666301 0.03787196267596738)
(3.048672912874547 -0.04485606128959716 0.03609529937628192)
(4.98516779680427 -0.08798350663573148 -0.06463668848304162)
(5.04225433825636 0.027681530812535 0.02956475061626208)
(4.920354069682035 0.2463204026258563 -0.04640432242262112)
(5.31332726935681 -0.04283768809116348 -0.03670349424861586)
(4.998773598862167 0.004872975550640942 0.00368793696620853)
(4.989982339332855 0.004319632055099815 0.007208662940413636)
(4.975518189341315 0.02916332143040527 -0.0547018228252811)
(5.002438919355107 0.08003394381258802 -0.202033254544949)
(3.274897564246266 -0.1532840875326579 0.1127206122166389)
(4.059528439075774 -0.1847040000974877 -0.06015349027032078)
(5.062318001376758 -0.07317140043875986 0.103324014517162)
(5.000595631157867 -0.001223200323991736 0.06350101200283434)
(4.989545861773087 -0.003361507063358217 0.02018976985432131)
(5.109675344158578 -0.0414253147134354 0.02179567900479432)
(4.991262349790927 -0.1318051536825476 0.09120648066101378)
(4.088041302771451 -0.3804447728985866 -0.08295660534316798)
(5.108852700212272 -0.04325143556159589 0.01010723817812361)
(4.986852449295977 0.07226260403549507 -0.003160882822631229)
(5.01021394206986 0.201044059937477 0.1397832537761704)
(4.659601940688344 -0.04869670331839925 0.3253609960757349)
(4.976298065833895 -0.003012525494542386 0.003894203431740295)
(5.009138573602203 0.06730111891408676 -0.06274672667828929)
(5.000888334479285 0.009898546510340233 -0.01757434363075047)
(2.395355242194848 -0.3573112749510435 -0.1309956180328451)
(4.435090738383801 0.6642506049946586 0.4294603816649596)
(5.053778904799101 -0.03535559187772361 0.8570339154693408)
(5.086382866469333 0.005522994236061642 0.1357004559439318)
(4.901981414979641 0.01768843237992088 0.1002518484735547)
(3.380609564971382 -0.2301354559890385 -0.1469628215736386)
(4.16184948005835 -0.2190758825031367 -0.983269397717578)
(5.112577308237978 0.1344371854874107 0.1311113137128418)
(4.445339519224889 -0.05697193221475638 0.2074621146255682)
(4.965869934886265 0.003917405925042403 -0.004530055905556098)
(3.691788500317077 -0.09024778601067808 0.05665893837733436)
(5.094433809665045 -0.022575456980197 -0.01254010390622587)
(4.98845073770568 -0.006448220748549079 -0.004620789595936376)
(5.299714185058757 0.3400491991227516 -0.5046410585587199)
(4.462874755526268 -0.1470801059232891 0.4063975390000379)
(5.036644974050856 0.08646323430021222 0.1059436247446359)
(4.35932208502108 0.04797418895844176 0.1621883868947867)
(5.070493182876453 0.006977240804829897 0.02970307198244412)
(5.036023146779821 0.04309224831294189 -0.0528878403974687)
(5.03910060383166 -0.04381378163654612 0.0860484973711718)
(5.078791161346002 0.002825594589561192 -0.03575895657005478)
(4.998637842335062 0.001750998180276551 0.001695784038042114)
(3.727033004159627 -0.1432482152887058 -0.1535049295671125)
(4.911546155400242 0.1315899974236585 0.1105797875534158)
(5.032697153878295 -0.004171273356938869 -0.06081205747228569)
(3.373466062140758 -0.1825793028436677 0.0524298743823047)
(5.030418083562125 0.04276619325402559 0.05185172221494384)
(5.084411659958031 -0.06178557725823099 -0.07099106603048207)
(4.663386899547013 0.1959651145854433 0.3514403546700211)
(4.609261710920995 0.2216758228018863 -0.1989114272854823)
(3.910994110627286 -0.1437653785671371 -0.3949370601881497)
(4.922460303449545 0.02724526994280155 -0.3286502507070876)
(3.414314581657083 -0.1456880649270293 0.02721327160497852)
(4.323373913186432 0.3063154985711444 -0.3425763666564564)
(5.099474459378307 0.1192417995988241 0.04441621986744018)
(2.92898066396818 0.1484620877238784 -0.261405011251893)
(5.011191310145783 0.06718975610295745 0.02801096798033946)
(5.073248447801051 0.04724501566401199 0.1531287236088461)
(4.227154442601281 0.1026774326981004 -0.02144744324476494)
(4.961472426941489 0.1597195460158331 0.03856161913046539)
(5.082039788544153 0.264501240190423 -0.03912876923709042)
(5.087109675208993 0.1130611901884257 -0.03909317042051642)
(4.827044814186842 0.2612331313013845 -0.003813082845563487)
(5.001701171459612 0.07069221884775813 -0.1143763945197778)
(4.488938293416681 0.1633861945456867 -0.03420238437434332)
(5.050139198447169 0.1377423216420827 -0.166491714661253)
(5.038475447121325 0.1076628994555734 0.07836988817008922)
(5.019955996140522 -0.01784522962906976 -0.004389613287876649)
(4.875853760103311 -0.1691108748136881 0.02936477075925712)
(4.973308149427158 0.09244935916212951 0.2508045442211954)
(1.234374459126399 -0.4002772662402073 0.05081558121927762)
(5.087482599138847 0.04566469376153919 -0.07407713401867924)
(2.643461915380035 0.1228596848196492 -0.1950425910775814)
(5.079246544604121 0.2183877387576573 0.1019253866775707)
(5.014171451741362 0.03307207389366217 0.09882123097411098)
(3.229350421662307 -0.2624690058651063 0.2152927223223199)
(3.223810982328312 0.245018399462437 0.1927896174146051)
(3.584455873418498 0.2096919739188483 0.1659855454188436)
(4.530885467182864 0.06735838513634303 0.03890938752962327)
(5.001776698656104 0.01371887486175725 0.02994359302429535)
(5.001057432987849 0.0146556750301344 -0.03977698091485771)
(4.996430568835037 0.101693718515618 0.0929549460995911)
(5.034958219915673 0.03571390869601197 0.02174674566042525)
(5.049907627223318 0.06841475415572092 0.1806565882199742)
(4.93888223084692 0.03887967024178023 -0.01083908214911573)
(5.001372071571167 0.03535255011402793 -0.0145603292794898)
(5.015255834230311 0.09165246815727851 -0.05166517731465189)
(3.400809501203685 0.3407052546977571 -0.1988988337105033)
(5.000152354221592 -0.0238148228757701 -0.03246487953281063)
(4.967755906766802 -0.243033900312066 0.158315236130662)
(4.964226995299528 0.1938126250886584 -0.07087363695021788)
(5.010292681584714 0.110461222553913 -0.01720836341516154)
(4.277060946719287 0.1941649901927345 0.4807892987877727)
(5.073117338005467 0.02638931823224751 -0.1014170864925882)
(4.778570027619725 0.05014220145980658 -0.01803495020994734)
(5.045845471565005 0.03349390069599619 0.03001958896791355)
(5.098357538267985 0.2946937786480356 -0.1366215205345942)
(5.039305276224346 0.05459114850811068 0.05830582003844078)
(4.995881810741599 0.1121087772724612 -0.03291973152424874)
(5.022399149075772 -0.03393353274964127 0.0008674503683305883)
(4.986237804297024 0.001551970249098233 0.007207768457061513)
(4.879555125058359 0.3318099272744086 -0.03238572469990723)
(4.989251990747658 0.01290134903278681 0.002068516586790729)
(4.94376262044317 0.06722490028755704 -0.1062350095805946)
(5.006116679328703 0.001004118319628562 0.0005766545664203112)
(5.01155307826671 -0.02050398107431398 -0.1419701126810904)
(3.985550429655906 0.2934595371233363 0.1513707461896597)
(4.303665473707828 -0.1829999148212655 0.3266818506488673)
(5.013849061854154 0.002130247153150089 0.01216022417864683)
(5.073994316429471 -0.0008680958758198136 -0.04995784394829797)
(1.982071515968345 0.9721462583610808 2.10083567088648)
(5.054617092391127 0.04901538548258156 -0.02284026077678037)
(4.95324612584896 -0.01091960425961175 -0.0069301634393535)
(5.035110582653786 -0.07958014485624233 0.06751387442100107)
(4.95709695886139 0.02453994889699746 0.004606449104300656)
(5.000206425340849 0.0394799494518453 0.04206016251514692)
(1.578278144641873 0.08909626026045474 -0.2871167951289267)
(4.987509849482429 0.1301657496416826 -0.01830873030626431)
(4.68051787010343 -0.07646782333693825 0.03792915363835304)
(4.945601610649841 0.008934575302740905 0.00957792348688624)
(4.985456611836145 0.01557922131241437 -0.01164812535231299)
(2.62135863522899 0.03320364492592548 0.1873978935055063)
(2.676143662396339 -0.2298492793246694 0.1460299702298813)
(4.962455767439593 0.01633571718662771 0.00500911205768038)
(1.99239496612666 0.1160072202728802 0.1059850652947067)
(4.983088561326169 0.0191639319912584 0.0277304448049357)
(4.998890503050591 -0.1185930567291689 0.02124111190668789)
(4.956453385899086 0.1661383026298658 0.09306848691679032)
(5.00067340078887 0.001065055962266542 -0.0007689763425550785)
(2.310842746088221 0.07332860076853848 -0.07579987384856068)
(4.953422727734845 0.1720702417256965 0.1047135446313372)
(2.063031075011031 -0.1918441351515642 -0.1625295527963648)
(5.068606647268055 -0.04039767597595055 0.07459840766055033)
(4.936509662937707 -0.02438650115793054 0.1097911792537261)
(4.653746993368491 0.0363010125712289 0.0007699901103637749)
(4.922723566455867 0.1396912777672177 0.142290718765986)
(2.152737819559543 -0.124408851251602 0.07774920530265415)
(4.555686729247494 -0.009509337104810897 0.003925865952330197)
(4.875978484707914 -0.1983999507035253 -0.08245415919861206)
(4.977656494300767 0.006682042511476411 0.0932925776262347)
(5.013390380668847 0.1403930642590634 0.07972695627046139)
(4.874370536800932 0.07683841416467485 0.05377549525563954)
(5.01170347978271 0.03130507795271656 0.1568955224529959)
(4.160715920784326 0.01076853782087121 0.2197793457138758)
(4.998518280899551 0.3231529040277183 0.02954912839210321)
(5.000135950595859 -0.01102544887403049 -0.01778997200246406)
(4.946031419418944 -0.01904893029412901 0.01492409609196594)
(5.088431377753911 -0.1171770654442482 -0.02641589912513045)
(4.3982557746931 0.4544157935247993 0.07575539364702907)
(5.042692628639543 0.0742260259730862 -0.009468760393444983)
(5.049821185798355 0.05722739263426418 0.1151854302720899)
(2.116892191170559 -0.2763565451517048 0.06321589158462602)
(4.130005693494668 -0.1950899769564993 0.0483876417680229)
(5.01396741930469 0.01353559090360899 -0.00942975197465167)
(4.954050725293589 -0.07279333716745696 0.09860203321164838)
(5.06138907920108 0.09323085473124744 0.0158278263885303)
(5.049632571794704 -0.1232113413300133 -0.1039961158028233)
(4.713201279812924 0.190965770954896 0.2593497064044006)
(3.992028057265686 0.2677161154941622 -0.6767483179061828)
(4.484229734154793 0.2761772298711074 -0.1578189800190016)
(4.988533598987216 0.08823663857577735 -0.02899244441852416)
(5.162206872496916 0.2065827157399311 -0.3058330837804355)
(4.991837824410048 0.06144067383859044 0.03212733519223352)
(2.033230318178993 0.1015035914256872 -0.01284804543400055)
(2.430661128416526 -0.160351593383173 0.1406975721220593)
(4.444624293988517 0.01312637474061166 -0.1543536660160864)
(4.995594845450882 0.04075179698792647 0.04341285159078291)
(3.895835452197026 0.2435505703135682 -0.1862603175100394)
(5.000562497761882 -0.00102718148696603 -0.003651509094091219)
(4.513383143376443 -0.0001341522616092891 -0.3765637914339314)
(4.958597589790259 -0.07693576393777635 0.002684187899214617)
(4.882717486196208 0.1086790944705201 0.005204315728283723)
(5.055755101909514 -0.008101951918695498 0.05405912577422428)
(4.76404567773476 -0.07401772201989666 -0.2387075802496142)