/*--------------------------------*- C++ -*----------------------------------*\
| =========                 |                                                 |
| \\      /  F ield         | OpenFOAM: The Open Source CFD Toolbox           |
|  \\    /   O peration     | Version:  v1906                                 |
|   \\  /    A nd           | Web:      www.OpenFOAM.com                      |
|    \\/     M anipulation  |                                                 |
\*---------------------------------------------------------------------------*/
FoamFile
{
    version     2.0;
    format      ascii;
    class       volVectorField;
    location    "1.4";
    object      vorticity;
}
// * * * * * * * * * * * * * * * * * * * * * * * * * * * * * * * * * * * * * //

dimensions      [0 0 -1 0 0 0 0];


internalField   nonuniform List<vector> 
19631
(
(-0.002357302073604739 0.02053352192686143 0.01917555262626947)
(-0.1775452604213873 -0.4618914996151686 -7.7156434091245)
(0.007020312768194367 0.02636468057160996 -0.02799442662399387)
(0.05175920204525286 0.05136514541947257 -17.39825500329983)
(0.3999676681823602 0.1902984782675581 -0.5824327095192344)
(-0.1306680076235222 -0.6223768146976978 -0.03535667889663965)
(-0.07021389261217091 0.02086099357185837 0.02011342107028601)
(0.7260817526240841 8.940045784941866 -5.156054271577053)
(-2.728194723941832 2.182614600678504 -5.846482022477233)
(0.007542275292972427 0.007800315252587483 -0.0007337493936387879)
(0.9370443008944869 0.1515677064390113 0.6332433702135282)
(0.310085363337327 0.1307438214058215 0.1718532924592146)
(0.4741668596804555 1.082533772922562 -19.71203678802409)
(0.04565884705539097 -0.1789656792335275 -0.09873259753351751)
(-0.0020363585072066 0.00124714721266334 -0.01163552872836017)
(1.761947064341006 0.06098536742315064 -0.7127830849285208)
(-0.1932999597172414 -0.01590212807171459 -0.2965260096439895)
(-3.078983080627641 3.027383626085882 9.610499280730519)
(3.899466186511185 9.196447544367334 0.3618192007156525)
(1.792926551212098 3.679751358249202 -0.1386163077735323)
(-0.06182503503928504 -0.006382873735473887 -0.01252606981462186)
(0.06693885000847695 0.01358787873146994 -0.1668770727425431)
(0.1214496197255087 -0.05809982011746306 -1.401807152069244)
(-0.0001430945133532209 -0.01382368533769235 -0.01306366974311345)
(-0.05924079719572932 0.2732999193647508 -0.1110242988560495)
(-0.03414933243351956 -0.0153215281483607 -5.496689672620743)
(0.2711067498826821 0.1238984948560925 0.1007343852715406)
(1.468774682028777 7.998029284960761 -7.484755393256737)
(-0.7010483210244332 -0.8586970646969031 -0.5948733258227048)
(0.002945651892654363 -0.00143250821759015 -0.009848544336461294)
(0.2399381115647162 0.05558577032946387 -0.0007207176166850529)
(0.06695268272335392 -0.2928703099927724 0.1640945165820828)
(-0.5102400213612239 -7.204018921152255 0.6974085133747964)
(0.04175079928478823 0.1016533480236261 -0.09561495371153167)
(2.762446260949118 0.07263477878439417 -0.9073733960722405)
(0.1729434857648799 -2.039545605218306 2.1793985908432)
(-0.001791078707019046 0.01800914882582962 -0.1012255742691879)
(-0.06513346701889404 0.5941824955485741 0.9570793896872735)
(0.0987327265352537 0.5793632049133977 -0.07069426878119472)
(-0.809391615677524 0.0785298912703126 -0.1946637277555444)
(1.339125021061126 1.864436799892679 -6.315928852766614)
(0.01520304527257838 0.1036092645107327 0.00100416203310264)
(0.02595402603311804 0.01032206907946253 -0.001623863597468484)
(0.08392028370886793 0.02123172053649676 -0.03501029828627873)
(-1.605097735620724 -1.978631035287381 -5.080724073928183)
(0.710684709270563 -0.1670935807485985 0.258874609978287)
(0.02686543201212531 -0.01552029443237741 -0.0175137064102351)
(-0.241168137530118 -0.04331841107316233 0.3504818792050678)
(-0.01861627509261742 -0.02887946296709017 0.01424186013806412)
(-0.06627289707208847 -0.04714883824755115 0.04952973444107784)
(-0.2221243893732991 0.1858134769447314 -7.216289888900614)
(0.4672602221904415 0.7816065576471802 -1.189906611875956)
(-0.1417638888267097 0.02789652599904788 0.03232972595852021)
(3.005575652045262 3.141655253711174 -2.173813620260261)
(-0.09538901022290394 -0.3505128213022296 -0.946105929351257)
(-3.088518933182554 -0.0102000186876815 -0.8001718480939255)
(0.177988467832727 -0.0682046376661351 -0.1426238477677159)
(-0.1362043301121827 -0.1501219145514253 -0.3299226438990719)
(2.803916687222217 -12.05236715179397 -4.047576491022598)
(0.01481980541781694 -0.008883940589015541 -0.01186160877091037)
(-0.0303607403977857 -0.01134773956401093 0.02592667014623409)
(0.1715631893195393 -8.117225590193842 -2.476160673148575)
(-1.112051546098811 -7.682781430995714 -2.2029002094533)
(0.0818118948728887 0.05879654984974906 -0.004016105748259731)
(-0.06483570976004051 0.03677486583137745 -0.02241692181406163)
(-1.595494141628399 -12.63357876202134 -2.011094966744651)
(-0.05836904397700107 0.06976767606666079 -0.03663477647494813)
(0.08148639306370813 -0.1080404486706979 -0.212082926828358)
(0.5055470592825206 0.03749022672076349 -0.2334327811677167)
(-0.0173443343571229 -0.004294829950323445 -0.00654050384886897)
(0.003460936351188016 0.01461842491196018 0.001743745262601207)
(6.425839225674905 -12.87599559770252 -20.5722409075743)
(0.03572777372966967 -0.04408180594962967 0.009452230938837913)
(-0.003578730933285583 0.2155434427898831 -0.05958450028728657)
(-0.059187179684731 0.08435116426493539 0.06871336974426669)
(0.741079740268123 0.6007298723114602 0.03631757638169573)
(0.08516477928742687 -0.09363493729402575 0.02992352953211835)
(-0.6627528142828449 0.8750304456350119 -1.05332927347663)
(-0.3806858971887992 -0.150515240499638 -0.2957502498830558)
(5.009014414579712 -10.67591320641952 -61.28487981044907)
(0.1328770311308654 -0.001693963479388673 -0.07773132269609713)
(0.3884180758013459 0.005501949088734789 -0.08858483735619115)
(-0.2759032354993644 -0.07316381880298037 -0.1203222240925128)
(-2.086166748928604 -2.801334891235375 -0.255142843934153)
(3.274627478426357 9.619030962962839 6.849435243286619)
(2.314818125807835 -45.59995957130137 -0.9923818729117979)
(0.03864599938480873 -0.05090693260725036 0.08270158882063981)
(-0.01866402418574382 -0.9838745901197358 -2.123701476232136)
(4.167120534969884 10.41905432826062 20.74778275508265)
(-0.1440235948654234 -0.03040525718354449 -0.04559280594856147)
(-0.2163071202998231 -3.152604822211038 -0.2766060445143935)
(-0.03123365218226334 -0.1846855132736872 0.07659629732247117)
(-0.5224259348842266 -0.1544406038539729 0.08407871199065366)
(0.06623995407617031 -0.00668676390415238 -0.03892581400278364)
(1.788066916138555 0.8973150801705452 -0.4613205716910626)
(-5.079432333627273 17.0750748025083 0.9926556917970848)
(0.5231582217077478 -1.71343070186448 1.916004680611557)
(-2.245353431221186 -1.436763832306291 -22.88077928144486)
(0.1742655036845567 -0.06460188476830438 -0.1097384039999681)
(-0.03356823327151556 0.04361524878629587 -0.00609683748843777)
(-0.03619715114561194 -0.09270837436244628 0.06059474880828526)
(1.541542511558293 10.89173382137231 0.6225044779221591)
(-1.15870668326548 8.223969341040894 -4.5851027668563)
(0.03948506677691349 0.03582188043953428 -0.02600191518573179)
(1.971011647114377 -10.56067831019665 -0.6600760585886997)
(1.440100536185537 -6.592932707224713 -2.292363213205446)
(-4.66518544766972 6.200912093279685 4.028255392784123)
(0.1790263543901851 0.1959507841150686 0.07644770095826325)
(-0.06805107952548686 -0.08985710378092272 0.1365374848425792)
(0.4364849741910051 -8.190186082365841 -2.791435156946348)
(-0.8271999071175045 0.833330725638744 0.1946371070986281)
(0.1899920037163862 -3.239777312373711 1.683482815405068)
(-0.6195654176904384 -0.07523697012168346 0.09646366650426857)
(2.658693868745814 0.6798682671149395 -3.899933347990018)
(0.03001074631009737 -0.01695704982388641 -0.003229880662343341)
(0.292791906312781 3.47297863526676 -0.7881588036391427)
(4.275526632302291 3.213353473308977 2.739307892183972)
(-0.04321063463347415 0.2109927433236991 0.07443066913718235)
(1.338241348786701 2.022301395151393 0.3281176307116633)
(0.1047302939046638 0.203287994227065 -0.1006385088077336)
(-0.04031125297573653 0.03455317128623526 -0.01021932131690715)
(0.01508670369118767 -0.02312192596762638 0.0337425612697038)
(-0.06048606005764374 -0.01792951196695623 -0.05637799962510281)
(0.4390118020716333 -0.8059372019573312 -4.954298243902752)
(0.4281943589818297 0.07525445214490943 -0.237129451067436)
(-0.2583200636100708 0.00352398820134105 -0.05866145280333374)
(-0.172674359245128 -0.3609816773612604 -0.382757456028295)
(-0.184049096927808 -0.01758090942933634 0.007630801373237399)
(0.01110361540446478 0.007712237376385472 -0.005048452853624519)
(3.951139948349168 -0.5069329535785786 1.402091372049725)
(0.03679699670353084 0.01609667815321879 0.01926591256536881)
(0.005737090265978831 0.155248211579656 0.1036697647396168)
(0.2254242657371285 0.2432298536309398 -0.2076154205638153)
(-0.6185819566837091 -0.2133521052463265 -5.205878406833325)
(-0.04505661995205476 0.3343428938903483 0.1893585661604092)
(-3.93347684606511 11.38519721578402 -2.560948932370856)
(3.167479581116065 6.735151281908895 -4.005225526435925)
(-0.3738264888912237 -0.220886851150694 0.1463568271901049)
(-3.623708451052436 5.805374124997077 -25.50842926011397)
(0.5467135955529563 0.336245385730614 -0.1244906042632983)
(1.070024998620343 6.658458408307913 0.01115860756007492)
(1.92597378697726 1.681025813526056 -4.809103205110514)
(2.316411564959003 0.6161881562797346 -2.853331425589295)
(-0.005129555167517738 0.001440179192395176 0.01479736816519543)
(0.01014093579843335 0.1951833131892062 0.03880997642763127)
(-6.702736714603404 -0.4341727792166913 -3.835504067334099)
(0.04863282959673013 -0.01568302487781042 -0.003562363591344077)
(-0.003002305148185938 0.01345009917944027 -0.02005435329796816)
(0.009869940886026668 -0.01059611791353297 -0.01307745997713571)
(0.3028086342129087 8.877052107793538 -2.987654744031034)
(0.05908183423414776 0.09920990539260867 0.02688346116210101)
(0.09126173948591698 0.08484203631296201 0.134655869980626)
(-0.07611844570837201 0.001135940954328602 -0.04905128409897263)
(-0.02198265935397091 0.0191651433091179 -0.0464594179549257)
(0.04960581504083651 0.07286397063980009 0.02868300666234859)
(-0.2222543402237852 -0.08713052805150201 0.2480737586923332)
(-0.0009011896372613532 -0.0003723898755258115 -0.0002229894149978675)
(-0.7471129176854256 -0.4138082585423893 0.5997105587805309)
(-0.006968474016918191 34.28562082494203 4.938070142055921)
(0.1686511855127154 0.2591846800616315 -8.593009743452429)
(-0.1214018076207427 0.0398167018787956 0.1947405109631931)
(-0.03520910549023142 -0.0009918018921241493 0.02296646026687271)
(-0.03885150130736729 -0.05851928724653695 0.07348810173109944)
(-0.05051149986275486 -0.01968365457166631 -0.01977021507539704)
(-0.03201363564997189 0.00097362835996837 -5.477675656534966)
(0.002610359073843872 -0.01682721394302729 -4.940560457293335)
(-0.08476877151844045 -0.0522124719103849 -0.04765154961535674)
(-0.06055903208632 0.01883591367717126 -0.01838195300235754)
(-1.584346135289465 -6.557914968315842 5.43698885303186)
(0.003253283636509601 0.01183947642639836 0.02351422137535669)
(0.04384389160066329 -0.06978013365030261 0.119118624985077)
(0.1442086171639325 0.1202745633376183 0.01238102006185501)
(-0.08860140061057847 0.05367289337799952 0.03977819550975913)
(-0.04935440297896418 -0.1285712233273062 0.01164834668465522)
(-0.02952278884728163 0.01337521357109524 0.01806643682338128)
(-0.2520135420304953 -0.0129758891505818 -0.08950851861511361)
(0.004359114131219545 -0.019935278544847 -0.002135225862071891)
(-0.05807945015127114 0.07207325867697206 -0.1395981120977223)
(-0.1287527948917197 0.03790686143796457 0.2698110547237605)
(-7.056054061316772 -3.690614268612624 -1.494790257562834)
(-0.1000352297757637 -0.1284339194979746 -0.02370444885034028)
(-0.01224709891406197 -0.001657589778684103 0.009901138477142565)
(0.007609751445899788 0.001564463664527446 0.03167388771756283)
(0.0204056375197744 0.0272408948438424 -5.441781773142994)
(0.02126014327996387 -0.02685843970919485 0.07305572884952902)
(-0.004646947500372575 0.003063244287138529 -0.04988846027003761)
(0.02885775975744779 -0.173378455939651 -0.1744184532828695)
(-0.04631487473047748 -0.03785340258435195 -0.05987193567840735)
(-0.08469626950494372 0.02143189299021269 -0.02158660608489995)
(0.2479550897297721 -0.06154395478571351 0.008095416042307103)
(0.004442237540446908 0.009259478359877435 0.05400970745700229)
(0.01531097208128825 0.07853056679883966 0.03086514880625338)
(-0.8211005948247743 -0.08163858021281073 -0.1847934228618472)
(-0.0200337965249863 0.0009536477307797841 -0.01582358572713048)
(-0.1207707362104002 0.08823781892569156 -0.07584722324594143)
(-0.1590087837995575 -1.167195212437171 0.9401062101308258)
(0.2818827408165631 0.2221169594300297 -0.1071729075531785)
(0.04354328229671865 -0.01644114971137425 0.007819583792924719)
(0.0563432750580376 -0.03973730094435517 -0.02345666884976079)
(0.01790791979528574 0.03046862411301147 -0.01088273571336466)
(-0.006265945060308746 -0.02808154182374755 -0.003829286260267859)
(0.05876838424426217 -0.03297202418348104 -0.008095120904805984)
(-0.03507409625916841 -0.053943784546051 0.03251269731713161)
(0.0842869672164988 -0.08899358216276712 -0.05671899041590978)
(-0.007169268460898225 -0.01569873859878733 -0.0303849366064293)
(0.1034117809207203 -0.003001812424227715 0.0487094774676789)
(0.1070505039919276 -0.187397295378155 -0.1110004273286073)
(0.04057929808617652 -0.2218883895384771 0.003252814542480369)
(-0.04110995527371245 0.09613711320853469 -4.855401354687517)
(-0.02369051013926361 -0.0219311176240805 -0.1493788321396877)
(-0.01411267041168418 -0.0165624320307523 0.07223610059925463)
(0.06917538628836081 0.05203870462256736 -0.1635958099691241)
(-7.133514933318057 -3.081034784746957 -5.804745470285557)
(-0.02217516200243059 -0.01457789766848103 -0.01233211574964238)
(0.07598049097129035 -0.08930586373723064 0.07717707767808975)
(-2.810558945053793 5.338522900393768 -1.845631103520661)
(0.002389811684691729 -0.003616697897254832 0.005323193435152935)
(0.07658551321094566 0.01489329053794278 0.006643957639954295)
(0.01854321794199178 -0.03093065987016565 0.005152624063917987)
(2.917045438273068 3.755309094579089 -3.240743820512181)
(0.026465708720804 -0.09331593526686964 0.00954185562032194)
(0.04457243282696492 0.04829160597753755 0.006639816550990399)
(0.02501910005757359 -0.01119091892473666 0.05597289087419133)
(-0.0002011470401909019 0.002302791711900651 -0.00224272848644022)
(0.000721758781642547 -0.007098439921362836 -0.01476080449869465)
(-0.01417121959140498 0.0004418569543051358 0.03777856312105869)
(-0.1944088296411101 0.4999815935579457 0.006224340292326935)
(0.04542676924194571 0.008248758218510593 0.01786958366213305)
(3.250567897142535 8.042321360337329 9.871077065022918)
(-2.205629398339886 -4.877474666118752 6.018057185640133)
(-0.02460052545302839 -0.01411314735596011 0.009996001328451264)
(0.8056629699644597 -1.29560073386282 3.675352074826588)
(-0.904723099546849 0.4690911489233363 1.428002590316172)
(0.6476188604325456 11.17063842292663 -3.11285168713752)
(0.499186405379385 -1.301087957617894 -8.195325572505759)
(-1.235991432470186 -1.83560868126682 -4.509178646663202)
(4.53875614694321 6.7398864781859 -12.98248702683383)
(-1.285802029417264 -0.1326316094838021 -3.255298837297218)
(-0.4463295454138018 0.3217970202451496 -0.344888682073076)
(-2.127992315190878 -7.573830304967345 -0.6721586754283874)
(0.05129847161779759 0.01243030929773005 0.03446861844133723)
(-0.02444038336908678 -0.02466979414767866 -0.01027689898234008)
(-0.05089226219781011 -0.02677973727207332 -0.05310308818040424)
(0.09990772349697359 -0.01695517434562185 0.05540596826826577)
(0.02447659456032086 0.00131263973686171 0.02174695701650229)
(-0.3180296396726623 -0.4451798001972298 -4.940382630834706)
(0.005584183764679299 -0.04251993785477427 -4.839687241596414)
(0.04215141807108757 -0.01108877164577027 -0.0007966037543578643)
(0.989798765588214 0.7672188016038191 0.6207903759219014)
(-0.06615047606345231 -0.02200854431681627 -0.01954434350278792)
(-0.5322344426455169 -4.701029086193925 0.6503205404833636)
(0.2796346087702366 5.819479309806512 -0.909722368114338)
(0.02612949891012577 -0.1346148316812949 -0.06716038612588704)
(0.5729061229095647 -0.3732555536230587 0.3988988295392681)
(-0.01400383112435942 -0.0282562992114304 -7.877071804484753)
(2.035701851774557 -0.7377014463654412 1.100067521130125)
(0.9852766850278825 -1.677573567730428 -1.372390020387281)
(-1.022710473856379 -35.58349094785927 -0.2752605729873356)
(2.053730536551766 -32.28989371114646 -1.170719407324174)
(0.2518457187533921 -1.916808021518739 -1.780771629495127)
(-0.004286806878663823 -0.1197841804746399 -0.06277426909992764)
(0.1823740217684374 -0.07100008319417023 -0.2649654585315845)
(-0.9498926775630896 -0.8683813409147318 -0.7040596935115261)
(-0.2982034761852304 0.3749650173780513 -0.3096240225774379)
(0.004746189651979163 0.0957798247085993 -0.09591582368042613)
(-0.06611883929951434 -0.0542577366291208 0.01756338179791833)
(0.1173745948764824 -0.1260965613103323 0.01232967264593538)
(-0.05586795819488988 0.4326684081719495 -0.01855178338895221)
(0.7132386270552675 -26.73727684232112 0.4498501815004715)
(1.257674670683004 -1.85057402856756 -36.09951857663051)
(1.76775681351588 -7.0178268991822 -5.986839823416514)
(0.1760125136227808 0.09816273674143806 0.2104789407369107)
(-0.03908441545247698 -4.538817623261978 -4.279430034670387)
(0.0009187101458362681 -0.0139034595333285 -0.004309250813575393)
(11.56551851452768 6.57489913293573 -0.7900742625333699)
(-4.20439006515773 -38.90069862554552 0.5671716510466626)
(-0.03679181552984288 -0.04743710385690886 0.05456970636155532)
(-0.01239545436226314 0.06829240787925145 -7.3328194163678)
(5.339835322066652 11.36180737214504 0.102773813093207)
(-0.01039305425610487 0.0006843580200958203 -0.01131085726847584)
(-0.3234926550487064 -4.288767859323274 0.5344680166779863)
(-1.549431572662523 -0.9261282575672549 0.173263146885847)
(0.1481530076347174 0.5023411096856328 -0.3594264845310859)
(3.652904393963721 3.159711175305952 -47.10163338412618)
(1.270588901869253 -7.750201545333418 -1.345058490958647)
(-2.606385890383682 -15.72807076540123 -1.465576739716211)
(5.039594544334503 -10.51709881890281 -39.9102614772176)
(5.417999979931914 38.48926073739818 -4.641934662718952)
(0.05378964917678684 -0.1114337735440938 0.05411626637499546)
(1.489077048738269 7.203092768530194 -1.045241325323703)
(-0.6177113618964624 -0.4654426144379418 -0.3310808987498907)
(0.006188691671808272 -0.003183327031666741 -0.01476680166074555)
(-0.2313986872683763 -0.006637306719827735 -0.2523215703629154)
(-0.2111575136258259 -11.89943981446675 -51.79750833474239)
(0.7835399419101283 -0.06214174137462486 0.3402865863886467)
(0.001008553704214513 0.001173356177608212 0.0002320444668378885)
(0.5001964608566178 0.7492643164580705 -0.2487579097903339)
(-1.943111964727183 0.1579811706566507 -28.69263022219578)
(-0.09439148209408817 -0.08676625968763345 -0.002229654172578315)
(1.551314117253773 -0.7685583332919853 -1.011812351831525)
(-1.913920397171657 -3.659009271750389 -0.8243830474894432)
(-1.987409171555391 -3.040646161786977 -5.058097075382889)
(0.4338904072569136 -1.085428614493342 -0.3185659964642077)
(0.04503789718942654 -0.1456325801884949 -5.504877525782724)
(1.550012245558531 2.481815336146214 -0.09062734460927202)
(0.01653483413142047 -0.06714247523894565 0.01446757492545497)
(1.127029998223687 -3.52028875729004 -1.786433648904664)
(-0.6292565116801536 -3.267336830658256 0.436151155900775)
(0.0009661098491217535 -0.02658157896685871 -0.01483074539284272)
(-9.476971190684672 -2.101209810564465 -1.491699702876156)
(2.427616912971757 1.220931712287195 -2.77054125122218)
(0.0008461518832835138 -0.003683291034563504 -0.00168677852075423)
(0.01745755199725185 0.006117857349761001 -0.00775096439772832)
(-0.1380754022027696 -0.050731825619846 -0.1230542628958106)
(0.2460720842349749 0.0850869867930687 0.1212197274527005)
(1.617919048753748 -9.304491429844074 -6.407838873416425)
(-1.947339876418791 -14.35587734747194 -0.3191765077897326)
(-0.1102300113481127 1.449374602686077 -0.9343207037981798)
(-1.040231520136774 -0.6813836666025117 0.01375990766355528)
(0.02489113449854556 0.001352247804113631 0.005491506435259466)
(-0.07544681871946998 -0.2033367504860041 -0.1776983271752053)
(1.119438314694207 1.30145076158832 0.4636062960760535)
(1.047268234558157 -1.96480578215423 -0.6444384209039067)
(-0.1069847806189363 -0.005972618074778975 -0.04251314012966564)
(0.07856658655451415 0.004782368423369788 0.02390682483272488)
(0.6390467436901413 0.01541689555358523 -0.07091135236015136)
(0.8022189157674744 -0.6802661489660553 -18.62048610217898)
(-0.04220987052617994 0.003520191174117122 0.02288016618580635)
(-0.3647218930512869 -0.05746791977704657 0.06468635821516805)
(-0.01273993245682489 -0.005904014009598816 -0.004729194876120614)
(2.648881267140067 2.614080426378697 -5.210256437411035)
(1.375403901907697 -6.574288276718641 -3.240266616684349)
(-1.675957496056315 0.7567168038406664 -1.704744965767813)
(0.7556958823726133 0.5494358384315094 -0.5455159632854247)
(0.4131845930751556 -0.1717391497123098 -0.0939068112413291)
(0.7092843877841145 -0.2684326426155841 -4.919103082081971)
(-1.581079193491206 0.6168966275033907 -1.644703755762691)
(-0.5776553148531967 1.55750627276239 -0.3835383688295904)
(-0.7101839996165873 2.196793294823536 -4.605341574964509)
(-0.01241336398531494 -0.02673838864768192 -0.09562418437969605)
(2.941993422034644 0.704781780309935 -43.47613701921455)
(0.2310815478261153 0.05230868029421734 0.02423563986357357)
(0.03085455737514387 -0.005025418184098737 -0.007819269847595959)
(1.354629416872156 -3.230618577887284 -1.943594272836177)
(-1.969602296347538 0.064769055964776 -2.698622350990905)
(-0.460759463784123 -0.3479047508332694 0.1414706763707931)
(0.7625807743631902 4.132866820135416 2.677954161974721)
(0.03330675531604773 0.09100777839670124 -0.05098082656057612)
(0.1819417042279613 -0.006049115066288129 -0.06284147307393338)
(0.02435829833911728 0.1343623357344285 0.1693621906965454)
(-0.006814900248012255 0.0448397387585952 0.05161730252997047)
(-0.004516269311545683 0.002775015035207791 -0.001969385491216472)
(4.53108295554629 6.260393534555162 -9.593177742759297)
(0.5263373503008737 -0.7576860534689318 -0.9576720505764402)
(-0.0175130462745271 0.1176777663612536 -0.03301414822512044)
(-0.7700179795287899 3.763171298288099 4.002435170826495)
(0.05766952699534107 0.00984899243272664 -0.0164536568186463)
(-0.2886763990933301 -0.655378570086517 -0.4036717755244643)
(-0.03448320114586356 -0.9156284203181783 -18.70484584129996)
(0.1990638024581377 3.642864545670171 -1.050645434355388)
(-3.545880613677592 6.56498890889017 2.013996722790175)
(-0.9366356907056159 -3.325104341400582 -0.856014575257095)
(-1.345999655535189 8.02664727478408 3.289050709404329)
(4.51526996512003 4.369918134026383 3.11972020298131)
(0.4968923851848905 0.08397027866616934 -0.2122356348259566)
(1.201701456669505 -2.942583222898822 -5.595206055981787)
(0.0545619427363053 0.0001374873908267793 0.02481500293658033)
(-0.1045486505881069 -0.2441307311957714 -0.05393155213644059)
(0.959624717306919 -6.959115859095397 0.5690640803184955)
(0.129576647611807 0.04974276371137096 -0.1788312967475608)
(1.017335772450026 0.7796531087868724 0.4034902663903784)
(-1.119498748676927 -0.07430901826802344 -0.7702718754312146)
(0.1202739546812651 0.9836210630274159 -0.6420851005168032)
(-0.06474480837723265 -0.03510349012507322 -0.03727950940533634)
(-1.037710034780166 -5.464921131489888 2.002976805479054)
(-0.3763094705574871 -0.003496916886037288 -0.05936271257737774)
(-0.0159641089292616 -0.02552781730434036 -0.01359535163021675)
(-0.007730876763288749 -0.002723418608672699 0.02986849499465009)
(2.101922434536323 -0.2453979340934532 -18.43229039194653)
(0.6147931720458925 0.07327047758276195 -0.2077713561293223)
(3.574712616455867 27.4948883757219 3.229643666753482)
(-0.3902681854164598 -0.2426732687233445 -0.6672513692782636)
(2.851295164678167 -6.805949245130043 -3.123217987690135)
(-0.5309835035621614 -0.9801752288398884 0.4542463736865536)
(-0.2565667299530471 -0.7694211420132068 1.693128575660151)
(1.953164947203913 0.6135359082842484 -0.9106024433943658)
(-0.5429983781550031 -0.1151471646022291 5.590582990835735)
(0.7508288395633391 2.971627520421753 -26.10605146148987)
(-0.2610932546772828 -5.1752747703417 2.879900497413868)
(0.01393232226359904 0.0650916519377078 -0.05622553024693313)
(-0.09427736863141692 -0.02494571966891186 0.06091343930014897)
(-0.1289342470952724 -0.1204379109528304 0.03607697679610386)
(0.04320934173391936 0.02432254484449561 0.04334521949390959)
(-0.1774744612253665 0.06908280856438662 0.1534770025303865)
(-0.0005917838858431994 -0.0320828007339975 -5.467704613085431)
(0.002517353393740644 0.006796273397935685 0.02144444443464153)
(-0.02656255859330491 -0.2109102536464689 0.09393036536999841)
(0.211840637693652 -0.4062264817235917 -25.61505306495472)
(-0.01398441920919103 -0.01997898116166003 0.02074556205361539)
(0.9446095984490814 1.604129131819278 -0.4085001567118255)
(0.074670506160419 -0.5561137380767369 0.3270476578003485)
(-0.1532219868245142 -0.02344634858628621 0.1672756144789754)
(2.661243896139973 9.398527346918797 -6.493225118736121)
(0.2362007065185088 0.1781748795922543 -0.005155771046477509)
(0.007351548922272355 0.1550578855026777 -2.062613170819354)
(-0.07283861174978205 -0.01695995271133652 0.00684036385646799)
(-0.9739630808017283 -0.3233264846059074 -0.4614786998626474)
(-0.1200431809589478 0.06007351833241675 -0.03755357696389326)
(-0.09324778301258377 -0.08590915846638389 -0.03146917310794474)
(0.03139216136227818 -0.01695752278221739 -0.05042375591571313)
(-0.02956813133394445 0.0358367136020363 -0.02786832995306539)
(-0.04011197927595865 0.5056191445602469 0.6523879793155857)
(-0.01949424498362738 -0.0101124348430986 0.01359830612551602)
(-0.006954445688890237 0.03244275272495983 0.09912364967958198)
(0.00132610863374393 0.002403684670180176 -0.001824356793341069)
(-0.4947358527156323 0.05492714644833056 0.09349925911454687)
(-4.597545677244161 59.36634659996994 -10.12654099368818)
(6.479328182715672 4.354826230483657 -0.8969498357089369)
(0.04488476028570693 -0.03939149134301094 -0.03107788970380098)
(-0.2097948753033209 0.1949538793657756 0.02706777637226375)
(0.3833423530142319 49.44185613663733 18.01419757613139)
(-0.3599399015049233 -0.2919543763216982 -0.04393414107892013)
(0.005403309925178758 0.07969211937179878 -0.02190221339170277)
(-0.7093532499339339 0.367007392165044 0.659581486240386)
(0.004666201089807139 -0.001517076375000724 -4.986686199079495)
(0.1072765794986189 0.5234615441577819 -0.7871149268279696)
(-1.182951341097271 2.410577956463317 9.619806653033104)
(0.1911211318912138 0.01789706066206847 -0.03225255698278586)
(-0.739942654628407 -6.345518788710067 -0.3623795704949102)
(-0.01307720315516939 -0.02046333371323646 -4.775064902950374)
(0.01527621886263605 -0.01857362863678953 -0.02636914733882466)
(2.277378160595751 57.37351450760288 6.268035060843522)
(0.9371116653357781 41.34297498519355 -4.39550572617611)
(-0.0265971828150269 -0.04858435371455885 -4.968102005502314)
(2.186734136793026 7.563261241138882 6.963199662560415)
(-0.01612950527352338 0.0003222355165908609 -0.00491204510743732)
(0.651837931554069 -0.3175592795619409 -1.144331177205012)
(-0.195387550938186 0.09351648663717239 -0.05213727711568323)
(-0.001257092008015778 0.0005550884507903391 -6.768714196435083e-05)
(-0.1638924357015803 -26.44329458370804 -1.066517106440339)
(0.3335978332990357 0.03085016857844412 -0.1472490003809438)
(-4.084480809112663 -44.32715168795931 -5.084756120894999)
(-0.03225205936267941 0.02996612942720754 0.02962283475059882)
(-0.7395517503913627 -1.988717008047241 1.029009475923911)
(0.7699214091704305 -0.4658558710518346 2.569650945564886)
(-0.2403893869986926 -0.1248821388489057 -0.2448546694477092)
(5.101598659621026 33.2187774888632 -5.916382767272755)
(-0.6798509132078083 -2.316548744787585 0.1592917210624662)
(-0.7076473340398506 3.970976495816915 0.9705734792232781)
(-0.2311102011735014 1.024247120995367 -2.670685665404999)
(0.1201297381898015 -0.01558331716427428 -0.08892459365848085)
(-0.06591227374461496 0.02772057056639772 -0.5372797842704571)
(0.3330864993473998 0.02648350822872102 0.1016013600985821)
(0.7985625394481414 -1.484386518388456 -24.4052058662652)
(1.587816622641768 -0.3857180279617563 0.03510399640839643)
(0.09251163589638717 -0.005416014271372633 -0.005120456720379756)
(0.04282892276824846 0.0521288006697693 0.1051819873274235)
(-0.5699149345498716 0.01797485400525722 -0.003509491751813233)
(2.622235053597311 3.061293618348718 -10.46315067207028)
(-0.02471354457913343 0.004252662028059107 -0.01934152330718053)
(-0.2684984378404743 0.05755318356304591 0.134236694255889)
(3.392242754019583 14.93486203477579 -8.933376006080179)
(1.233772725938676 7.971887350398295 -0.5426022293745705)
(0.002619615144269718 0.000872129068622279 0.008462830491100876)
(-0.3629201503263004 0.5700556454370584 0.8154112783216981)
(-0.3774205810099302 -1.068725506351094 -2.717296605196795)
(-0.1527242870011841 -1.484521368768363 0.06144455722698827)
(-1.482996109343351 3.029645165215546 2.436633819796549)
(-0.4646486419198105 1.214638147855816 -1.685206332494006)
(0.7813499628154894 1.30091495589558 -0.1877152825654313)
(-0.07596881742112235 -0.03465423233055451 0.128109393562427)
(0.4515869764723779 -3.299164525525121 0.07009556210459916)
(0.04755723113331421 -0.01675881010292066 -0.01026709157300868)
(0.9290297746728209 -3.63713382639442 -35.91322848804103)
(3.618495980462187 34.51104005588905 -4.802254725201765)
(-1.511915473673067 -1.911724372722377 -24.28576530756616)
(0.04695935606962218 0.02622040497743351 -0.03096997132858177)