/*--------------------------------*- C++ -*----------------------------------*\
| =========                 |                                                 |
| \\      /  F ield         | OpenFOAM: The Open Source CFD Toolbox           |
|  \\    /   O peration     | Version:  v1906                                 |
|   \\  /    A nd           | Web:      www.OpenFOAM.com                      |
|    \\/     M anipulation  |                                                 |
\*---------------------------------------------------------------------------*/
FoamFile
{
    version     2.0;
    format      ascii;
    class       volVectorField;
    location    "0.6";
    object      U;
}
// * * * * * * * * * * * * * * * * * * * * * * * * * * * * * * * * * * * * * //

dimensions      [0 1 -1 0 0 0 0];


internalField   nonuniform List<vector> 
19631
(
(5.002514789544108 0.002382632262063406 -0.001717949478890279)
(5.007830539106349 -0.003461200818398299 -0.003374068991085905)
(5.009275652866418 -0.002470817988970586 0.08866198180898445)
(4.457429557464267 -0.08676810086927193 0.2053570254236486)
(5.003216865348225 -0.004045320171654123 0.003775206300608595)
(5.079084307064813 -0.06084925764803555 0.01554828368037164)
(5.022743192264279 -0.01270627482105808 -0.01412752735301563)
(4.97497643104916 -0.01362700493270191 -0.03514609404777393)
(5.003296908314836 0.0001855519132901653 0.002293774873520695)
(5.013478865544741 -0.01407311772626695 0.02226676356730639)
(4.972993441803102 -0.01154710444263052 -0.01435967707576045)
(5.021379290988941 -0.01345213875232495 0.005116405893267566)
(3.466892309208243 -0.4955693698311985 -0.3781028367073416)
(5.018710256964036 -0.01329978978492395 0.009725239249969934)
(5.01429184063567 -0.008979180275656879 -0.006973499524450726)
(5.00594628889383 0.001309850132515056 0.004213848270586284)
(5.1242489136053 -0.2728997164147233 0.1798410769827752)
(5.013331891850394 -0.01130387175451489 -0.006640328221141885)
(5.001371558591915 -0.002212788274815768 0.0003494882311657741)
(5.012865517520548 -0.003283376929003378 0.01641626565438839)
(5.001945579201071 -0.001618421400542072 0.002283336121696297)
(5.02237155975938 -0.003758200387106467 -0.006907699610030355)
(4.998288093860937 -0.004628320002365972 -0.0002560104154611762)
(5.057886497987718 -0.0828738931325993 0.1848425053020433)
(5.017650761104787 -0.01740667216906403 -0.00924742051190695)
(5.018050885230445 -0.006437848483045492 -0.004234652254669204)
(5.030377966313831 -0.003587212372023757 -0.004319539729499622)
(4.781284626388196 -0.02582689721047649 0.007348914279894051)
(4.58617749056985 -0.3166143490178541 0.03003684821954956)
(5.02404510262909 0.005702271645844223 -0.01873232695781104)
(5.00114698104217 -0.00219490776084138 0.001627489221340067)
(4.919679106498259 -0.005887403519458847 0.2017417932677019)
(4.998060171516519 -0.01023044255289249 -0.00486394137711529)
(5.021993852301815 -0.01163938863595843 -0.01276064516270821)
(5.105345409360417 -0.1181428699845663 -0.04295812365478634)
(5.01669308575473 -0.01006546587485933 -0.007481033605095639)
(5.055054490417569 -0.01622129632416937 -0.02149446788640582)
(5.002686661055791 -0.003164279310163552 0.001516420258853104)
(5.035971736650382 -0.04830237560682055 0.09228222153331332)
(5.030591155931527 -0.01472336821143748 -0.04695602587327357)
(5.153055858072748 -0.02340611695768798 0.04776121074334495)
(4.738736147288366 0.05959430949670005 -0.08614333059196136)
(5.060264824232918 -0.04769184937624465 0.009091148912576031)
(4.685200539306921 0.06303607184145074 -0.07487305346444953)
(4.977496912218991 -0.01865768813359376 0.07263869069664708)
(4.558415036765881 0.3566052023139879 -0.0890094511277349)
(4.967484987109172 -0.1952334736504484 -0.1323624610783426)
(4.807726085191177 0.1035561496909384 -0.5084517853572408)
(5.046969129177686 -0.0414119949816367 0.01978952157365665)
(5.006308299780653 0.0124173714844157 0.05999364236499498)
(4.996472366823868 2.475590076775188e-05 -0.003803074504202824)
(5.023895420268606 -0.009248649222845469 -0.001829422602601425)
(4.901678297245036 0.1351082470991154 -0.0841113348135672)
(5.028639628659187 -0.01776705531734605 -0.01418328004164937)
(4.970303239544435 -0.01489613635050431 0.01720949872714974)
(5.041784767170338 -0.01032129826738962 -0.1628798019684835)
(5.045122988735908 -0.1913318982346921 0.06930040572713328)
(5.023241800718824 -0.005860352033939152 0.01327141555734047)
(5.036131250393655 -0.03287518094095055 -0.06917896354366987)
(4.781059613184789 0.04332278908909386 0.1834976518342668)
(4.869388750611002 0.352457521199309 0.03712422689909953)
(5.115432055997962 -0.1523520370076442 0.1648562954931267)
(4.963539118134174 -0.2158477907463393 0.05642937600038607)
(5.084450759274285 -0.1157517749464417 0.06638033953395465)
(4.653449462999945 -0.784170669988185 -0.3168532808706954)
(4.940255507904927 0.06511324714599627 -0.3709692780525062)
(5.026372398967953 -0.01930417413022505 -0.01832917168345367)
(4.990618277039601 0.009084982153125256 0.006047005355434667)
(4.424971697415381 -0.1687965393381006 0.192140632661601)
(4.976268418661383 -0.0442046476087798 0.02939431215283838)
(4.630985049405368 -0.08317120826660626 -0.04906089625230176)
(5.06864786248096 -0.05656467579256588 -0.08015457118809863)
(5.067421169384311 -0.0591006544973206 0.03417402662081021)
(4.954855758074066 0.06291549690880904 -0.3763755410796327)
(5.022173352904454 -0.02938201119645377 -0.1799230249259501)
(4.656347008021168 0.2863148073002901 0.6019468827968443)
(4.989185635066842 -0.007768853603443886 -0.02959063991608685)
(4.966035287812768 -0.1143201493848982 0.4308606603005522)
(3.323807768613245 -0.01434364995619189 -0.2630600061225708)
(5.024218844902279 -0.008703685687699159 -0.008379212176843039)
(2.813571916821927 -0.2728695195160927 -0.05500047148590079)
(4.997274398228789 -0.02927996920623322 0.06882553585492725)
(4.649525859039557 -0.04928635419387276 -0.2184305729288082)
(4.495283089489793 0.3799852523812574 -0.1780151849916378)
(5.054187241206836 -0.03938371011566299 -0.06458190778910754)
(5.06868206677496 -0.05196259799578338 -0.02482407476510231)
(5.084861491357672 -0.1207453790977337 0.04788503355961454)
(4.702852097068664 0.09989375397283717 0.08882622239712612)
(4.506001640629356 0.005975630346481247 0.1923942635217627)
(4.871005950263823 -0.06879451378037038 0.2279875429327702)
(5.082036562829464 -0.05783076004608948 -0.1631185600637628)
(4.714032478164278 0.004011145890577875 -0.0985944497045005)
(5.096477939896962 -0.08214698263424987 -0.09277411832173388)
(5.076199735746226 -0.0986773023117091 0.06065813656428901)
(5.048783365518839 -0.02283226430729699 -0.06224510210690132)
(5.097568709970291 -0.07726822563917538 -0.04010743971380217)
(4.017650956011186 -0.01888482758823411 0.1385625851485929)
(5.016206520217753 0.004836526383224874 -0.06707920874709139)
(5.078541048093049 -0.07213405672327915 0.06450788487221817)
(5.052347368649434 -0.0696129671231015 0.01772339456522333)
(5.012591285892462 -0.01263369243674225 -0.009152102860216196)
(3.448677678397723 0.01871875632034253 0.1551654633492675)
(5.017436008564643 -0.01015826856224359 -0.003840539274453718)
(2.614458866360867 -0.2146641354357685 -0.1074959473007293)
(4.973178206151962 -0.1100786381128169 0.3390235613959383)
(5.090659297280485 -0.1577081276817787 -0.1341224085294963)
(5.026959175061289 -0.0150911976493339 -0.005353206482279455)
(4.062062668341348 0.03919401033736631 -0.2638998234163884)
(5.016380719137642 -0.01452288711569807 0.01530598863113859)
(4.957591547706573 -0.004539278084103701 0.004478550976215099)
(5.083177376277491 -0.02799992698550765 -0.03115068629060825)
(4.66766983043427 -0.2699134886834162 0.1284995029241737)
(5.011565124280231 -0.01509130919870096 0.005044625092333502)
(3.410951583137726 0.01867917402266648 0.0654884707186166)
(4.165169715244294 0.06298630658992062 -0.1230085043673238)
(5.140709407545367 0.07693901202536479 -0.04787740447322697)
(5.018780279641475 -0.0188521581127331 -0.1404143285798164)
(5.052874574812811 -0.05338084763128367 -0.08657413431928844)
(3.944238534670631 -0.8179048967115489 0.3170778362347907)
(5.001387607611033 -0.001270627064136259 0.0008852903272591276)
(5.011141985324666 -0.04495786961842994 0.04682661781906648)
(5.016739470732167 -0.01813961788118136 -0.0176094809957448)
(5.01637837479191 -0.0102441949144018 -0.01087239830082594)
(4.993657130650034 -0.01198176121390078 -0.01125500729712329)
(5.003847800564367 -0.01024877860902114 -0.05112450599066208)
(5.017304701893327 -0.01249622326711184 -0.00812061940301286)
(4.883273869348832 -0.02479814226150366 0.01846423824487734)
(5.02239347076361 -0.01111661842044095 -0.00884165275784635)
(5.014161847254714 -0.01093712839939147 -0.006183702278004392)
(5.023656764497431 -0.01097900968062966 -0.003810484954727058)
(5.004189383428934 -0.02987750849524097 0.02606866082862015)
(4.91092098124404 -0.142356480365473 -0.1355252417220504)
(3.846399550784058 0.5961060655423449 -1.13947167418915)
(4.467524460439726 0.1618295827086949 0.210023132345374)
(5.021928015682655 -0.01294652494855127 -0.01651055500976241)
(5.027742693141366 -0.01098089083031814 -0.002915969489055315)
(5.034754789328393 -0.025903088373844 -0.006268743103137412)
(4.944878839346013 0.002034782345570874 0.02139673610053745)
(5.042943232622176 -0.03358573965652487 -0.0206051090062539)
(5.031731373513543 -0.0301549023445572 -0.01124929259499913)
(4.973275152914606 -0.01446696170082032 0.01373243567180959)
(4.795721612418053 -0.0251876044710253 -0.0201273935775397)
(5.031205174577516 0.09166000380927487 -0.2777126281390421)
(5.078847651489153 -0.06037777981552218 -0.04969711267655414)
(5.032252826236966 -0.07673687900015989 0.07106959510560251)
(5.05537861060003 0.00874201040531742 -0.05678848811285376)
(5.032454699233331 -0.008041978895865371 -0.05904076563462769)
(5.015832979245785 -0.01010154357942895 -0.006214413700520106)
(4.76749049622811 0.06157790897105516 0.1714606107214336)
(5.0542378427283 -0.05425015307993098 0.1259062323721307)
(5.00761706283457 -0.0008828351807364367 -0.006499420519719875)
(5.022484476648025 -0.006593731540956543 -0.004111081987527226)
(5.021388332496493 -0.01291708024019327 -0.001059569364236626)
(5.029377457935642 -0.01851207318402555 -0.006168316896253571)
(5.010773185116935 -0.00678941560658123 -0.00837343335253859)
(5.024032814989841 0.003197701642752611 -0.05055977180572743)
(3.946736070467108 0.07535124896597573 -0.07614851347068775)
(5.058402752463453 -0.08317663184953826 -0.06616934646467933)
(5.079939634211564 -0.08309419518358395 -0.05594165964128903)
(5.021651212474919 -0.02114359673410328 -0.01128567589782913)
(5.004683516813708 -8.521507719797093e-05 0.00231631930536213)
(5.011375207103008 0.007532574127166407 -0.01791447477469976)
(4.863119473834419 -0.1759607938949347 0.1736682462933518)
(5.004670195154146 -0.005339425645923124 -0.01011324993605386)
(5.021162477520181 -0.009794390277718727 -0.002957825580839307)
(5.02112620941837 -0.008765546523828559 -0.01032346508147664)
(5.01550239031455 -0.01111954510667424 -0.008682151305566189)
(5.0148831163127 -0.007042379480087652 -0.004727451037680273)
(4.974645469141789 -0.009507302339477912 -0.01127106246660181)
(4.90156758858376 -0.2684301646771338 -0.02779158987468433)
(5.049635794850619 0.006441792318588608 -0.01275935579682603)
(5.040987331261188 0.1577312794495622 0.1326062161104839)
(5.069694174288108 -0.01070301451981888 -0.04021085203183256)
(5.011740747689394 -0.01327424533911441 -0.01769184921040043)
(5.039167902305129 -0.01050938517644822 -0.03385920075014644)
(4.850530634833085 0.09371809005091002 -0.009347150628950897)
(5.020817256948677 0.002256562243711532 0.01331795416212747)
(3.604434761462591 0.01998944376431303 -0.1753466405482533)
(5.024389161334608 -0.02087953651985958 -0.004926409082246986)
(4.956981282087627 0.0410738335227134 -0.2713461578360396)
(5.040663165680227 -0.2194216465879872 0.031283529507747)
(4.995329656553772 -0.004471999345509531 -0.0104018112669139)
(4.977188329477528 -0.01336677826510168 0.005715264825060174)
(5.019464163856003 -0.004599539432426689 0.01309098623986337)
(4.217482000615981 0.02470396071981958 -0.2663609064999152)
(3.337864485733589 -0.1504097126002416 0.08140869417577495)
(4.819516564215519 0.3631614707621445 -0.1965092707902668)
(5.000783169058796 0.001707924482872476 0.01042393463388862)
(4.871505735246077 0.009341100710202836 0.2488140196194958)
(5.019260845950176 -0.008646432436328394 0.009742445884896603)
(3.597994873082128 -0.08951941589579143 -0.00758330497885955)
(5.061792477954119 -0.09358307469151995 -0.09119623362271864)
(4.970621555326141 -0.08238780305394325 -0.08831840708586436)
(5.009535215505994 0.01223946763446484 -0.04926909929074915)
(3.724096661869244 -0.0369533380613662 -0.08275953467345484)
(5.141437559842316 -0.1281247439536968 -0.07804924528848385)
(5.00451752575596 -0.007475976376389779 0.01914715051836974)
(5.080220290474671 -0.0922715414191789 0.1828196294050093)
(3.390230164737108 -0.5226762681455208 0.1622106989341561)
(4.953494804175489 -0.384259850639209 0.3272912144491993)
(4.915659442444175 -0.02172035898930039 0.09461017288699519)
(4.960377615116193 0.1231179737038697 0.2909391628025937)
(2.396478396351995 0.3314164699398311 0.243631692837035)
(4.218259369346193 0.05419399572559238 0.2432279573215736)
(5.011921374384389 -0.01609972060679928 0.003275972726623545)
(5.00930397400615 -0.005356190817303247 -0.008359281580476427)
(4.990312042501843 0.001842409785250892 0.002501639441323225)
(3.837934976579418 0.02778766564391102 -0.006096576405445852)
(5.00305504203746 -0.004147663488830061 -0.0003818230345647304)
(5.006143845656718 -0.02848986609212889 0.108164486924656)
(5.046873366206288 -0.05176280677245811 0.01614526369287806)
(5.035094322767024 -0.01442633518583636 -0.006514929727421662)
(5.092062646124734 -0.07387576298033566 -0.05876201761991259)
(5.003397637317065 0.005137719550304671 0.001074794313583574)
(5.044613089050686 -0.0436460266159192 -0.0465519693492089)
(4.188394485978855 0.05442861258623952 -0.1421137371153651)
(5.004494028730234 -0.07348322870714383 -0.1093134639162514)
(4.9083025536606 -0.1869903459787638 -0.101637130634968)
(5.003861310054798 -0.005637953718830922 -0.0009319298939528294)
(4.962410615220128 -0.008453510732511339 0.1831584505745634)
(5.001248908925638 -0.001640417905078223 -0.003500064528008403)
(5.088938613853024 -0.1065079502878053 0.0441803105695319)
(5.013675100147508 -0.008397831140344919 -0.005367361905919399)
(4.919185496481056 0.2434287579647507 0.2106807211568555)
(4.933956258129527 0.008232969304702012 -0.0339833194946671)
(3.579786275797702 0.1427451334643917 -0.1023417155430495)
(5.05555074805959 -0.05622573543873051 0.03611700535218528)
(5.048185431873374 -0.04057983366080462 -0.01101342750141889)
(4.915211008171369 -0.07634449296632316 -0.1458705356575951)
(5.008832432269852 -0.09278177605227807 0.06641823781700527)
(5.088098105998336 0.08617715504574314 0.1785960295439413)
(5.07090462969482 -0.09481105396126065 0.0672020963254663)
(3.659303863197735 -0.4473831742595884 -0.4364631858816571)
(2.496842923528948 -0.1026544745296341 0.2755931756608657)
(4.964014401734341 0.009680502919378385 -0.008882705901311853)
(5.009412539926474 -0.1101365243954718 0.06004553335931636)
(5.041433343395067 -0.03955387358193458 0.1478339296724797)
(5.091486402440977 -0.08708526059960198 -0.009949600691684145)
(4.646264981874105 0.8582550973252357 0.2674481195849546)
(5.079034362120624 -0.04208136758163689 0.05448440219709952)
(5.006405968878074 -0.003807041198407149 0.001110834168225534)
(5.011122282167901 -0.006521824810922461 0.01987731478331536)
(5.013387975982595 -0.01244507757402985 0.02767981478162932)
(5.004763624342755 -0.001819656683435043 -0.002595542292040824)
(3.727731559063614 0.06450323215292614 0.2188938905435519)
(3.83906730558426 -0.145251734869818 -0.07149759300564758)
(4.987978887987849 -0.01049806846565808 -0.01746156380968981)
(5.087669819875496 -0.1183460717857122 0.01479380479871477)
(4.354269553765703 -0.09448843317407535 0.03761859695955399)
(4.367914168217848 0.5815505518317132 1.088147059029007)
(3.354807809654943 -0.1170190616430775 0.03617056696511105)
(2.965449831943777 -0.004278388715229948 -0.02832729354598574)
(5.169608403921097 -0.07529584703582565 0.1042968075220887)
(5.082237792291125 -0.1972461658227627 -0.3416814620928872)
(2.580168717211908 0.1023558327806208 0.07870880035687138)
(5.0484428581274 -0.1027989850484079 0.1177496525244524)
(5.038807966748927 -0.04785453527144549 0.07325244939333223)
(4.437661838972986 -0.000131635778719909 -0.02656285618840406)
(5.005467078690935 0.001015431339506888 -0.001303264284707232)
(4.718059152477168 0.006413613031048401 -0.0411910862382192)
(4.865349646558052 0.1643567209674323 -0.03645965867931423)
(5.120136421300948 -0.05962328913679724 -0.2188631345493665)
(5.10259714911897 -0.05746574320367855 0.08139429953897331)
(5.073562955672357 -0.04934619748944082 -0.170176833135118)
(5.003752510715403 -0.003044625151752927 0.002332671526493035)
(4.286651596294256 -0.005770914870663058 0.04671884975687593)
(4.833161892647412 0.02624511756429704 0.2340957274330923)
(3.781820625993259 -0.2076287032917655 0.1269679630032214)
(3.723128227009834 0.00049166463614795 0.03334165021825877)
(5.109413421438363 -0.1737868299196619 0.1379696049919437)
(4.618090857466154 0.1073457718929197 -0.2324902398981471)
(4.958634925384628 -0.04684936939388969 0.004403843898620046)
(3.998188718695977 -0.2841480853682953 -0.1268411753435151)
(4.962127681538482 -0.01270496956824778 -0.04296552025975742)
(4.995635640740504 -0.005119165338104747 0.006248515206459602)
(5.066462254277722 -0.03738018426941575 0.04100404195820789)
(4.613531582236877 -0.1784587550941335 0.0464964030108091)
(4.436810302705017 -0.4019004688068774 0.3166970927972482)
(5.042887774110563 -0.04222791920352638 0.1087122009424182)
(4.955890423409711 0.1379884134326199 -0.01221467656382441)
(4.809560003480592 -0.01398610367228726 -0.02439199582660973)
(3.921983157996618 -0.08747152753901773 -0.02682080642026315)
(5.084679749466323 -0.07339347745262645 0.03930654224768113)
(5.039567593535846 -0.01651055616197456 -0.03352508880662265)
(5.053991319493407 -0.1445210924181514 0.02517695810670772)
(5.073422268514315 -0.02545152353911655 -0.03970506759295463)
(5.005476786368829 -0.002674892903978783 -0.008115324550819477)
(5.089155701803159 -0.06106989526108331 0.05064293455619834)
(5.045684311643361 -0.0116628694506317 -0.09767274378971516)
(5.024725013005185 -0.0288677601165835 -0.07424748652772538)
(5.020814717572269 -0.03115568636077122 -0.2524307999433474)
(4.475429763841139 -0.09473457200975446 0.1718357846815897)
(4.990473570474522 0.09596876342157593 0.08436501004749343)
(5.024802693571623 -0.01069371568027446 -0.00255796757562933)
(5.00365260238124 -0.000946593624481098 -0.001702596936802275)
(5.105935625168518 -0.2584869534325183 0.4537372341649612)
(4.985809147124168 -0.09398969295914625 0.2452308245146193)
(4.805252695089322 -0.2148912908049174 0.08502642109484362)
(4.949093553480112 -0.0007135482961715804 0.01461975008391684)
(4.050715058447192 -0.2108287708129057 -0.2096400637477343)
(4.870758590259704 -0.1834755888268232 -0.1718847625468368)
(4.907407419591488 0.2931707263148338 0.1153171606667619)
(4.993384619907409 0.008451892922874961 -0.002151479644519824)
(5.123608913403777 -0.130816141641775 -0.1776613241303394)
(4.896319411761529 -0.1233455488049437 -0.09122508001039432)
(5.037803429336691 -0.0267659235375145 0.04245120556801227)
(2.91360150843712 -0.3491446778238029 0.2983325596001978)
(5.001555625091956 0.003370619248606455 0.004420841826552046)
(4.989595240007283 0.00218816438313487 -0.002235942163858652)
(5.005167335124455 -0.007867744550089092 -0.02758233571237)
(4.996150731301205 0.002891343256360248 -0.00777167656860683)
(3.282141891890436 0.004796682518796031 0.3559555689791443)
(4.925226425751183 -0.2025478472097889 0.1079037225395713)
(5.050224769845498 -0.05117697106957123 0.009337180982863532)
(5.032541707220233 -0.01390645481804378 0.00827524206229747)
(4.965825150627936 -0.02580098096402382 0.07116916679198153)
(4.992732736662423 -0.005236223566471803 -0.003025320252591746)
(4.993162947973193 -0.001806265626158697 -0.0003449920457001185)
(4.541289798705037 -0.1191358398681649 -0.004013974083361903)
(5.000716316943056 -0.001498154900023227 0.003601093204839111)
(5.070170762055793 -0.1546750399534697 -0.1268157043753643)
(2.035588273781486 -0.2049124776428035 0.0316476092906698)
(5.041570656147714 -0.009903868758788873 -0.1862335330788819)
(4.992759862529248 0.01213677327067533 -0.004943912709310629)
(4.577191328433887 0.177318236601545 -0.05405190899622811)
(4.689411739727975 -0.6996219630638353 0.2688301570105316)
(4.959802650372581 -0.01319251709223077 -0.154829462391289)
(4.82939633015883 0.03772935184744172 0.5557368198957517)
(5.080910190418638 -0.09458388265073489 -0.0561659600444152)
(5.036176893633682 -0.04351440839870819 -0.2002467049192652)
(4.967855950529751 0.04887051834764403 0.09918281953411867)
(5.036236905128301 -0.01979021106890295 -0.02870598656136993)
(5.010697257554631 0.02433455882499983 0.08462052080209016)
(5.004682782079478 0.03380897524619004 0.07841954200180287)
(4.071557520035968 -0.07131235465486589 -0.2053177289217988)
(5.010322028572435 0.005854533886926732 0.004644204148631473)
(3.503457669029256 -0.2235239750239618 -0.2848173978830457)
(4.688096495554968 -0.1304797559276998 -0.3905067197456693)
(5.003488399830288 -0.004025742055553821 0.002393429040362786)
(5.051473677624935 -0.05465527692264804 0.007466531449590912)
(5.033465301935154 -0.01332142005191789 0.02693568508807448)
(5.048235784384381 -0.09498999630551931 -0.07133628375032089)
(5.042632437629591 -0.03872215057943305 -0.01934524025786228)
(3.621082158663527 -0.6708461482363566 0.1803008372839535)
(4.636738535299982 0.09464982897135754 -0.1210017172028017)
(4.054705578057138 0.02026490471525828 -0.1423962644272418)
(5.006155798227687 0.003405582545584237 -0.0009712775689244624)
(4.987992677611131 0.1177069466080588 0.2888584139130256)
(5.049093074551096 -0.06433306812788071 0.01956346153158739)
(5.033146964340362 -0.04131245160554892 -0.09596704284385447)
(5.062013955005106 -0.05358423005199538 -0.03090226492023717)
(5.132460858064778 -0.1437831772748915 0.08551107050357371)
(4.440986412107058 -0.04263199621104064 0.01594222570070098)
(4.774185217498373 -0.009238807948275881 -0.2461863364859758)
(5.048627069172738 -0.0324920369840634 0.04066405347808374)
(4.812380422286869 -0.06768900152410834 -0.1464460794167681)
(5.037920601788781 -0.07595482100914087 0.08070472350257732)
(4.428338500552765 -0.1329086615639627 0.3486656578247089)
(5.078182040213836 -0.2167935873068896 0.180530410347626)
(5.110712926175413 -0.005568067646188484 -0.1413485457515032)
(5.058182160816322 -0.06247051200326096 -0.01253642587591455)
(3.852932924918849 -0.01227003813372433 0.03394226416156182)
(4.970592228110958 0.1335748888335954 -0.1135414397078567)
(5.002549022172664 0.03219544683897269 -0.02400604200435539)
(4.92793900933226 0.2180974532440507 0.1394119362136285)
(5.045890383288464 -0.04048574192284057 0.02423289954814595)
(4.121262713543532 -0.1993460800843695 -0.1178568844236726)
(4.984868972504148 0.004897395470705367 -0.003923174623655214)
(5.032685088713964 -0.05021561041430973 0.03215852457281788)
(4.990079067765833 0.1293144610168261 -0.1128845286099951)
(5.001048673772911 -0.001540795599720335 0.0023341671733395)
(5.001204077844105 -0.0008269974253357249 0.003046271765126474)
(5.076883021594584 -0.06085699727432467 -0.0773546146670111)
(5.014536983053421 -0.02799190859111117 0.1300245268271156)
(5.078059054082818 -0.01274754719188213 -0.02361497971810918)
(5.001678621295214 0.002619407688146125 -0.004778073511753145)
(5.010054852364677 -0.01795654515145514 -0.02116450398170832)
(5.021337606770614 -0.006370769627927513 0.006903231822420029)
(5.054416794595403 -0.04043978723111218 -0.00301099018119901)
(5.011129644805992 -0.008129816152531697 0.006214116335785291)
(3.816271326085593 0.02254535531664566 0.1245157990999097)
(5.018201895979825 -0.007204774014981659 -0.005848302587084658)
(4.99793711548393 0.001028884671147481 0.01101416479172946)
(5.006886013880774 -0.002644464227754863 -0.0001115010477503334)
(4.947700526725362 -0.1831208941840764 0.1521708234413115)
(5.118958862376375 -0.08314736645065811 -0.121231475336953)
(5.000948282564958 0.002030325313730055 -0.001095526215493846)
(4.984066541022742 0.01800061091098119 -0.0009791559900475188)
(4.999233368121166 -0.006343564416160135 -0.007711042690331103)
(4.910336059328007 -0.1084690121411746 -0.09222454960613714)
(4.93404187256815 -0.1588356723968959 -0.4374913953237767)
(5.00115113945924 0.001425092093108527 -0.0003687721791561729)
(3.46797241575785 -0.2703991298437063 -0.1969607458779108)
(3.556545563709467 -0.3207960227073222 -0.1433883257613843)
(5.052739708210008 -0.08254707646556582 0.02545118280623496)
(5.001717740020912 0.0005115516981978705 -0.0006607423742123666)
(5.003762146495769 -0.0003620181457435344 -0.001113467125486955)
(5.107302934605384 -0.4741667075933398 0.09872298854150625)
(4.954478509344767 0.0148660446639566 -0.02720574520814895)
(5.030661287867365 -0.1780804297585936 0.1603583351165611)
(2.72605703208074 0.139342159083864 -0.06379779380273594)
(5.082935600986301 -0.007994073489133497 -0.1946888189385763)
(5.013308411516863 0.004977966879133744 0.01050144248124482)
(3.574823244552868 -0.2259812818134899 -0.2039162475481143)
(3.743957343267653 -0.02564967938717636 -0.3632841279520183)
(2.674932921083189 -0.2669706391884321 -0.3608446034346073)
(4.702238160672081 0.05696963848807103 -0.07583716769375391)
(5.065923477442554 -0.004109570107421426 -0.2216742337452216)
(3.482323402020001 -0.3526158736253954 -0.3018702768372983)
(5.062017259244705 -0.2121921983600741 -0.05779330198945012)
(2.84581812686323 -0.6955371016006978 -0.6279183896607093)
(4.944051210885564 -0.2509850283544427 -0.0985391919632667)
(4.987939866414659 0.08187108358393314 0.02073179005876577)
(5.099161936261592 -0.09014898997217893 0.00991950623040817)
(5.070487720588405 -0.02652512503477518 -0.04382376498023715)
(5.107369162641648 -0.1808205936446033 0.0250523530942224)
(4.761342461812385 -0.1736291593192767 -0.06979147775431913)
(5.074937438343123 -0.0465678328123037 0.08933236909197984)
(4.012713549857446 -0.2082238730023707 -0.3015902979579928)
(4.749334201905531 -0.1180918554117904 -0.1031135478360893)
(4.999457135977177 0.02640042729661345 -0.03468242796513493)
(5.010197863586037 -0.01101046039181357 0.01471383858310117)
(4.886771689484943 0.4230537797755817 0.07243321368811967)
(4.711855400370133 -0.210939491621045 0.4958520427364497)
(4.953737045705266 0.06121870183000775 0.08549833730137996)
(5.044215757400508 -0.02083978263943586 -0.0162399307315256)
(5.112269369279063 -0.06935051013668921 0.02423667353118691)
(5.031905840597898 -0.005117310892554849 0.03574367615136554)
(5.026196590795551 -0.003170568958805562 -0.02810579603695094)
(5.034773909110655 -0.03582393899869059 -0.003127663929085401)
(4.948548380735641 -0.009722711243346375 0.05522610137971407)
(3.200600018481904 0.02081366921165979 0.4356545221799265)
(4.624056076728531 -0.01902498985133345 -0.0304031714924603)
(5.006224798569772 -0.004599138690118748 -0.0282480236081011)
(5.018751335436614 -0.09963531754588603 -0.2399611227934178)
(2.683774099305791 0.3873481655103264 -0.2809262057716423)
(5.001110618795914 -0.0008612549124219544 0.003231507728197524)
(3.591421610096115 0.6825518229459637 0.3806953778647775)
(4.703568117725839 0.2359183346947587 0.06488975473787437)
(4.139125929644227 1.066698986476926 -0.6177204977022188)
(4.999870449618283 -0.002229810575489851 0.003639389708230552)
(5.090310137751572 -0.09500589356202195 -0.2478293160596085)
(4.901531283669391 0.4494857132365221 0.01128223596566462)
(5.169607697469588 -0.2366287224843551 0.1715311450277034)
(5.002470558168779 -0.0006801280634337155 0.0004081794131214402)
(4.33334298417671 0.02353006244368977 0.05647246065645396)
(5.00184831926094 -0.002663198918800264 0.0004012662705053091)
(3.898405827041947 0.09182634363603068 -0.4780378978663727)
(3.489646163381237 1.449673131842896 -0.7655896025564176)
(5.032892543049518 -0.01891461882314099 0.02041122457023044)
(5.012187468201319 -0.1890988734023549 0.1388108695936527)
(5.072197431924849 -0.05311719840641202 -0.1429155769082258)
(3.198737694472245 -0.1793214721648596 -0.08001508213665406)
(3.985222768615512 -0.04714371508357212 -0.1884036294523649)
(5.002383764404186 -0.0002027143665974503 0.001108370439476301)
(5.001857378848722 -0.0005135330231762456 0.001663358666789734)
(4.991512807297482 -0.01032695745532846 0.03508401864663597)
(5.086963656317335 -0.07968726418836014 -0.05709187091576474)
(5.065672638786493 -0.09043742713199085 0.1511309867799795)
(5.006755677433215 -0.007414241411017881 0.01600796517315395)
(4.959119334559793 -0.003196946535567088 0.0211258109963739)
(5.009547529438681 -0.000876383835367464 0.00984712647238704)
(4.971232287051284 -0.03632632753002651 -0.154671639163201)
(4.983530906163566 -0.0135482734694848 -0.0238876174149351)
(4.921891480428759 0.01433952430886234 -0.1579094914713517)
(5.049948324218668 -0.03386540552126774 -0.02468454076724209)
(5.124801885354895 -0.09272943919879423 -0.07662693535102895)
(4.877592562049411 -0.2317414025103527 -0.1883104201666588)
(4.985088563549424 0.008985024255705866 -0.002987022658868476)
(4.64959714854058 0.1774765504589112 0.00467855066897687)
(3.759855754617565 0.09441951877677958 0.3057400560532377)
(5.125035853626267 -0.1190265908129629 -0.111906495933409)
(4.988932147803687 -0.01037714090651982 0.009335473593538358)
(5.007247607493983 -0.001634350366545078 -0.001530445902517417)
(3.351409359041466 -0.02835879119192687 -0.2119208078236835)
(5.066956879076165 -0.04630763568069386 -0.05160423284358868)
(4.971168906418858 -0.008435733261478359 -0.01855380320449311)