/*--------------------------------*- C++ -*----------------------------------*\
| =========                 |                                                 |
| \\      /  F ield         | OpenFOAM: The Open Source CFD Toolbox           |
|  \\    /   O peration     | Version:  v1906                                 |
|   \\  /    A nd           | Web:      www.OpenFOAM.com                      |
|    \\/     M anipulation  |                                                 |
\*---------------------------------------------------------------------------*/
FoamFile
{
    version     2.0;
    format      ascii;
    class       surfaceScalarField;
    location    "1.6";
    object      phi;
}
// * * * * * * * * * * * * * * * * * * * * * * * * * * * * * * * * * * * * * //

dimensions      [0 3 -1 0 0 0 0];
oriented        oriented;


internalField   nonuniform List<scalar> 
37377
(
0.01869634395486225
-0.8096277554990514
-1.451683126025151
2.242614537529862
20.62058203214265
-4.652138794635987
-15.96950182785304
-16.56596243724922
8.232151971168895
-13.28725601846388
21.62106648455095
0.2277426605543385
-0.008362199124251778
-0.04403471199361005
-0.1753457493937041
-13.89273709149223
-12.07451730625189
25.96516393604477
-15.07691511473471
-30.34119573610588
29.13071048262648
16.28740036820436
-8.837122000922202
-24.49985210100049
21.8454904519777
11.49148364983922
22.75123211971268
-22.16138644668507
0.503244837443822
-1.0930905104982
-11.2724259326977
-5.814226434848068
17.08404615442961
0.1608378066165761
-0.4895135449717706
0.3946746174899913
-0.06599887897742186
-0.6963380578058879
0.5588618803378317
-0.6289560657175419
0.7664322433133985
26.62110864857408
-24.24504672448132
9.213936943522064
-11.58999886776918
1.512350258742391
-14.6299715653986
-14.30720911381519
27.42483042041383
-10.102869686609
3.661921293280789
-11.81650737609833
18.2574557693395
-1.432582770225574
-0.6542443405806126
2.212453727382601
-4.822424638735955
-9.518244428844417
-3.451936501243181
-17.09181094323135
14.57620054093153
-25.45297153888696
27.96858194113474
-14.97831854050174
29.50354736521546
-14.53075782698951
5.335043913503017
-18.77824228350453
-5.074265563583413
18.51746393356189
-19.60976563798487
18.72257374083037
0.8864680030011454
-0.8257827458914426
0.3067096053129068
1.129796060334366
-0.6107229196313196
-0.2387483126206991
0.1660642490838897
0.210840359780037
-0.1381562962008644
-14.63058856204528
18.62323395742264
-2.610199150361126
-1.382446245247187
-21.68307415122826
-14.97022282397269
17.04353133721328
-4.708389923624373
15.79505827691639
-23.89046678997012
12.80379843667102
14.85048501957468
-11.62828054194209
-0.3795979292220331
-2.842606548414051
-17.09396010151188
-9.019921336399108
14.69718206015243
11.41669937774795
-0.02646706701174859
0.0154614149524739
9.68343685729147
-20.20353099759858
-8.189896409142014
-8.440197360309558
32.56427178603016
-27.42397108708687
3.299896661343431
39.65602986039021
-16.63600399771664
0.8105424015535153
-23.83056826424044
23.53712823575833
-16.26635649670526
4.23050827891835
-11.50128001799985
0.1610312828420635
-0.2662392298789859
-0.4820514016192439
0.5872593487823734
-0.11969879914738
0.0990924628648981
0.01333887144559888
0.007267464873760324
-10.19746074256403
3.516232412002205
-12.00039254506441
18.68162087518865
-30.54490338916552
25.67521663007046
1.533312907126106
3.336373851924815
16.61801420041096
-19.01052790585447
-17.95320314127961
20.34571684672231
-26.56093610212096
-1.129965970547745
4.118518241565389
23.57238383109825
-3.48568444526197
4.911012246035109
18.21259986856047
-19.6379276693445
-0.9410513063149478
-1.524605324418852
1.354731259726421
1.110925370999945
-11.2204038296835
2.007918630884472
24.95995043786847
-15.74746523906965
14.28484269816093
7.325884539457714
-5.923780642345424
-15.68694659555303
7.45535207598811
19.95648132812425
-43.23705598095623
15.82522257683685
2.315588232338346
-19.01462907463814
-3.819595626592591
-12.71722332780666
-10.77841592482958
-15.57679202899204
39.07243128162826
-18.93227274046475
28.59509637318184
-5.706251337175869
-3.956572295557048
27.3186379861427
-27.17201990983967
-3.797041590369523
3.650423514053827
-21.59432201008001
-16.4952321323793
10.12899613484017
27.96055800764034
18.63562881759621
14.09279527100645
3.005437040220036
-35.73386112883594
-20.20790779188976
-6.205390706693416
28.01727346570778
-1.603974967352352
11.48158912272562
-20.38286230192359
9.06171489435674
-0.1604417151545732
14.57330033361384
-17.49235849351896
2.91839186226265
-23.26572768707964
11.39440923274476
10.94261535517774
0.9287030991549727
21.63794704659482
5.139570293544868
-2.030930246304543
-24.74658709376487
31.0577133121671
-9.209385293890071
-0.9270871330736725
-20.92124088526004
-2.973887381747106
17.54645147054249
11.37462907001774
6.643507695098911
-18.87676082228638
0.8586240568795172
-17.50616056735574
-3.571852856412965
21.07726756379289
10.31759202589107
-4.139001001351759
6.487448130747614
-12.66603915530198
-0.4843142050370493
0.05943794041718786
-0.8965273544217832
1.321403619204088
-14.69422606150976
-2.096265568417059
16.78897032488997
36.66022674308564
-9.093634879479534
-16.74970462229784
-10.81688724131977
0.02166836337616606
-0.09403643371132449
-0.04733072879068352
0.04946101305475867
0.1170367810607004
-0.0674053312170385
29.21579374767234
-20.03935842493312
18.47238545165239
-27.64882077436476
0.1297421049654829
-0.1177645170241713
0.00136128353374859
0.2145864871975214
-0.08592994170075768
0.03740770360715612
-19.96083442324061
-0.01041752659141225
19.96950148811183
-23.80040638226829
23.9564685677819
5.834188130389175
-5.990250315878442
-1.516690329542745
26.58128373391495
-10.72709719881597
-14.33749620592612
2.293523133741421
-2.215927866845896
-3.686409733953296
3.608814467247757
-0.1379993408417857
-17.28817583664302
2.522186784227457
14.9039883933111
5.841468798522857
-27.41169869110639
-2.282130745808148
23.85236063838608
0.02862563142509258
-19.99084461734901
35.22244416554248
-9.09858198984505
-46.46639726193816
20.34253508622312
-7.241883580684711
-4.341498250895439
32.36553538492826
-20.78215355334841
-23.0542962339699
14.85085869447139
6.135028946299579
2.068408593207611
-14.56994882805632
0.8394122543174578
-5.423302917769474
-18.43715937265944
-8.505014542716212
14.95513014780234
11.98704376738456
0.8101014766804274
-0.5508066061623343
0.207087336029187
-0.4663822065136269
-14.54492844839989
-15.08215649503771
8.8838885353822
0.07169573252067354
-0.117471957570945
0.02882246590160317
0.01695375919737178
5.400948387994227
23.7651433983265
-7.652218034164816
0.05149934225706826
-28.53692214948997
25.79110597588314
2.694316831297013
2.397027510636584
-0.3927484321327896
12.56712601877241
-14.57140509727818
24.17595368442934
-0.09606655935013007
-5.303182568650916
-18.77670455650776
-15.87502234300527
-0.1753005076199015
-5.632751300612326
16.45564110339015
-18.38670654656885
-24.62987065894569
11.79520835169667
1.835556540016349
-15.04868963890254
1.41792474705036
-25.37397483723377
-0.6313957129488135
0.7625866237902947
25.24278392638433
0.8966985478940949
-0.9491175611754702
-0.3279736178055789
0.3803926311623647
-13.12035150484059
0.2237194858977769
12.89585859410773
-18.24845835157872
17.10127218226951
-17.03280537448038
18.17999154349182
-1.727275001307108
0.2470346371537713
1.457473582779701
0.0227667813325434
-6.396301600281778
22.84961078571709
13.00484122209877
-24.87116781523731
25.29357390387492
-13.42724731037236
15.70005602065175
-19.45081376874393
11.0418828772999
-7.291125129218506
27.80438206441148
-13.26722220848464
3.670116490778414
-18.20727634687808
17.65775878640302
21.89280798821686
-22.27480836715563
-17.27575840748188
16.75383441677446
0.9024152227699094
0.1506156657612811
-0.00307827282375061
-0.08196814027201689
-0.06556925261908132
1.842995387804241
14.09407578702458
-10.87028046085095
-5.066790713981087
2.802610645469687
1.386583809213282
-1.426473713202826
-2.762720741186622
-11.65270758090132
-5.960849095189723
-2.60504145999144
20.21859813606253
0.007502605525656734
-0.124146356902845
0.03367435582732449
0.08296939558527093
0.3484712154644746
0.07415886606869758
-0.4154982157597412
-0.00713186572218245
0.008656840584623161
0.5807256581431829
-0.610974372516494
0.02159187384070664
-0.7695328410686696
0.693534005849903
-0.5997155897704273
0.6757144252153627
-26.03314208814033
14.3740918677728
28.41288463712521
-13.88724296545809
-3.605657649040154
-0.02795921957553328
0.1543192971249579
-0.1266213284395268
0.0002612509268622048
24.20698735361193
-23.66595526610264
-3.514919469259987
8.012043220723463
-13.57607661360326
23.75729560566592
-18.19326221325952
0.01887496079949105
-0.04139436383753709
0.2371058902626202
4.268954758293891
-21.77604951308821
-0.3087235888624332
-0.2461970479238517
0.4133311318317648
0.1415895050405575
0.01064026268807377
0.1685628553495768
0.08372454329123313
-0.1281922500002762
0.05123068321160935
-0.00676297645334429
-17.79530864701852
17.29998809744801
4.523483275319153
-4.028162725720673
-15.79304168082839
23.33529967927822
-3.561000116193199
-19.77512911369675
4.77103124649226
-19.9368938286739
1.999621403832855
13.16624117897329
-27.28617142487558
-0.7068247616396266
31.60846858851517
-3.615472402033859
-6.573240715356
-23.89859514609038
23.80498141333857
6.666854448079586
0.1042697962687389
-0.08031032554108269
0.001135204864915861
-0.02509467554639382
0.5056829142052756
-0.7208745185131012
-0.01739033774569872
0.2325819421756109
14.92620086940813
-0.179131635231075
7.207503761747213
-21.95457299593119
-0.4494310598362285
1.08870255836038
-9.382705098219574
8.743433599598216
-9.63806556090252
-16.80518982276641
19.66356918372976
6.779686199892459
15.56252610714024
0.1036535959517574
-15.55186704966763
-0.1143126534273184
19.7707025243163
-24.20178233267684
-8.447382518213855
12.87846232658165
13.16318777375928
18.19808201365166
-7.824165402930237
-23.53710438448514
-0.2117233152810368
-0.5427891278714084
0.3513098602105829
0.4032025829860632
-7.315683620478135
11.11668164344965
11.60482033750196
0.5571543057740805
22.16405661804091
-16.05092398099573
-6.670286942810928
-0.08777193804400708
1.427235839093314
-1.335064579954527
2.418294740475857
6.054501806708903
-9.72716379228819
1.254367245226338
-24.86415788726161
14.36900711691627
32.1330978170915
19.0692370598146
-8.149342885617722
4.006306695206748
-6.816173961366233
-1.399397325143784
9.522443781837072
-1.306872495066052
0.1156165592871556
-0.1206801041517134
0.005063544891776539
0.07269510223454809
-0.1411320060119436
0.08695454622923951
-0.01851764242875454
0.08868129548102463
0.09834604314793538
-0.130323507298961
-0.05670383130223944
-0.07272266594037366
0.1127648495104789
-0.01837382016821853
0.1262568219840802
2.902342653654007
30.42551235986932
-25.16977938228031
-8.158075631237322
-5.767453114399296
2.617212589226606
-19.40263867385121
17.28028634396715
-10.68595815052927
-8.259388020344376
1.665059826885205
-1.760682846603859
1.887079092209907
4.450063384909797
-4.576459630052587
16.0135030379053
14.1998147813082
-17.08910991183859
-13.12420790738461
23.86703030102559
-8.34023435457043
-1.22535501295382
-14.30144093364827
14.36586366221402
9.407746122216905
0.09342051647782064
-14.86522335965605
3.047364012738146
-4.515154501233213
16.33301384798637
-16.93791822310654
20.60053583547458
-16.37984094017714
1.744288442395293
-10.50467124890121
-9.369094357161682
15.45710886575722
-18.29183735821993
12.20382284951936
2.767895753474559
23.11795597189032
1.176691893725572
-20.46534326057457
-2.430052963928244
22.8938683579907
-17.14538020070735
-13.5581340814565
5.742293341039972
24.96122094085744
0.009192664351433238
-0.1104629545392556
-0.01649422681456455
-0.1397217258242557
-0.005375140859491537
0.1639718275055334
-0.1415041898923328
0.07447756631226063
-0.07261871339352387
0.02016800288288954
-0.2442496226429616
0.01681549106240892
-14.47996043664562
21.84487528013701
2.963956128559954
-10.32887097213667
10.4842733360699
9.268653077352614
-8.602853646091599
-11.15007276733255
-12.72202161740424
15.28996761966536
-19.072793752389
16.50484775012249
22.34365682222827
-22.40983785469628
-0.05721398923010088
0.1233950216454283
-0.1402598512482893
-0.005643728234372976
-27.09592523074325
16.43610183062521
1.948389935474554
8.711433464472231
2.343313319379416
-26.30168376053312
3.143992052072007
20.81437838907948
6.166030141696026
-0.9971797362867271
0.3491984278002986
-5.518048832812863
13.82345294415877
18.05484474990491
-17.32352288374239
-14.5547748103227
35.42545539119752
-13.28656227552965
3.244549228169328
-25.38344234386476
2.382918088117082
19.65886388981481
3.504337555344526
-25.54611953330416
-14.98762818559044
-2.838492046686698
-2.053375005578119
5.729446741312433
-3.112420176911945
24.15244297058612
0.5082919454510384
2.397714750006139
0.2296579876109097
-3.135664682695384
-20.7016436840579
24.00188866642627
2.429201758937481
-0.9949320203138778
-20.04137146436682
-0.1321393162369361
21.16844280092277
2.422520285280763
-13.06944675938928
6.669202231106238
3.97772424299382
-28.48972902405574
28.52328774664744
-1.02849074289606
2.506143265058903
-30.36108122173374
7.81356649231156
-16.62274213475549
1.100569401323314
15.52109546990165
-2.328145879548228
-19.27899783962269
21.6057731682342
8.10624876779827
-7.84207996413546
22.03947952625657
-22.30364832993636
6.158377738675147
-12.12768355408046
-17.22862503144121
-11.57004149193867
12.08054985715314
-5.428028901944148
4.917520536722862
15.5746406531117
25.17062200276721
-44.84387539808229
4.098612742175274
-21.63206297872943
22.70117274864593
-29.55883879395411
-5.521297269254972
5.50403216765825
32.47064362997946
-32.45337852841379
-0.7161152522050874
-1.131095708268023
0.02356892348624589
1.823642037079947
0.3797923224031209
0.5873446256800473
-0.7243312965467027
-11.81091557639553
-11.07859921726257
22.88340760150832
-2.735133401710791
8.186456163466911
6.683915644659188
-17.08155743290348
10.61666830892774
28.41924915976766
-21.95436003574246
0.571476065500918
6.671818493461891
-7.692725619140254
-0.2637870740519875
-0.1544620651419013
0.190898329941171
0.2273508093388059
15.21746853953089
-8.460433702955804
-14.79372245222444
8.03668761562178
18.77698830742688
-26.82067111783779
-18.93293509476119
26.97661790508334
-4.197582076266276
18.68508560163405
-14.48893320655136
-1.888385259310349
1.670801712722395
-1.299764311744358
1.517347858492866
0.5004016290760249
-20.2641001424446
1.311041701046244
18.45265681230635
-3.980056793128223
-20.28271213234749
24.02617141629155
0.2365975091943352
8.195481647394361
13.78961655071951
-10.01039611138526
-11.97470208673013
-22.87629717836531
11.06032950197093
6.778843428679371
-21.18362129768533
14.22564623377163
1.695345700220773
21.99469829426867
2.465088255941705
-26.1551322504506
13.0451285037342
-33.60713485678504
18.08112933994031
2.480877013102957
-34.73270260103178
-2.041413891689786
22.58566661729158
14.18844987546716
13.43648709215444
-12.68023284666454
5.290355846259458
-6.046610091355212
23.74390595061854
-20.54120677205034
-7.22152499363935
4.018825815029706
30.25854356906893
3.40807287391654
-8.726121548989617
-24.94049489401336
-35.11749962358608
24.89788146268817
18.40669895170551
-8.187080790589377
-16.18440911465505
24.55328044286397
-8.371214405985132
20.76781808480229
5.954950033122635
-19.51526435617998
1.154357394686528
-7.143620744985705
-4.773687384100763
10.76295073503962
14.73216763912744
3.204192030883012
-15.5321368096892
-2.404222860328723
26.10780779404977
-3.611383653075239
-29.07217648591687
6.575752344933826
-28.82512870516618
20.02471758464375
3.879537399694931
4.920873720715595
-3.254117795135424
-20.41503324224897
3.279312192798309
12.53498724179452
-8.392204569387614
9.746268334190297
-13.88905100662019
-12.19744397730578
12.15603964636288
1.548459912598821
-1.507055581692951
21.44565698023821
-4.27708071791241
-18.39714930037623
1.228573038042091
-0.5509835923328796
-2.602635013907237
-16.30070652920364
15.14910522860879
4.712536524755796
1.309487927134268
-21.17112968050618
-17.53087435777171
11.36442593777215
6.642544825375527
-0.4760964053739272
15.09233035059197
-21.07405381852174
-10.66833160142256
16.65005506928989
29.37474670730549
-8.915472470675404
1.353131231359531
-21.81240546821756
-22.12239125244267
-15.08409473123077
10.77718205030348
26.42930393330054
20.30409348972367
-5.457694559235065
0.3027062981163494
7.587019503582311
16.42919004283146
-30.2795099174329
5.949808594941955
13.86386926382324
10.46583205866054
-11.1402018349922
26.51090625063655
-0.4799706318143341
-14.89073378401063
12.61638099137698
0.7037833940314089
-17.78116188703651
4.460997502120977
30.74279163116304
-7.235875354142602
-21.05757814896304
-2.449338128059981
12.68534794550757
8.438719091369647
-0.5611397985061596
-20.5629272383674
-3.021677964007034
-1.161302794609249
-17.01481672303251
0.8254833104594248
-5.163996536444245
-1.441714904004802
5.780228130764947
-1.262583332085574
-22.11821071556771
22.89640371652505
0.4843903310806001
-21.66218866987295
-3.424202918635086
3.68489543537641
21.40149615312577
0.5057919575468254
-2.446469457153074
-17.26970273567691
-2.449597897132994
0.05063488858413693
0.0348611525818429
2.364101856609298
-15.56387709387776
12.04918918583022
-11.70157864706714
15.21626655510307
20.11640905716438
-18.43633892780618
22.66228555843948
-24.34235568785989
32.62766017678359
-12.82900575897397
11.25905889432699
-0.01457567098788973
17.56189428436926
-17.54926835980868
1.923116406563323
1.725401198902994
-1.80888929383082
-1.83962831128867
4.267182233273506
-3.536779068099672
26.0144248954684
-26.74482806066218
22.59565765686646
-23.32915887752472
-4.803286190503007
5.536787411139123
20.59945853583718
5.663744764225918
-7.038666240705441
-19.22453705938588
-14.01339144014008
9.118314751974321
14.10808194041018
-9.213005252250394
18.72032153318323
-10.99767797041194
14.99201421966336
-22.71465778244632
4.274335133230139
1.235764050416767
0.6559309584814939
6.529183438302197
4.702178784442999
6.158877669474506
-17.39023989219142
-2.240071719969376
-10.22814871258636
-6.620268615625185
-20.4748190684837
-15.29106115069217
50.13997208693367
0.02083431534668882
0.2786334061250016
0.3050001672983614
-0.6044678885817885
0.625557799244247
-1.34977614711462
0.4497470390371486
0.2744713089393743
22.43413886845684
-28.57888814059126
-8.774895419859423
14.91964469195776
6.683583357124628
-4.810969873637477
2.480046825165368
-4.352660308850357
12.72752583493786
4.625468559756852
6.577792974083723
-23.93078736872285
15.00754744168487
15.67900419303938
-15.76170647515663
-12.94516248242667
12.26765100562234
12.798609237881
-12.12109776107694
-22.89334442900986
10.57769769095137
12.31061995974187
-21.95978988913234
10.019198028353
-1.004570621641528
-8.967305925990184
-2.58363574983733
23.81859268139604
-23.62354697133717
-0.4998386662293608
-0.551984176125484
24.6753698135207
24.44206632475023
-5.407118056623599
6.993883430371044
-26.02883169851533
5.883217466649384
15.25423984597028
-21.30037177829981
0.162914465668905
-11.28842767632836
13.19383338116896
-19.94836550889682
18.04295980404715
15.72346387561139
29.44547704058702
-46.36818156421116
1.19924064800304
21.11002819943065
19.14402987338981
-32.79870599683733
-16.7313751224216
-0.3308211150694343
21.32937847075245
-11.12175865819361
-21.10481062331257
25.63721434064677
6.589354940798361
19.9482972508099
-1.345647998228334
-18.6051296690622
15.76156848230257
-0.6587424209411952
1.621469426260659
-16.72429548734533
-6.11992983256593
32.37578041153261
-22.48304879601809
26.46312459022281
-15.56961565735367
4.607597347083696
-15.50110627998892
30.36537083039345
11.06860426577169
-38.84365443257531
-2.590320663820795
6.039760847536799
9.47281560245847
8.444861656929795
-23.95743810693477
22.60334733510562
-20.79726452446941
-1.808487638926787
14.87479124216036
8.889364872450287
-10.36168167604558
-13.40247443865406
20.44816878394754
1.914507412818948
-22.31500657070825
-0.04766962604865424
-0.0458511857969007
0.07542070095178513
0.1300169445841396
-0.159586459687876
-15.82440448842877
10.32063843961446
5.4967807546921
26.75397998054844
-10.65949586671684
-2.090714521489915
-14.00376959234287
-9.60342172777645
-9.918132592676203
19.51258617087048
1.534296292569915
12.08317820393048
-16.81198886769356
3.194514371139043
-23.32420451630848
19.74286418331794
-14.89217822628453
18.47351855902915
-0.2553900588972101
-31.54524798367043
7.782846082235649
24.01779196027137
-16.25486092228127
-12.78708775549887
-8.134648687750444
37.17659736554761
-9.15371610524382
-32.4055895935342
10.63022140473316
30.92908429403341
-2.923985190067449
19.60136095559107
-17.6500719240649
0.9726961585451793
11.99884144023995
-13.85710266889212
12.39794833477883
-10.53968710613211
19.60995451268385
0.19462298237529
-19.80530461600492
6.026469142785297
-6.238965568858847
-4.654729794010685
4.86722622008075
-4.143189457274383
-19.22622451598534
4.3414063783835
-8.507583726557177
10.4606917027011
17.42791243648973
-19.38102041261822
-1.738997670151409
19.56823873669194
-28.32542655976717
10.4961854932248
0.06280451930378111
0.8560446693028303
-0.2932913892446183
8.117035354636597
-7.720681252957522
-12.2197318463596
11.82337774467947
17.83112013465653
-5.820499230469729
16.94678821238105
-28.95740911656438
-1.651635244163224
14.42249149382867
6.664195372596457
-19.43505162228009
-0.01235457069788896
-0.1543723475444367
-17.71325769981434
30.48141006846164
-8.787504792473461
-21.79202314643925
12.19466817652165
18.38485976234649
-26.87064887513945
-2.855249023816147
12.99452277652553
5.713076789776584
5.801935795376334
-20.47813830241238
8.963125717254773
-24.19692230525116
-12.81554053566826
10.14181396576834
0.0878723740642539
-0.07241095910039894
0.09856308549625169
-0.01069071141914467
-0.06525899285426855
-0.2361865032367383
0.1281675463145512
0.1732779498795557
-7.171416553220931
6.512334325064439
-0.07072084406440904
0.7298030725528875
-0.02425234906872128
0.1936983450329822
-0.09386632438963292
-0.01762111539577356
0.07431073643277873
-21.60733153691266
-16.43707861996796
42.17728211034812
-4.13287195347216
0.1416138199195739
-0.1090221145126583
-0.02752816049167195
0.08157940538376321
-11.43935002496224
15.46660880907891
13.4144331925906
-17.44169197671999
10.07944279183401
-10.30340786089385
11.79923299797332
-11.57526792891666
3.051026737956268
-6.267792582428788
-0.0007782284829923356
-0.07184048488546126
25.00454938865994
-22.5776780010043
-6.241938709205755
3.815067321538242
15.58738990690241
-13.21558732557999
-5.666623195079636
3.294820614459163
9.283574501927976
15.67488725426223
-40.52233885007614
-0.1434563064690539
0.0272205696784202
-0.03482107651047788
-0.08643592685059022
-5.570768244289837
0.9007100021250678
-15.56028614610858
4.550062380912086
-16.79500857162216
12.71217437774518
-0.4672281869861389
-8.676337396081921
1.510433756494009
-10.37762268248129
17.5435263220688
-8.23068375261526
-12.76172107890841
-16.46596628537687
37.45837111688085
3.522901528147524
-6.657403268434059
16.48380971608067
-13.34930797556392
-22.58129278055399
29.82528986603665
-7.244612918837639
-11.11389028464853
14.03163368617121
31.4821427920077
-34.39988619364338
24.18059237206568
-17.52468404736853
-9.775485178918748
3.119576854178332
0.01228691900586971
-0.09552930385009499
-11.96738239966343
-5.290504278185021
-5.201425492409604
-14.21005496378207
24.19538938302025
-17.37630172863867
7.390967309469328
-0.02792023291765683
-0.04480243300728719
-0.0627413094190948
-6.057780599442789
-0.08103117229043882
5.40550607868779
0.7333056931021525
0.01593452231455366
-0.03017061797266557
0.1312728767452939
8.48032055885138
-12.85340669461829
7.849450280296076
-3.476364144471856
-0.9586914094704533
-14.36240063070571
-4.074269679805736
10.67127613455797
-4.26630493986266
-13.63390782210539
7.228936627687178
2.091188186929061
-3.309377960564747
21.79241242037564
-20.5742226467579
0.04535951831041946
1.125950667682165
25.50638889140629
-22.12746462979397
-4.50487492954823
-24.55015728528393
6.484086122300152
0.2258459671352099
17.84022519583701
0.7119202633142704
23.9506554548452
-24.67259121549232
0.1092034453210076
0.1586671966018492
-8.366301143294644
11.51950260390613
20.18209821866332
-0.647393486472725
13.2674318864043
-24.57195689791605
11.95191849796751
10.32503685721321
-0.7375576948305811
-2.04577743912108
-7.541701723269319
-20.45636513962882
7.646198152643672
4.302583260444258
-2.736492985463553
-0.9960563888515176
20.99222595695775
-17.25967658269511
11.79063727942727
6.347040718540586
-18.13940392548642
-0.4692763571278301
0.00623522765803971
0.5116680263912534
-0.04862689681663957
15.22842796192614
-9.336089264484439
9.670187409695671
0.9730435994521383
0.1474011376958375
-0.008126045007431148
-1.112318691465931
1.224283615997025
27.40430736981344
0.7461557212297319
4.244193851674106
-1.21686719255206
9.30740123206199
-12.33472789127375
-4.357111260463541
-8.384965362545831
-0.5858665385819465
0.9029947216947033
5.199113076298175
14.19696355849677
-20.29907135652278
-0.4301956095131304
1.45775824431643
0.9412539508965844
-1.96881658531113
17.61182431681285
4.687970330689982
7.120951048403178
16.99025823443531
-19.99895766421214
-4.112251618622216
-3.696300183915296
-0.3727942938168591
3.314911040532426
0.7541834372152941
-1.38553893612071
-15.06118361161377
16.44511877573481
0.8458972160202711
-11.00014767490411
-7.052660672700658
-0.5815797530201566
-7.857322153827775
12.5012242210842
-4.062322314282683
14.47820617526564
-9.855941947495673
-5.203843980825216
4.984344326885956
0.193849998065421
-7.492502265522702
2.314307940633089
-0.06616205822485983
-0.005389683811125605
0.02891947196987795
0.04263227009036078
-15.88092151970829
-3.027490841944876
18.18184569844522
0.7265666631897501
21.17130710167906
-22.23718011021806
2.323723002051241
-1.257849993536825
10.94644497344267
-6.639940092028284
10.17170129385225
-0.4739037062368152
0.3738535783713154
0.09614198087446772
0.003908147264931241
24.16535476809837
-5.66858875132862
-0.985272803870522
-17.5114932129352
5.026362914821483
19.14135585386424
-0.9944060930950999
-23.17331267578146
21.93132958211743
-12.2284225045469
-0.9424639216002567
-8.76044315600436
1.2511599564608
-0.1779418140613767
-0.9939207291441079
-0.07929741311803205
20.95861969883886
-13.36433642098317
4.160122347776328
-11.75440562567359
22.85339165265308
4.231166032710849
-9.349908438686262
-17.73464924669355
-16.91418458044001
-15.45045218671514
30.63924767458159
1.725389092631836
0.3292037246036518
-1.015707081259846
0.551364916917524
0.1351384399096064
13.69201939637382
31.43195507053981
21.79745634535978
-3.365608714863324
-12.99583841965027
-5.436009210888448
0.3743843277246864
16.57823480446659
-18.43489176503159
1.482272632697502
-31.34503214283738
15.49335926050185
8.203675677801419
7.647997204415325
-20.23523098334405
-25.09394163530116
25.91299498893428
19.4161776297128
-2.356462097142603
-8.117534802588514
19.45755238887126
-8.983555489144322
25.16697344599115
-12.38788801002038
-15.13554753313865
17.53972463059843
-0.578452185297359
8.205701000656997
-2.612918081466288
6.627749064906617
13.52489364710979
30.49490556959272
-39.17991029550706
-14.36929150804866
-26.3267362598398
-7.585199763150007
29.69569007009977
4.216245952860683
-13.48047658330304
16.64755207442491
21.47658727646301
-24.64366276773641
29.01686979416263
-34.67405279867376
20.26946644596737
-14.61228344158753
-18.55242160300974
-8.265375647567224
22.95364578394684
3.864151466181037
11.49249139791297
-29.63709153229107
4.664123550745738
6.453275566434022
-10.86213014748357
7.011676281189692
-2.602821699462945
32.96521632361095
9.612371777711532
-1.664164504734662
36.35484475314527
-13.24899845871602
-21.44168178975435
23.20976814605886
-11.93993271836564
-11.27475542030436
-14.95771630657258
19.1167419763009
-3.059316516712268
-16.05858471865784
-1.058589822019497
0.5654692761561287
-0.2664959739530685
0.7596165197327385
-10.95062210737167
-18.68066129153326
6.148532070913487
23.48275132809228
0.1589594479652823
-0.1790381469506346
26.07480318603063
-8.886368254996714
-3.903629539017164
-13.28480539197524
12.46601734145712
9.705681224383808
-10.69010944311194
-11.2717788510538
15.81434355128587
-21.38519406580459
16.84262936530947
5.421760342476842
2.860936594224038
19.02614388039297
-27.30884081715068
0.2941639117247452
-0.4074000347330324
0.3161069827180052
-0.202870859510021
22.22168521962152
8.850503442403616
-25.6504283197471
22.39250922787678
-18.12205253744925
11.94202465839788
-16.21248134884712
32.32813791170723
1.091907679198596
-9.539451055531128
-23.88059453531699
2.4314647746113
-27.77562216541102
26.51550321029769
-1.171345819597679
-12.24018153209583
24.39769356680528
-18.88217711024677
6.724665075558733
-17.22390908136124
11.48182780839975
-4.943876877642498
12.70531057753107
-30.64667734130193
22.50227839280223
-4.560911629009714
4.41106168297876
-5.171007148568088
-21.19462753034519
-32.78990789590715
26.65246091738748
-3.606347031175142
9.743794009671399
-4.556408964471482
-22.27155067604011
13.58141272337527
13.24654691712999
14.2214562317837
-11.92522783344728
-5.811994501880421
3.515766103540092
-0.2986373009706753
-0.7275194161023362
0.5757172795715668
-23.80562182169357
26.12298299664139
-35.10726907089022
21.70850352735614
-2.197611650950107
7.14156904096144
-2.900911588673673
27.99776236458252
-2.616343226777024
-22.48050754916189
-21.96147863983569
24.56560356858597
5.386918640474523
-7.99104356926656
17.11900715907644
22.29502150530923
-28.96265659847544
-10.45137206586949
32.32783778038883
-30.1409874754586
3.541401177715399
-5.728251482585144
24.29525240198446
-14.48977754576032
-13.99827805094927
4.192803194698556
-34.39191151689518
12.19490616225984
32.90747152310241
-10.71046616853712
-24.23747954352758
12.34841458536288
-22.50284655878216
26.86037273867504
-13.15311631769526
0.3238696689386204
20.09798784005625
1.609205078169242
-22.03106258715673
-5.79628137603147
-19.77359708541459