/*--------------------------------*- C++ -*----------------------------------*\
| =========                 |                                                 |
| \\      /  F ield         | OpenFOAM: The Open Source CFD Toolbox           |
|  \\    /   O peration     | Version:  v1906                                 |
|   \\  /    A nd           | Web:      www.OpenFOAM.com                      |
|    \\/     M anipulation  |                                                 |
\*---------------------------------------------------------------------------*/
FoamFile
{
    version     2.0;
    format      ascii;
    class       volScalarField;
    location    "1.9";
    object      p;
}
// * * * * * * * * * * * * * * * * * * * * * * * * * * * * * * * * * * * * * //

dimensions      [0 2 -2 0 0 0 0];


internalField   nonuniform List<scalar> 
19632
(
0.2273230838031808
0.1470455983153326
0.2105463542389188
-0.8408232836466648
0.2126176179138797
0.2005643845352875
0.7649076164609472
0.1013933708868166
0.2481255928643657
0.1727369570255469
0.1963964193311075
0.2686560135169103
0.2644041587815091
0.4649986045047405
0.3550695936025906
0.006662523807840344
0.8147584364245511
-0.05672823697782819
0.1094633924327266
0.1212416457209163
0.2441493688454292
-1.219969897628969
-1.813702954363838
0.1078535450134059
0.1133912470283805
0.09844166729501339
0.1257509553469408
-1.113533119745017
0.0817076760346334
0.2630073779587941
0.131075475357864
0.2118845045912562
0.0691661786520875
-0.6568690856634789
0.1753082668167872
0.2228473980451504
0.1138987551356389
0.1376732001138244
0.1292320327091633
0.1373397182324602
0.09877458877584111
1.168349355815683
0.1613515203929127
2.334005571429245
0.105176425571701
0.07949480850390821
0.112611449380268
0.1544717244595111
0.2942120062235823
2.907698920884167
0.3360346081229311
0.153845127806528
0.06454630127931194
0.1440127083232578
0.1902649727478375
0.154476038874396
-0.1997805284993263
0.1316718929618498
0.09953530224805911
0.2083363445113828
0.1125022376788282
0.1719515616568068
-0.5623342714422614
-1.107454666036207
0.1486030660218252
-1.057007476099415
-1.345632657969046
0.1522908785841364
0.2487288396246217
1.051065244856778
0.2670346362507818
0.2039008849544141
0.07573915940952082
0.1386751519238744
0.1328815120992768
0.1330013518834146
0.08281801148332629
0.3861849357361362
3.306536184200888
0.1057474910627339
-71.75532337565795
0.6703644994134491
0.4100596589715174
0.2838737584343369
0.08262697798701676
0.9935933084251758
0.08940680067005521
0.1350473914164145
-0.1158940320514455
0.112038014677063
0.1914750577346424
0.1235445983863315
0.7227065916952765
0.1119186681822269
0.1858532824634183
-0.01144296752843269
0.2823556506200733
0.3213343061690351
0.09584653557261857
0.140559263337563
1.210326304288916
0.08777684271396077
0.2128437390467085
0.09902066138659678
0.01781279565592966
0.1127962538062545
0.2713081742481576
0.2136318100780376
0.1043083710500008
0.1428883319046944
0.532366870323715
0.1072442549060578
0.1477371483216249
-1.621612676520566
0.12643339588133
0.2571766947997401
-1.5647932833197
-0.002697712341106977
0.5049656032497376
0.08488732543477163
0.1371074305243323
0.2977988169354131
0.2506038777500712
0.1705756349766659
-0.3607578335054966
0.15128705644428
0.1238544646104656
0.2705053444304862
0.1637643953356488
0.03674808568145801
0.2200737362837569
0.2108421953075203
0.1313706550470651
0.1087523037729066
-0.1516376589994116
0.2984869355917196
0.1300294340155974
0.06859978022777766
0.1359760074647912
0.2298325423211097
-2.68404497761914
-3.78775934711903
-1.600563720675503
-0.8849987351373312
-2.613739477807272
0.09571517832464539
0.1540709645504321
-11.95365276289866
0.2611104284729713
0.1021322841237939
1.932708831224883
2.242859755589432
1.345037712239345
0.1199838468036556
0.218000957133403
1.397130028424584
0.1047502445397931
0.1863114607373922
1.899529648269044
-1.431257863942293
-3.370733890502134
-1.871635420831461
-2.659840383430236
-0.9577775786701165
1.165172700045435
0.1179040255983136
0.1967106046297325
-0.3059174476346063
-0.9387447449051395
0.1332063710487358
0.140209907847906
0.3106695653456891
0.335751980389648
0.1745515436601102
0.1541186088601818
-1.852948469372966
0.1552185143599099
0.2947994161362766
0.1629025369521303
0.1465759862101673
0.07007095219868981
0.1572658591575205
0.1328580431569544
0.103483813987687
0.1299752935251415
0.1323870350546681
0.237743659579473
0.08245909008116009
0.1159778073434863
0.154945167760344
0.1528133268202944
0.3035657694569047
0.2237930904652755
0.871208554600905
0.06928376446822886
0.2186862150762374
0.2731574605395958
0.2992300565092334
1.052498533750931
1.131734369871969
0.1257515044756946
0.3026504036962704
0.118792556373708
0.8083660042877805
0.2531647557896731
0.7294513501806542
0.1287345101122831
0.5801179604411872
0.1226089513743281
0.1837113482962693
0.4735899311212773
0.1493052531732899
0.1455045718076513
0.03034553105361713
0.2231042720027463
0.137976294709114
0.06497444164091047
0.08856075881346227
0.2353653726378305
0.7047740961633886
0.214518138011466
0.4027161991457739
0.1895421474173447
0.0841906647475338
0.2985456996041397
0.0523728501813155
0.1976372103163219
0.7410681467968995
0.2780001941273061
0.4159740047628804
0.09210012649919229
0.3741332263757005
0.1045830424526784
0.3727291955186061
0.6608809331981723
0.08760820880360289
0.1593808840628046
-0.06119785545617528
0.3622186442226732
0.2684046726678174
0.09302734741316415
-5.782245960736864
0.06708909166048208
0.05734779916031
0.2182054431575445
0.2028293257295648
0.1822236920380902
0.09552616471076671
0.1070309514561716
0.1396215717684782
0.1338354237494453
0.148051257596053
0.09307007377346339
0.3261008852901645
1.244917443171974
0.7603280189773238
0.0893863614003316
0.2005458765192165
0.2114037505719518
2.32255403319603
0.3479875606669632
0.4059111510936088
0.07579748925914599
0.3081365546239917
0.4311919137315717
0.2809512756450008
0.3218661130265439
0.376199870348643
0.2751032998813223
0.1080974724511766
0.3300132917190276
0.09738971426929675
0.2451333130842461
0.1082842447387252
0.2091371459450288
0.1534613130746936
0.2306766176881424
-0.1152519039496789
0.1397386688062593
2.534074214640667
0.09431568442248546
0.3473305153160461
0.3434982535296038
0.2435787011499022
0.2188724518661428
0.7644373770938572
0.3373789904101487
0.9740441815810801
5.050025858242964
0.6473725808364162
0.2057335999425771
1.009744141450254
0.1793662289875985
0.1120948617579412
0.1030636317655328
0.0856331873456654
0.1055024998525745
1.072509560312746
0.1731696761755588
0.1346344819138293
0.2362201195921282
0.1580687414038611
0.2313612029131977
0.137244044935683
-1.20857631321456
1.007572729637519
0.3546898046076516
0.1098433711321637
0.1672768311569962
0.1082233606563833
-0.9139932769568437
-0.8682266677632056
0.1307323951118026
0.3094357011924985
-1.108012148128221
-1.869107536539133
-1.239410330788022
0.06814228419287717
-1.78416566399722
-4.843804925110327
0.1035960845517574
0.1644580176880675
21.30749539747713
-1.080516822142517
0.1878718707869827
0.3985320130074738
0.07589214366732573
-0.5573741105331602
-1.973260122031816
0.1209052151948509
0.2162431001644686
0.120502387692961
0.1676051395437593
0.03446619197633521
0.1284699992513407
0.4426012145486526
0.2268122619480916
-2.617184806604488
0.2003001452485489
-4.016185849535984
0.712509949918919
-1.545295277285667
-2.065601771445324
0.2778185768600556
-0.8561189723796947
0.3937547848948507
0.26053329683847
0.5586598292491342
-7.921761265638753
-0.9064365957713435
1.098283217155559
0.18292328453285
0.8330644663938962
-0.9777804960630878
0.2219477076192006
0.116129817665312
0.09645022028125826
0.1700206040233452
0.3401860383431176
0.226611450492763
0.2105530621914004
0.06785704294820327
0.2705712746787547
0.2968398795004443
0.3212606434692409
-2.809825354925382
0.681436997789342
0.2920218890838581
0.1544156678627844
-1.211787347450813
0.3309529518549954
0.2066003027003125
0.9689311950702395
0.6890388309050632
0.7251102978243203
0.2784415324039691
-1.960423535361382
0.1125875071903289
0.09260097242894617
0.7557901836578398
0.2004501759298564
0.2436005971606455
0.548199385747562
0.1427232592686182
0.2035684845085819
0.2285753966455072
0.1209574364945527
1.112829283034351
0.1825841667375482
0.2412808773275424
0.2227810435649882
0.5283055563429702
0.4706804606094996
0.1964284446441692
0.3718206099395294
0.3936241359219769
0.4035620485708394
0.3869458738231475
0.07644598130168355
0.2349360805927444
0.4453152634251948
0.4349408818479777
0.5278710236052782
0.4441534521454608
0.4179445040536233
0.3121528289656083
0.1880957124192909
0.5097520774744164
24.70788739340929
0.1571143744326873
0.1701429612825431
0.2457547740792344
0.2523039976214247
0.282757563389188
0.4441129271625593
0.6526579546817961
0.516168551005833
0.2689261148260749
0.667661069270879
2.920079117623255
0.4425579883891239
0.4241250861818013
0.1220948639679069
5.68930465583391
0.1897756146443378
0.1338886410024657
0.2307297611845246
0.1814019375044853
0.1232982916373582
0.2783333065309591
0.2423947059551884
0.2280224281393022
0.2271211397919564
0.2124448165103769
0.205500892468467
0.2124327912809528
0.2300257008473748
0.2960885615494713
0.3040310671516874
0.2650389191778251
0.9216839365753103
0.08375966633422327
0.8081514062311741
0.9967607795199714
0.302130948220718
0.90276667981206
0.08699806489348866
1.139283971400752
0.3560041289450931
0.3912402690348272
1.255419607120217
0.4984755669407426
0.175206098270284
0.6001797867846308
0.4384884475937333
0.3659403526358259
0.1033410227101596
0.1870361133583864
0.1916582791597842
0.3104262784720339
0.9185127486955112
0.3311730844596653
0.7816017109267802
0.2013941642711061
0.1797843289022736
0.1752105890452207
0.1695725158356111
0.2386263380579121
0.07241644260664308
0.1736274930392144
0.1321608939807911
0.08813991501063659
0.1864971288256193
0.2390234966332223
0.1949960336395035
0.6590455767754241
-1.368797931810779
0.1501417511653976
0.1586462349365416
0.3642539310474686
0.2568352881265876
2.550009728187179
0.1256617910610402
0.2497926136981755
0.3602818782453292
-0.4717316471687639
0.2990164301217488
-0.8825528571437471
0.1610292978369768
0.3038777044157394
0.1863882907231466
0.2368371190787409
0.1530768287123353
0.2601249246496252
0.368910981226587
0.2347118314405817
0.1575084782514021
0.3419458269949628
0.338267504104208
110.1645471175908
0.3137845378157088
0.3273639150768553
0.1773459119080489
0.1953642713815284
0.2698687998093321
0.2484161111117801
0.2738919716147165
0.2757572728581846
0.2660921913370917
1.52818751121497
0.3026028410866866
-0.135297588978393
0.3838965476676588
-0.0503860447433208
0.7966770626357683
0.1827511840491168
0.1756050599136061
0.03821338602687864
0.7972459165586048
0.1807547641825365
0.09081741072868231
0.2631950564960717
0.283713136884793
-0.02325702733264928
0.4708653608956238
0.4762297138898598
0.3216067607599367
0.5815925915156889
0.273743612824956
0.487229138015136
0.268422627313853
0.2047724050613327
0.2541654505906654
0.1803124716523557
0.3284496661724788
0.2428021269994543
0.3192981156183933
1.872585507350491
-0.1740412867947729
0.5439792740286408
0.7235538085957883
0.1900067232310996
0.1923966633252879
0.1953208758754128
0.4597759898203656
0.2064282011796721
0.2872307058929991
0.1875689579791665
0.1969559254792087
0.3316964514347185
0.3112417258400242
0.1563409512335137
0.1218364423722248
0.1234759456562396
0.1623941470865906
-1.247169314716127
0.1643804567605648
0.1201714611652317
0.1801791078685867
0.1453269814665485
-0.001979559834615824
0.4513041073023686
0.3235844117045423
0.4310001040506253
0.6980447225799833
-2.789791462155506
-0.4918335089449892
0.1799401491324058
0.1603301271031784
0.1537305682134502
-0.7201082364239118
0.1457127033081165
1.028790293349154
0.5386539747963263
0.1286726617630886
0.2193293317199392
-1.251237716310846
0.1926522523766309
-4.839735209317735
0.1199453761393573
0.2384049200545355
0.2538495784578523
0.2011073834421313
0.2879426160403206
0.1806037021916186
0.1179896831641322
0.2902127954689625
0.5291153246562129
0.2832854731929059
0.3137077769074245
0.123616183332224
0.2394085168289427
0.2751950031452206
0.3168925828585244
0.146469271150258
0.06554743445687836
0.31589890940673
0.1957379519180099
0.1598855110615164
0.5255134527526472
0.7676177221700186
0.2561589515148492
0.1558425004682058
0.485295330883466
0.7147049551039868
0.1798164519156479
0.2281176898789729
0.4158206528625049
0.2100486319112526
0.5628841217639371
0.1956991141999473
0.1890888234509844
0.1780933376563516
-0.03830416400002467
0.2116882154050207
-0.3622497235777218
0.2030271789332207
0.2338457365781171
-0.3242672559779228
0.1762868934350955
0.1775817292691429
0.2089362140132715
0.1864606067139657
0.1638078120561924
0.1612147572544602
0.417079419499459
0.1978930649187369
0.1781363056616163
0.1751690768451654
0.1764131433216064
0.1844852335309454
0.1153345953739603
0.5675120080761878
0.3442375474145601
0.1973432905367996
0.1965985155812978
0.180888957688319
0.1325141705851652
0.06882007739694741
0.08395251904391877
0.1822720245011194
0.1950233569459023
0.6924927492154078
0.01321284449812858
0.02166508380780315
-0.07711204901337233
0.1546040173907222
0.2695390826752695
0.1756531157793853
0.1600855783202243
0.1631198926944482
0.1599843436048837
0.1236014310459133
0.126249290478616
0.2166946145748308
0.05429184001134402
0.1313802659151287
0.1415424201908175
0.251472672263457
0.1270582590571286
-0.3057744755616268
-0.019952114688626
0.1020669745050705
0.1789586203400285
0.4109559222842833
0.1243006312473779
-0.3147732653324445
0.2004634266609992
0.04487039387301966
0.211284557778858
0.6686959569745865
0.1371632162898858
0.6091091472264635
0.6027774690333244
0.4450257887115662
-0.1407886727906932
0.02880261453548627
0.3713200603294322
0.2416804240241734
0.3625928158258631
0.2170804182505212
0.1565937164710261
0.4442210933041021
0.1874745222281583
0.350053901103992
0.1837233100149726
0.6412766575781504
0.2343969454865983
0.1435427687988005
-0.2382834533752698
0.1355555726461121
0.1926370901509814
0.1446030188724853
0.1380482855035519
0.2502380398223893
0.1715498619961506
-0.9733505297561605
0.2409704553717119
0.2512395759070511
0.2234464587835615
0.5199261960504061
0.53907461330023
-0.1132873373822707
0.01830702261839996
1.199450556089328
0.2207690080678469
0.6279831819183211
0.2480258986304307
0.2190987879462251
0.5867626186123539
0.09778912193017647
0.6065658331992996
0.3203019170630056
0.08291083334377006
0.1606054414077751
0.09126891268159842
0.1578928504019373
0.2391281926588721
0.181181771514134
0.3024402293830471
0.3370825252216215
0.1190181785747193
0.4495011077406616
0.3816639473372589
0.6450353787349039
0.6580874743661876
0.1891870456388749
0.3597195807955574
0.489490829301798
0.2648316774935691
0.4101275224073076
0.3502041942827923
-0.2848709152076229
0.4191969306445414
-0.004732613216085237
-0.2526611940530731
-0.6679968638667627
0.2683962990071423
0.1947761773953165
0.2347017819981808
0.812890098859065
0.2070308662334781
0.1923779071479714
-0.3970900590669464
-0.01762924689271569
-0.07688050994480314
3.04328939636496
-0.03155679116869868
0.10433837700325
0.3845548097675909
2.656293778165542
0.1163842075054658
3.118571395998812
11.25328274774193
0.2808949142804868
8.407910835762999
2.010814611239837
0.1213697600705527
0.1350118856099423
0.1197150607579133
0.1431984774422807
0.1312532892710686
0.1269080285195102
0.1116784676772263
0.1056504526992353
0.3945310431682996
0.09643956255823774
0.1077954805114001
0.1241676603193742
0.1275814753001309
0.1474554215958208
0.1104734394379232
0.1625347600195406
0.2342432004529634
0.2268672199401265
0.1155036630221644
0.1235396554637656
0.1449479350113676
0.1433131723995626
0.147885359316277
0.2054994364456333
0.1400025613389297
0.3741233447090801
-0.04370072030234975
0.1197374031579377
0.07134844468534929
0.3427414454618158
0.1566430590318975
0.1937603230200027
0.135714730090754
0.1288072495254786
1.232917413336899
-1.54712988973993
0.0631662980136619
0.4588700251224909
0.322156072194603
0.07776797095991483
0.1816892647941936
0.3014226460775257
1.113507421360116
0.1352772565163325
0.3121377427857632
0.1404900631061392
0.9126854958689665
0.2157536730000562
0.14430188508237
0.335230452831377
1.22374364628954
0.2957561492599109
0.2013077891683234
0.949651152211345
0.4720353899150394
0.1393061322366078
-0.3805423096071004
0.3938264986816554
0.8031360185054821
0.6384354604702183
-0.3063561393498783
0.4080263890402716
0.9120975384186644
0.1146084691231801
0.260920003177724
0.2171946030901119
0.2447307271435656
0.2650953154539311
0.2321108970526979
0.2385460427988144
0.1685052632947651
-0.2036945573585215
0.5532339264414813
0.6877638810974782
0.228436693182528
0.5444156498958436
1.379919526145144
0.2481021932847992
-0.2112480201764607
0.2431785498673877
-3.624912184900587
-0.02039711062120358
0.5310714989590719
0.2545994513226026
-0.2353039544272552
0.2820121485948571
0.1322372454902197
0.2686274013487349
0.2078001642726063
0.09427068146667021
1.280006918609562
0.2436444416714767
0.2106348075095731
0.2456433411837952
0.1968270894620151
0.9036807900688499
0.3606106207635535
0.523237604160756
0.3237841165412624
0.9609249804031521
0.8217872211168689
0.2044112076829149
0.1963785590473361
0.1426658419187197
0.8543963866656296
0.7507654589031191
0.8195038593052102
0.4243043268959748
1.016814563792039
0.937899052979358
0.842318646185339
0.5908125695705085
0.4878141668114833
0.4082840505196495
0.3894332554309142
0.08896832478289725
0.3546007299015735
0.6402235084202406
0.221040023765951
0.1358006931639762
0.4917684615089225
-1.175026850967077
-0.6208496982419077
-0.4572741036101278
0.4534229210660024
-1.217526025483363
-1.809008882263301
-0.9820646601994257
-0.2109542860293036
-1.396854785305041
0.1792695148173677
0.3263856527223742
0.6273279167128355
0.3047220169127069
0.04958107088437191
0.07917445941075049
0.6871087482348063
0.1231618097666615
0.1318471305027738
0.4482543614679038
0.2995670505627899
0.09245155906180559
0.2578929357334208
0.2273638324466598
0.2447338929744665
0.459520048316835
0.7905973705680802
0.3314647426095139
0.2268129748826962
0.7693442648926836
0.5489608507913579
0.1419894022692475
0.209932731925064
0.1980111744530754
0.1462065912805566
0.4042569907585054
0.190858574089919
-0.4263730721407307
0.1454671757759742
0.6560541251903478
0.8855352448819805
0.1086614919522864
0.7966475077038695
0.7387666900141662
0.2021766175305662
0.9349174279125757
0.5753521930637453
0.06792850669347346
0.3135462318898042
0.1137769893328422
0.234191112573838
0.2731600495501577
0.3791702007295279
0.1077349120932627
0.1410821555584854
0.1243313301334557
0.4478718179050976
0.1244612812826082
0.3048901209877409
0.1368215752825499
0.1329738144184271
0.1361488742496317
-0.3558693242464886
0.3022142993638909
-0.04005575028085387
0.2843194185346629
0.04186795741134141
0.04742166352249063
0.112593339119211
0.169821607772988
0.06422770122470847
0.08995312275490491
0.1839910740983978
0.7697045565757891
0.2556477255861085
0.2295718999458414
-14.05208963926431
0.1137237586728831
-0.04189223472122255
0.6930017492717562
0.007375218656252742
0.5257472805145984
0.4242655916836992
0.5778998346680972
0.4791911646147185
0.6696556760965624
0.2577473804218694
0.2675019280886745
0.1301616068506964
0.9588614174242197
0.9397095658755918
0.1122609845672052
0.1178984636445301
-0.2555039879336661
0.2390578354623474
0.8784180556433702
0.2589493919518777
0.1094012287034007
-1.254891319517841
0.1494297101157826
0.1945365744100707
2.835897932644368
0.1899411017298051
0.1842797164943907
0.1929082471983746
0.1993708323835502
0.116794179655192
-0.09461169936898216
0.1437003367201689
0.1982730481841215
0.1393145358373437
2.88714976844092
-0.1918799599577468
0.1202413796914177
0.2500031851773419
0.2633547621368899
0.1867931405039798
-0.5515389075618042
0.2186393479193004
0.5149635922087691
0.2184187675965105
0.3241953223502861
0.2587840178003902
0.2606175425917234
0.2279267946147675
0.2151379419032176
0.2321786673356287
0.2407034177251819
0.2102103171498163
0.1480781355679103
0.2194518195152977
0.233568076124981
0.1915488080115597
0.4118601672633971
0.2191790255346434
0.2449160902552121
0.3782116668708482
0.1928607054922633
0.4258471394507988
0.2643127195072427
0.1435433131464396
-0.2392510792547793
-0.5989820627022878
-1.340322598805068
0.03517963093611361
-1.243884121174688
0.1389430232382058
0.3857289325090587
1.532424220443785
0.1203497440222262
0.2862487516874423
0.3442533038488327
0.4882008782295117
0.3013093663274325
-0.07468875209967135
0.2019858617235656
0.1485941546505141
0.1713284156015062
0.0707145530014615
0.181068865972366
0.1528970653499938
0.0841219792465449
0.05125397708160791
0.2340103303950465
0.286672149935557
0.08532324272400023
0.07422078526923205
-0.05489233600768435
0.1522675232756952
0.1664431475980817
0.4166639772554913
0.2441421127404321
0.1273960931245288
0.5031718242774612
-0.6270353956526289
0.215684523571829
0.1758179132800716
0.3423434183832229
0.4920360838422922
0.09399620656731136
0.243725682977854
0.2692692664264857
-0.08184129536965126
0.2251797235300908
0.5310449193091283
0.2919448085360434
0.09727376272833785
0.204232277873963
0.3566600475712553
0.007284629006752599
0.1220760791436084
0.1321896710456403
0.1341565617000903
0.1387530632878626
0.1239851219119287
0.6471649438473247
0.2858038565633057
-0.3870317333838287
0.283462736128445
0.05816215022868623
0.2337446064405196
0.2149772551184462
0.07642731453542312
0.4091878066525483
0.1315185539498736
0.142874211115439
0.107013562893152
0.2324439635686449
0.1669058067004406
0.2859698845559249
0.3799455865369685
0.3542873658831387
0.2030902379488136
0.2185972047042706
0.1388867067248726
1.041296051570728
-2.113635582341844
0.2021756772301585
0.75716573474586
0.5706803420238199
0.4014499813535106
0.3243298599133754
0.1416288756598444
0.2266333637751988
0.1169916737283396
8.396958492872859
0.3649783401609363
0.9671788148651816
0.4382408714703356
0.3735910793991684
0.2055173971297794
0.6667606394390259
0.7471386505634383
0.2309763279792228
0.6313211096922638
0.4073735056459609
0.4421115334889289
0.3078606994113492
0.2915217308459729
0.5168787068662923
0.4656316364857304
0.3131790319316937
0.2618424660323073
0.1323392596029835
1.442721743997324
0.5586639749472757
0.3673685262050271
0.3228435352583166
0.1241372373507262
0.3342824186383533
-0.1341311333788856
0.3231344899266888
0.437258498073283
0.5369494234792377
0.9356647343128803
0.1291680011106597
0.5230717827240783
0.06116845273779568
0.2365276385299695
0.09550050758559589
-0.5283268430040789
0.04555060455803105
0.06890430937443134
0.003696734805606678
0.15291384380462
0.1310592389473654
0.1739517995222613
0.2134826772941653
0.1903179388251246
0.3847285128658395
0.1510422176977435
-1.084863869491072
0.2309810391903397
0.4792033944640014
0.2402561636626179
-0.2332296805078032
0.2090405934434412
0.2205598333723713
0.2150156939146144
0.2090271079659045
0.2094055716425244
-0.1322512899322682
0.1974254175651501
0.2076493909281739
0.7184071556603097
0.7214471082624864
0.7706044595858649
0.8253561398694593
0.2187042286604972
0.236006436581994
0.2876511572564436
0.2908793536411364
0.2887443082237026
0.8747704258169723
-0.3448381408985961
0.8316474372703307
0.1093360692298882
0.7347934852100523
-0.9231436779307534
-0.8075831314949459
-5.904317225624389
0.3545357886860436
0.02324274594848194
0.1651760623454453
-1.986664264561854
0.129414703937937
0.4190215063098503
0.1275112876136208
0.06160735818744544
-0.01850097975627641
0.2223390732446076
0.1351654833431745
0.1200435761479075
-0.0311193124723472
0.3358567623634462
0.581955244370857
0.04924734109019008
0.4425087631398665
0.379405007758334
0.473994260839994
0.03462201107626579
0.1071802706031357
0.6088852137256039
0.1123777931849336
0.4740301005012502
0.3460387134969002
0.1103925506640191
-0.1873551818527054
0.4519832758197868
0.2506400692694873
0.07516430421275644
0.3226034443100382
0.2407565690318952
0.2181717971752179
0.2084193500521873
0.4214434563655867
0.2134767127144346
0.03642351972299252
0.07649920056128438
-0.03062005098696402
0.02386473566418634
0.2058529507716964
0.1791764224585162
0.2089559430761203
0.1651754747891501
0.1910595781896813
0.4562849217789056
0.3105263609124754
0.4700789889315026
-0.03315071547368423
0.2994772303142932
4.104342638349085
1.53634708611726
0.6298924786394737
1.278124052210591
0.392781808408933
0.08745973626042626
0.4059594207618526
0.2119224030810646
0.1124757851034115
0.776711308640076
-0.1323530036122454
-0.2901573382394217
0.4773453020499072
-0.03599898290955506
0.2425769873803713
0.285091133175918
-0.253286909924983
0.0829437095653042
0.2096334052394265
0.2781042262529541
0.2154484190778967
0.0782302074721881
0.1736657110508917
0.3909218292562865
0.2470658080831103
0.2153123777228337
0.06888752472030484
1.468451050542902
0.2545718856958155
0.1917882390714382
0.3620447557794274
0.2386048134054173
0.311355611732118
0.3011823070216418
0.2591821368838991
0.2378813557014413
0.3246539613862872
0.416765145354449
0.3650487460629692
0.4076387072304601
0.1825175729654705
0.6487391423280058
0.1620466248081262
0.2316671797989625
0.1281422353770482
0.1564119696808365
0.0343020735912004
-0.1148005649671778
0.16556443391141
-0.1586102140443724
-0.1023897166838388
0.1945414370910222
0.4327946375393545
0.2321887240872111
-0.04249478257832141
0.2352742044536839
-0.08839675741352848
-1.602529952488755
-0.6497371591445377
0.249536374057982
0.1620567911268545
0.3030209145221467
0.1278947448406206
0.1179936383132675
0.2100157611000167
0.05933721568888823
0.2073000279505167
0.4699407490784716
-0.2330405978145639
0.4143321570154649
0.1826695865271593
-0.7476491739263166
0.1801137954383879
0.1463713944256987
1.591219534150463
0.6110898991870127
0.2620797019596609
0.7453785553849086
0.171812744068867
0.3430039104675853
0.1562019068885777
0.1841357493600789
0.4908303954858919
0.1235537640075302
0.3395221924758164
0.7751686947227957
0.1798693795568527
0.1839329033728767
0.1913592699981472
0.1312695205743315
0.6247032508149585
0.5742368353910162
1.605607899326008
0.4514062224480805
-0.04791716558027757
0.5194340896390358
0.04140097317145012
-1.905530914092565
0.156425643981516
0.1899584588703793
0.3279918619262635
0.1493965740237978
0.2323646688238823
0.1519142103790014
0.09715786900222874
0.3354518504086468
0.2621237704713694
0.1886515196658803
0.3337747278279533
0.06590592638906467
0.1910584314295238
0.319185840697553
0.1615546597072154
-0.004497268209412745
0.01992824671800068
0.3468880785204392
0.1687732637629886
0.4624920074985722
0.9140720091368594
0.4841631367577767
0.3835016611523149
0.3665430466694382
0.3441261062949283
0.2468025561338279
0.3538082508074364
0.1647956065786842
0.648945070797896
-0.9916228193682305
0.6372459054501108
-0.2540078783245313
1.063372089709308
0.3717749474049619
0.4007640379510565
0.1959775438722728
-0.1199799955002072
0.2449182257692079
0.08405080424853942
0.1014554270056232
0.1250503415099172
-0.2399166196293753
0.08368914901966493
0.2432024530528681
-0.07590366781403127
-0.1538958701409178
0.5966114620083349
0.8126121496497506
0.1810021422670378
-0.09982167172248954
-0.1001026294877218
0.3059908475157145
-0.1518434744850602
0.08330432953293661
-0.1950492980152599
-0.07133896753461208
-0.07151932527400225
0.9430999595312943
0.3617337395491439
0.04509672226991605
0.4953002480015473
0.2468445019532297
0.2043740918503918
0.1177835022487859
0.1380610565118585
0.5910119236783772
0.085722530135525
0.2201019389171283
0.2251983814171901
0.3059341421780203
0.2310573807887591
0.08803547045277539
0.2984809209402447
0.1971191786990115
0.2524782708448624
0.2223896597071814
0.06921181666917597
0.4872042222125462
0.3657832321909947
0.1859514975169456
0.264785683626006
0.263875590325613
0.1845496814835817
0.4468886997264361
0.1458447335591197
0.2660765169690225
0.464320548159685
0.2950260290192583
0.3945642448597521
0.5171842567510382
0.2274395671924574
0.2424649461129447
0.316688545124396
0.479060491428928
0.4745989249398381
0.5265483888653287
0.2304103851451215
-0.5679152827957159
-0.2903810723275426
0.1564773333895501
0.1115103971706868
0.283683418951898
0.2898555678994142
0.4128063879114059
0.3646422930631709
-0.2733061611620658
0.5867478648004588
0.1394325565040168
0.04817637840353717
1.159446010505897
0.2777905320581926
0.2882069619421735
0.1127895333691674
0.3000251578633616
-0.6359041264774224
-0.09894747313708264
0.332083338327065
0.405798484962477
0.1617223721082845
0.1410638242899344
0.1275682712983121
0.1104719070656444
0.8757874778228946
0.1769919808074275
-0.09746771378871665
-0.780007076338584
0.1246402267813166
0.2126434766115536
0.2233934395170821
0.2400187632350865
0.2171031270612252
0.3247606222500517
0.6627511873465309
0.09900002198283697
0.1612067679035981
0.2413607465159572
0.1734696935635576
-0.01974459008733065
-0.7552984518802391
0.4042894518901629
-0.3502842655131549
0.1144983714778565
0.03216737455657932
0.1955421006618905
0.1530934520785851
-1.098375832497515
0.2105752429121319
0.2953621850030422
0.3611054332073985
-8.633529349245661
1.393670962921633
0.3227012074540683
0.06264626471438051
0.2947894487456623
0.2170245435105696
0.2488115883544876
0.1921357511512733
0.3284961726156573
0.1182991996105962
0.233493517687316
0.1782447878082799
0.4644231358218987
0.1728523469937337
0.3094071741509637
0.2453262422449447
-1.521253432973787
0.1054960481183937
0.1663640824676206
0.4432491911865233
0.1319424940302698
0.3796152564023113
0.2042480193320932
0.2965908051420746
0.540612108883037
0.009643308766626573
0.2419847200226685
0.2753377233934745
0.3414945190505765
0.3181211608133929
0.3872053795392092
0.152173181613357
0.3496308347886586
0.2295403605373349
0.3944457108704852
-0.5603058245717845
0.2655830553418673
0.2229754698551285
0.1499107782378059
0.1176405578959265
0.1723050468170895
0.3086633191850572
0.1605350625858618
0.4980971592676881
0.2572773716214561
1.528614370790513
0.4412517640056152
0.3624525294246596
0.4019468829460084
0.2830083551936874
-0.09408445047249155
0.1639507680971687
0.2219709879636989
0.03698151232712805
0.4412236114015651