/*--------------------------------*- C++ -*----------------------------------*\
| =========                 |                                                 |
| \\      /  F ield         | OpenFOAM: The Open Source CFD Toolbox           |
|  \\    /   O peration     | Version:  v1906                                 |
|   \\  /    A nd           | Web:      www.OpenFOAM.com                      |
|    \\/     M anipulation  |                                                 |
\*---------------------------------------------------------------------------*/
FoamFile
{
    version     2.0;
    format      ascii;
    class       surfaceScalarField;
    location    "1.9";
    object      phi;
}
// * * * * * * * * * * * * * * * * * * * * * * * * * * * * * * * * * * * * * //

dimensions      [0 3 -1 0 0 0 0];
oriented        oriented;


internalField   nonuniform List<scalar> 
37377
(
0.01964697184482359
-0.8101588443379076
-1.450143240260874
2.24065511287615
20.62522838030578
-4.655819582954731
-15.97231472375277
-16.5757577950674
8.235326958331624
-13.27796026446074
21.61839110118472
0.2254336282146602
-0.007826463629592663
-0.03988705960826782
-0.1777201051199316
-13.88547327730836
-12.08921803225678
25.97023905855337
-15.08281203242326
-30.32659345653235
29.1401985930929
16.26920689588221
-8.549238229022796
-26.395979986614
23.34931009679427
11.59590811905021
22.73720862536995
-22.16381140175998
0.4995678400898472
-1.072965063647073
-11.26044985904909
-5.808551536917918
17.05904939998481
0.1608613393194592
-0.4891355123081906
0.3943797294163283
-0.06610555690895575
-0.697517355703015
0.5579573462130673
-0.6277533963036522
0.7673134054785351
26.65359725324009
-24.30468677815712
9.201340428005745
-11.55025090278885
1.509514724257124
-14.64335418863711
-14.29142798417684
27.42526744866955
-10.10434725012506
3.6544480640204
-11.80005091113405
18.24995009737521
-1.431972558221934
-0.6562201293076606
2.213858295458624
-4.631851044317485
-9.638972194360955
-3.521091783640532
-17.01252642202923
14.56100231569084
-25.4636998220497
27.91522392848914
-14.95929874712006
29.68352602913965
-14.72319572551339
5.332494113041309
-18.77495022970247
-5.073855784157288
18.51631190086358
-19.60402824720058
18.71733229363434
0.884235551445857
-0.8189507180479724
0.3039855378106694
1.127569780887981
-0.6126046009692183
-0.2354332807963538
0.1627938742036072
0.2086465259254672
-0.1360071194642998
-15.72111804824639
20.14046019027444
-2.713523269900695
-1.705818871661549
-21.67410813252624
-14.96935578942195
17.03943567475305
-4.707020273427668
15.80201948498294
-23.88707450081552
12.79207528927392
14.85349806495324
-11.62524926944284
-0.3807768676074169
-2.847471927896016
-17.08774638453621
-9.01318246954059
14.67203872864304
11.42889012545498
-0.02896209788233896
0.01896244527186001
9.722362101866409
-20.169539747219
-8.263310692060093
-8.438645664963696
32.57621399543211
-27.42426993775676
3.286701607335189
39.65222854732497
-16.63602500721169
0.8210762945406326
-23.8372798346277
23.54196507736471
-16.25419213365803
4.199155643269444
-11.48692858691125
0.1597912342857142
-0.2649660167383679
-0.4835025193763456
0.5886773015171267
-0.1195312417976577
0.1001095316843213
0.01398507923640889
0.0054366307640299
-10.19649034784735
3.522592540003737
-11.99301474136349
18.66691255002189
-30.54608774979096
25.66620675236833
1.536529592193589
3.343351405314363
16.61194840910567
-19.00849205811123
-17.95665494812286
20.35319859713004
-26.55275025658257
-1.132544273743613
4.121393065158388
23.56390146517784
-3.485376777690799
4.920298094427262
18.20796516879871
-19.64288648551306
-0.9413289738202686
-1.524713988987937
1.353719488760427
1.112323474216465
-11.20739441560431
1.99797925559798
24.95900489134213
-15.74958973133582
14.31558846027868
7.328982010121909
-5.977049574545569
-15.66752089538799
7.34473160235996
19.98508131023193
-43.17050043700896
15.8406875244307
-0.396875614551827
-17.50691701332346
-2.573382640143186
-12.7177541858193
-10.78553413530791
-15.57588529667944
39.07917361780646
-18.93126173520215
28.60045335037153
-5.716631457106543
-3.952560158032081
27.31229847394384
-27.173519817344
-3.79425558301579
3.655476926440848
-21.59786531812896
-16.49037348126266
10.1307369306491
27.95750186869928
18.70142468862738
13.95409961142091
3.061537819774016
-35.71706211979646
-19.98001497553034
-5.961338960974516
27.69741589061906
-1.756061953699516
11.4340307276668
-20.39306996287902
9.088395231853251
-0.1293559966491472
14.55575542122193
-17.48156964518003
2.921982969784131
-23.27581295186693
11.35848967353757
10.98575475182861
0.9315685265049927
21.61765814156235
5.118269875816478
-2.031280363595325
-24.70464765392537
31.0713059567298
-9.221562644751398
-0.9578271595134535
-20.89191615235078
-2.976411215447281
17.52805141202948
11.39037211682786
6.598602895994222
-18.85156179547411
0.8625867832346983
-17.49796512635119
-3.567542219261018
21.06275993987112
10.31322287771036
-4.128005058310172
6.471355931473662
-12.65657375084449
-0.486380957717006
0.06470293919337855
-0.8956265512071216
1.317304569268036
-14.6980115610718
-2.097061633358454
16.7916903051755
36.63533147989647
-9.08069607762538
-16.75153431649955
-10.80310108574907
0.02635983685842426
-0.09840401256328669
-0.04748706615206099
0.05803985583383416
0.1186707918234517
-0.0766011160850404
29.21049299824383
-20.04338068022222
18.47658592083716
-27.64369823891272
0.1350202318948935
-0.1217753795430234
0.0007402267869044275
0.2129576639319427
-0.08892781177305281
0.0387640219747415
-19.94695469509986
-0.01013145910008201
19.95357564512301
-23.79503133058225
23.95265287049219
5.842097022481568
-5.999718562440011
-1.432263968396611
26.54101061341391
-10.77908731406273
-14.3296593302762
2.291067870353756
-2.216844592515181
-3.684202922640763
3.609979644407512
-0.1295195225527337
-17.29164009789534
2.520244665505401
14.90091495483725
5.832897424485098
-27.3911669849825
-2.2956991150594
23.85396867556798
0.03034605710469587
-19.980543496624
35.22285742782601
-9.103305051750308
-46.46257955416752
20.34302717812621
-7.234963661239461
-4.345870724566075
32.35948210433759
-20.77864771853143
-23.05039159426049
14.85454892348298
6.129537694803608
2.066304975956505
-16.23224560558144
2.813079410120928
-5.743031599232288
-18.27813635696889
-6.711811118153018
17.47446301575207
7.51548445974881
0.8096938832505952
-0.5499312435891043
0.2069463286795104
-0.4667089683927875
-28.4176326776649
1.371796573835042
8.34342117441525
0.07322563348124414
-0.1183080546308043
0.02790141917931174
0.01718100187587111
5.409125663731742
23.74484417232854
-7.647980568483805
0.05162115970636451
-28.54289982907231
25.78599179946229
2.705286870003896
2.40293635202551
-0.3966906171994077
12.57029345229055
-14.57653918711276
24.2517643656861
0.1846049102066822
-5.529794884654887
-18.90657439107271
-15.8684535971723
-0.1767736931362788
-5.628880842199686
16.45223113925649
-18.38034994602086
-24.62463144981143
11.78654118055794
1.852181042716386
-15.03103207218157
1.392309849179015
-25.32272703306929
-0.6880528922030182
0.7945097098009426
25.21627021548415
0.8974568249227686
-0.9458887501985995
-0.3276437646460909
0.3760756897403961
-13.12469002142232
0.227904553586846
12.89394289196206
-18.26218903875735
17.20962971633512
-16.97335456826131
18.02591389130925
-1.726020104286759
0.2481925999576043
1.456041584000671
0.02178592043364485
-6.391991786951624
22.83850589189569
13.00122378037268
-24.86411608568789
25.2777957197969
-13.41490341526478
15.68871910139259
-19.44112095797943
11.04046023579518
-7.288058379187455
27.80112543620052
-13.27858839464844
3.676455283434528
-18.19899232466037
17.66104770276913
21.87932488024167
-22.27368283407722
-17.26668974889897
16.74823280350122
0.9091760706080552
0.1538746759749579
-0.007259789332672306
-0.08235274755428541
-0.06426213918758703
1.839411382731304
14.09800610996236
-10.87378227664184
-5.063635216045574
2.802274676019528
1.386813315901184
-1.430891890945256
-2.758196101599593
-11.63944079503352
-5.967310379414029
-2.611136404494705
20.21788757898172
0.007194996900533942
-0.1240461938644057
0.03389209429823254
0.0829591025541941
0.3496087241790151
0.07232393085277669
-0.4157384665300002
-0.006194188595860028
0.01598382542650053
0.5924128779414161
-0.6124625444188913
0.004065840911869235
-0.7676242454953853
0.6922253638837526
-0.600710552240733
0.6761094332988903
-26.03512375008176
14.37481748746101
28.40853906615455
-13.88728842755581
-3.59878017466835
-0.02643988414287278
0.15433566990763
-0.1269503779216098
-0.0009454079168238665
24.21259992968377
-23.66282581690713
-3.526185328216789
8.009371154484043
-13.56188873590543
23.74228037465028
-18.18976279234116
0.02163058591843461
-0.04649555283456654
0.2378226307633367
4.277526416869311
-21.77872355771348
-0.3121435643552322
-0.2416972893627894
0.4099898391683876
0.1438510143233155
0.01934493454184661
0.1737151531298648
0.08443101317266562
-0.1291492599461566
0.05071429673680782
-0.005996050152650618
-17.81038893788509
17.38877997808632
4.43209698705325
-4.01048802730458
-15.79523966486643
23.32887064160432
-3.556125101882414
-19.77524993005306
4.772157448698705
-19.9319273475176
2.002149066028217
13.15762083156067
-27.28398790152531
-0.7216060039732052
31.61912711056308
-3.613533204999675
-6.569783052880476
-23.89618439523205
23.80544879022828
6.660518657940328
0.1060255824925294
-0.08248697775408805
0.001846639087467294
-0.02538524397527276
0.509381068659725
-0.7269012831084889
-0.00779135313174168
0.2253115673060849
14.91255746582313
-0.1756116567438672
7.215515884058129
-21.95246169312392
-0.4544780693978096
1.091866502912362
-9.374866117416852
8.73747768408705
-9.643971572509008
-16.82304958543138
19.69522583475764
6.771795323275699
15.55549143946467
0.1194337276588858
-15.56057201375174
-0.1143531533659705
19.77383081584058
-24.21318504472767
-8.441757043411599
12.88111127228475
13.15467158794362
18.19663043852342
-7.812611359831745
-23.53869066662623
-0.2097233450377513
-0.5426354471672555
0.3493945830280524
0.402964209140453
-7.317555921559779
11.11204430081961
11.60692581583383
0.5815690731969665
22.3956130693656
-16.0738363478502
-6.903345794728732
-0.09107452338227624
1.433519295651275
-1.334574247743096
2.416471590567818
6.05087237499067
-9.723477222197005
1.256133256338446
-24.7890511180209
14.34014761316541
32.06656164610569
19.06691687177229
-8.148126461757172
3.993767055816816
-6.817350626235108
-1.399230570173572
9.519991955562222
-1.303410759656869
0.1100143529711515
-0.1254952545191975
0.01548090146441218
0.07609839639296798
-0.1420698757925352
0.0829924798877258
-0.01702100058691363
0.0871688973863185
0.1010050698575308
-0.1339057371231399
-0.0542682302240572
-0.07104466208095971
0.1113970110057749
-0.01399251214860061
0.1293592874851374
2.901036583818887
30.42072723428548
-25.16961813417351
-8.152145683942502
-5.784343337889252
2.646414340311117
-19.41703951193353
19.46792613764714
-10.04014213931354
-9.404633859856876
-0.02315013843103753
-1.762322039587456
1.888120738857701
4.450406506614748
-4.576205206558297
16.01147947546833
14.19927121492888
-17.09026764807875
-13.12048304229922
23.76512231351694
-8.32726019256766
-1.17330054429697
-14.26456157642552
14.32888094909956
9.346740394586098
0.08950097004585841
-14.79832298136837
3.021449999588182
-4.516477171540069
16.29335015360674
-16.93322162015818
20.59292287182378
-16.37745543748007
1.707677469762925
-10.43036695418663
-9.348234569164916
15.42680376484428
-18.24168713991292
12.1631179443738
2.763663414393704
23.11376678066394
1.181264500605643
-20.45393981212803
-2.433789486585983
22.88314749671892
-17.33783398500484
-13.30658011500983
5.686365194854089
24.95804890565116
0.006401429866779692
-0.1104847427307966
-0.01769206675125697
-0.145422386133608
0.004145760101613641
0.1629072118721445
-0.1421617890757286
0.07283779929824187
-0.07486620060373837
0.01996522212635038
-0.2460161637429392
0.014926562847282
-14.45632384209647
21.74963412315427
3.020875168051263
-10.31418544897046
10.48556437336925
9.277946357435528
-8.599224040134008
-11.16428669066756
-12.72531747670545
15.26042332620878
-19.06022634758297
16.52512049809006
22.30360116352477
-22.38635898705547
0.002256415824348032
0.08050140781381188
-0.1385326405137826
-0.006478453414486716
-27.08685727209096
16.419105199694
1.955451898642946
8.71230017404481
2.318785012927642
-26.31037095823238
3.149675636157072
20.84191030915193
6.165305148083402
-0.9964146396495831
0.3473709687226958
-5.516261477931912
13.57174673893136
18.13686223185174
-17.24345937558503
-14.46514959519533
35.43388820467324
-13.28389191005341
3.242283905358841
-25.39228019992604
2.378476303912246
19.67123772861294
3.50492827940671
-25.55464231187851
-14.55620760096497
-2.956998536369868
-2.313235817807145
5.715191742908842
-3.100055803959563
24.15089409319872
0.5105608489310853
2.399917218290347
0.2252569067986959
-3.135734974716136
-20.69863574014554
23.99589205661546
2.4179354264498
-1.002126706235099
-20.0322582554266
-0.1311375512422674
21.16552251289325
2.422002337908532
-13.06954317460677
6.669920822437216
3.977620014277824
-28.48628952143622
28.51574075919899
-1.031577944018093
2.504509256337453
-30.35532194674648
7.818554434974311
-16.62954415633398
1.096247840994527
15.53074645520337
-2.329638417358745
-19.25900880829121
21.58540594094424
8.106321328296216
-7.846024631698592
22.03922529307799
-22.29952198964168
6.16148530242323
-12.13116180413371
-17.23307352153348
-11.56654018772493
12.07991466117824
-5.429753974204972
4.916379500765062
15.57332938404572
25.1613441329925
-44.84262659066029
4.107953073676305
-21.63047987614666
22.69407940992702
-29.54988905525403
-5.530996052695494
5.536374335169959
32.46205438396116
-32.46743266637355
-0.7122958874156694
-1.129024305546825
0.02132921989026291
1.819990972923598
0.3791149912036217
0.587490084556797
-0.720262060981523
-11.7608093461189
-11.11032891042513
22.84415843607989
-2.735967325400231
8.188665596539453
6.68368655520804
-17.08965450954377
10.61891030790288
28.41603418366734
-21.94528998211985
0.571173648125168
6.665414977013995
-7.691066693903736
-0.2600435038803984
-0.1642887979952168
0.195703324635513
0.2286289769938546
15.1771449878995
-8.427353029770911
-14.79063711241019
8.040845154329869
18.98427425388127
-26.64136589498617
-18.98249790368018
26.63958954496501
-4.195850267449989
18.68145879772147
-14.48909522285826
-1.889329340518995
1.670300016533074
-1.298328572167943
1.517357895800918
0.5018024473700586
-20.2636960215095
1.314629312251147
18.44726426191997
-3.948079858150507
-20.2738502419784
23.97022402185861
0.2517060782477288
8.088066509240111
13.76662947805736
-10.01255037312431
-11.84214561417017
-22.86069185884173
11.07689801381582
6.781407582644611
-21.17932161076881
14.22230237138683
1.638846996540603
22.0030199610624
2.459804062885255
-26.10167102045275
13.03927861472513
-33.61775348715989
18.08809410054692
2.490380771902703
-34.73217252171289
-2.045151932016886
22.58048917388385
14.19683527977335
13.43019830299301
-12.68910448035073
5.278185452262527
-6.019279275694141
23.74078538591311
-20.53999745815264
-7.224565520220896
4.0237775925416
30.25964534426767
3.40508119069535
-8.726272570335535
-24.93845396459214
-35.10395806616889
24.86806588326052
18.40989287762638
-8.174000695197275
-16.16560872315667
24.5412961598612
-8.384271760887088
20.76866262427507
5.955851927728396
-19.50899866794086
1.152258268703746
-7.141793448062782
-4.769655834936913
10.75919101304063
14.73855031394713
3.205523682932411
-15.53611883799018
-2.407955158874644
26.07475782614767
-3.599707915860827
-29.03331695088832
6.558267040618103
-28.80710779841563
19.85482068094538
3.88746707700256
5.064820040692574
-3.296204878655826
-20.369568012284
3.270617897346163
12.49863794200411
-8.344987803021134
9.735759491668778
-13.88940963060758
-12.19689371234042
12.15314857991049
1.560332249115726
-1.516587116613441
21.43934069174362
-4.282058379961594
-18.40211818753933
1.24483587577408
-0.5524051259634781
-2.517735318654719
-16.38773307426837
15.16232519566598
4.700165161348814
1.32628445975974
-21.18877481676039
-17.5250981783693
11.38681086292776
6.607783843678046
-0.4694965282402744
15.03222981981121
-21.04113088015249
-10.64392465768378
16.65282571814859
29.35910069059073
-8.907656095982739
1.36045740657784
-21.81190200074283
-22.11918077146607
-15.06588277600179
10.76994459448223
26.41511895310589
20.3085924037341
-5.450000655265959
0.3037334472053929
7.590625646659851
16.41531042201423
-30.29809878184917
6.028639579754825
13.85282196254191
10.41663723956647
-11.13432842959529
26.49152648823456
-0.4716563512730804
-14.88554170705601
12.64240743790204
0.6706861779550437
-17.7807707100807
4.467677093303013
30.74768166930342
-7.225138787644506
-21.06586224884181
-2.456680632812135
12.6808435836374
8.444338262778931
-0.5620688613097301
-20.56311298511389
-3.180419840067351
-1.198519630255877
-16.81771495240844
0.8327463683398209
-5.17353525210791
-1.43796698277877
5.778755865349182
-1.264117495075774
-22.1189423759574
22.88873286832771
0.4943270027984498
-21.64889899990336
-3.426131636181601
3.668252431021275
21.40677820507491
2.812041469749951
-3.693715751287114
-18.12039368646586
-2.448163557063399
0.05150446431770558
0.03423559764042456
2.362423493844626
-15.44553189418594
12.06061533441056
-11.79138455539814
15.1763011151965
20.11001116187339
-18.44081729109871
22.66401482366416
-24.33320869432225
32.66189553728575
-12.84835988994175
11.25777030944743
-0.03403211464310464
17.5626027883984
-17.53301302345753
1.9245988489995
1.719019715530582
-1.807048169706177
-1.836570395559212
4.265977641777758
-3.530970362575655
26.01021742474081
-26.74522470390391
22.6008901879749
-23.3378840529219
-4.820935542318646
5.557929407310099
20.59978440586974
5.658953492845849
-7.037731514332428
-19.22100638433041
-14.01363254336407
9.113504054579968
14.11224758426908
-9.212119095473472
18.77281636688082
-11.01248208363414
14.97021085942642
-22.73054514265028
4.272673385572406
1.238133802954504
0.6544979587056233
6.48853631241438
4.759421154754573
6.035346586022286
-17.28330405324484
-2.431557168364929
-10.00218353927827
-6.6627713172309
-20.47744871520536
-15.27503797537051
50.12730417806647
0.01947275199104696
0.277965801668105
0.3071646266163163
-0.6046031805893112
0.627934572795861
-1.350685519574758
0.446815501569033
0.2759354450747847
22.12004095345552
-28.09731204732502
-9.077076610445639
15.0543477043961
6.696004915404963
-4.783789025489333
2.47116315138046
-4.383379040895906
12.70510674928321
4.636092651674724
6.554333877814363
-23.89553327887046
15.00141809672735
15.68276775795014
-15.76647175005136
-12.93388018174374
12.2626109484543
12.79643958532096
-12.12517035203385
-22.8709671520903
10.48848168955029
12.37148092725607
-21.95574450806384
10.01947598147378
-0.997611655167552
-8.957028876688147
-2.591330005459644
23.81096983070151
-23.59233321035009
-0.5306591469308574
-0.5763645419348187
24.69935689955817
24.43640870777885
-5.415285145121095
6.999242636761991
-26.0203661993888
5.877522337897477
15.25761391846361
-21.29395814567311
0.1588218893340522
-11.29357257779975
13.19277048967964
-19.93519228599509
18.03599437412353
15.72315299173075
29.44190193396955
-46.36874038869779
1.20368546301693
20.70590138908313
19.45859648129629
-32.81976626800979
-16.7321738840843
-0.3226354788373504
21.32078700472263
-11.09806987551459
-21.08445269286583
25.59772554624798
6.584797022254535
19.96198404380175
-1.343364439434975
-18.62341321225293
15.75548978844105
-0.6641062424788496
1.623570145041654
-16.71495369151392
-6.103867419541858
32.34830325812668
-22.44978091867925
26.46421785576806
-15.56676617108165
4.601543157819719
-15.49899484243399
28.76349240567099
11.60885988633962
-39.09414403657532
-1.278208254961157
6.021114583983739
9.477510013704974
8.444939114245697
-23.94356371191543
22.59310511418184
-20.7887469386296
-1.811647455639303
14.90390762892754
8.895558941068446
-10.38252879226098
-13.41693777755455
20.45385540088045
1.907029216813525
-22.30675893562232
-0.05412568208507801
-0.03519386817521813
0.07273624285214896
0.1350048948953789
-0.1725472697298515
-15.79351404327565
10.31839026803132
5.45870839294057
26.78276873278208
-10.6614506887948
-2.151212918650699
-13.97010512531328
-9.585405081502081
-9.885584114874904
19.43826296692268
1.680760455344
11.62375526511192
-16.62525700320849
3.320741282858562
-23.31535215870975
19.76564646484902
-14.91768357687643
18.46738927125405
-0.2642144393617539
-31.53714983168883
7.787182163388791
24.01418210777426
-16.21517004076447
-12.71327580787544
-8.162902626422703
37.09134847502779
-9.158740533204016
-32.39952765495919
10.6304478264275
30.9278203617585
-2.94126832332928
19.61815678784779
-17.64987586835126
0.9729874038251803
11.99673882560897
-13.86667205518307
12.40407224927525
-10.53413901969046
19.60203109828791
0.2018597539921502
-19.80581036174553
6.040907401556707
-6.234280812884808
-4.671274588724366
4.86464800005935
-4.340827495206018
-18.93754071959363
4.246585679906858
-8.507592502628702
10.45069857639709
17.44008132058211
-19.38318739438066
-1.839653247783874
19.65856081061937
-28.35197013392787
10.53306257109611
0.06076406947192942
0.8562618636370496
-0.2890913605009799
8.070783890063128
-7.723819250074834
-12.24849326658454
11.90152862659829
17.81584369117817
-5.83146469684784
16.96258523468291
-28.94696422901985
-1.64855211647491
14.41877864006874
6.666021854063875
-19.43624837762187
-0.01195176922549809
-0.15554296923345
-17.70239859081623
30.58572308262024
-8.78729038200251
-21.78222548570143
12.17422328801506
18.39529257977308
-26.86776821447257
-2.857265099958461
12.99285943036327
5.714164938049974
5.807918716232211
-20.47525974492705
8.953176090653706
-24.19233377903458
-12.81420283767118
10.13876840225605
0.09049880538451595
-0.07153636015946661
0.1029186637216313
-0.01241985837751882
-0.06616799521631524
-0.2356218358222864
0.1284257916469137
0.1733640390195637
-7.175666217908216
6.513394903365969
-0.06147194523171122
0.7237432590686935
-0.02820241901720048
0.1903533920472996
-0.09226212193481534
-0.02683170276547949
0.07471624469367023
-21.58953390465999
-16.4477782210496
42.17774656452632
-4.140434438807481
0.1360245785969773
-0.1012159135783253
-0.01932776362145731
0.0871382399390242
-11.43905911737187
15.47497636397589
13.40351279893319
-17.439430045512
10.07406334030333
-10.27605934801859
11.77273867256261
-11.57074266484112
4.207084547317785
-5.548116599241404
0.005713941624909091
-0.08058014231975644
25.0077286834364
-22.57316490986553
-6.24353092582227
3.808967152273688
15.57996565624786
-13.21228946335281
-5.66452264640413
3.296846452082329
9.525228110860702
15.60586995068199
-40.57662995571261
-0.1401435647652508
0.0187474186602363
-0.02172143362023857
-0.09542999768864924
-5.59319819073016
0.9058404866253615
-15.54468299111549
4.539203461309103
-16.78657957532895
12.7123121883037
-0.464936074386049
-8.67892580439875
1.511346095354323
-10.37384853604715
17.54142824509303
-8.236286310121489
-12.75274851271365
-16.4671605290292
37.45619535190373
3.497464779867892
-6.641804444356874
16.49541631702468
-13.35107665303898
-22.57511289441875
29.81716607332861
-7.244751409290703
-11.0481500496425
14.00593147880127
31.60919448265211
-34.56697591157997
24.12613133641635
-17.50717386171393
-9.740408990825884
3.121451516208163
0.005123881995791128
-0.09686120612164992
-11.97952623837058
-5.288010220532092
-5.194766780500577
-14.23086796829293
24.18025385229128
-17.36358682079221
7.41420093666428
-0.03725785165772548
-0.03378681047134889
-0.05897928530507076
-6.056696567605585
-0.08083027076325909
5.403984106197656
0.7335427320891406
0.02010127428923713
-0.03829445210751361
0.1368639695438278
8.477890633039298
-12.85027822660217
7.84858142869413
-3.476193835187125
-0.8210188256653114
-14.14926235871345
-4.435225033426841
10.67386065088607
-4.262695154417523
-13.63806490968465
7.226899412882815
1.877274393832562
-2.707087138727778
22.01107136526225
-21.18125862032979
0.03479589486365282
1.146813880638805
25.31022987869608
-22.0908303305116
-4.366213428306943
-24.5481247142192
6.482379950991886
0.2178480243799323
17.84789673887028
0.7029752772062849
23.86518806074478
-24.59572696311884
0.1076252627536598
0.1577586032629227
-8.400461943605722
11.54163109519135
20.18770149002539
-0.6542370367629092
13.2730581853736
-24.56819912325357
11.9493779746763
10.31951908669294
-0.7263169250200567
-2.045830887563958
-7.547371274094024
-20.46695053825081
7.651559983689717
4.307798051900307
-2.743468882506829
-0.9827299554789767
20.9814652520125
-17.2552664139364
11.81201442906286
6.325747318655666
-18.14571590678959
-0.4701205832861319
0.007998764502353579
0.5100512847333845
-0.04792946623553685
15.22975648070928
-9.338207210576257
9.66394216933732
0.9793586989838202
0.1418926142657163
-0.005317829160935176
-1.115933485481574
1.214482053880789
27.39489111473544
0.749727522474225
4.265235789162884
-1.235262382931849
9.387608374480514
-12.41758178053652
-5.037326342398865
-7.057314903528512
-1.196023068800743
0.9381583239890192
5.198400245174112
14.15597974737873
-20.29253831647913
-0.4295451982627777
1.458402750063224
0.9428499488398069
-1.971707501421985
17.65943806962023
4.644428253540973
6.076575880768251
21.95796359028918
-19.15924880636337
-8.875290664705837
-3.695523022813029
-0.3717714025160997
3.31647975996693
0.7508146654101862
-1.398296396862399
-15.04233171698185
16.43523269460667
0.8244250227180789
-10.92910314277512
-7.114412853602709
-0.5855533335807415
-7.827256063295915
12.49082655125285
-4.078017154288586
14.46156433915887
-9.824562485882094
-5.222555186792619
4.981879615666569
0.1936360468126896
-7.490607835366424
2.315092172779948
-0.05935207494221074
-0.007741782942680782
0.02827432049119004
0.03881953727449144
-15.87935845469892
-3.027553224971902
18.18429502025069
0.7226166594564555
21.16897925360076
-22.23746328019753
2.328152253663097
-1.259668227018202
10.94300883930858
-6.661013578553868
10.17956907840168
-0.4797100009073128
0.3775034091445681
0.1016756428924585
0.0005309484177714243
24.16644816509652
-5.676567456987502
-0.9854167721859763
-17.50446393585254
5.005359193395631
19.11778354851275
-0.9598668676022429
-23.16327587392266
21.92939281847039
-12.23324938006956
-0.9380169494321784
-8.758126488903079
1.253063779672476
-0.2021762230782022
-0.9763455252028115
-0.07454203170433409
20.94820122583234
-13.36136001429292
4.169534064824281
-11.75637527628263
22.85115384174049
4.2247749899559
-9.341510454919892
-17.73441837674553
-16.87352893975181
-15.4328742357423
30.49402841758429
1.812374757798774
0.3256151184045799
-1.011557079737678
0.5506893482349443
0.1352526127696255
13.68219218324927
31.43245720772569
21.79548765054193
-3.367963636218891
-12.98947129318994
-5.438052721052894
0.3874900042836955
16.5616974786723
-18.43621319870234
1.487025716026882
-31.33854779445323
15.48133444401171
8.223284498231376
7.633928852436183
-20.24538306742894
-25.0846320654783
25.91021651489427
19.4197986180091
-2.367936003497258
-8.106597415984528
19.46254047820744
-8.988007058712212
25.15806869870658
-12.37625383757272
-15.14975086457728
17.54509867549592
-0.5700280735125037
8.1829980967909
-2.596311162686441
6.637561217433325
13.50384862084718
30.50107394516608
-39.17983820603749
-14.37162733340284
-26.32840637928556
-7.581329422661221
29.68001205164662
4.229723750357665
-13.47693565631237
16.66209679366361
21.43367300623258
-24.61883414326573
28.9988962387138
-34.65077905529883
20.2749022125945
-14.62301939574599
-18.55089191366621
-8.167620937010659
22.78110689229888
3.937405959281625
11.46778055802249
-29.61527550597344
4.670559292306108
6.451442677623194
-10.85827430464805
7.011230636187119
-2.604399010178172
32.9528406623495
9.617074334681016
-1.672626540014898
36.35682317944621
-13.24849654928801
-21.43570009002772
23.23976332152267
-11.97631154276269
-11.2745508912751
-17.25693814842447
19.1101418728268
-3.053741648449918
-16.06070080960606
-1.061446054580491
0.5628122678459997
-0.2646442284667889
0.7632780154559262
-10.95881469590785
-18.67573423237845
6.15626601712541
23.47828291096225
0.1609612157268968
-0.1750218506175559
26.07386727724467
-8.886977779478919
-3.911382606090466
-13.27550689175469
12.50099799341111
9.601590023054523
-10.66855728880534
-11.23454442964467
15.80487464437517
-21.42407827993203
16.85374806572742
5.333381319202281
2.916874912630074
19.05836272985454
-27.30861896156858
0.289916046041345
-0.4077085659429124
0.3202686392912502
-0.2024761197174744
22.15038997575656
8.844820915955234
-25.66182957210475
22.20826714370369
-17.9879913718741
11.93639767811116
-16.15667344990469
32.30473534342182
1.091525201451088
-9.49701239460526
-23.89924815037834
2.405946530714709
-27.75370246748633
26.52984102607408
-1.182085089110751
-12.2344458801679
24.3931070337493
-18.88144742766758
6.722786274044051
-16.58832689465326
10.95147788298606
-4.40329312748649
12.71018614251899
-30.66903400512669
22.51506015966041
-4.556212297094798
4.415724594182039
-5.180535269300955
-21.18765101799847
-32.7992191724399
26.65345927866193
-3.597029932681322
9.742789826504623
-4.543322196204151
-22.27171144862981
13.57779849234075
13.23723515250537
14.23059500167767
-11.92352332941006
-5.81783958755506
3.510767915295218
-0.3035920574939662
-0.7220770760944386
0.5800926847186146
-23.82071788071567
26.11868147871969
-35.09718277037642
21.70255861874136
-2.189790663508539
7.140691323467849
-2.909822507857037
27.99820222099482
-2.61760747356958
-22.47077223950938
-21.96354220626092
24.56283395846908
5.395421529116065
-7.99471328124335
17.12817138823437
22.28900998998955
-28.96036691308251
-10.45681446522018
32.32292052422317
-30.14623035013564
3.545816684750444
-5.722506858954326
24.29876112981281
-14.48180489962669
-14.0110268634123
4.194070633277498
-34.39176613475007
12.21172345561254
32.89915038685605
-10.71910770758047
-24.24646036985589
12.33860645858507
-22.48391222337947
26.85726699685382
-13.13602881694047
0.3482843136328613
20.05687271957002
1.617257502500428
-22.02241453571916
-5.760719568401987
-19.7146395855621
24.73124096643129