/*--------------------------------*- C++ -*----------------------------------*\
| =========                 |                                                 |
| \\      /  F ield         | OpenFOAM: The Open Source CFD Toolbox           |
|  \\    /   O peration     | Version:  v1906                                 |
|   \\  /    A nd           | Web:      www.OpenFOAM.com                      |
|    \\/     M anipulation  |                                                 |
\*---------------------------------------------------------------------------*/
FoamFile
{
    version     2.0;
    format      ascii;
    class       volVectorField;
    location    "1.9";
    object      U;
}
// * * * * * * * * * * * * * * * * * * * * * * * * * * * * * * * * * * * * * //

dimensions      [0 1 -1 0 0 0 0];


internalField   nonuniform List<vector> 
19632
(
(5.019475893283604 0.01503013824118433 -0.01443404522728156)
(5.001471365128638 0.02063415087036776 -0.001640770943619139)
(4.999822784273186 0.003323936229848696 -0.0002830281751810526)
(5.088533417807531 0.09917125488651064 -0.2098122286239072)
(5.004784900331471 0.00699546160998603 -0.004474280695618446)
(4.997847592031381 0.001454069332807675 -0.00525413548369975)
(5.068555591416973 0.1475412273740357 0.136641977329178)
(4.999744183172949 -0.001776711764254776 -0.002376082038999017)
(4.999527164177289 0.001669066435589536 -0.0497284372424289)
(5.037586758226566 0.037351321887146 -0.001585564482634043)
(5.038402369105474 0.0007486386388658214 -0.009340225027367035)
(5.013064089467519 0.02220235304799153 -0.001205143738898735)
(5.000517373825182 0.002132522670858501 -0.0002432083555028814)
(4.999268061662276 0.001329997934511416 0.0009750700642068589)
(5.025927697110388 -0.02639306821287026 0.006226667235205709)
(5.097654789292252 0.01627235786315135 -0.009639201221134071)
(4.988278404613264 0.01717232289085765 -0.003590374911296305)
(5.047301480492949 -0.008313302592079812 0.0427017582318758)
(4.999083647958366 0.0004270491322164446 -0.001265349784024325)
(4.999531585183548 0.01627524016900858 -0.001729810071767663)
(5.026107987067709 -0.01284156732833472 -0.01815284747022573)
(5.17076542617361 0.1291671567782308 -0.1516172462342055)
(4.732407633823572 0.07584003079434609 -0.4242967644972202)
(4.998755219482939 0.004778412997727314 -0.001332299463631265)
(5.001826286083809 0.00497150789841936 -0.0001859753620458171)
(5.001186236982605 -0.000330565508111281 -4.073098281939204e-05)
(4.997930293743181 -0.005497909588430133 -0.002953854257548951)
(5.037356466004758 0.04504339502593223 -0.2618379591974815)
(4.967895496444106 0.01982601286543542 0.04359235400660906)
(5.002222859473733 0.001571439405212708 -0.0006179593650812431)
(5.000137097661448 0.0009658060531305549 0.006835903699277514)
(4.99597933134336 -0.01064910460457111 -0.0131264419018106)
(5.06521334958662 -0.005936022336596636 -0.06275433633056753)
(5.149617238581247 0.2039170405575591 -0.2163388574130974)
(4.998786743774249 0.002855504460741653 -0.002398716318793063)
(5.001199562555595 0.001545873242109012 0.0006670919675872348)
(4.998384596782955 0.002372075331424579 -0.002390924226948273)
(4.997497135889124 0.001048246218925442 0.0009211819109363002)
(5.000258250383279 0.002598226525865642 -0.0009535572645467472)
(5.026914219117212 -0.00892033120031472 0.004590798654194935)
(5.001807491898134 0.002908122376164373 -0.002895496404457161)
(5.0100131460488 -0.01515590010335072 0.01752275901397641)
(5.001942308774953 -0.03467338067792371 -0.001644131087215744)
(6.74237418975448 3.515059962107145 -0.6054408170363274)
(5.001303274994442 0.001295512090953827 0.0006401210598057196)
(5.002613589031776 9.646803503368304e-05 0.0001094311894997975)
(4.99989463011431 0.00161105324972755 0.0001524128307492693)
(5.000143768198978 0.001467391860383281 -0.0002371228964121996)
(4.98739779814469 -0.01335058958187645 0.02529232359804131)
(4.924548844831207 -0.04965458083354896 0.05591673675062386)
(4.996241454309319 0.01485512961992078 0.006764473162391087)
(5.000440737540834 0.02496029169658481 0.00155369651793231)
(4.998183476860925 0.002974508039347067 0.007030237089483023)
(4.996438247446426 -0.00646226567705406 0.01931971113166417)
(5.006152763739821 0.01327325158182338 0.002096451828074267)
(5.003379934529103 0.03569103976847433 0.002665900935615582)
(4.995337436647818 -0.004554860235304722 -0.01834424255878558)
(4.999501036056136 0.0107297629824965 0.0002572224408661411)
(4.989671332245594 0.01684928881715661 0.006399812176264406)
(5.030842969445052 -0.01964612971163253 -0.0003178403850987893)
(5.00104801286904 0.01461572355205428 0.0003909852306830898)
(4.997748999796483 0.002993354052415046 0.002056257169914607)
(4.957098165114593 0.0365686628906649 0.06510017269078872)
(4.634252791658122 0.3781497056480684 -0.01913938269355375)
(5.000134830951109 0.001478395898665396 -0.0002764379277676389)
(5.062306107750429 -0.06741348372006713 -0.4515975818322021)
(5.248768043552095 0.06063706903836096 -0.06836637750330894)
(4.996435556996857 0.02591254122784906 -0.0003065284734043779)
(4.998955560654691 0.004672830294573748 -0.001536100927856678)
(5.006747928810785 -0.02587957130487068 0.01658498945485586)
(5.014584568100498 7.41168668110453e-06 -0.001869678678444897)
(5.000849318471835 0.001941447327077509 -0.001082842648281835)
(4.998146490123949 0.003185024221480163 0.001651464089554825)
(4.995555071894911 0.02011351445878528 0.006382667789037256)
(4.999966423015287 0.001310564173302853 -0.0001310736594658933)
(4.999959524704449 0.001498048122405016 0.0001064666534307462)
(4.999677156031948 0.001575539398933384 0.001289598651496785)
(4.796558456460603 2.87545930025948 -0.2649319797903398)
(4.992588529185898 -0.7256035918691781 -0.7678426523456107)
(5.038408172490467 -0.001574590842027166 0.01728902560114698)
(-3.485529480206033 -1.837078442565119 -6.686142440549437)
(4.967587783218138 0.3036490795977421 0.3116934126005008)
(4.998631020246411 0.002359403910398354 -0.001436042016687857)
(5.000489712581232 0.002690424816947054 -0.0002664365600118606)
(4.999794875094411 0.00115784346557638 -0.0006418623152148793)
(5.015199318518669 0.07773340451857502 -0.0451693637226409)
(4.999714871155882 0.001102973952301371 0.002035413748849239)
(4.996384471832252 0.00509960991576398 0.0008248168290034432)
(4.990580805049961 0.003373435220214275 -0.009149353878722266)
(4.978508254711124 0.050397623670722 -0.06932857263587046)
(5.033182414140999 0.01256962179888226 -0.03731303035423289)
(5.000782102548623 0.01740487473359436 -0.002318228589363927)
(4.984250420305933 -0.03732540276821333 -0.04571636986010362)
(5.031118352152144 0.008894802444602241 0.02125808258633479)
(4.997358374415422 0.02495923089178599 0.001287854104838027)
(4.999635286769394 -0.0004478497226913963 -0.004629456526164239)
(4.997173103636441 0.004375297935194495 -0.006956576813257986)
(4.999814972582953 0.001643513160416495 0.0005196269457892567)
(5.000324232369824 0.007946773520758274 0.002555432392685264)
(4.999632098407614 0.01930855078395784 -0.001603589172480802)
(4.563181859152568 0.6249092147478846 0.6587451669309861)
(5.000985444584813 0.0004457884187302156 -0.001341745804398586)
(5.014601659679819 -0.002172193626676486 -0.001783501975916426)
(4.999723118935758 0.001704081474860605 0.002691321107940658)
(5.058687406778428 0.09227163333827768 0.2133789916573759)
(5.0609444826201 0.02685127679304565 -0.0511585029938442)
(5.020993402623424 -0.05182744921923649 -0.01814872424452615)
(5.035589796461405 0.001599766377370023 0.001550516466796173)
(5.000233798303248 0.006880478632898727 -0.001099432287622395)
(5.000370798101642 0.01953458178604042 0.004368056298469749)
(4.965134173384353 0.2350863636722227 0.3277413263925453)
(5.002223177071489 -0.0007107573709007192 -0.0007253541121460125)
(4.995643452945699 0.003122869646997314 -0.003357384258049398)
(5.186417056991906 0.1419456929811211 0.110302452573846)
(5.000319726322536 0.01054537575555154 0.0003355362028617069)
(5.015975665608969 -0.01001942953017653 0.01086366110651898)
(5.227525064591737 0.01017718553371916 -0.6425124730996475)
(5.065914108753407 0.1694241034160539 0.003983837064515031)
(4.999340748924303 0.01852613770789374 0.0171288390933305)
(4.999473664890409 0.002826208865161439 0.001829438012576583)
(4.994825681519115 0.01794401022420342 -0.003081806371002423)
(5.001434201213143 -0.0007138948144758344 -0.007181122996170026)
(5.00059385118792 0.003183241818641236 -0.0008569281514047678)
(4.999669359263688 0.002255287641033764 -0.0001660896066582969)
(5.214702235857715 -0.05852453754695831 0.03119846969703457)
(5.056309795381647 -0.004179358096841085 -0.02894160948146474)
(4.999438331722422 0.0007611822769261475 -0.001659823169230132)
(5.007170325340915 0.004591347381974133 -0.0008431235834873392)
(4.994176905721188 0.01364525869228823 0.00371828319283709)
(5.000945849843735 -0.002344109220200496 -0.003155078737246084)
(5.005255734922306 -0.006554336956304307 0.002875232266581129)
(5.00063792973929 -0.001194819289075549 0.006150063488393549)
(5.0572925827146 -0.01070270203894385 -0.008930194449829384)
(4.999700668286473 0.0022025128743425 0.0002692817522968252)
(5.017456386558706 0.03463467017003292 0.03558919414049656)
(5.03051439090644 0.0009568385903750196 -0.01117000430067308)
(5.006218334133393 -0.003601452866510308 -0.006431178123138076)
(4.987779808612583 -0.01042767857607694 -0.006897121796623238)
(4.99946685537379 0.002664336963191855 -0.002737939467965063)
(5.003765194844764 -0.01325173317012802 -0.009232172244056588)
(4.494584028667545 -0.2073779347242404 0.3813007056120324)
(4.84639170465318 1.165585398466051 -0.3905472074112551)
(5.266631399714768 0.5081121251688405 -0.09386979165424306)
(3.979286426810158 0.3214697167446801 0.04254451084243728)
(3.012386613825455 -0.6644795048279938 -0.7019654354370466)
(4.999597746176263 0.001635930568797657 0.0001530778601204182)
(5.028264894025149 -0.0001067447750742766 -0.01053784778208354)
(0.1525926177869059 -1.551791408802477 -0.07981339985277849)
(5.016747547440256 0.01251459275175944 -0.009423439889203793)
(4.999196431465109 0.001553296881998492 -0.001219276724079933)
(4.97910357882937 0.00882021283594156 0.006942332481862412)
(4.975307243816836 -0.005670861625292633 0.01025143126374458)
(4.986703852733152 0.003286010853891806 -0.00257498488104152)
(4.999913109853664 0.005696263176493166 0.000235188314531967)
(5.106878303474685 -0.02437177808149155 -0.04162058615433503)
(4.985287534247743 1.279538476955022e-05 0.001449480896214803)
(4.999181836487235 0.002145966733576766 0.0001643645523951016)
(4.99784641423258 0.01741078469661111 0.0001089386163017285)
(5.027372388089318 -0.08571079078206688 -0.0152833066727196)
(5.031157893452992 -0.1432380833308257 -0.3452465755545424)
(5.147910309564819 0.09556811489574797 0.3784523055872173)
(5.140634317168093 0.1384546495910847 0.02830156808663167)
(4.532312752161166 0.4006487144896147 0.5351119653578504)
(5.235177723939751 0.1676728712448985 -0.05409562570497906)
(4.990661751410056 0.0004614287387794626 -0.00719595589906024)
(5.000138687074421 -0.01714215030417701 -0.02921251836428857)
(4.998947021615623 -0.006500050378380161 -0.00305742387677307)
(5.00508058680667 0.004279825001947853 -0.1132631133811593)
(5.124025224979686 0.2712052577374455 -0.1371865732601681)
(4.997980129481634 0.003151807208738282 -0.004503839794015208)
(4.999877135794968 -0.000410083121973355 0.003502642551119698)
(5.013955748746867 -0.00187438239122227 -0.001096481529754977)
(5.042732518206841 0.1814066065496193 0.1362791632722966)
(5.001697817373516 0.001177475874749173 -0.002210272812080682)
(5.002841497363741 0.0008867461284923535 -0.001692532443126348)
(4.021862563320493 -0.1564978245536238 -0.0589665920925684)
(4.999621680988326 0.002894312379956403 -0.0002637101604341707)
(5.01578083773912 -0.0005411779001877783 -0.0008278355675315664)
(4.999560566588944 0.001785881645786575 -0.002031439103903496)
(4.999618506755967 0.001560431368697544 -0.001461348396403139)
(5.001018058601503 0.001228774318088645 -0.0002778485237106545)
(4.999496917916811 0.001319247396333096 -0.001119682451135455)
(4.999889297647166 0.001582613182311313 -0.0003329151643929347)
(5.004954347194443 -0.0003545185286505272 0.009501819156897002)
(4.99684243224065 0.02090387803118575 0.0005330030126912715)
(4.999649396149118 0.001682607579780904 0.0006013261183566813)
(5.103148847435893 0.01243183856366439 -0.01234163753832194)
(4.999843789760849 0.0006624094162383235 -0.0005331317675400593)
(5.003107876705783 -0.001930782900398926 -0.003213328430188468)
(4.999014857743704 0.001087361628929783 -0.0009048550927233886)
(5.000645032676718 0.002705343450266014 0.002942726377325413)
(5.022358033071304 -0.003561301570382356 -0.002095969826702744)
(5.040280999618743 -0.02535179803819229 0.005289473998261051)
(4.995286990510101 0.00527682453805921 -0.1382508886377188)
(4.999873841116734 -0.001222961212935397 -0.001207955728076142)
(4.999104181587783 0.003535773452084277 -0.0005749907790440468)
(5.008507382286625 0.005966050237628209 -0.0004397603563003676)
(4.983220481968632 -0.12605168236636 0.1721355759452635)
(4.988113699899978 0.007178958834651912 0.003030324067615705)
(4.889887160841025 -0.02537625815655756 -0.01001647397911052)
(5.000520307649268 0.0224825964911353 -0.0009965449128003818)
(5.015208862022708 -0.004658246280736026 -0.002817797269088841)
(5.000032156242485 0.001332953388892072 -0.001125303629656622)
(4.98713420466863 0.009338973748058997 0.001932670366543321)
(4.965458232731033 -0.04258084997141615 0.06187925900651992)
(4.993630245869002 0.01181564763005626 -0.07614675602503905)
(4.999579183228327 0.0002506173011949983 -0.0005227792774021981)
(4.994040500372278 0.01081763057983831 -0.002668940396109127)
(5.001522816967151 0.001704217765335043 0.00245536956343363)
(5.000433759016774 0.001761610192641902 -0.0005794821735959046)
(4.990205006483547 -0.02203357859234524 -0.009893870100001621)
(4.999861478226188 0.00170048368199487 -5.590877175875253e-05)
(4.999712246291067 0.001374604317941729 0.0004267558928571399)
(4.992071321877895 -0.002452312794666639 -0.01263668789939202)
(5.000886456346619 -0.002210851312849834 -0.04048439717146785)
(4.999975558205518 0.002682015494080103 -0.002184576556681926)
(5.001328638249723 -0.002035740861198477 -0.007222419913672942)
(5.001497650970623 0.003015282489191854 -0.002638542540148238)
(4.995921864862016 -0.001993205097669449 -0.003764894792341372)
(5.009526956227744 -0.006546207860275181 0.01974428606176443)
(5.047516544810002 0.01791731571086128 -0.01466200197978313)
(5.001736458785834 0.001164510141168723 -0.004782031525866062)
(4.999821774973104 0.002915491065643604 -0.001180610579867081)
(5.000207628758423 0.003315389979025506 0.0004008733111395019)
(5.279259659693058 -0.06738196142407181 -0.06414641487970842)
(5.006007917063418 0.002263941127405716 0.006579415473464572)
(4.993590477924311 -0.004490160863285333 -0.009525980361086097)
(4.985041520586461 0.00861293436929276 -0.0049401340787022)
(5.000133948093146 0.001253953006220805 -0.002316987748653253)
(4.997327844269877 0.00181470886250799 -0.0005119713083560843)
(5.000176307052227 -0.05443577501616271 0.03449716671518194)
(4.999662118381029 0.001650221169687798 -0.0004052747545676049)
(5.002446965593369 0.004821630621370712 0.009112478548956448)
(4.998372986512268 0.001367523238141869 -0.0002467222466822742)
(5.000313562351301 -0.01555807617328743 0.003269211947661345)
(5.00245184486266 0.001107646620493704 9.707909163941999e-05)
(5.0007713209343 0.001278954132944333 -0.0002260672078669641)
(4.640382187632821 -0.04331643160828453 0.1076339300109251)
(5.020121592629802 -0.007123310398535859 -0.004294577043695185)
(5.00059237186425 0.005714884903148176 -0.007443959997881021)
(5.002763570516236 0.004272910479309265 0.005262219966598353)
(6.051238075683707 1.463538208532159 0.6346931585392057)
(5.025962772660453 -0.006811007323985862 -0.0036964441034897)
(4.952453649223354 -0.01876498087502181 0.02821819686495427)
(5.000166784633054 0.001919184641007589 -0.0006328219512234117)
(5.001290517753446 0.009469383972615746 -0.005361273404016371)
(4.996798881935754 0.03323529730880249 0.001839152803361135)
(5.0273941454674 -0.005779087254242725 -0.009506872297791343)
(4.999695386742428 0.001355857257843918 0.0003788425111024648)
(5.000432059399413 0.001513511279909003 0.002118893443996179)
(4.999916911847751 0.001740002741654285 -0.0001398951109178536)
(5.000237371046963 0.001421628006583855 -0.0008399666214471241)
(5.012584169285222 -0.007687671358004994 0.002975943217691489)
(5.012947605605005 -0.004634034431577927 0.0001000314221285853)
(4.975671546644475 -0.0479331629639409 0.002952337828643095)
(5.341606212822595 0.04224342803121164 -0.06139276054830631)
(5.000047630127743 0.00292243461284026 0.0004721538895781237)
(5.019501836635788 0.04004580975199083 0.03429488049518027)
(5.039701978180162 -0.00916098440527648 -0.004274475518099688)
(4.927677672558203 0.03733315316567769 -0.01194174971448955)
(4.981622966358682 -0.0364043015700742 -0.02521840751816218)
(4.996145495192482 -0.005400059424200215 -0.004091180344579133)
(4.99862594684077 0.007421578469746699 0.01018948268479366)
(4.999618598338521 0.001914952447530855 -9.945747973010949e-05)
(4.989684582114738 0.02137069735359209 -0.09437003902432324)
(4.999637964974061 0.002076937120799515 -0.0004610952059164704)
(4.998650475767535 0.002308514157092426 0.0004267001200518498)
(4.998436131362372 0.01465724133127983 -0.00417158823504717)
(4.998822015678302 0.002565238520873273 -0.0004888227888553676)
(4.999928643176898 0.001209939660710067 -0.000391690377678627)
(4.99916229561794 0.001897126482575847 -0.0002638709283865202)
(4.999976816589843 0.0003700185567873328 -0.001491724921345545)
(5.021407054905616 0.06062357523399476 0.04776351035630879)
(4.999433592693184 0.00130715655317638 0.0005388919163881775)
(4.983471961121122 0.01082464478966784 -0.000772342818996046)
(5.001042664613425 0.01611942557387116 0.006419369820672231)
(5.000397114112895 -0.003717729680082569 -0.006255412308440733)
(4.992734563793162 -0.0004406331478865102 -0.009831154897795812)
(4.999625880014327 0.001963878709106253 0.0004994752034672214)
(4.859525301847591 0.185225212720539 -0.2094623588267629)
(4.998082864279281 -0.004920286020908774 -0.004848842162786698)
(4.998062361067697 0.001836427215944264 0.07815128265818855)
(5.006777183760389 -0.01197901708300111 0.0007943742194612813)
(5.000413126744463 0.00280051682031594 -0.0007130743477617599)
(4.567764895627251 1.018103365660731 0.8071090252404498)
(4.976236820709489 0.009428429090426486 0.1590973706401009)
(5.001204580481659 -0.02330949621342881 -0.005630653471101222)
(4.994704844141896 0.01455324146753888 -0.1687898134712148)
(4.896013562493146 -0.01230662842174364 0.06300214434696301)
(4.999605536596934 -0.01383279225374117 -0.000371983118174666)
(4.999980949179176 0.001761544800428139 -0.0003459096493486445)
(4.981013048063928 0.01414883435814761 -0.005913480279666147)
(4.998716122232067 0.005342234277685469 0.01283784065078461)
(5.000172001182802 0.005277947430422284 -0.0005002444361923127)
(4.999480690773437 0.000702454102122492 -0.004137020990493016)
(4.999416784108853 0.001483059751805893 -0.01423388660123428)
(5.012336304868088 0.01731690999939 0.006108335262473213)
(5.407841659167504 0.1748730270452948 0.2920878505816546)
(5.002740655432376 0.002269078675226033 -0.0018213855434898)
(5.014053924610257 0.001828276257516064 0.01474317262378803)
(5.037615790921782 -0.02861457121780008 0.002636625094352703)
(5.002004943022307 0.004525433633199206 0.01354230417355773)
(5.000933242467295 0.001726814348803277 0.0005893524672718497)
(5.000105339297797 0.001857879138195863 -0.0007955542590254588)
(5.041063300187826 0.2930306735624142 -0.3082430893980315)
(5.014744787294536 -0.03168579430616444 0.01255173466500567)
(4.997192920260737 0.003411074109987298 -0.001257296533825621)
(4.999573026152055 0.001386684817947762 8.998741080854403e-05)
(5.001689847002046 0.0009220304973229267 0.0006960306806344269)
(4.999249718498459 0.001071606257955314 0.0001654609086963253)
(4.340196370151011 0.1701016982980866 -0.1596231182233838)
(4.050613248427241 0.1788036551227688 -0.2116388146020522)
(5.070472551985057 0.0005493997110559719 0.0282567931234058)
(4.997758205911051 -0.01817334226745584 -0.01292145760340801)
(5.043867500835028 0.2538973197324186 -0.1180781869972718)
(4.159561259113844 -0.5337401226360828 -0.048280201239822)
(4.104457567919584 0.06795536222462689 -0.24956939615535)
(5.002553042450043 0.002655561500820594 -0.001998696690833887)
(5.248934696799044 0.03044303965350769 0.7159584218299632)
(4.951191027308147 -0.1150190552437355 0.6349346890948935)
(5.003293729954151 0.005695069770618398 -0.002267218693378965)
(5.004241862521237 0.01621107323394206 -0.034154131946773)
(18.08256683943116 -7.280754217797572 -0.109560909542359)
(2.927693292771393 1.386767959838439 -0.4995868507379692)
(5.000231173752073 0.001563008296899417 0.0002102497276084636)
(4.999398724006686 -0.00809420485644261 -0.004491262161664269)
(4.993729832939125 0.03019861840915871 0.01160660101516797)
(4.779222869317935 0.7865000022634238 -0.2940888622920705)
(4.943033864543825 0.06074598759917407 0.02675047829273204)
(4.892935832858004 -0.04681884917886192 -0.007312636536640881)
(4.997118876188072 0.004387771851194188 -0.0006326286518452839)
(4.999836082690742 0.001414137370986342 -9.946252768191077e-05)
(4.999055169476459 0.0008807780676038467 0.0006988722338186788)
(4.996955392100213 -0.008811775637783108 -0.01806213778706147)
(5.001959222801649 0.001612787488986688 0.02250501380355019)
(5.018459875266505 -0.001831337262737566 -0.01451292702281877)
(4.972662150943155 -0.00473789452938334 0.02527360453551559)
(5.173521246155076 -0.05192793548545208 -0.3576020155403488)
(5.042843962396407 -0.00324231847037931 0.002290750711730518)
(3.923289196032442 0.8367478790266799 -0.443925435785094)
(4.997337120123125 0.0009118861739003695 0.009237051425523902)
(2.659920045531735 0.5632329369584796 0.3464203839849629)
(4.330386602747399 -0.08884981871655205 0.6359645346187344)
(5.005681825537614 -0.003311229433745671 -0.002516256249244519)
(4.43597842973766 0.6311308708996831 0.04184541449867477)
(5.004254859562633 -0.001723422249014283 -0.001068523425280669)
(4.631004654859419 0.2605508188883028 0.03296071057831256)
(5.004957912339233 -0.0170627972916363 0.006645197260016297)
(4.857592070320075 0.3887669765777257 -0.738843512141803)
(3.349410396650045 0.4816335016499068 -0.000115972744939327)
(4.97368200554619 0.01059918863791647 -0.03210265903186348)
(5.00144967135801 0.002259124435158015 0.001845733700615266)
(4.970197738301737 0.02737496170203909 0.1412520142383512)
(4.096917513354579 -0.4640684928846709 -0.007169457541537354)
(4.997481444525976 -0.01280370617293068 0.01127351087325326)
(5.000048202227505 0.0001105776030233129 -0.001322271863856761)
(4.999997925112993 0.00296881029308408 -0.002841887420595815)
(5.000949812478034 0.001408683614980487 -0.0008267060733610831)
(4.998610970177908 0.001177996332352472 -0.0007405862268838481)
(5.001125217904622 0.001121742632357985 -0.02218110005832263)
(5.023468938359337 0.06685784933076856 -0.01482575896561879)
(4.999607332875085 0.0005511276382724743 -0.001613100090073815)
(5.037049398678244 -0.01993124068069065 0.006377729645236702)
(4.999764550078629 0.0009489879513606966 -0.002654558541698711)
(4.970459151452933 0.009711974098609449 -0.005630128715629295)
(2.433984490051217 0.2831561382474239 -0.5043637974230032)
(4.992025326173149 0.01224943642592323 0.002924897902937975)
(5.029150828036008 -0.01268315157884926 -0.00816822815120811)
(5.001016961532016 -0.00190320159989194 0.009074597478115962)
(5.93020652999083 -0.4760689618796423 1.332535635639271)
(5.018536801510768 -0.003527351565774397 -0.003293911026007101)
(5.000008556131105 0.003278459561958816 -0.03905219176109203)
(5.459047278194574 -0.5051388301924881 -0.2075689661138247)
(4.994820205291907 0.007305637368123721 0.006583835262380225)
(4.994208797391601 0.006850845457194383 0.007487209352573473)
(5.006362707509085 -0.001082447550686368 -0.003130203776369652)
(3.77680931451327 0.1598087139695316 0.2481296654740068)
(4.999685658393309 0.001992842747710279 0.0005695731261254782)
(4.999053441501911 0.001972597067216609 -0.0003109659981327464)
(4.995756829062422 0.005319237453685724 0.004362734290356962)
(5.044467813539729 -0.006214951038824444 -0.06347181570197549)
(5.000290896926749 0.001910928119435624 9.876907661314578e-05)
(4.996138735970128 0.006958323231977246 -0.001268549017329084)
(5.000130000044896 0.001392939971540296 -0.0006404929303353024)
(5.030670414801485 -0.01040544937293959 -0.01747394969022002)
(5.000231630021518 0.002184728081308903 0.0005326211990076145)
(4.99984909499234 0.001327571066472899 -0.0002256896704717685)
(4.976872971772146 0.01433442280566469 0.009624653106614237)
(5.041967954791608 -0.006910329215900787 -0.02779460470403681)
(5.000091684376676 0.001704091103801625 -6.327732492946403e-05)
(4.99977128941949 0.001665336025183038 -6.010550802956927e-05)
(4.996373584941453 -0.004495602549584183 -0.00395251554358265)
(4.999269291958714 0.001586876714933507 -0.00320345823339674)
(5.000077670259975 0.001585648604171971 0.000465282302795926)
(5.000914602993846 0.002416660111360215 0.001230661110817666)
(4.999657606173381 0.002184982142637546 0.0009728644528315973)
(4.999193918867329 0.003668888146103266 0.001650821556682009)
(4.999673616328414 0.005341440659613105 0.002904366514742461)
(4.999905899214394 0.001422514412426629 0.0007023779348937027)
(4.999423909139225 0.002243757959955287 0.0002293396139742579)
(4.996540651356851 0.004482309522124883 -0.002228811915640193)
(4.998032302799013 0.002085053749117461 -0.002944769109011606)
(4.946281679418539 0.04023114723767199 -0.02125906006230575)
(4.996894137614702 0.0009356109281041369 -0.001903464896887926)
(5.010413902648202 -7.323081639517477e-05 -0.003563264703801701)
(5.001443738381322 0.001779321187135329 -0.00108294220510822)
(4.999963976501772 0.002210437403198363 -0.0005087054966503268)
(5.005454727325843 0.02148205048699424 0.0696074843190209)
(14.01857525034047 0.0275920407222346 -6.373434878439167)
(5.000248388443017 -0.001103595870126051 -0.03922353989144151)
(5.032531665603149 0.008026324968767014 -0.02148369434793187)
(5.000227261818027 0.00238754529498371 -0.0006885890045784061)
(5.046628682638595 -0.04433110568279913 -0.01391733513760136)
(4.999399283049701 0.003016765983930155 -0.001808480334414164)
(4.998361635142246 0.01790031838229773 -0.01712283869052029)
(4.993495501769441 0.007281901731828266 -0.009872766500101691)
(5.001048829039077 0.01835506481975228 0.0008912413007592748)
(5.01269935049171 0.02537202080087838 -0.06598883153507229)
(4.994182354093338 0.01403029986799922 0.002990732527426234)
(4.952954081227952 0.006136154346404217 -0.01678042431684748)
(4.99996177336377 0.005070309592042349 0.000622163371743557)
(4.998027384597687 0.005380904062024753 -0.0008418881589934709)
(4.999884242511917 0.001617914709432971 0.0003324435725739529)
(5.695857337301611 -0.4126079232818001 1.3396750937569)
(5.006256259324311 -0.0008965063320462008 0.001627706746977848)
(4.998782048687216 0.001540249767643509 0.0009536063457024369)
(5.000732290502126 0.002262088336731881 7.16399100237945e-05)
(5.000814397639295 0.0003944511479923061 -0.002112917546445128)
(5.006007799322344 0.005578779694469192 -0.0009975277822159598)
(5.082435035538576 0.00634577282339425 0.07158105132549532)
(5.000364531580165 0.002197588368163404 0.0006763357929510688)
(5.000398374714216 0.001813741723236012 -1.593130868279375e-05)
(4.999937243025069 0.001533372353932391 0.001818389183385178)
(5.001023917078956 0.001538035815162813 0.0008671467279844997)
(5.000286598559244 0.001836447487226391 -0.0006810278799082063)
(5.000374180145709 0.001931477592707569 -0.001097458149771729)
(5.000616979224683 0.002050687416802289 0.001020378928916061)
(5.001040814960553 0.002361476177655437 0.0003472923497450491)
(5.000144793989182 0.002917169456166001 -0.0001711709000221966)
(5.000515534096063 0.003320791321302285 0.0005847368833972447)
(4.988418251070719 0.01389525928539268 -0.007834380093376675)
(5.019300184764446 0.005388046302952938 0.1073400495105497)
(4.987263570945572 0.01476007111851485 -0.00254306665047503)
(4.988911130517544 0.01419659698270311 -0.0207835756678201)
(5.031638456094372 0.02201139603875659 0.02137723684364842)
(4.982021822403848 0.01909891310712275 -0.000354545284209622)
(5.000075971781378 0.002242439942083689 -0.0002781244108609721)
(4.977254483945294 0.006574655140806477 0.0171597530861526)
(4.998048215792775 0.005508624791465721 -0.0005127109940529757)
(4.997764775981622 0.004415262837139505 -0.001566587032356624)
(4.978226859426846 0.00890699355418823 0.002613934670916013)
(4.998683011640763 0.009378132873099545 0.002781420238169153)
(5.000176349934092 0.002206565399985856 0.000257845884182466)
(4.995394345576802 0.009354347453418755 0.001728456957914681)
(4.997567452370731 0.002204268041176024 -0.0001045982103978359)
(5.000131004307661 -0.002550380318262879 -0.003285482929411952)
(4.998848350649092 0.001830099388339145 0.0009327719686694036)
(4.996812677611538 0.005801575086764699 2.838858463201901e-05)
(4.99701141048271 0.008664375426886962 0.002063140701365284)
(5.010716942237012 -0.004217108434087763 0.0003624275683240633)
(4.973050865750496 -0.01653812174893333 -0.02883809263743405)
(5.003907025954652 0.001436499807904039 -0.001548925284705215)
(4.991597319215825 0.005666264504222474 -0.001528220681393438)
(4.996723559460744 0.006592849118244841 -0.0001995458901447241)
(4.998164658613919 0.004345109790170089 0.000614983369861472)
(4.998931291728165 0.002918896848478195 0.0002543496146655524)
(4.998235713924042 0.003068322743111677 0.0005775797308890247)
(5.023257997510896 0.03818266122533376 -0.009833296552107898)
(5.001106613157809 0.003729012531644023 -0.003564943371222124)
(5.003208288512713 0.02710548123098943 -0.008926166269703589)