/*--------------------------------*- C++ -*----------------------------------*\
| =========                 |                                                 |
| \\      /  F ield         | OpenFOAM: The Open Source CFD Toolbox           |
|  \\    /   O peration     | Version:  v1906                                 |
|   \\  /    A nd           | Web:      www.OpenFOAM.com                      |
|    \\/     M anipulation  |                                                 |
\*---------------------------------------------------------------------------*/
FoamFile
{
    version     2.0;
    format      ascii;
    class       volScalarField;
    location    "0.4";
    object      p;
}
// * * * * * * * * * * * * * * * * * * * * * * * * * * * * * * * * * * * * * //

dimensions      [0 2 -2 0 0 0 0];


internalField   nonuniform List<scalar> 
78526
(
-0.07745077513323496
-0.01139874957847815
-0.01615663987659839
0.009315547838906478
0.008400854789489317
-0.003140634488312131
-1.399852879621013
-0.01827482663085776
-0.03915510717712825
0.005247945907769948
-0.03550541283041185
0.1401932953412412
0.1325184658241616
0.6441219096137091
0.09801309864867784
0.004795101549022621
0.02034557215860889
0.02047665904555317
-0.01406773851759797
-0.09251952767034917
-0.5114965495323864
-0.5896067233530973
-0.05238869091387066
-0.006237302430475069
-0.002035452981988503
-0.006041135730270932
-0.01425589248863
0.01124137092426865
0.02045752928688738
-0.01725677435144073
-0.3610344607304594
-0.0101632811897456
-0.3054161119175621
0.005738823313477407
0.01303259185108642
-0.01603866156356593
-0.3644871422520875
-0.01923578772668451
-0.03582232562511293
-0.02585129373448511
-0.1386741649306175
-0.007317547413090567
-0.03500970479136513
0.01030738705290475
0.01297966325706345
0.01273010046461578
-0.04943977957708402
0.001692307961549129
-0.008424095508523431
0.05468907091271038
0.09648006631354719
-0.005444235855771183
-0.3604893893053854
0.02525969630304913
-0.007475560857870076
-0.1470064100581119
-0.1327882192619975
-1.920906635457365
-0.08129104224551946
-0.4301701476126654
-0.02452770956337794
0.01156544883567354
-0.01535491809466865
0.002696265530419991
-0.007218421331629714
-0.009123109390121443
-0.008533996583506152
-0.1203116953123815
-0.008859020399417212
-1.547312531994329
-0.01721909805496119
0.4815642071783465
-0.1663259632887979
0.5273620569198342
-0.0233174874031758
-0.1310322162264307
-0.008202663291054797
-0.06744116781477201
-0.004099055338127975
0.001176650310131669
0.04096688897361841
0.01511374799080227
0.245993743045555
-0.1783608094389942
-0.07515927464273828
0.005805270066106405
-0.3354037019334679
-1.874747416553665
0.005135796789740327
-0.02614988835179517
-0.002911785784582742
-0.1741893282398841
-0.01863865048085758
0.01439814053466616
0.01035008557221308
-0.007693205687389367
0.01493765771867304
-0.008576888816100563
-0.1902883854977405
-0.008941303673497715
-0.1033042156968275
-0.1182033359952107
0.003974341915153034
-0.3225358793490897
-0.008510514378548403
0.01302383977861652
-0.6866900476621617
0.01805414859163517
0.00675722677643109
-0.6529198723670671
-0.07200023634968476
0.002296554056703913
0.005486813721167541
-0.1370699929581099
-0.1373968820403468
-1.594008974269034
0.005607629996239619
0.0244234515732669
-0.1541525518165003
0.003149192916479178
-0.00850201312154731
-0.07314634029644769
1.843525923965391
0.02208593172713254
0.02647725554131806
0.0186404226651997
-0.007913926632888211
0.004932654357188209
0.04095899890251205
-0.1105099484861528
-0.12004846228204
0.01609606891723596
0.07341386706466342
-0.02917356047231189
0.03739258487818725
-0.005068273092071076
-0.7282931788563031
0.03399064773099197
-0.002173862859144499
-0.007532949208571511
-0.09792534256959562
0.03186026741965737
-0.2215635386406426
-0.0005603363300360102
0.01227896847534688
-0.8732100818150351
-0.2077299816945461
-0.03042018623632787
0.0340492065586639
0.0273490879786265
-0.01761991777152383
0.03411611686367975
-0.07340879710628063
-0.01079380389864526
-0.07417783447710741
-0.01173945201134754
-0.01620421797770693
-0.0003108927807329589
-0.06524011865613026
-0.1037627876784257
0.03490735959678385
-0.1474767882223667
-0.1047488989021696
0.005565105068847005
0.006392992925097427
-6.291653722280954e-05
0.002678357958409786
0.009828542022814168
-0.02115907068408671
0.0231415722377022
0.004126878946850761
0.02689792321055573
-0.01362262506985609
-0.1135064028366344
-0.5100699123551072
0.005999697507247515
-0.0005994953563908542
0.02254478323855539
0.005484109964549863
-0.006656696637839553
-0.02092132432189911
-0.1478030354389374
-0.1073992907066307
0.04560839549187636
-0.1205323976582955
-0.01867121475063005
0.05691885219015235
0.06157457865893816
-0.01345195418824858
2.041434585662805
-0.0468529831737972
-0.1576759317298501
-0.01001931176881399
2.953372530413954
-0.008758405177115512
0.02436844121656147
-0.5313721338766402
-0.2264846211250316
0.07760814878347561
6.75847541932728e-05
0.0234803280635251
-0.005269105428162331
0.005909494622294416
-0.00946851114349285
0.008509331587259384
-0.01030834172453846
-0.138220617470817
-0.3584562527302885
-1.847390745048746
0.05131063844070417
0.0290255691118744
0.02605596854929267
0.1946583495836297
-2.262035542232713
-0.8139120582053477
0.05445683220341675
-0.008106750710135219
0.01701693991639397
-2.377551410791952
-0.09299388535511623
-0.6861121434598485
-2.12094315350964
-0.002181537801893676
-0.005918532178008037
-0.02138722591504334
0.05436480307922423
-0.07306370442521352
-0.08428060264517519
0.02075425426070253
-0.1531838720492829
-0.07119651404733104
-0.01452455361330571
-0.005206496203572381
0.1657856526005093
-0.004280877447590489
0.01962132349669956
-0.009671148047138844
-0.009195525257288667
-0.3681240469300746
0.1156079175744263
-0.1756234481502582
-0.1335910776778241
-0.201469299449276
-0.1185035076189616
-0.005253948227086792
-0.2053818864080221
0.07171696106013421
0.08033527523029013
-0.02113283826720492
0.04021027584036427
0.04162790059889355
-0.1430219710529745
-0.1125081804035883
-0.03106730240462818
-0.04640920219832706
-0.3062938876043612
-0.1295390107369432
-0.1650524595887038
-0.05523759633251346
0.010041048836182
0.008776994245402236
-0.4172782890358669
0.3382067025455254
-0.009974506769064119
-0.2189495462540832
-0.01655993476590416
-0.196612158221061
-0.01779250557103441
-0.2230098843719956
-0.7159534000171677
0.07161598592284202
-0.2446458391321871
-0.005765346242182315
-0.04674540890628592
0.01865332073564816
-0.007494353880289724
-0.1088860774098073
-1.223677052001533
0.003716241378585422
-0.001572726844805167
0.004245204875692627
-0.008565265578012441
-0.02324076951634263
-0.4344635459792492
-0.04040772989048019
-0.4102413671474313
-0.2121314139445326
-0.01285705441937157
-0.02713031959773825
-0.2467703097468354
-0.008183797070921536
0.004556554793863091
-0.4477831858323702
-0.004393991208274172
-0.3228802100225318
0.03886894394051651
-0.07653867022007683
-1.214239135042624
-0.09073634600092195
-0.7784083964131051
0.001138261100128857
-0.01058856475994882
-0.5099637061572914
0.01252470387039836
-0.1473620961530266
-0.4910684300331021
-0.132246310829631
0.007591868143422902
-0.03366291356340855
0.03915485238209669
-0.3120301817963675
0.003799747974133345
0.001940271739085787
0.01079108531538823
0.009013534181147337
-0.01876493044622161
-0.1449216488075882
-0.0574542544109374
-0.05196283328594799
0.008736742833706696
-0.1321017540380005
-0.01896958929977361
0.5106797902016867
-0.4094086460467408
0.07221730140615738
-0.007382281952748381
-0.1469071077978774
-0.00791859236881084
0.7219096828646908
-0.02293543933092044
-0.005342266511948878
0.007155941996888304
0.005731944878464347
-0.08413351365092921
-0.004320976429783568
0.04613703172128334
-0.007354582373318904
2.23722060870387
-0.08039253218312671
0.006856776435608936
-0.008154226739484438
0.1162398991631652
0.03153622169316011
-0.1084657997276485
-0.02025182700395279
-0.2245525128955618
-0.2055207056752431
0.02294175282874653
-0.4640818860541588
-0.01443101896618706
-0.2796145015319461
-0.02780994917413962
0.01105725337646046
-0.3680659017302593
-0.01348983499700613
-0.1463182585554338
0.4212230062736336
-0.01466461907097572
0.07600641884997927
-0.103968006486553
0.02394625944200566
-0.1060578297478082
-0.1465861307009757
0.008775879356391013
0.03840978726417424
0.005173333044511215
-0.1756046262163818
0.004995733763764499
-0.02534375886284925
-0.6695680516604977
0.4336423613517456
-0.007361030265201392
-0.6765591963672891
-0.8009733230039796
-2.007688937554982
-0.02941501806245733
0.06310973107151728
-0.00999443397349432
-0.2951715381431154
-0.008263375581846154
-1.065369028691195
-0.02860469749526271
-0.5078983845243761
0.08021362158316782
-0.1002957380322238
-1.932240816097301
0.497350367823191
0.01710415856845734
0.0103719079658121
-0.995048795351393
-0.7168313011396538
0.1555603096273211
-0.001152624568318724
-0.1813339610523227
-0.009912860023321621
-0.1271882562963239
0.136876330447031
-0.0001799651961346863
0.6277188550144142
-0.1933926552175484
-0.03169915696151537
-0.4839132402868156
0.05485077519764511
-0.03730977670157883
0.01923255678509458
-0.7830349403450676
-0.5548824755438133
0.6142932216373678
-0.1351515385177842
-0.3008135101188987
-0.1405541160599192
0.06265401611711871
-2.481155613867026
0.001194643768147679
0.0168895386556968
-0.09942815479490133
-0.114846864054366
-0.1753141080409576
0.0006882043721150689
-0.1300652246618879
-0.623851576609518
-0.4918969166933491
-0.002839731051942676
-0.1164269148032276
-0.7772260114482185
-1.764163852832438
-0.1355681050984416
0.009591746497351799
-0.11897660976084
-0.3118456053476298
-0.0274625193018854
0.1182561567388736
0.4556116110468943
-0.03805163028658802
-0.3374104816597569
-1.949009886121479
-0.3541668043734675
-0.04775452262907038
-0.4736852042299329
-0.1372924989155293
-0.1516986136971935
-0.111051238545918
-0.136766709852764
-0.1345984178651087
0.02231789686478914
0.003903502697972023
-0.6285669328890701
-0.3742438486179964
-0.1821196281972894
-1.603185694188687
-0.1005314719340048
-0.007782289341890778
-0.1033332377817772
-0.2106132157437892
-0.5940181909116964
-0.009351173483874282
0.2116925879818702
0.151457722680743
-0.005065102731976802
-0.02965210809860279
-0.34001876675612
0.01201199166740327
0.3071160862355165
-0.1315001807364463
-0.4436684184013557
0.01047751542307995
-0.8127017577638127
0.0191899306277468
-0.2413992079214981
-0.4682927097223619
-0.382322779973596
-0.5743268931930092
-0.00204057138460128
-0.09142999790449102
0.004970074864312375
-0.016149922179662
-0.01270592184053609
-0.07398661066736398
0.01065562194338584
-1.503900592897816
-0.4663926958299247
-0.294443892516938
-0.6886275146145825
-0.007966183554611414
-0.166215600607466
-0.5295400478938351
-0.1322713482525295
-0.09557762319914576
-0.1686174603994149
-0.1779709813735976
-0.03809222009560427
-0.009680992368234914
-0.1642470583312958
-0.1374502598657219
-0.3606577731830047
-0.5238036992370256
-0.0006585148082581818
0.01588634134192082
-0.454435354429892
0.510170867699425
0.01214926537510705
-0.1632262158454143
-0.01673149052719793
-0.003876208986068556
0.02117164253194132
-0.03298896495293335
-0.150759896549749
-0.1133724248973402
-0.05603273817274523
0.00624860170636334
-0.6509919795021468
-0.02128835776590923
-0.01472504561876255
-0.1939038037523151
0.07256445682841516
-0.005637233896836173
-0.02189866719737897
-0.1710586936406708
0.04326594800548838
-0.2839072096372185
0.01988162784026359
0.0006082141026467585
-0.1246876004836749
-1.656340535143531
-0.1454966328993141
-0.0255554273223429
-0.1163571171993051
-2.182558735978294
-0.8958683200182521
-0.5643630351468928
-0.1665522260147396
-0.01285138374947136
-0.09746047027779792
0.02077912128475318
-0.9595877452152947
-0.1112052154753829
-0.2882720966325815
-0.04817227574515988
0.01668233500818782
-0.3433434229093265
-0.004548298813049533
-0.1802040214260031
0.02410397197420209
0.000248449817210549
-0.9764561803932114
-0.02407446890173937
-0.103173012286679
-0.02262906610064132
0.01976752673209944
-0.1856102566601153
-0.02312128757237118
-0.8234056261436159
-0.3899599029984777
0.02025659089380146
-0.008535552346616565
-1.078203839751607
-0.06299000741887169
0.02638139902565716
0.01863170238383034
-0.1380859051015269
0.3994902152977887
-3.192793160649348
-0.2358904255967848
0.3490658155830801
0.03465166869445783
-0.2481250942644057
-0.4443899475310249
0.05713078220254356
-1.207798887795383
-4.174433545610162
0.002448175635554526
0.02618392628043718
-2.391489406078772
-2.184450278563266
-0.584288650824366
-0.09784195843024635
-3.074582815663338
-0.1681730706917782
-1.352757206504325
-0.004153789183246574
0.03137111817701255
0.00569037067469605
0.02116740651472979
0.02728569735572279
0.02632080553967978
0.006892571210431703
0.02584886830648641
0.06198369918445902
0.04622784693559753
0.0396472806431436
0.003049404349836297
-0.005911754881548549
0.02351097198827383
0.2076709762097976
-0.01045406209932689
-0.1213154483007432
0.01803238419686003
-0.09611118167101619
-0.06157321887994394
-0.07617821394337268
-0.008073633864269077
-0.001640324210510138
-0.002845578134178013
0.003401083585322031
0.05473745244773713
-0.04951723733514822
-0.0521462505239637
-0.1021450909245129
0.001885391791024524
-0.1407044832675714
-0.101670566116586
-0.04003948078302656
-0.002081765803815555
-0.01040129078660263
-0.02276240194145855
-0.04168471721465134
-0.003336867885354294
-0.005411668031574255
-0.0101170455710521
0.0004173198775932218
0.06234428304523282
-0.00253176459722391
-0.08166214475084919
0.077044060093154
0.01106751667947195
-2.408734553961317
-0.04461345362672924
-3.458468861055863
-2.313049406914811
0.01707287459922613
0.001363808762137495
-3.108724442299565
-1.491969721688799
-0.02699378027210262
-0.03463293518218011
-0.0004067838438215488
-0.00924183351275361
-0.01007678916648199
0.006389185322529177
-0.01837760194163387
-1.414799864967274
0.005715870000739219
-0.02094853375211752
-0.002143195858746784
-0.008213298768719525
-0.06533655857795866
0.003595552675651563
0.003286073995758294
-0.003616835495118677
0.003275023229754211
0.005411283135902611
-0.007860214929332997
0.0837296373515342
-0.01637943888952796
-0.01674428172684774
-0.1385171118543922
-0.1470547019705048
-0.02592182319908846
-0.02322651645990182
-0.007313534388806634
-0.06937882485358333
-0.007795465820525201
-0.007853899189705063
-0.00428175225671636
-0.1537230213463132
-0.005489718946389287
-0.2362648978328269
0.01121563165469795
-0.008202714120206525
-0.007282328589848055
-0.009091677431035864
-0.008964547140169518
-0.2098840864046557
-0.1487801371732745
-0.009536813420733807
0.02235213694818717
-0.01492874735400429
-0.07910023232522562
-0.006353076200529507
-0.00315348892082177
0.004991606020502573
-0.01056181740241841
-0.1386461804631077
-0.1072310556097024
-0.007573480641277848
-0.01153905767376683
-0.1071853479926816
0.13911759690488
-0.1756641286795813
-0.03788830798475082
0.01096907678677123
-0.004243456508574233
0.01418248375539461
-0.01676997653086961
0.002579311043550362
-0.04204836604190677
-0.3801798663781824
0.02124002739108828
0.005894603071159168
-0.03794531299492604
-0.05092888817339262
-0.1247106438942987
-0.01010439108829408
-0.1048670907406976
-0.0003029139709418576
-0.07301732418691252
0.01500024812326176
-0.8711685662540922
0.008635865209060031
-0.009224089652273787
-0.04176802941888948
0.01223837851988975
-0.007872516667617827
-0.01695588380818654
0.006161140050742477
-0.03491052425697789
-0.008273253874717898
0.08850705456191967
0.02186446842371605
-0.03262516364083183
-0.007414352062780029
-0.109202684298809
0.003909631769496147
-0.01171629990869875
-0.1601041137916842
-0.941048880169191
-0.06630008219022544
0.01464815562338866
0.01576300357784068
0.004663262272390523
-0.003676949860681036
0.07855230230306788
0.006677532779372282
-0.009201315951503331
-0.01011835958583009
-0.02572480802922221
0.06519182263639774
-0.01151159729723463
0.004965652344428213
-0.1983894097376011
0.005409275762456673
-0.008192186095534735
-0.04309603905420688
-0.12921456911503
-0.008513282555293395
0.001859438180661211
-0.02083789544094794
-0.1638009768822644
-0.007330613228710614
0.003699197296302139
-0.0404256279501862
-0.03027977587642153
0.02910726336985812
0.01408708439698178
-0.8776247285249266
-0.009534716018848793
-0.0181127516543932
-0.01197722686755203
-0.1545724126428343
-0.007366039584776054
-0.01054075976142142
-0.004002040127069101
-0.0145429905909569
-0.1857601249315689
0.005927843363531434
-0.1027155780726198
-0.007781575287073505
-0.01503651929829012
-0.03165279297766553
-0.02954678525425002
-0.018429011363563
-0.008465308515435113
-0.2065364286295871
-0.006144722180455433
-0.01435277323177615
-0.2662978212703415
-1.948532731297889e-05
0.003040516256841122
-0.00754256589487569
-0.001155647629111609
-0.1799859543153444
0.006643691103163755
0.004508809429412584
-0.089593727912231
-0.001104653626510394
-0.01315297273661889
-0.01570620500425188
-0.002089670902906037
-0.1409644699866043
-0.06476898530712188
0.1371809904903714
-0.1947539014296976
-0.1333820362238473
0.01025307553449669
-0.09317139081087748
-0.007602973970036325
-0.01351876699710802
-0.01334643893599739
0.00279625184195318
-0.0906033979847944
-0.1185672076707756
-0.01494655591653676
-0.009028701465567652
-0.04833009146515556
-0.1077147342074898
-0.01010834769570926
-0.002849570860796535
0.02970765867308676
0.01177642125627564
0.01008439215547695
0.009219140109171567
-0.1137058453640453
0.004487229981966124
-0.114420985081841
-0.01526430608377985
-0.001541852996072364
0.006612136736775073
0.008939611813721869
-0.4700216745589206
0.008672954313686492
-0.002912733982521615
0.007753565242605478
-0.01829122620037169
-0.1482539223821634
-0.01080182119906274
0.008799562519491363
-0.2152229590770615
0.008866888394315195
0.02180164904076706
-0.09735357544855601
0.1071452876387861
0.009377566333022331
0.01047977408404809
0.0185499250458766
0.005945358441393128
0.0259022097835414
-0.007191376874786303
-0.004428527099724497
-0.007901823706226826
0.2911612768061201
0.01206065394532761
0.01174046306742996
-0.01346101219317299
0.04154717584437655
-0.002029500726751331
-0.01051168194041642
0.009907146595716102
-0.006034725077977516
-0.01020112906446908
-0.01771657807527074
0.0006333948431331503
-0.007992621590186509
0.05907734150673449
-0.00361610171013967
-0.007207359731472465
-0.00180088692467872
-0.008416124821816189
-0.01264926575935028
-0.003328157681677747
-0.01159518375210573
-0.005164238758748456
-0.06519277588727981
-0.004405003972394285
-0.06724613082844073
-0.02858586446644925
0.006906975910233567
-0.007171145524514848
0.008532707248415627
-0.4563076830793157
-0.02437855939859596
-0.1608906070099711
-0.1120400715735763
-0.1167381320846309
0.01832659653897895
-0.003961230583910671
-0.1085118954206069
-0.1915006349325799
0.1506556086188044
-0.05727381908260521
0.1663782911538186
0.002516681525879234
-0.0005979194849373671
0.07810948390446501
-0.1945124808091252
-0.1244884288024915
-0.000778408163367149
-0.07548017234156887
0.02731221928222338
-0.05385004137601049
1.315491908746821
-0.003689200446717059
-0.1273919798759048
0.05611417477132326
0.3926744514738377
0.004069327330318864
0.3327688824040136
0.0002658550052090994
-0.2237064649253306
-0.003478782194947535
-0.1692455507539924
-0.1588290251659469
-0.001809962086092454
0.1494157407166771
0.004900756510792137
0.01271831394146369
-0.000134850593000938
-0.1943101223930521
0.02582395461564116
-0.01617009131526174
-0.1514332619216932
-0.02579765282010762
0.005518834054115254
0.01713534956000182
-0.1333780460749402
-0.01421576347108557
-0.0170679910166357
0.005094295344705825
-0.03336034103233883
-0.1236917377345652
0.03362255085938679
-0.01522904672233704
0.04556706661263735
-0.0006451297447886026
-0.001875875471198943
-0.008679941157066549
-0.1660123734291586
0.1454128343814214
-0.0159945253343988
-0.1946965763636958
-0.00738351657975498
0.0112643682191383
-0.1974543145586379
-0.136146167728347
0.004559169813907461
0.004074165531787903
-0.6861417298130392
-0.009860704431576271
-0.6807111777837054
-0.008073318488736185
-0.01836178404218504
-0.009301271068316548
-0.06298533905474346
-0.05047583942330536
-0.1343867913694531
-0.1259129580900063
0.03411875906388295
-0.002801265924123892
-0.02982160601948907
0.01097117267845602
-0.009632223981464716
0.01464257993440683
-0.1387953586236133
-0.00845138804374369
-0.05995372843279445
-0.002825970355038958
-0.00555328534950383
-0.01299922294225463
-0.08973964220576221
0.3005880840566038
-0.03290525929874332
-0.01414598577717622
0.02151868868634667
0.00994424198884452
-0.009179712939942629
-0.01896107026892268
0.02462722961332675
0.009901180251963456
0.007597187960759986
-0.0894053549887022
-0.1853993961874576
0.004385995922690727
-0.6929983864658509
-0.2320030745040146
-0.3209953114430625
-0.1570229647100192
-0.5627886006001094
-0.03592783625162257
-0.004975633085052009
-0.03995948383503006
-0.06066882075261316
-0.1225292314496139
-1.058499112024683
-0.119496808375661
-0.02205512606429733
0.005905088376508759
-0.008665132982299996
-0.0007242182274222125
-0.02609955416580836
-0.9969881219292591
0.05757394686582062
0.008663876483159094
-0.0107981557990356
-0.04565889596477869
0.01225893291262581
-0.01143408336767125
-0.06672344830275714
0.1604973751484715
-0.06401985253369834
-0.1192884223159555
-0.1313116203900343
-0.117031026792795
-0.01265362848086903
-0.1010669284494159
0.2912877757371886
-0.03663626940178285
-0.01354498683640857
-0.01474139937198998
-0.01283572504985077
0.03931826279355308
-0.008279796810004488
-0.006153961204907585
-0.005462937790588165
0.03808315298741841
-0.008284305871030215
-0.1140944752519713
-0.04607144709486587
-0.01429758953347139
-0.6678479261472285
-0.0144883335823062
-0.1542392109564276
-0.1819407026545967
-0.4040178974426955
0.04202710171527793
0.04044103718369565
-0.1490773154882672
-0.05792384593276825
-0.01414566817924552
-0.01559772255541244
-0.05103228607309185
0.002611801493213784
-0.1232950228300619
0.002022184795884537
0.007996782306928791
0.00205803508740029
-0.2005785262656111
-0.00910638028559963
-1.520400444672779
-0.1120300872060559
-0.07729513283560716
-0.01888272072704212
-0.7135427789163961
-0.007663702626913347
-0.1857818110585104
-0.01324892844687528
0.1719871084801016
-0.007295180061963821
-1.482913555153656
-2.077943289134496
-0.7588328620781865
-0.06923734608483768
-0.3351825292450931
-1.731256398381446
-2.478769452051164
-0.005124032311174184
-2.241018760091463
-0.005853738215356191
-1.790070521801138
-5.234999461439934
-0.007535089937255424
-0.009962303440692847
-0.09801265376817733
-2.293932988331832
-0.01332882375200526
-0.05890450738559722
-0.009923650120123639
0.04063040310262878
0.0390416708340311
-0.9496070338646948
-2.487529151133233
0.003724243705914315
-0.01542159105384583
-0.01604984394184874
-0.008664792483731913
-0.01025228551164407
-0.06353946792364859
-0.01055553437603207
-0.03266831254015849
-0.07930009630448649
0.1505588590859776
-0.02337323091522199
-0.02076241041721255
0.04000724093099259
0.006915086360224365
-2.888420859302383
-0.01622281121047688
0.02630344891302713
-3.950151488974543
-0.08650733447903891
-0.09745972216991129
0.00524754615011798
-0.03942878706471045
-0.5709356299271138
-1.287319071545707
-2.149202778609801
-0.04525938464958468
-0.09737425552747435
-0.09531977688220017
-1.586410607329957
0.01664841524604992
-0.03756537324761969
-0.04052847640529129
-0.07433925015465885
-0.03464828352896296
-2.580428276919275
-0.5236591525454292
0.1283887455774294
-0.05001546358844457
-0.01571189639614028
-0.03528560080211775
-1.417523964083155
0.0381848246181857
-0.008539210841172054
-0.009566114826216523
0.004655335422341865
-1.823625655492429
-2.133777787344752
-0.005803636854801808
-2.153226031649194
0.01454207715652963
-0.01556903889613501
0.02701210798338272
0.03844730916571228
-0.3808543218871804
-0.01550123078377261
-0.0158553495011081
0.03380959346644419
-0.1782243579058569
-0.004689411223546116
-0.00116538139271382
-0.3068668169008459
-0.1639564515325937
-0.03177141701880901
0.02085145507777854
0.0009991976122311194
-0.0008015049938463875
-0.02937318135007648
-0.001152717693293109
-0.04321689502641304
-0.03084280812635947
-0.1337492002369664
-0.01819838734356248
-0.00846945805688035
-0.08775533591441463
-0.06469741782087521
0.01222893979479964
0.003536837054432565
-0.0989718937315059
-0.03452403512889905
0.006058101420049778
-0.01058430445079364
0.03700563996968506
0.005796234892834309
0.001358223591589999
0.01174986917916244
-0.190480305604906
-0.04469169808714923
0.1156207480849809
0.04645909264593029
0.009820148362961851
-0.0001183560858024787
0.004556768247524537
0.01817528444586621
-0.05157888111441049
0.02327840234797968
-0.5722603381660081
-0.03627381414526314
0.01537581708207402
0.00223074326178012
-0.03790602295408601
0.5857334868759887
0.007896824785671532
0.01343764273689652
-0.3227512140534942
0.009060528181724934
-0.04240185079406105
0.01185251379621838
0.1170902411226106
0.006480523099771548
0.003856069036935943
-0.8272415661320769
-0.4508765040136603
0.007455503321489136
0.1547564256039853
0.006221076375739727
-0.1435982932619179
0.001683712916193655
0.01425515953396143
0.00428903099721149
0.01119998000423365
0.009827232294694552
0.003304969467674906
-0.008246547744603819
0.01874529411626347
0.005891017441314154
-0.3126822630270917
0.02722530752394012
-0.007163120638974259
0.01428716724949703
0.026971378616705
-0.002334069990718239
0.05464365348618146
0.003539066498815229
0.09959678030560856
0.001388594626539093
0.3414212836273489
0.04686881478940864
-0.04014327364195179
0.0484890104790301
0.01276506409710267
0.007123536505493916
0.02578483121784298
0.09896053888103913
0.008105823471343787
0.01838748051063805
-0.08005349678787539
0.004751235743709284
0.02603119840681929
0.01384986208473102
-0.01595300502251147
0.0006715623203311098
-0.2753198602972116
0.01686330903003179
-0.03970692324082008
-0.04579764342990549
0.0450833740201546
-0.009145226464837293
0.03072090052053439
-0.1464204133749887
-0.1585523421677773
0.03713799027289052
-0.0151504073862266
0.0292626311313617
0.004358085266404976
-0.008822702914260109
0.005748937447416408
0.001311685777343861
0.0111559106818013
0.003926137882679518
0.04164239746790321
0.005246987699168484
-0.04228190738810149
0.04337434845717628
-0.2306968534686703
-0.01624202131024456
-0.3039213464203294
0.01581596780906728
0.01524925556247816
0.00803136077318963
0.003873124404883121
-0.01419678588447188
-1.032737529695921
0.006319243111743944
0.005372577867338275
-0.6017235956805596
0.004304664350173648
-0.04059930436471875
0.002680868844231601
0.006459363246125141
-0.03721605242044243
0.03144507898961892
0.02686776132406861
0.01365268041929563
0.2298865300573228
-0.2193140287780607
0.00185455037912301
-0.01299821332667879
-0.02694176580217633
0.001606357779087386
-0.02731361665113301
-0.02802526057119115
0.001698083221624048
-0.02812944841439099
-0.01458302569967531
0.002110791802590067
0.0716873141728627
1.275336891952136
-0.004659161372372611
-0.4194696823290118
-0.2433623380061548
-0.1337578515088048
0.0316663706567698
-0.01735717727456846
-0.7209544065982774
-0.03681053651473519
0.004537423911542867
-0.03435833506916481
-0.06442129983570928
-0.03701786246692098
-0.7402676987485847
-0.08050193890035498
0.001885731539967704
-0.04516965863692028
-0.01635165607951525
0.02088053342986874
0.09972889316983438
0.1293951774224508
-0.1937927543783841
-0.01361627105046979
-0.0328620687026375
0.04673089690465008
0.00236628347357557
-0.1146559377517328
-0.006210102136052264
-0.1536896002058181
-0.01966467760164769
-0.4415136416311708
-0.2296444480211056
0.01817063404787658
0.04218378315027059
0.2460413116807705
-0.008762792016677581
-0.02294686946668207
0.01773868530159277
0.008895149094695087
0.02260138779327498
-0.01407541349048611
-0.02416702313944576
0.003694920884904231
-0.0424293762639765
-0.03643692277871208
0.06592412307581504
-0.5543763789723238
-0.04104909308674344
-0.0492998007112681
-0.002559922101591299
-0.003967588037680875
-0.03327870504667024
0.003444521681500673
-0.02373027445834641
0.004303456829540671
0.005014088262143674
-0.1631216121409017
-0.007611072570983846
-0.0605255601055075
-0.01825761493069491
-0.008164358376245413
-0.01723161043426822
0.007627104369637441
-0.01559916206522263
0.003623315497326115
0.01588913845344187
0.005145953744388537
0.3754257843330561
-0.01381152319785734
-0.00777361393801158
0.002422354629643835
0.00328971669713848
0.005053066539031014
-0.2820062022434704
-0.004714902552415919
-0.0001145942799290701
0.003215573317267755
0.008892842178510706
0.04381586767866892
0.02043639799814567
-0.01627790310300806
0.007720639555597604
0.001822951489058244
-0.01605950570559454
0.1506931776233294
-0.437598693698646
-0.01810472389822308
0.00718518533526501
-0.01648761862746889
0.08837318755177011
-0.0157628280882629
-0.1306220727763838
-0.01610685462621621
-0.01682906350474932
0.01751858602896565
-0.004900569994812233
-0.02047319464281458
-0.01999885989115861
0.01787144725187532
0.08605138364406009
0.06810512098819582
0.02926070725734079
-0.01914646528053097
-0.03615712000829747
-0.03042970043897336
-0.1877529241170545
-0.03305988545921295
-1.480190252184805
-0.1204314052176629
-0.03491991597679132
-0.02304014292266032
-0.03500070450930051
0.1031136178278967
0.005351668006528795
-0.007036733938289087
0.003791448626585167
-0.004169195844411094
-0.03930556097026603
-0.01987215287864826
-0.02153436935525937
0.008450773027214298
-0.04084551300886757
-0.02811929991158558
-0.01076844411331113
-0.02933830114751046
-0.08990809068983723
-0.02252371819905514
0.0106257616185563
0.02016374067647614
0.01532092896013189
0.008574467730900853
-0.1336478621164277
0.006270390271342548
-0.04093436472692467
0.0261245859577129
0.03020257388919472
0.02758304903505853
0.01136934095613864
-0.007850782355541193
-0.01199872309268531
0.004209440426666829
-0.01188900313875969
-0.06359304605540832
0.01337501256091447
0.01535661922833538
0.02383995363841944
-0.06299554849181832