/*--------------------------------*- C++ -*----------------------------------*\
| =========                 |                                                 |
| \\      /  F ield         | OpenFOAM: The Open Source CFD Toolbox           |
|  \\    /   O peration     | Version:  v1906                                 |
|   \\  /    A nd           | Web:      www.OpenFOAM.com                      |
|    \\/     M anipulation  |                                                 |
\*---------------------------------------------------------------------------*/
FoamFile
{
    version     2.0;
    format      ascii;
    class       surfaceScalarField;
    location    "0.4";
    object      phi;
}
// * * * * * * * * * * * * * * * * * * * * * * * * * * * * * * * * * * * * * //

dimensions      [0 3 -1 0 0 0 0];
oriented        oriented;


internalField   nonuniform List<scalar> 
153371
(
0.01600613298318892
-0.8051620628687793
-1.449815769426021
2.238971699304975
20.61873025734162
-4.648350929584003
-15.97015603230247
-16.56006887956843
8.219745053840736
-13.2888739467709
21.62919777249959
-0.3775945029590087
1.004083679633499
-2.772674584507059
2.146185407827582
-5.162719663094984
0.806310056674037
52.37018760842761
-48.01377800200601
-18.28088053814459
21.920479501592
-22.79537038452919
19.1557714210752
0.2297211787817929
-0.01404594836069395
-0.03528253617340688
-0.1803926942413455
-13.91237702695204
-12.08020243634928
25.99295470889648
-0.1098823194679417
0.4256614314266045
-0.4546303601970791
0.1388512482359208
16.79882755823157
18.25881931841561
-18.5420755010419
-16.51557137560545
-7.326747864770728
-11.02477416657641
26.13277623531685
-7.781254204034621
10.88852024108525
4.857814471372208
-15.74633471248596
1.580290787512461
2.848757069787822
-1.477222078031096
-2.951825779256209
0.6055188466220369
-1.165517768297735
0.5599989217082058
0.1184075863937773
-0.1658229949774066
0.02853654419357822
0.01887886439612891
-5.07881345935623
16.72711657515266
2.823646020513906
-14.47194913631123
9.393381020206551
28.05389168603829
-20.94971604988141
-16.49755665636679
-10.19019196859136
-24.85969017951281
44.44326316830941
-15.08259065225148
-30.34677788356167
29.13061142097598
16.29875711483565
-10.51416244190658
4.565681295989133
16.43662518822081
-10.48814404233478
0.03901845048837266
-0.6281741169762599
0.8671336901670472
-0.2779780236768791
-0.1179340163256282
0.1434571655403102
0.00496206607779557
-0.03048521528823713
-8.941555218856841
-24.35793991969956
21.2236309085477
12.07586422999241
22.75482171173442
-22.15932597753734
0.5021324417832895
-1.097628175984561
6.967569063148553
-2.975617233610967
7.606730903313474
-11.59868273284188
9.647674485979286
0.4359400290590179
-7.435345462002749
-2.648269053041057
-8.909282594296089
7.609055575994825
-3.176469123532122
4.476696141859371
-7.542258051137194
-7.298003333999286
14.83984368042431
44.35039137846019
-10.6311499254143
-22.3396606289126
-11.37958082413508
-11.26688366145144
-5.807546282233584
17.07510169453413
0.1601462597379633
-0.4925833758680099
0.4051121591142914
-0.07267504296077192
-0.09752182774074135
0.8359137194532155
-0.6964870220948663
0.5694298176078493
-0.6302679807293569
0.7573251852371912
4.852334457047101
6.94201321846809
-24.12849880646418
12.33415113094865
-14.94159723242694
23.74729567304266
-3.417056731573252
-5.388641709039837
26.5826798911141
-24.12318943671737
9.1894216763221
-11.64891213074274
0.04602120868111634
0.1476367897802546
0.3030445096964824
-0.4967025081382354
1.512706227813119
-14.62471348512686
-14.30914344245991
27.42115069976466
-2.279567311639028
12.38943681677496
7.179240303125715
-17.28910980831071
-10.10280737777982
3.661718148038589
-11.81512448361235
18.25621371333968
-1.428720492797107
-0.1326369439448078
-0.6485285228839496
2.209885959667045
-4.876791591648858
-9.486634269909658
-3.428208815613846
-17.1393864691725
14.55136145853219
-25.46220321691511
28.05022822754743
-1.497253128746131
-0.9654893101751684
20.45649099778826
-17.99374855889199
4.407532382506172
-0.01872844332017173
-19.33040117161277
21.12417002799735
13.4126303040789
-10.78950465903432
-14.87457561530297
29.44449222178429
-14.56903199692442
-14.15908509019512
-9.921186001449135
-1.582242208414032
25.66251330005504
5.336149215343762
-18.77932795660085
-5.077916453219517
18.52109519447303
-17.94864350236564
2.31734930622265
0.3139791055799207
15.31731509057704
9.161423952041257
-4.65618222629672
-10.85488060360299
6.349638877860778
-0.07448045822394318
13.59011570957027
-6.548066188186631
-0.07127093831432194
0.07842330911293412
-0.007640541025537762
0.0004881702365603309
7.276020552192164
2.773706037953244
2.516554662108047
-12.56628125218305
-19.60258234562668
18.71641127801347
0.8863287625467809
-0.1912501471362218
-0.02292385376851896
0.413584261498017
-0.1994102605847082
-0.8205911530006267
0.3060415444429432
1.124064845267947
-0.6095152366892161
-0.2338394446690343
0.1656522750936427
0.2084195851349381
-0.1402324155530257
-14.02063650539819
17.84156254014695
-2.567135350725494
-1.253790684059068
0.6045055372495862
-0.02061227271465978
-0.08819461136921353
-0.495698653157788
-4.447127884679556
13.58290633914639
-1.526722878417928
8.276274682412728
16.64704077481535
-3.799145429234714
8.635332916362554
-9.41711931026318
0.684264566143771
-8.328315038051731
15.13442774704171
11.09796246423123
-17.90407517318986
-21.67282716765738
-14.97591562201998
17.04616044405025
-4.708228421718503
15.79287481291763
-23.88654476641657
12.80189837521635
14.84896066615508
-11.62237761744673
-0.3790363019707136
-2.847546746738197
0.08385949151735196
-1.606603195018102
1.571802949268193
-0.04905924574858427
-17.09376328693117
-9.020524636181555
14.6997953771621
11.41449254594891
-0.02973166354670637
0.02561339766062354
9.729164680546138
-20.24708066687671
-8.190361275174146
-0.4785998641483531
-1.396631794574926
0.4443635013679464
1.430868157364637
0.3020554943054588
-0.5518448102433879
0.7629565211167549
-0.5131672051414223
-1.071344912926281
1.37547440763022
-0.3041294946914476
-8.442543227931603
32.55751302933901
-27.41382276971335
3.298852968302407
-0.4540214805044615
0.4936556860161316
0.6003382641372169
-0.6399724696172838
39.66447890927719
-16.63452446212713
0.7800040148505568
-23.8099584620027
23.52386930028895
-16.29716479666104
4.25702859455448
-11.4837330981879
-6.218435095865494
-2.197881972891838
8.852257097831306
-9.729022133838907
5.605284482567222
-6.400073843139399
10.52381149445799
-17.21353793981667
-16.28147015097882
24.56062651478588
8.934381575982769
-3.235191851099535
-15.90417309979105
0.782088353311377
18.35727659758311
-0.06142274182763647
0.001061352145948624
-0.1189862031680501
0.1793475928578298
-0.4213586958868888
14.37274244693031
-13.95138375105744
-7.680285646819319
-5.800385022359418
-7.841114111719847
21.32178478084956
-5.093709814111874
-16.72876471626942
6.427745224424985
15.39472930595496
0.1609494329167798
-0.2614518986951805
-0.4859981580653864
0.5865006238626033
-0.1234674616610259
0.1097468334061866
0.009777018732937688
0.003943609527951549
13.99438286976596
19.53521723489438
-0.9030965043692079
-32.62650360029085
-10.20528369592949
3.514366900854994
-11.98911095884764
18.68002775385344
-10.15168701464477
7.738285167613935
3.93471745432085
-1.521315607291017
-0.4676015328495456
0.8134161526755936
-0.04375912550280305
-30.53945451240888
25.67119136148716
1.53193747691192
3.33632567400286
20.81400551050296
0.375055450947368
-24.42425281254972
-17.58697150789409
-25.34603951190955
19.07995211003988
23.85305890975155
16.6052484619978
-19.01103088484039
-17.95814361684874
20.3639260396912
-14.33444018797175
15.42374684499259
19.72469885347993
-26.56129949493716
-1.125899365412163
4.119678550100022
23.56752031024851
1.78542629135101
-3.121549426449617
1.488903728048967
-0.1527805929344552
-3.482834796264573
4.908980723984886
18.21419467353789
-19.64034060125993
1.472854396341889
0.189422886083763
0.4189319781064547
-2.081209260542456
-0.9387615176193067
-1.518849543623092
1.348736083558254
1.108874977683415
8.562292854403196
-8.747891140628804
12.9732734199961
-12.78767513377308
0.2068432415539113
0.05076805762118088
-0.1816506396749812
-0.07596065948794373
-11.21648330802219
2.013964204435188
24.94840022366503
-15.74588112007801
-8.057912652535883
10.6090460547443
-12.9117425832986
10.36060918108805
0.1061872720684102
0.02490255982693939
-0.004427686577883564
-0.1266621453080198
-23.75137961336923
7.417301277213127
-9.022722428669461
25.35680076477439
9.290274081712939
8.777950210011127
-18.06842582624604
-0.02357873253951757
0.06953541523459886
0.03172503314742375
-0.07768171583395342
14.27012364190782
7.284870671187064
-5.884816056731568
-15.67017825640744
4.579268683933408
2.628834101834378
-10.18372001936564
-0.2179794236056137
0.3815228608021506
-0.425507150299574
0.2619637131104
0.4066884840568944
0.6728794012827783
-0.2614344371965346
-0.8181334481176735
1.706117625496716
2.108872654785263
-2.70308976196641
-1.111900518351987
-0.03620080935038623
0.007563951678109063
-0.03515153470976159
0.06378839238796258
9.074021645539847
-7.309667500970567
7.525919937143259
-27.4026317557476
1.955974208808561
24.24349485525605
1.203162691688429
1.10426707006494
-3.571587480276881
-1.014137041305545
3.481457451451441
1.460000534528486
6.969755088201849
1.294229339716485
-9.723984962565893
7.32197780718858
19.97889689993849
-43.18862464345207
15.8877499363239
2.851365583800622
-19.32614451997661
-3.911329735629793
-0.1173037677686204
0.1275592342461369
-0.1128481425792693
0.1025926761099719
16.38535221318472
-12.80460500888631
-3.129669359001698
-0.4510778452976261
14.79957182663554
-17.66357139728946
-6.357573719826089
9.221573290405077
9.109794586463547
-23.36319000886218
14.85924138039391
-0.6058459579952502
-12.72047921503426
-10.77436081335847
-15.57509125222187
39.06993128061462
9.209356161249724
-11.83644861128741
28.13119686758736
-25.50410441755158
19.29997753597376
-8.688560460829841
-8.235556127840265
-2.375860947317473
-0.8895028520056919
1.958647595880482
-2.7658990747905
1.696754330877463
0.5847819159285323
-0.06870388095165357
0.09134493844825343
-0.6074229734214168
18.8786862327222
-18.96399906750976
-0.810300466241245
0.8956133010189239
-20.47651348428558
9.374960312603188
11.101553171678
4.253596949793835
10.59691235996549
4.495461049225426
-19.3459703589545
4.825792654043303
6.974322300627501
8.360717184370802
-18.93569744982515
28.59378113254013
-5.703156354758861
-3.954927327958558
-0.01251544487182231
-0.165968645456207
0.1468801689846943
0.03160392135346321
9.449252602700154
-16.69001841985058
-1.053515165690158
8.294280982834525
-1.892267575022446
29.90094142232541
-2.918525460972463
-25.0901483863344
27.31951561049819
-27.16853010116021
-3.799660156442377
3.648674647102441
2.087734352285365
-4.634672846715707
-1.984662796291363
4.531601290667168
-15.57682009681422
-9.50438094250843
10.26166677730406
14.8195342620164
-0.1827537468658783
0.13279622278736
-0.4176440087557189
-0.1411359533962058
-12.27636194912126
12.41751334010781
27.86108094803289
3.219783798463297
-10.75829386327733
-20.32257088321939
0.0913377700379038
-0.08764725525411647
-0.1948260993807333
0.1911355846040682
0.1686933091966841
0.01341413801090575
-0.1803341041595753
-0.001773343033328584
-31.8834319694946
-0.4895406711701877
33.64468407273905
-1.271711432135058
12.31336550217148
-6.314699555714199
-4.657766615899349
-1.340899330561165
37.09780257815442
-25.55175316150153
-34.52687253519909
22.98082311853567
-4.260456113600853
-22.44329516545224
2.757219106938092
23.94653217200697
0.1582988925019701
-28.51265670291227
-1.057270835004966
29.4116286454084
-16.55482703621263
13.06464441330931
-14.47439612520449
17.96457874810105
-21.590077975306
-16.4950901701025
10.12415984277477
27.96100830263697
-20.75533021947525
-6.666888560525873
14.16656742204043
13.25565135794726
-16.11750977812815
13.55523121728885
6.851224700547434
-4.288946139690008
18.5982760946431
14.14264027411
2.996960651894808
-35.73787702064995
13.93690442079116
0.3510759099654125
-17.23967805929179
2.951697728518563
-20.22026922067739
-6.324029842913765
28.07430097802178
-1.530001914466409
0.2142315345762666
0.3968043895224727
-0.1528911568063496
-0.4581447672796252
-22.20581025491186
15.4182494065385
9.944051347467406
-3.156490499099351
-8.109993759123993
6.985416056430607
-8.252051284729479
9.376628987400652
19.97742380629455
-25.72815629124855
12.04801229851389
-6.297279813633809
22.83166448308804
-22.06664747641413
-15.3795689887624
14.61455198208712
0.3896381626719369
6.645880854860105
-23.83800250743205
16.80248348989806
6.200464421620439
-8.321851759114566
-16.82211513364185
18.94350247113463
-22.64002177106201
2.169695813611778
20.0726561288964
0.3976698285575461
-6.763867597452076
-11.49344765689595
25.64223688364553
-7.384921629298373
11.48310621152169
-20.38589366798427
9.051837291125196
-0.1490498346619892
-28.97492625902506
-17.01125731837476
16.95077163402323
29.03541194337101
-21.77887169219178
7.071992109942304
0.5978763892044466
14.109003193044
13.8824790564034
-21.00203291196003
-20.28307790018013
14.56299833049794
-17.4830664955545
2.920405381232238
-0.07906689768455231
0.699986916323874
-0.04808395917485329
0.4690196256400145
0.01747259829462452
-0.438408264755146
-11.0885517478271
16.29831796429493
-9.213112980139549
4.003346763671218
13.57985764971807
-18.67500629691245
14.90729158497202
-9.812142937783612
-21.87310065296774
30.75156397420211
-24.94286694508532
16.06440362384292
23.17748203363089
7.011437263053455
-27.70174740215781
-2.487171894526315
-23.26529556636775
11.40178298355975
10.94331063937151
0.9202019434361491
21.60471307636617
5.18676660755593
-2.037527978111535
-24.75395170579946
-0.449485201231221
-2.174524137901774
3.728276409160381
-0.01337112649926392
0.1090272420163634
-0.1074117093437133
0.01175559383620601
-16.79219136726425
-3.712361616317818
12.22386930504585
8.280683678533549
1.390017868173351
-2.662421792192117
0.3829010719858378
31.03895949400816
-9.16182185354789
-0.9271869299861548
-20.94995071048312
-1.3253915728259
5.210996764090511
0.06224486574152664
-0.6367671491084081
0.3315556275901401
0.242966655798329
-2.969475443956689
17.53282366082629
-0.02166258176063291
0.07068332740624657
0.09040420253770692
-0.1394249481690252
11.34080935016798
6.698201860471986
-18.90885746934601
0.8698462586606769
-1.440527972271982
1.918537686512882
2.198092104230371
-2.676101818522081
-17.50408320698031
-3.5665422168983
21.07083511118112
-0.03937759426746948
0.01066324331734137
0.123728935876644
-0.09501458492042439
10.3201451270743
-4.162220383616877
6.500490985140655
-12.65841572860041
0.2683160815047855
21.62435685347974
-19.54956000214084
-2.343112932848824
-0.4907011681264137
0.07867564156013837
-0.9180921849902941
1.330117711584377
-9.826841226036571
-9.399257181809528
1.143856519257489
-10.31525941998131
9.315003703395137
-0.1436008027276208
6.168338213915001
-7.807504625838873
0.2814332348518558
-0.3084875184297566
-0.07243056624328664
0.0994848498356878
-0.0990861070535097
13.08131492856191
-27.28071127759712
14.29848245607592
6.973284710405537
-16.31144870888475
-9.490748116393567
18.82891211482765
-14.69444319434179
-2.093633092994582
16.78835756306584
-17.14663230104518
26.87632235931625
-9.729879793720215
36.66768942183515
-9.098435907890925
-16.7484805716962
-10.82077294224981
-2.290570953881231
0.4251010990818143
-0.02380202751071221
-0.04646018395233252
-0.1016852653842849
0.1719474768561078
0.02633232536941849
-0.1010341727396477
-0.04876561428741898
-11.31224207616533
-10.44171137472192
21.75268227636578
24.59230689913379
-10.46650923402702
-0.243318608701672
13.54718687114791
11.33665826024708
2.622764029425148
-27.50660916082382
1.606260022014818
-5.70430081664943
2.382546042827995
1.715494751851927
0.06171413383478833
0.1204043588786088
-0.07237165930159263
-0.1540592814249629
0.009854350967288259
0.1652826807684309
-0.02107775030581647
-20.93108085704771
8.150326111777792
6.576665441816384
6.20408930340039
29.21667550313714
-20.03570319551302
18.46524722143945
-27.64621952905936
4.425598463378202
4.842886340818701
14.41713776391186
-23.68562256810636
0.1349512848538399
-0.1262567926046708
0.001082526489287799
13.08778647707561
-16.18684333686356
-23.75520208993757
26.85425894977712
-0.1528828535052269
0.1274713572826236
0.07840565174318628
-0.05299415551260916
0.2167273681050224
-0.08788979956961425
0.03681470656156133
0.5553069312062739
-0.7031978153585712
0.1934741348279425
-0.04558325066783697
-19.9720783365454
0.001858962194267807
19.9703563847573
-23.7930261913477
23.96291494701069
5.815716502446263
-5.985605258105473
-20.99161436887173
3.666813196052016
7.171154837357023
10.15364633542559
-1.563457217411776
26.57886579538834
-10.69569833549665
-14.31971024253758
14.49145858295856
3.526000692409356
1.924214170752854
-19.94167344613408
-7.855149409936539
-12.41397191638389
2.354305417667839
17.91481590862207
-1.545657183889153
-0.9975350227790399
2.093707005389826
2.287299851950504
-2.214364636456915
-3.679372703579752
3.606437488115069
-0.1426437466269207
-17.2848420441533
2.527389398600909
14.90009639218761
5.841594040229613
-27.41348026229339
-2.277845325585713
23.8497315476486
-0.2201655944133214
-0.9236329248158262
0.9975414517212019
0.1462570675477825
0.02304910371362981
-19.99502734959362
10.46078106821132
0.7825041213139607
-15.8461830161862
4.602897826664501
35.21605378230682
-9.092522585098356
-46.46664587510972
20.3431146778985
-7.244317206845619
-4.340673412883004
32.36277682509132
-20.77778620536274
0.3842969879695839
-0.004303775423481453
-0.5339560482786415
0.1539628357317893
0.06147851006229096
0.6599359635586656
-0.07737729297817318
-0.6440371806199507
0.2282120742936178
-0.01547054978488383
0.2090023292858622
-0.421743853782973
1.32436638504627
-1.187155506187727
0.505886863291428
-2.033556966228735
2.714825609084683
21.43931424678367
5.085437587059418
-4.456406652808175
-22.06834518109287
-23.05714986261162
14.84809545172382
6.140306818419003
2.068747592470176
0.05146042941774292
-0.3103019961815121
0.1199273309802865
0.1389142357958606
-3.60046712948494
-21.71235037992733
22.59411752977499
2.718699979629431
-0.9466816429575559
-0.6785525152109332
0.1788425681367125
1.446391590033846
0.515295603288996
0.2490275014677043
-0.5183572946943322
-0.2459658100538175
-33.11775205398453
-1.724508214411991
8.336855283941084
26.50540498448272
-24.37802136165524
3.872735436540931
-12.61246612886507
-14.47673076060759
1.088240457000547
-5.757449847184375
0.4186392872576145
-0.1843840538400487
0.370298477520987
-0.6045537109261903
-18.50007960875141
-8.57455507939807
13.82239726639371
13.25223742172673
-1.048020249739033
-9.891556329950221
10.9395765796233
-0.6615723285213548
-2.834137327971425
1.158796944974307
2.336912711658379
-0.2473951676443358
0.5869675572207778
0.8070381425159819
-0.5467694440200539
0.2066803387695748
-0.4669490372598304
-9.621536210756732
-20.23047267480242
9.220627722633813
-16.20786571610079
-1.054153197378949
30.44179640563595
-13.17977749215739
-15.44169844121775
15.93670587988626
-0.4953340839627066
0.02316539803325876
0.2073911995160226
0.0501934326717362
-0.2807500302076631
-0.1329439300903339
0.04262734360243643
0.1127091642529339
-0.02239257775734077
0.0747923610948051
-0.1183249228117507
0.02759928940768619
0.01593327231778341
-0.5341992697750462
-0.08468714856823588
0.1008343103861874
0.5180521079920054
5.395382361967803
23.76367096100901
-21.5093656683818
-7.649687654611165
-0.09050539181581886
0.5874356561690632
-0.8647605940850629
0.3678303297466326
0.0512221340534325
-28.53205313328136
25.78939262860622
2.691438370613516
0.2897626842413144
-0.6033532096164376
-2.145260885435181
2.458851410834048
-0.04156521489972192
-0.2343673227406086
0.3869398011990329
-0.1110072635482823
-4.147317759914308
-12.65065100152725
-1.650198824254559
18.44816758566638
-0.06465717793698098
-0.05019095704691603
-0.01016874877430148
0.1250168837639488
2.399598682918415
-0.393402524349791
12.56936072603998
-14.57555688460891
24.20831145334886
-0.257173050457328
-5.280981131066963
-18.67015727183699
15.5190191454931
-3.138274640016145
-1.416209523990543
-10.96453498147884
-15.87724278227212
-0.165403012186247
-5.630181373200451
0.2688892803594986
-0.07416100216342622
-0.0193858743130852
0.01253516202808611
0.08101171445296046
-6.993169785694186
-3.21694063165993
10.77115902352624
-0.5610486062634464
-6.604490780048326
5.86660934170959
-0.9743942737804396
-4.91989778156257
-0.7101987246927587
16.45248512138278
-18.3878981181121
-24.62588649820838
-3.059322581617896
7.247527613315302
0.05735382762395939
0.04604902334211767
-0.0371155195706097
-0.06628733138965104
11.78286256256169
1.861252613817669
-15.06742243012817
1.423307253727337
-0.4981076551858978
0.4459954610297741
0.2980299983809993
-0.2459178042139845
-0.004999445667478425
-0.09344062004257081
-0.004022927944278281
0.1024629936595489
5.887653352741916
-0.2118653784341761
-25.41944111254001
-0.5513700289426784
0.651878695532368
25.31893244594919
0.8943310932077853
-0.9466131647302003
-0.3257994984790155
0.3780815700132958
-13.11552576874611
0.221170454764152
12.89454511605942
-14.55798365820809
15.03508614388009
-12.69908189682336
12.22197941115006
-0.05432939431114456
-0.4096429704798332
0.6546984718369239
-0.1907261070251815
-0.8064636307112277
-7.704315244107578
3.939871052836963
-2.544793863336285
2.421561159876337
-3.816638349378598
0.3885964236285943
-0.3770813385047009
-0.1330894014879268
0.121574316382366
-18.25037202385658
17.07748548466433
-17.07614609600708
18.24903263515483
-0.1563769063209211
0.038605581612464
0.02170724125615141
0.09606408345897635
-1.725755218842853
0.2421762992355866
1.455692290989548
0.02788662860887887
-0.04011771179788613
-0.08985470162514568
0.03334191214171181
0.0966305012885757
6.229077178552963
-11.03558853872541
-6.396723221543835
22.84953642606079
-0.02754553471470439
0.1157245191010385
-0.1401453178041381
0.05196633342399243
-19.34541395486834
-3.463018867093349
6.600567105860608
-0.3117742090120628
-0.1593351795742175
1.143988789893739
0.02493996181935604
-0.1128577719480377
0.01122324092779669
0.07669456921145028
0.1150938635118261
-0.2976107985345947
-0.1582623511779166
0.3407792862090225
-14.25476594488703
-0.303441560450849
12.99877623738623
-24.8549645441686
25.29213964787294
-13.43595134103385
-3.368436636256309
7.958597053806786
13.09206219526951
-17.68222261279489
1.953569925927147
-0.973179139068607
-0.2488158041627069
-0.7315749826892041
-0.4339218712380938
18.54385607400209
-18.11001054225135
18.95412912892083
13.24521830107926
-21.82571239240574
-10.37363503759632
-38.07194798234665
0.06971603677290299
20.9325051870505
17.06972675852081
4.401891218079485
-30.71920198801719
-1.864972529109429
28.1822832990443
15.69580637917768
-19.43649776144333
11.03997624863712
-7.299284866373141
0.3377769175437028
-0.7835954085648187
-0.6626134345355971
0.1824144319936653
0.3237145712059206
0.156484431367714
8.874955365297703
21.11920077657311
-27.45011112647866
-2.544045015397283
29.20901784810967
-25.17514669251481
0.3680200624830833
-1.250713471112596
-0.08306844402764894
-1.369307846841955
27.80234300815573
-13.26435013354263
3.667287475969877
-18.20528035061007
0.2164932160529242
0.3656696761524847
-1.147345247756334
0.5651823555682159
0.4814859959139443
-0.1277065720200306
0.08955218267795276
-0.4433316065664696
-0.08478218539389185
-14.36353377733506
-10.75673466542235
25.20505062812742
17.65351738433879
21.90019425613128
-22.27332322366971
-17.2803884168032
0.8278253829723665
-2.152627210282114
-0.9657691265977545
16.7532778141505
0.9004491133736963
0.1535273623668693
-0.01531427019482963
-0.07947656642086592
-0.05873652574418717
-8.541185941438684
3.965591578173553
1.516271781627132
3.20405097689107
-4.775481830047895
-13.39145912611939
-2.598900945215505
18.2830058090433
-2.292645737708765
-26.79552680939028
23.42766643286891
-30.65367678227055
34.02153715878639
-0.2198590891215859
1.534908244302835
-2.102924376664193
0.7878752215062318
11.85530591002931
-5.761448154333765
21.2029868249066
-18.59026734709191
-29.62857208468408
27.01585260687786
1.843795554929771
14.08693533891339
-10.87198553315026
-5.058745360693398
0.08264705966064806
-0.04215374244586055
0.01417755141324954
-0.05467086861617039
2.79733818062488
1.385127554324272
-1.425620798481902
-2.756844936422466
-7.694519401660638
-7.458982746918648
15.15325843808004
-11.65667754410402
-5.961482380703072
-2.59841516792338
20.21657509272733
-2.393411386142578
1.028797489882593
1.108761700917222
0.255852195365146
11.23827575397345
-13.51138801368579
13.95672693498672
-11.68361467527706
-0.5265603044412128
0.531997332132065
0.0920657435912231
-0.09750277126069722
-20.17564682243268
11.56008748862732
5.85345090813498
2.76210842568544
0.01197924748877781
-0.2767186224729151
-0.3645766971367225
0.6293160721238897
0.008575170972973689
-0.1237685316507071
0.03272650288106828
0.0824668578017143
-4.959483479004589
20.56221856925215
3.25931327336278
-18.86204836360647
-0.1556829029908807
0.215087094605656
0.0003358893995179184
-0.05974008100582893
-17.00235753767235
12.54100386353208
-5.138978424551353
9.600332098719363
-0.2323300822322407
0.122697390372337
0.1665223857240088
-0.05688969385504626
-9.908923811898642
0.7877000373878228
12.21807759644704
-3.096853821924127
1.037445240316736
0.9939638309746814
-7.251432667520871
5.220023596229011
0.3474228426400655
0.06758803280119483
-0.4169139932809255
0.00190311784761597
2.467322381301818
-5.914448701669982
0.01037807918122819
0.5804766616827038
-0.5946177105503946
0.003762969695093536
0.1137221396484358
0.08318893979706335
-0.1532219589124491
-0.04368912052189238
-13.23162829926472
1.673716053997851
2.984061620762186
-0.9490010249624359
-3.708776649717958
-0.01399975473557248
-0.396824195455087
0.7150784486854774
-0.3042544984585883
-17.67329784141685
29.31908447051135
-10.17043917979416
-1.475347449305245
-0.9005111413304188
-0.5233445240203239
3.156395364391361
-1.732539698961721
-0.7643129777123523
0.6899963547131464
-0.596786589105772
0.6711032121419834
7.062139734084194
1.199422553414504
-7.224117047171201
-19.53013997832029
-12.223400090715
16.90072605384962
14.85281401518209
-1.719759165536453
-0.05005653349157537
0.3249117477829842
-0.3168237964640173
0.04196858218817974
8.156189346026782
17.7757473603504
-37.31348497825937
11.38154827188106
4.977201709514515
-3.32603803275363
-0.005461725267185516
-0.1257638719857031
-0.02578716145952996
0.1570127587236833
0.6801774746344497
-2.025093295125687
0.3926981662886832
0.9522176542287788
-26.03374205099151
14.37586318346167
28.41115668167773
-0.002994159749143239
0.0621755797278467
-0.09456862916666381
0.03538720919387013
0.005222895382310978
-0.1358076872776749
0.1246620678452737
0.00592272406040006
-0.0362786888027891
0.01841760240878375
0.01786108639920606
-9.16666323906052
0.3030806019280331
13.84078434663128
13.83006318131008
-1.129181574115387
4.761480626617939
-17.46236223385484
-13.88212821631502
-3.600624736564464
-0.027597664880786
0.1550542165364911
-0.1276831571909299
0.0002266055420661994
24.20916598841572
-23.65369823871441
-3.524943193658559
-0.07207708051638852
0.07231105947839235
-0.03765728670668046
0.03742330774894312
7.999049088841701
-13.58215985286541
23.76646267456237
-18.18335191061075
-0.24014557677304
-0.2252962664237082
0.458101281874111
0.007340561339999079
0.7337693912546518
0.07272515736655862
-0.00788634002504395
-0.7986082085838186
-0.1663835953791303
0.1021224485050972
0.0580000430944199
0.00626110378703353
0.02700958234070215
-0.04748035242947178
0.23719813819848
-0.1766373252899634
-0.5298506092057935
0.03464449343739741
0.6718434410699512
6.808271440104074
15.06212296334449
-14.13664943979934
-7.733744963644735
1.559451899966809
-7.558657854703008
0.3315419584122948
-0.1514238574784272
0.09905102371302929
-0.2791691246314913
0.009320651024496605
0.1238978239385784
-0.1217792360546409
-0.01143923889912164
0.0510925173981221
0.0327559813576424
-0.0838484987503991
-15.79840226764286
6.97134770209637
15.45595515799235
-6.628900592453157
-0.1071901628178573
-0.004268330975706617
0.09777874404332665
0.01367974975675853
4.272990202113723
-21.77681912345329
-0.08309652248344465
-0.5240510962393593
0.3597524510790325
0.06888544061361088
-0.04544861531624413
-0.109197911493206
0.08576108620533289
23.13582724475571
2.757131043660502
-18.8564338226881
-7.036524465730251
-0.09118601314775963
0.09319590506949575
-0.002009891915590458
-1.927425010829486
-1.150476723684266
0.04512359360489034
3.032778140849827
-19.93393114128368
19.84523078180575
0.08870035946934081
-0.1936483965003538
0.05030837784604553
0.1053248937492892
0.03801512491323075
-6.83449148256411
-0.5694610210357107
-13.52712835347898
17.87125325359425
-14.76258113156506
-15.24258294839046
12.13391082630313
0.05852054675386897
0.4301288726169697
-0.06005944656211071
-0.4285899727966193
0.1027054218758763
0.02643206743860977
-0.09710505303058325
-0.03203243627267418
-0.1494888677861548
-0.4914308879252525
0.4349553133764543
0.2059644423479338
0.07042154167906674
-0.02988294436426967
0.1475364263470982
-0.1880750236550833
-0.1169523312284353
-0.2281099043389767
0.4601560990839093
0.1250934155610266
-0.5805862389791363
0.4824070837465222
-0.02691426030085759
-0.3087538243145992
-0.2448635339313838
0.4122946497601713
0.1413227084998633
10.7758044595728
0.7911247963349343
-5.739457514429415
-5.82747174146662
0.02148198076054678
0.175183437931218
19.00365539330511
-18.38833223256414
23.11443257798977
-23.729755738732
-6.078008888730452
-12.15813410203394
1.552432785119122
16.68371020563578
0.1539960037989148
-0.08364395352988011
-0.1019402137148287
0.03158816345733832
0.293035773138331
-0.01318371483493323
-0.03287294288394053
-0.4577377640271635
0.5348874145802638
-0.0442767076575668
-0.2504484808764857
-13.09395065863123
13.34437578909471
0.195825219866456
-0.2211383805712279
-0.1539340009088639
0.1792471616275743
-0.06279709085925297
0.1746427872169889
0.2118006295037595