/*--------------------------------*- C++ -*----------------------------------*\
| =========                 |                                                 |
| \\      /  F ield         | OpenFOAM: The Open Source CFD Toolbox           |
|  \\    /   O peration     | Version:  v1906                                 |
|   \\  /    A nd           | Web:      www.OpenFOAM.com                      |
|    \\/     M anipulation  |                                                 |
\*---------------------------------------------------------------------------*/
FoamFile
{
    version     2.0;
    format      ascii;
    class       volScalarField;
    location    "1.8";
    object      p;
}
// * * * * * * * * * * * * * * * * * * * * * * * * * * * * * * * * * * * * * //

dimensions      [0 2 -2 0 0 0 0];


internalField   nonuniform List<scalar> 
19632
(
0.2254853739147571
0.03976204303728279
0.04225990915654061
0.03103704985741614
0.02628693992922783
0.07185012142768951
0.06356028665696756
0.2631021516385498
0.2607292132739863
0.2559092103221023
0.07773697849182641
0.0783138701177543
0.3242734490194105
0.0320368454870464
0.03505809762982468
0.06853270391926186
0.03372130748831451
0.03868697384283158
0.03120182142506411
0.09364596500973843
0.2665098760150479
0.2002780605063985
0.251048374154336
0.04102014131832796
0.1089576027238627
0.2454083170642113
0.212356180560833
0.02015124800545056
0.02324124415278245
0.006050381466129826
0.03984053597129364
0.02149746668909121
0.04179188542654614
0.05175765920787637
0.03592437216870962
0.02044514443975509
0.127721944303819
0.04910148579498312
0.2647119633054487
0.03853264078334476
0.04846278605853849
0.2642136498650793
0.07608215692265158
0.04206756028306076
0.02290248456409299
0.1667427281019767
0.04307554841661335
0.04230149083720625
-0.0005022303067581533
0.03856891995163751
0.1488652247655245
0.1406465858366026
0.01930995969680007
0.1725293369077056
0.05528737405483762
-0.0589692100110361
0.2762091246881903
0.0736996823745204
0.07291375421091008
0.03272296712771383
0.01680012774697909
0.01958122453306983
0.04943001923767883
0.04127914328063883
-0.01398418993088158
0.01358878682730837
0.04180073200340158
0.02643269784027994
0.0878016552097777
0.04997486223065085
0.02682182988502537
0.1380644355538389
0.2036969754778722
0.2556403372600266
0.09100762960766667
0.07167202311853781
0.05853766113236845
-0.09572493454004946
0.05947965843793545
0.04946953684086516
0.2163941066849834
-0.004404506135158499
0.158676888136737
0.03906878979352831
0.1051467037278245
0.1113786347292002
0.04031186248351529
0.147608548863421
0.2327331956380822
0.04841866035048616
0.229960104121383
0.242743477683062
0.2722542964266583
0.03785496778317014
0.2615102709628675
0.2525651238997741
0.06177958022128999
0.06057026023934359
0.1682293831855136
0.06728107037738511
-0.001242471843685365
0.00513078434098332
0.0119798019615696
0.01964678248865016
0.09034903756664261
0.04511372185635738
0.03003427665683354
0.2599144223067745
0.07908988780273449
0.061275961412477
0.1206863408909757
0.308946727969862
0.03117301447574072
0.2753118608981113
0.3276301280918383
0.2413453793037183
0.2690123000700347
0.2960001106187531
0.06390309799624626
0.2366108931400298
0.1584612949113763
0.2505021916771087
0.03116283369204062
0.3091704397372532
0.3058065207100321
0.05212361487881092
0.2461720924423323
0.0853272012734056
-0.01361387623158222
0.1900786504242169
0.1940302977275973
0.001656383915881044
0.05223072504125664
0.04613549264483734
0.12632551491276
-0.001679260036412558
0.3421435790151659
0.1077191532754866
0.05935316352998362
0.09684684203451042
0.004839560067839263
0.2698915820295234
0.0475268196501268
0.172108261157447
0.01420450634010476
0.259945353976142
0.04421245400010872
0.1171138223164424
0.03180265251934933
0.09197343031964454
0.05441325890254463
-0.01285522293721814
0.03822756868838897
0.0327859519416232
0.2134485842698224
0.2821648261839491
0.2257423544119045
0.2574795466395012
0.2698566883459621
0.05061735025912395
0.3048357825914392
0.0866719986799355
0.07849732540520987
0.1220371711351858
0.05839208248157762
0.2078624369898818
0.03605368260445959
0.1107169654539465
0.04910676129578425
0.150982965182195
0.06630295933601166
0.1186198397419813
0.08329865315470983
0.03461011647425875
0.08032961833884958
0.2101366387605481
0.2026930087347135
0.0286501508015918
0.2856747712224033
0.09759507409944176
0.0441381637873244
0.04212875576547227
0.03890694806464355
0.1821335963078921
0.1276712670706457
0.03401713179799564
0.04351285552554649
0.03726257567462344
0.2044503742065358
0.004902679482698424
0.130194325404767
0.05911077989364444
0.05260323100149396
0.05152309597120931
0.03917200853781268
0.05468645905640777
0.04059823980561379
0.02645620911081655
0.03639139950786271
0.06961991679163507
0.0192864516481798
0.05397569971988513
0.06312472395303702
0.1043776555021974
0.04689092765374603
0.01375824288771531
1.328534538847484
0.06319796633189137
0.05774173582793293
0.09569343182544726
0.07130284253260957
-0.00678487487626316
0.04191739151595691
0.05815900128521047
0.03682391221466527
0.01419299351393656
0.04307122425350017
0.06936008006814924
0.1678853114919998
0.1120368730095155
0.02353356009331797
0.03948339646497932
0.0813392899837498
0.01052735494051204
0.02953549763183322
0.03393709089486679
0.3311886452889801
0.04953786009982691
0.3315501002618946
0.04980159799930161
0.04848492909080431
0.1293222704166026
0.05989537699175901
0.05843013953675108
0.01595374843926754
0.0316426981168497
0.1339459711129466
0.05881987167449625
0.02087737378811858
0.02447990586858887
0.1475087500049009
0.1009312248383631
1.965287767513358
0.06464492991991508
0.04314975745697523
0.02568144340500307
0.06905570393960669
0.06076306753204867
0.1014541764415012
0.1697644674064993
0.03367816517232322
0.290397603109875
0.05934372943559731
0.05660307075223462
0.126501429715362
0.0554476454109761
0.05704656292309192
0.05459721009558503
0.0820689909773752
0.07548096740607456
0.08531238247290716
0.2807231701782975
0.1222249389340215
0.2810317242579627
0.03282038726845096
0.06398796247422636
0.02388926543857509
0.2198893312951908
0.104462008100451
0.2756320319118108
0.0939726823671255
0.2411875568804042
0.05648484208355447
0.2548845932222419
0.2333770269525104
0.3049556451676324
0.07942940517582345
0.08589374804576268
0.2729630014982237
0.2427806030598557
0.2364208205304338
0.07477031368617107
0.04107792854964834
0.05789216399549998
0.03415768870768179
0.006177443272921294
0.1117599904231688
0.08102558116867375
0.08446706143694337
0.02430329150396523
0.01866228775938763
0.02223278265159046
0.2070558808501845
0.01860401582151807
0.03234066957366945
0.04253235694395431
0.01508662884044327
0.3145186946350516
0.1366749798693169
0.03990391877931392
0.06414077588803957
0.2270788272009217
0.01690095094795858
0.0467033537432593
0.0960720346987705
0.1051954559763449
0.03731766872593795
0.3181489669730491
0.009157007507255363
0.05282313182428963
0.2999077305913284
0.250221594427982
0.08143887946395462
0.2372947319893964
0.04989232232297137
0.06473323059498352
0.1311183344732754
0.2727576565129128
0.05995973614452
0.2611331047624151
0.1483266439116765
0.2687275815998715
0.2693068854493021
0.2832514294971439
0.09565525058180313
0.08929717491214101
0.1038436009162708
0.04206226697820968
0.06626004409377928
0.06736640512692617
0.04423322752101864
0.08356946645265377
0.09702171642131269
0.1392994435856713
0.004095444775902049
0.1045804287231106
0.03315430938079562
0.2283103389637973
0.03093178912542196
0.04989735037731943
0.1047144237447306
0.02439700434165076
0.004655225419740246
0.08369383097023239
0.09557444536710782
0.1216956394906646
0.04169348801675594
0.05786271306798203
0.05859341966826632
0.034129671431502
0.09757631481999467
0.009798095621289507
0.01971319610566688
0.01664391822336013
0.09607584344788546
0.02981199274959003
0.03272510234606616
0.03198227363758108
0.0888334220219623
0.001009526893351267
0.08903849355373161
0.0162988505748706
0.04332301551269333
0.05389139679748853
0.001880017199683551
0.08211877723455331
0.0618993936256006
0.04107749725294509
0.06647695836926268
0.04742711215932861
0.0551543369372432
0.02293400112259019
0.05021418683589311
0.04358993145642979
0.02458956870292244
0.06029905341098144
0.02126921607628508
0.04529432962845281
0.04076847034374387
0.02893768533923058
0.1020289175990855
0.02393205639444464
0.0316731462553454
0.08017341261174013
0.01028288351959959
0.1525597615163816
0.132211005410696
0.02061869417769202
0.268522420976296
0.1421331676345587
0.03265612820211063
0.0530892201916077
0.1165003541503583
0.03590507816194317
0.04662894697720982
0.1443418910516912
0.0237455626758048
0.1790461620926912
0.04321291086897743
0.08969244001630465
0.04815394496584949
0.01124964650345128
0.03028497566652964
0.02674866784359418
0.0009545869852944029
0.03862448448058819
0.04245492139517396
0.01998718514644369
0.05596132408066404
0.07862527436846667
0.1020456185415682
0.01544752970445723
0.02587385767054428
0.06546334908125191
0.006413045176208989
0.07527530460895754
0.08868398973708139
0.03480853531594713
-0.007339835946798618
0.01522954649692532
0.009775671347141909
0.07788435685793327
0.04387473817833824
0.09463431673511399
0.1647290329267122
0.009597183714540557
0.1486981491940276
0.07065618159233776
0.07453921031293965
0.03768761643621624
0.019497962979171
0.07820472845049972
0.02649361920466472
0.08306015790564272
0.2061868374549372
0.1217523483670615
-0.04075524541461437
0.04426397782640323
0.1621677107957281
0.08120042965577202
0.05940624875198038
0.05300702178811581
0.04696979987169501
0.06668988429419849
0.06586998591144597
0.1709012409528603
0.08459228211499677
0.03260074923646479
0.01413271498801247
0.05057223011863251
0.02030576164319267
0.05468872109995414
0.05721125642809159
-0.02341056289911267
0.08884432871078995
0.06854528083559663
0.08026935003210774
0.0165100424740892
0.02436482732467072
0.03201701352154243
0.2381358012445985
0.05601976794406723
0.05552694474956024
0.05990639582258244
0.07474786365277987
-0.0010798099369286
0.0426228545365638
0.05146278886450494
0.03711062523001925
0.08645031599443687
0.0696912833265102
0.07123504801673679
0.09820466923913805
0.1039044844555648
0.05474866955836622
0.0705565443055801
0.05879354778299087
0.1053772832748831
0.01745071033954936
0.02859761748542255
0.06115694638777344
0.08711866013653358
0.0444548152466638
0.02421174195377811
0.03935152429092729
0.004541727003160523
0.05134410120240096
0.07937922151378064
0.03619744118704425
0.1199601537087886
0.03057182801466199
0.06612997092669343
0.1934470182713326
0.1713415351000356
0.05521688860260375
0.1897063088013504
0.05309411839287244
0.1001975319841085
0.1083768438116623
0.1833533748364979
0.2754716016469441
0.01800835325559352
0.07517846787580573
0.0667974844723299
0.09781127527710615
0.1283652539180046
0.04356386301011313
0.07647599985836392
0.1126260364007327
0.07187802654453657
0.06462711213531303
0.05329894306376721
0.0732127901894037
0.03482961805160958
0.03630798629655092
0.06113076812901994
0.08877978316745301
0.05679520773698161
0.0747348066424907
0.1095402292315826
0.1253591173563646
0.1105158409524544
0.04327596302428285
0.05876405940379146
0.04786772133892706
0.08077139297760605
0.1549001689751039
0.1078030970158177
0.03502740119415412
0.03039358243082625
0.149858661861681
0.06815569818085303
0.06266612621167322
0.09329452378748761
0.2642120045953649
0.5350733778476232
0.04094256067253149
0.05553940716006456
0.1650184405823425
0.04450919665252507
0.1021110990763949
-0.02161446169880994
-0.00882864714700712
0.1833241510682722
0.06291853280489046
0.08946627139685197
0.09686590591237958
0.04611319828805376
0.03393842905007782
0.0908843775496877
0.0921589008853101
0.009734369221388513
0.02340401197186268
0.03892901633215622
0.03680254825642013
0.07712650345246788
0.04980449351709056
0.04150442662474443
0.06005127497914931
0.02618668965671118
0.05233239032625125
0.2042940567871107
0.05740377761232664
0.0879499961432935
0.03529123316566355
-0.02498845882839732
0.04075999468431093
0.06719904304789458
0.06228763819820327
0.06921004076319401
0.07024342418925625
0.04945891494711446
0.07907567378954049
0.04648530425528535
0.1334884742835802
0.003482860758034732
0.1093200169837454
0.102412259188768
0.1079695403458391
0.1347981074076905
0.0931022758791327
0.1763423965766736
0.02334002655448038
0.105533937524491
0.09166482882751478
0.04019286749129122
0.1792611035144117
0.08361049608390062
0.0998212447181327
0.1157550676648969
0.08364246041123537
0.1106877309054945
0.07952879969805562
0.08893313612528422
0.06667960813858766
0.1592789954079183
0.1116884990328688
0.1738568010846235
0.06531331027847041
0.06889538676881767
0.06258632342650636
0.06741911104312519
0.06503936810490366
0.06582111528831064
0.04559735664229798
0.02757243258672722
0.03116841840437843
0.08431084425411312
-0.01029686958530972
0.3063247097829407
0.04257369385926475
0.2208387474911945
0.1638529299215734
0.04413683465329711
0.06998116445886551
-0.001075969887582755
0.07895987407225002
0.1043367311186266
0.05156465300219946
0.1745972363456313
0.0416385405573844
0.08232980211364856
0.08370479638052655
0.0886876106853145
0.08625404027174699
0.1438221010228309
0.04601816125909589
0.06306264544501632
0.08174211210602007
0.05292124710098576
0.04674605191130117
0.0411424145212924
0.04694742306145963
0.09994060628599218
0.08076407644658198
0.02768383589219351
0.1723216234489663
0.2796401235384313
0.09408941392140172
0.2467145302426993
0.03207376676728597
0.07318400346321623
0.22194232090717
0.07665622258927955
0.03686964951072355
0.07613817969745354
0.06905526758805158
0.07066363551412921
0.08039980306554798
0.08006505444129894
0.1297346424463914
0.0479293751032874
0.04781144543152279
0.195257861797086
0.2106611461844769
0.05167650645016682
0.05187538147414852
0.02391195252884465
0.03485057377275089
0.03571673712151364
0.03517456935021031
0.0332351286556814
0.0370334680162275
0.07492177819280967
0.01086889568724686
0.1914686169299667
0.04052446679531341
0.07151867263577284
0.06841652085309068
0.0906066709081947
0.07069863915163371
0.07109705857015851
0.1464844767372852
0.0353493028357108
0.156548674464601
0.04638511601173935
0.04131336583851932
0.04254264425215956
0.008821579580751018
0.03595575995323052
0.01815940042529708
0.04483803413344514
0.1134438249409931
0.1838414329310294
0.03610284947526503
0.04588334464711765
0.06363754459672655
0.02572091857817919
0.1028549962718974
0.0289516395256825
0.0329004128711854
0.2076284988985092
0.02896278988464437
0.05653300370803317
0.02517647379927774
0.04633086366805216
0.05106864656312617
0.1246889873513861
0.04855460240498556
0.05329510069569942
0.07973447979184402
0.1268996447729415
0.06481084556113512
0.0407513132378244
0.05602630597911819
0.05107466854995228
0.04672056180614017
0.2169920243682219
0.2334153376147131
0.2131654013009735
0.07001878148400754
0.04451535855397808
0.05507519391109825
0.04057311072188413
0.05238551374074572
-0.03297007785149766
0.1265024427166654
0.04371120467339205
0.1088111230997983
0.01970244394074856
0.1331527843753932
0.09314840657359315
-0.006561917905294905
0.2169683440963264
0.09934574559510065
0.07226141722107679
0.01831990621907645
0.1828814344227102
0.08668236870326232
0.1331534445496953
-0.02971759049690473
0.05619988576874136
0.06351192004806147
0.1625638207982685
0.05798974098425676
0.01118700542601821
0.06836288152025165
0.05616391075618259
0.06942069322023528
0.03210946837843327
0.1243620555916759
0.1689881192137524
0.03247689000307072
0.06318381210055038
0.06436281377745515
0.07869311570290077
0.06235293748500299
0.06223937559110712
0.165931348369595
0.03312273609437705
0.04303588834886286
0.0409207455769663
0.03304282718908791
0.1198938656896856
0.1240389580322175
0.018006827998196
0.04465810294746707
0.09008816947045663
0.01650528681252636
0.2371685100944768
0.0401889441325978
0.04364381311172678
-0.005560437246563426
0.08997571046355053
0.04566273532166536
0.04309395066541175
0.07537094638944895
0.03178275822735592
0.08387767996761562
0.1355086706818465
0.1060700574499886
0.07385349975651233
0.05616691740281003
0.05374340181103075
0.0533699299616106
0.04874766197358867
0.03267830307574474
0.02712472760571139
0.0340774126669693
0.03386126222982856
0.1199062121036334
0.02683347643556157
0.03153381383749753
0.2131490573161913
0.2609199375561128
0.008213707125945992
0.0496222112670747
0.06003396938207395
0.0349399870408745
0.018872078354562
0.1259126676876499
0.1943894500387954
0.148429314439304
0.04023845631867633
0.06718788228623918
0.0246538943623182
0.02181314593194373
0.02098269430050149
0.0980537270270732
0.1454500741318596
0.1358458427971161
0.1150679322224379
0.1884804956162775
0.04968721389485048
0.03228396141025079
0.04114306328206934
0.03912044618925635
0.06401083270970315
0.0583694809025907
0.03822746188222977
0.07925841198852217
0.03902210368778446
0.2415107990539975
0.01725139963794324
0.1850644382127383
0.03852358218803094
0.2168475516270121
0.04501548424639663
0.04053980413844803
0.1469766805061079
0.1207103240929476
0.04563011362694925
-0.02239586140820694
0.02353928568744271
0.03547706292618726
0.0193436026092886
0.1692532565656909
0.02119225594310468
0.124942633597126
0.1809957534028472
0.1649629505431187
0.0406304890661732
0.1774161740626379
0.1409956371441155
0.06659749708067532
0.02536410013913074
0.2012229589605243
0.2285478627407778
0.07155267078501991
0.08964018050793128
0.07949193685870448
0.2514070726769524
0.2119273587459901
0.2270258107686614
0.04354993521372751
0.03871455673800646
0.08161800641919893
0.03849301320483335
0.03726294546081474
0.2566591283831317
0.03550232915828776
0.01593177084216136
0.02593643891608049
0.02181653036135373
0.02406660499397612
0.08948154600136558
0.05022880302638306
0.03203984527359878
0.03308260192161132
0.09900146362222532
0.07486680066523739
0.2040667633132518
0.1076919692635507
0.2308952402466406
0.1524816261176718
-0.05230902334293885
0.1861162123481178
0.1439721882564896
0.199730176125231
0.01029960660705493
0.2028716330015267
0.01116688121071312
0.04126014704399027
0.009656829514553678
0.02140419035204368
0.01141430982484202
0.06406130764884992
0.2095817871850014
0.08474507358418749
0.1178946835986912
0.09920268725356718
0.04849707831644019
0.1870257460485326
0.06597653223549112
0.05939132548069318
0.209527238735126
0.1070164311490604
0.1190276534202475
0.0004346160392992873
0.08850714459190366
0.2282541158651842
0.0263899823693602
0.2369693751121726
0.095768195825625
0.05915157712689803
0.02692038262735894
0.04602644028381778
0.01453005749389445
0.01958861747619059
0.03599985205802662
0.03578801705926524
0.03770893020583881
0.03553759186561768
0.1821634610027009
0.2289143550841405
0.2254930837683901
0.09387927965268462
0.1886314394315551
0.2756938780019184
0.222062634524597
0.1077519312364993
0.07758474066080219
0.1817836236596177
0.06999212423742866
0.02282860416159266
0.2035375506968969
0.0343913401338319
0.03865090834050218
0.1735507403428688
0.04694286575573723
0.04304984582991431
0.04113774312300123
0.1866563328484129
0.03640107101159722
0.2841793684156853
0.02002479391851563
0.2184596642649092
0.2420835981198403
0.005960272768524002
0.1821646572873615
0.1347204628251711
0.03243720786531248
-0.003064069820855077
0.02974802330583617
0.0301125229715733
0.02564608441032555
0.02772270710187861
0.03783522219895216
0.02840905620539638
0.02585476449659146
0.01233728648627718
0.001925335588630127
0.03854705687367495
0.01112355767823607
0.1224088027300083
0.1962986308196318
0.01604565390640181
0.2360075402452412
0.2373069338178524
0.01446537913191057
0.2270764365091134
0.2219000247965752
0.054407069354652
0.01362313395241225
0.004651614892018877
0.009117929486908052
0.02021260659283335
0.2395724363296804
0.02284604742916747
0.01815639374022002
0.02880222057780054
0.01661195288493754
0.02602422044686872
0.1039715231857449
0.02132101552555243
0.164053127973444
0.1869773760373032
0.04717924267034077
0.05565645829658106
0.04909555784316057
0.2887115337628773
0.01609445043828882
0.04990003405169796
0.04707064039610633
0.1331214977099699
0.1167594858754071
0.2884116034247077
0.1298801912065917
0.03070046000642837
0.1382058653130314
0.03167909905770992
0.1442331877762973
0.1229427045926844
0.1508054951297071
0.1445847730531973
0.1324907978793013
0.1436894526861006
0.1430216062073154
0.1445190729041953
0.2209987142957017
0.1107285258526539
0.02465038029169283
0.009177679350108161
0.02889963390532561
0.01696944763695659
0.02966184804881603
0.04156160777061253
0.03144942866033693
0.04361674671044097
0.1146277431035724
0.1214584051091508
0.03570391496336887
0.1322456022267234
0.1512783676890914
0.1377540901296991
0.03330240686764978
0.1415043147658187
0.05039421546655615
0.1235512123772397
0.03457079393343537
0.1340081721101745
0.2211610867388334
0.1497687115306237
-0.0284941634005706
0.07822641693343405
0.1918759011308313
0.2401048726479727
0.1426825410345725
0.2409412936007337
0.1677308316741187
0.1461492753349917
0.2183641340402979
0.08796257337271633
0.03362932717367111
0.1593783890894719
0.1011355481926962
0.07243365572715889
0.221793581171315
0.3068985715676254
0.150708816461239
0.1532043502057099
0.04238853303568087
0.03555230635108717
0.03342603204526299
0.1701517913540329
0.1688269859484259
0.1452770899880135
0.2628816705782437
0.1783808603871142
0.3061497817391733
0.2856092199166121
0.2477804029309088
0.2317800188569394
0.05230411618030942
0.0308633045822874
0.05040416168914896
0.03307445774815908
0.1790889750656165
0.02476114516523298
0.0496360939140933
0.1611133560825171
0.1588535355896603
0.1577569953523863
0.1529448745124985
0.1718831707866125
0.1550532350401798
0.1676607201885478
0.2117480769381214
0.1450985104640276
0.1242692422434909
0.1214339629142391
0.2145662366849926
0.1396989896742415
0.1320174659094528
0.1591044765125299
0.1426151285482256
0.1679515616989808
0.03020777413107172
0.202397108898199
0.2049116816269897
0.02237276793607327
0.02034273010730113
0.02325358551335238
0.1454059280580964
0.2278167536164675
0.02317233052882247
0.165351819987566
0.1546566662307455
0.1622022131200986
0.02484056315531459
8.259253093160638e-05
0.05434371905944973
0.05181304639713469
0.01954360102408082
0.01719655370097303
0.1183898352657488
0.04385234746348241
0.1344872376964104
0.1300254464573446
0.1363978492956981
0.03687465770555324
0.2190886996446335
0.2239000482945739
0.2090779373280873
0.2168897861586641
0.03734043087323136
0.03577971495666252
0.08192370482252047
0.1155748405007602
0.03628882236579008
0.167698299709598
0.09030030245436714
0.1289059375768013
0.02600761815766111
0.1027522791063951
0.1003712260407422
0.06509240820742669
0.06670349932232916
0.06607322638281346
0.08805713982244734
0.0898366477888989
0.07545883292819638
0.2200152250464222
0.06956983733225858
0.09391596822640805
0.09284994674347395
0.08199342187356053
0.05819428534385553
0.06767821382944757
0.06299027066682131
0.05231518885728056
0.05993786357971587
0.04835960816483677
0.058676343159224
0.05816262115607428
0.05510072122292938
0.1422766841261923
0.1621862896267074
0.1473633948068782
0.1118843486653855
0.1503095145397924
0.1443282998900912
0.1435795378576116
0.1478703629083251
0.1204207615252094
0.1330001368372228
0.1306329768395057
0.108790714746246
0.02538303525097273
0.09379232933523753
0.180232200924075
0.09621309469735576
0.1165949141716996
0.1132036549289749
0.1089868205540509
0.1544490451153345
0.09926345360524463
0.05059285327760939
0.1647045251191198
0.04659243580288419
0.1699973544126973
0.03241882528394251
0.1153934870934103
0.052521928283995
0.1009261497021558
0.1071651399561203
0.08847159138816502
0.09789387169820127
0.1042361532785068
0.09268172351012613
0.09173515407117178
0.105242269630047
0.1100052470190148
0.104751464469532
0.08679805131125874
0.09874570240687486
0.06870762626961024
0.06728643833711671
0.07844353150535138
0.08121972122203168
0.08879631369003306
0.09208350813353947
0.1098460154042046
0.1053373957883472
0.1876719306816334
0.08213561750185157
0.04178235427403645
0.08363561053181663
0.09669254284311142
0.09910344703994968
0.02215258463126513
0.0397049973825247
0.05071584981993795
0.09580946049143792
0.0987049667196029
0.09010937099160678
0.09278382246361025
0.08978208916081939
0.09611487831718617
0.2151606747847605
0.0932309544900891
0.1075088481469339
0.03489878475809902
0.1157908435104073
0.2760507541747904
0.1478784901828807
0.1936089832073298
0.1397382477942408
0.1813644413145516
0.1644291721500343
0.1958900782523315
0.225815890811217
0.1020599626833265
0.1041571498633837
0.1006112352777662
0.09227263557442225
0.09797286392124753
0.1679454638814245
0.0986678058531003
0.0894657011218173
0.106091637112457
0.109113780420379
0.07919167029803195
0.08930285010101402
0.09800933495381442
0.1083261459722682
0.1002456512054748
0.1077248963964549
0.1229737582623639
0.1181010233189873
0.1146125980151329
0.1502799757304108
0.1330778021552001
0.1165943188476656
0.1353502014340759
0.1178852887641073
0.1255106321785572
0.118303573290483
0.1435025812342351
0.1397458884817256
0.08505019786621516
0.09467248281668708
0.10672432901297
0.1398372541777957
0.1456343984640875
0.1466970575435667
0.1246310427679239
0.1369164175430372
0.1039192749377996
0.1078654328708286
0.112176212665222
0.1583987058012836
0.14278820801149
0.1500229697925818
0.1482537020730312
0.1123164145347962
0.2325621139003934
0.05354684832386995
0.04917587284666638
0.0461111461258087
0.0531060126174467
0.05004688936057211
0.2416599463370401
0.1754387774550496
0.03466381085977652
0.1809301124108525
0.03347124414306956
0.256157472435014
0.1584379698416918
0.6188483972736007
0.2631287024208551
0.1704238068912328
0.1588140172102232
0.008097607782661876
0.07712508727332466
0.1001677434593197
0.1025070567747086
0.1861055936218131
-0.005598752737016576
0.07654270846964432
0.09098628864221832
0.0124789917890069
0.05667441558504134
0.08449573811719276
0.08316618530874945
0.08090308102970711
0.1236040686679407
0.1227650453384359
0.1150926483545158
0.05235068052352883
0.05324445057556242
0.04933893931984167
0.05597602211068083
0.05682942258073948
0.0647052153313554
0.05473299883253443
0.061826167567898
0.06353876829288779
0.06621339554750252
0.06319037542554952
0.06632964775006915
0.05962916019710646
0.0588815796817379
0.03974586229301565
0.0440205832051792
0.03236692148984086
0.03089421334220931
0.2130811083953657
0.04157143345379886
0.04241166178091139
0.04695724479661782
0.05701165507583598
0.06514583055700182
0.06216780692935975
0.07727053322098677
0.07172038671159302
0.07720744012533247
0.1388547992292212
0.1085441810098474
0.09573903316609535
0.09545598604093215
0.08546866686319145
0.0734469885363041
0.06230295080914623
0.0770802623881396
0.07786809227125271
0.0698209094389214
0.08112408453401521
0.0589275779422791
0.08952069303942084
0.08944712951745534
0.08377342498230887
0.0987711388330433
0.09535311962900732
0.09512759430612337
0.07947669019284954
0.1006834855588489
0.1896310228056686
0.07715541874713301
0.08030610764139737
0.07909489063333153
0.07754026048278138
0.08076815577514015
0.08179206986151911
0.08194723419364747
0.1598675391636105
0.06831204227791812
0.06044756912276639
0.06441354793526638
0.1018728550908066
0.09993783952410454
0.1687119762438257
0.05488156689877096
0.1038591010153363
0.2132004128361531
0.09312704924941873
0.09035241055811377
0.09040159901824027
0.09364306294887559
0.07117305281224671
0.07871977095367824
0.07526920055816023
0.09947682927857808
0.08729995239333613
0.09435970215975868
0.09758028911970744
0.1014200978724473
0.1032978657647177
0.1025358075015188
0.09124428230766106
0.06779897202894766
0.09702487620550727
0.09440960412600863
0.1327512910672067
0.136151706500705
0.09619891792189725
0.2419524524312208
0.06583676749015957
0.06985673372417781
0.09908009008387013
0.2066030181665276
0.1008074353744487
0.1104628528310076
0.099849213309638
0.1075658355487526
0.1138274009098689
0.08883751920214117
0.1042448965627281
0.1077777423297516
0.09629842933550413
0.09180090973260382
0.1055367003889356
0.1072191728332196
0.1250101657010144
0.1114253735402596
0.08139430585411929
0.06976869392945839
0.09021245890442961
0.07441313962144917
0.1025385574874581
0.08844300488467702
0.1472904378477047
0.1798903559202965
0.1197923581572899
0.06063894240393659
0.07328843647370696
0.06807105256410215
0.07668365415877518
0.08698471807030499
0.06120398239734676
0.08876803479229106
0.07609074425974696
0.08515210480615465
0.0814782066405542
0.2446408324037114
0.0442298445987696
0.04174240543360767
0.0501363509416328
0.1008756079655141
0.06969300028924018
0.06061203297833483
0.09570662077953559
0.1045291973707454
0.1116492185495155
0.1269337190113496
0.114210728732721
0.1177608632598706
-0.001906804174148904
0.2266229977370646
0.1271699127246888
0.1001727162589384
0.0802907796560578
0.07889626399110759
0.08916481809936919
0.08436842842024402
0.07667426000984801
0.1927338935288152
0.06650596113480239
0.174865049503455
0.07509542112554424
0.2408233347397534
0.2403401861488053
0.09061495535680938
0.09540564397843478
0.003472796275931583
0.09342225440236294
0.1405752480685328
0.1131330616880289
0.09850095456028433
0.08804735410654153
0.07664022895132376
0.2257124162729649
0.2079117458988028
0.07702994194279214
0.2231564138399655
0.2440205165052367
0.195957134247197
0.2018242907348859
0.05923589024848595
0.08539018417701694
0.02953347811471436
0.05870554773271551
0.06022871834620207
0.05865216466217984
0.06119209682150237
0.0544058093456626
0.3426031227623847
0.04750413896470179
0.07596171621462874
0.01533451462996751
0.03892073792276306
0.1810045132914712
0.03805441301339853
0.1037545745412353
0.1149436822995976
0.1179732626833807
0.1572922574073938
0.1475956123865067
0.1449342894388325
0.06471990826388363
0.06906178314241435
0.06516951963839228
0.08106100855427582
0.03886665969758683
0.2370774064983645
0.2131581155415729
0.1765609717365055
0.03651515554217796
0.02399775904082914
0.2759450737300779
0.007470896440472454
0.2021250213854197
0.03406052653357751
0.04812631013292289
0.04689472980236278
0.03989256833752106
0.003377204792795715
0.04269357299385832