/*--------------------------------*- C++ -*----------------------------------*\
| =========                 |                                                 |
| \\      /  F ield         | OpenFOAM: The Open Source CFD Toolbox           |
|  \\    /   O peration     | Version:  v1906                                 |
|   \\  /    A nd           | Web:      www.OpenFOAM.com                      |
|    \\/     M anipulation  |                                                 |
\*---------------------------------------------------------------------------*/
FoamFile
{
    version     2.0;
    format      ascii;
    class       surfaceScalarField;
    location    "1.8";
    object      phi;
}
// * * * * * * * * * * * * * * * * * * * * * * * * * * * * * * * * * * * * * //

dimensions      [0 3 -1 0 0 0 0];
oriented        oriented;


internalField   nonuniform List<scalar> 
37380
(
-0.3767458452306832
0.9980397633940639
-2.773638147988887
2.152344229878155
-5.236516180273322
0.8286683240274693
52.38788487693805
-47.98003702070059
-18.28480235578896
21.92030007824331
-22.79582929365221
19.16033157127752
16.81152450511832
18.25846487073118
-18.54851306861487
-16.52147630723262
-5.082529476564444
16.72648896305694
2.816242622134819
-14.4602021086163
9.375231676872897
28.06099001807043
-20.93499093976219
-16.50123075514182
-10.22067512870876
-24.84093510516033
44.43684191075928
6.961877055554406
-2.986858420864134
7.621396879876906
-11.59641551469708
9.638891450587186
0.4339415819029388
-7.427990382579329
-2.644842649872756
-8.940752758075451
7.637552456310267
-3.17987381936042
4.483074120837196
-7.530137995867397
-7.281968787072817
14.80894421432658
44.372059179538
-10.69342150734416
-22.31552364705187
-11.36311402512053
0.8555807106634645
4.838874660248619
6.949928769891864
-24.11819180331144
12.32938837317515
-14.94130180400126
23.74332544410723
-3.411440167341447
-5.39058347279695
-1.496822955140995
-0.9567299457151837
20.4466381915541
-17.99308529041397
4.407349160417454
-0.008238874042104063
-19.34041209037918
21.1268238537707
13.41315986339935
-10.79665827305544
-14.15300863828902
-9.916630847140864
-1.600876960302489
25.67051644577327
-17.93682393224304
2.283517431342832
0.3301566912975153
15.32314980944279
-0.08394141356694579
13.58712164578642
-6.541303176803209
7.285028973222962
2.749417702180174
2.53548196889593
-12.56992864507696
13.56813462673207
-1.552602656567631
8.270504670059626
16.64876551619916
-3.792446332445286
-8.333785093841339
15.13110419419198
11.10467817561191
-17.90199727632343
-6.217824697367199
-2.20263161957467
8.854397898669458
-9.71205670078162
5.61080989669446
-6.411659534755573
10.51290633830574
-3.222163918825498
-15.90378310495555
0.7814856476606907
18.34446137607611
-5.088172862973216
-16.72549749711586
6.418967241953935
15.39470311815177
13.99395247750324
19.53358049163853
-0.9085378351364133
-32.61899513400925
-10.15028246273673
7.739232534343318
3.933369677472666
-1.522319749066572
20.80328526599375
0.3853885679852938
-24.41083775280549
-17.59253419292397
-25.33655629381082
19.07674865672967
23.85234183014631
-14.33894461221825
15.42759513591536
19.71463474232132
8.560929840115984
-8.750110447962278
12.97404507881027
-12.78486447093501
-8.040189636846318
10.58712783447093
-12.92390405478144
10.37696585718191
-23.75114246457756
7.429953339494755
-9.024683539313097
25.34587266495415
9.287417394869598
8.765505906787338
-18.05451094942154
4.573528049599259
2.62641163658677
-10.18679810720942
9.073296917045054
-7.311427531055431
7.525548008884858
-27.41015091273057
1.952985207792395
24.23978464696235
1.217381057921565
1.462189497740499
1.300328257174147
16.37730639636877
-12.78939765882098
-3.134334000057945
-0.4535747374788291
9.137739283429951
-23.38244666441685
14.85239948662318
-0.6076921056367752
9.222232771603512
-11.83917100489013
28.12893534353945
-25.51199711022957
19.28815465228038
-8.670300123659461
-8.232934302604056
-2.38492022584069
18.90144672306506
-18.97904209556674
-0.8523980097797741
0.9299933823962473
4.828912312314621
6.96104009789078
8.370703745987814
9.409561460874038
-16.67467843371239
-1.042666744660822
8.307783717569233
-1.88581208271273
29.90262669734003
-2.926557508808153
-25.09025710577133
-15.57211197343545
-9.511601898043663
10.23351410310634
14.85019976839867
-0.1550260014675487
-12.24577157323625
12.39658043903332
27.85390412392724
3.217933236875227
-10.74665083299054
-20.3251865278056
12.31748955891784
-6.318117724284809
-4.651585152518114
-1.347786682101112
37.05094083931319
-25.52341489762488
-34.52289808985604
22.99537214829128
0.169459633627103
-28.65709675719073
-1.03183574847643
29.51947287212387
-16.11273859263037
13.55759149558663
6.83101752160759
-4.275870424795372
13.95570554709604
0.3436546717293016
-17.24581241574213
2.946452197117806
-22.18385306722154
15.41694235698005
9.94867679000459
-3.181766079704968
22.84224216746891
-22.06717694520898
-15.38319337360111
14.60812815135785
0.3952271262567468
6.6465059739521
-23.84135224863909
16.79961914845399
6.199609037346643
-8.339708484126939
-16.82952426709656
18.96962371389423
-22.63870065197294
2.172013380854771
20.0728617849109
0.3938254861644342
-6.746569644637565
-11.48296185386358
25.64259159299533
-7.413060094483897
-29.02202052307363
-17.0135067711565
17.00029978032885
29.03522751396665
-21.78149825966715
7.075026684091902
0.5991534692990579
14.10731810628876
13.88795626734254
-21.00564748108683
-20.29245969910918
-11.07920802565095
16.29808860859738
-9.218587608650038
3.999707025709685
13.54620977135811
-18.65898813474848
14.95542276943358
-9.842644405970304
-21.83631994786236
30.72483540242577
-24.88696289026777
15.99844743579651
23.17877687657456
7.007352405987323
-27.6980954084131
-2.488033874151732
-16.7941081452729
-3.736386740305357
12.19510456782489
8.335390317782073
-1.322072236993844
5.201080908257968
6.176508046368018
-7.820804694242457
-0.1087641820187187
13.08160752102039
-27.27563257316755
14.30278923431959
7.017037377810557
-16.31876900883026
18.78931153766431
-17.14492798917344
26.8711108199679
-9.727643895505377
-11.26581817339203
-10.38725714588396
21.65571346568689
24.59186874810363
-10.47088983504694
-0.2330226457355532
13.52157991036766
11.34036392148797
2.65584874021668
-27.51779257202951
-20.91442498514112
8.140874572922304
6.560475654342971
6.213074758450091
4.439675886891343
4.83384465484909
14.39573026994696
-23.66925081171082
-7.855276123883438
-12.41698041983707
2.362609304285976
17.90964723970604
10.45636028494993
0.7767039380851921
-15.83594546988385
4.60288124681122
-33.10862841711572
-1.703985930135048
8.321029858527076
26.4915844884393
-24.36157443530295
3.873609086002758
-12.62066306786373
-16.21639194218892
-1.05569954542387
30.45532654838821
-13.18323506076169
-15.44828479828657
15.94177852793705
-0.4995498795361645
-4.158519345564726
-12.61488631033339
18.43625324036858
15.51649935856509
-3.14461292452416
-1.414969273063115
-10.9569171610591
-6.599053295202792
5.858611173086032
-0.9629965773186137
-4.924729556240973
-0.7113271618074123
5.879447670284415
-0.2049235910728087
-14.55670119827837
15.03851279797183
-12.69613666981858
12.2143250701411
-0.8293649080176564
-7.661976804706772
6.244798744149898
-11.04637749011717
-19.34135141702415
-3.468153119699914
6.593112594538635
-14.25063628855222
-0.3079725459041458
-3.371921387525822
7.926609379547315
13.1099149745293
-17.66460296691328
-0.4419680215662953
18.53442176121021
-18.09393569033491
18.9880924702612
13.24016476685591
-21.82968989106998
-10.39856734602223
-38.04736199049469
0.06883158780704413
20.91165597983339
17.06687442288269
4.409823231006071
-30.70991190966304
-1.880460580150437
28.18054925883983
29.2156970493569
-25.17225566230661
0.3663818439735341
-0.1731879620579689
-14.28786689318437
-10.75420516599207
25.21526002150162
-13.36422118964854
-2.619437202826862
18.28221873012591
-2.298560337645913
-26.79005136042776
23.42998617433531
-30.6559092230498
34.01597440920855
11.85245577441868
-5.759889141681632
21.2109008216578
-18.55819634632465
-7.674955300707915
-7.469320984533082
15.14191189034607
11.27051682415733
-13.52092041849566
13.92941464565348
-11.67901105128316
-20.18073854607216
11.56473117073409
5.865030093945454
2.750977281183706
-4.967034912539831
20.55777372470369
3.258643683472433
-18.84938249567324
-17.00098303099011
12.5385825968032
-5.145461297091453
9.607861730950935
-9.906208894713767
0.7893101317289857
-3.110480565094963
1.036593747684318
1.010424794114383
-7.255332059901415
5.208313518028475
2.466447011357263
-5.909838546940083
-13.23121741396281
-17.66806072484312
29.31392125115055
-10.1766831638533
-1.469177362395743
7.057115177381096
1.206548927851749
-7.227070357704346
-19.51046168816289
-12.2082312655109
16.88502485488403
14.83366809883253
-1.726686094184201
8.160482682207419
17.77143535674293
-37.3124075933564
11.38048955441716
4.982323593343402
-3.323801317710222
-9.16460114682908
0.3015204611357583
6.803764049204977
15.0656769473788
-14.13028626277637
-7.73915473385997
1.582579333347324
-7.549143615286178
-15.79980423925633
6.967185406586191
15.45709630380783
-6.624477471050834
23.13336394643649
2.747762629054468
-18.85534345495626
-7.025783120507457
-6.805524185829866
-0.6038360872398587
-13.50506471170021
10.76608081573206
0.7837683129835973
-5.732261545917869
-5.81758758291739
19.01160146318107
-18.39153119548596
23.11228906716532
-23.73235933484496
-6.080490588938602
-12.15219577416205
1.548074113213488
16.68461224998946
-0.2517302999765069
-13.06672850538923
13.31676697023366
17.28277740268367
12.66743759210597
-6.993898246827416
-22.95631674862288
13.12259016464326
-1.803447564474334
21.67820535623808
-32.99734795637654
-14.49304818968049
4.271004336504568
-18.35981552417357
14.11426581818231
-0.02545463124172452
-24.70476363123093
-11.81034055669127
-3.027886377233519
16.66419594403763
-12.84448750493825
-0.7918220620663707
20.66666804952044
-16.42612381812333
8.882045933269017
-9.028655076033534
9.112707145352021
-32.44043320100549
16.83975265478674
10.60513525620014
4.995545290026675
1.701653007982732
-2.543251395673097
0.3536482032777625
0.4879501841318397
17.56902878609339
-10.62845278297753
-24.69684968666842
17.75627368355812
-6.415500735388696
9.623195383813018
-17.66813798365812
19.61215696149329
-11.56721436164268
-8.715477168573452
7.68655464646101
-27.6825662359102
28.7114887578201
-7.716719090476017
23.53854165389712
-2.685600851690518
-13.13622171168262
-9.705050881637773
5.738137710080417
-24.25149866394678
28.21841183537624
17.94730894959917
-9.183539322105137
-21.1564407672211
22.25235365616571
-18.23267148586413
6.234595314027709
-25.71600371026036
26.08439570454462
-6.602987308355229
6.521500268531145
-29.94987263163308
7.876790525008682
15.55158183808783
-0.4530258779692554
-0.3936957142482597
0.9188100059241872
-0.07208841438430434
-12.1463544414242
5.746154549166204
7.942583423791276
7.829574639177435
25.29747680494539
14.21220550755372
-19.62960783979529
-19.88007447266956
-2.091984548945742
1.369255186669731
-8.305925713929819
20.27298067845814
-0.2732938809112264
-20.0009783683344
9.239011543917931
17.98945081227552
-12.96862656368314
-14.17179395797436
9.150969709421929
-16.55831836382822
-2.221072825075928
24.43431792829044
-5.654926739362956
-8.663013258449586
12.23283020930394
-20.12813531466153
-23.46521091951783
30.50678143475815
-2.762054692767861
-4.279515822509805
-2.651595582369066
-5.061802226540403
-1.646679506462535
9.36007731526597
-1.317544268500367
26.74125137610176
-25.4243729161959
-10.65794003614783
-29.74663443225104
16.93936354890038
-10.13693423849108
-4.885501595330831
-6.269968782806624
13.81297537682681
10.35441549718048
-20.8075053306594
10.45128706270689
-8.880952632441639
20.47285518419109
0.6343155200354661
32.50211272107478
-15.56702028924927
-17.56940795185031
-9.763946504943487
19.86921420757886
-10.1062933330809
-13.10643774980206
28.19794923610232
-3.624072909853545
-10.07628327993968
11.04876060721784
14.93586159205411
-9.895190086242069
-2.396175940515795
-2.644495565075269
-6.415862015436897
-14.35167986646352
21.67251660162802
-0.9049747197239385
9.381254672236688
9.169418172686504
-5.745704257724089
28.96174192146199
5.999344285357864
-29.21538194946892
-24.53179451231595
0.1356812971319666
24.39520383875215
20.10427106293043
0.7544472454256078
-1.536047696417528
-19.32267061192719
25.51730565870157
-16.99528866927828
7.122575754937182
-15.64459274426597
-4.081834421873785
13.50799909884588
-4.427851741516204
-4.99831293547288
16.71151432222334
5.94739699225536
-10.34570312626638
-12.31320818828613
-4.11708993642366
6.513178626488397
15.12175753905941
-17.51784622911582
12.44292861522822
-10.80037345766009
22.36355317428284
-24.00610833184638
0.0009562423776309137
-0.03430100840743425
15.54871832400569
-15.51537355795112
3.176377232735394
5.914629104797853
1.675074478173899
0.00854534600331253
-20.12609659441632
20.09110787332374
0.02644337509439737
21.65048802180467
12.92667572869241
-22.76191804780006
-11.81524570261149
-8.41362220689445
-7.63036651180619
-2.015471914334598
18.05946063304041
-6.43239571027441
25.16875712169409
-15.68061179444986
-3.055749616873071
-11.32155969487598
30.63725117254523
-11.39807689921449
-7.91761457835675
16.19292548151643
-15.22224589637626
0.7398696904787214
-1.710549275532621
-1.922104884116584
-1.304075502247588
19.41910586793787
15.92967229513381
-22.12373896287384
-13.09063938907183
19.28470605680776
19.12268507546485
7.102177312767353
-23.69646856270679
-2.528393825474856
2.97718207100097
-20.02448346860914
17.04620428363328
14.30329863249436
-16.60146432828069
10.65002072277389
-8.351855026883056
22.35843891949735
-0.637438075331618
-22.31213150252137
0.5911306583628463
-19.05419795957276
19.93035778610879
-2.798264710581973
1.579513514335755
-17.93295441866227
15.87395992756558
0.4794809767218056
16.72080511332163
9.200821852962655
-8.928082609555064
-13.10460572464856
13.15712653956193
-0.05428573429329605
-18.66386592243516
5.598631403908707
15.03800583513372
-1.972771316600587
18.5472632182426
-8.393375636453277
-10.19346834663351
-9.660666402945534
12.83952386093358
10.36190985987035
-27.5908149982243
-3.27100933661571
2.761959589306655
28.09986474577126
0.01498540823840738
-18.50581998016365
18.48822504134121
14.99962709090334
-26.43724840085092
16.82353081307799
-5.38590950311318
5.672974890800754
-5.463345232716569
-15.13622343734947
14.92659377933547
20.08737504898609
15.09614314984865
-14.91053752036469
5.774287615840504
1.724364249404752
8.699495312667992
-24.84651194716566
35.70409101539659
-2.829200837933433
-8.028378230190464
-14.64983259192732
35.71046587451519
-32.5466712471022
11.48603796452372
1.189296439964256
-21.70913076443398
3.003557560321017
17.51627676416601
-13.56844738413397
-9.101385001720207
30.79179924787288
-8.121966862069918
8.7323536896556
8.052191240821237
9.233809984588499
8.230265196154665
-17.46809635909595
-1.442981230525813
-27.37771419347716
29.42895323766588
-0.6082578136514555
21.77539769984332
-0.1406489967058344
-21.6353687567891
-20.02258094856618
14.20372866421656
6.503895587893582
-0.6850433038745266
21.06223100256905
-20.35505642841902
-11.6822554878243
10.97508091367507
-17.91816593082195
-15.29828225856643
20.11505406504602
13.10139412434605
-13.92391984404622
8.625393088130588
-14.83886164142754
20.13738839734129
9.970312815224981
-21.71238372347053
7.767561039614184
10.31160273333393
-12.23444768037914
-5.84471609255073
2.398305945036034
7.846027364217042
-25.61262375749307
4.93426167439937
1.197598192275111
19.4807638907312
3.836235234266313
-19.30655681559675
-5.640637165943686
21.11095874723777
-12.61720840230004
13.23479993619993
-15.15181598816696
14.53422445433355
12.27509541245819
-12.13698379457547
8.663514695032813
-8.801626312828693
-14.82548202851068
-5.600616225422405
6.24811785491214
14.17798039908261
-11.69829054482483
7.380807908049973
27.45084658323212
-1.661276501133016
-24.7591906987926
2.472213416710507
23.94825378327236
-15.47431907028886
-0.02456847996623201
15.49596623755606
-1.425621483558813
13.42829394067209
-12.00381001191147
-26.44135594779455
22.41971827537726
-1.093221694774319
5.114859367207075
-17.16456112657973
0.5118413466956806
17.42335299675735
-0.7706332168171528
-20.98176638418438
0.06720017649076945
10.77535490428118
29.24624237134023
12.4508472519565
-25.61742077901868
-16.0796688441894
10.19718796761422
9.026869986243939
-15.72576435813999
-18.37295619732393
10.78865474763688
23.31006580784979
13.43916020598496
-15.94789350199315
10.27629433564359
28.08709752473174
-22.28385672329246
-20.23233854929456
14.42909774786836
-17.59383222580766
-10.15743251913901
14.36203504012732
13.38922970468623
9.510361664973194
-22.24032749480572
-2.995798528250107
-10.32102779413229
-6.414665374172319
16.73330627427858
-12.74433332429154
14.95762371222778
15.60897946456833
-17.82226985260811
0.3786546695249988
-0.2287631420865118
18.68881886645448
-18.8387103938797
-18.75874476840705
0.1046190494890178
18.64726274128344
-1.307617963868676
-14.92778227619781
25.74576190510312
18.74163166806172
-7.349622474386954
-12.69962715744588
-14.93583011863787
11.47612520360798
30.28044521929671
-23.01493875468318
-18.35359558532719
-8.583565059338573
12.00937836849979
-8.745910450067367
1.839270192301992
-7.06843922362315
13.9750794813924
-21.38361249498998
10.78426050745482
10.5972723134017
18.55143748463685
-5.84697701000111
8.055557616657246
-20.76001809128506
7.522379056111748
34.54002569154748
-3.039765714178257
-39.02263903372881
-0.994620636932831
-3.42453689661766
16.89757443896898
0.8469454802508981
-14.31998302256525
6.12725137153894
-2.435314563892756
15.88804957694049
-19.57998638467296
-15.73895336689254
31.9263092884125
-2.143233580848356
-14.04412234066727
0.6354403778616246
-0.8478779295961658
31.21319783886377
-31.00076028692734
9.628888759166346
-0.5617424651412124
11.36578898281013
1.713499980300749
1.750896321726956
-14.8301852847923
-3.967729839031424
3.27749810924947
6.569679400002239
-15.61231173999559
18.68280979166938
-1.353816459696521
-1.71668159174831
-20.64919516483835
22.47221738215171
-5.733415183991831
18.53966967307492
-19.53780528328341
6.731550794246521
-1.454433368657049
7.115592288456873
0.616977275255394
31.23878726288284
-3.263927135033612
-28.59183740272071
-12.2998805854473
1.009106854937067
13.61662590950483
-1.117757023944634
15.2382731099372
-27.73714199528913
-25.1897247864509
10.81211783155078
1.961445470432307
12.41616148472264
-6.884446749237217
-0.2864395491162365
-8.693809630292
-9.750237705815135
3.859190262479921
19.82327854194125
-4.283088761025532
-29.53586647351785
-10.95847692643284
10.85190739101572
-0.2387378106883844
-17.17482236620409
38.87482498902846
-21.46126481207178
-33.26829655357003
17.80760208935813
-1.96878287259139
17.42947733679181
-0.05815363493110783
-20.27079780625512
0.09107178249620308
20.23787965870063
12.85993578889166
-34.88432421691623
12.75448212505903
9.269906303061584
-17.62575013746068
6.052651260647543
-15.31815100642294
15.313208199523
11.4614711469447
21.97104136831729
-25.95730270517688
-7.475209810045761
0.1035664518084345
-22.62923679819866
-0.08109955919045377
22.60676990561484
-9.747926420514641
25.24672985164246
-26.13970681526514
10.64090338414573
2.867801014429938
-15.37744312457018
4.677548889085825
7.832093221110451
1.475516725382674
31.15906607338793
-21.17311165180174
11.98941088870543
-11.28315289127803
-6.573973015526877
5.867715018112397
-5.682224913785925
-4.075539747217888
24.56046029977823
-14.80269563877888
-35.54035669181729
5.728873588591009
2.52301115658382
27.28847194666108
9.36893718189045
19.34882603144504
-9.312815984476176
21.97848874602526
17.98776941076917
-25.68039883697072
-14.28585931989448
15.16803041306712
-15.49618805888076
-5.240732202109694
5.568889847925809
-11.47212105317931
21.38264430340509
-9.911844857308356
28.09127621624729
-23.01044994601844
-21.66959371895097
16.58876744932535
4.906806699663462
-18.99079448877263
12.44429862825439
1.639689160862998
-1.033081019372156
24.00819506163308
4.12469977293723
-27.0998138151895
2.137379942729983
39.71669095827651
-14.95792844627011
-26.89614245512325
-0.2740267840749911
3.025815493590211
29.0604284740415
-31.81221718325095
6.603041381356834
2.747926177839251
-14.70457900057187
5.353611441381747
-4.887012976902205
15.2499255177921
-2.188213256736676
-8.174699283630884
-15.99167346019937
-9.669962823066072
3.391735700988924
22.26990058225688
4.7340847586732
-19.71498878305628
-5.453843495679153
20.43474752006026
6.918057694341845
14.1035486859289
1.073816573668716
5.344725731839524
-8.510526854606882
8.679470392605214
10.87497886640877
-0.677152693268664
-18.87729656568683
-0.5393165725815176
5.448007510893099
-6.635377032551426
10.5051655942358
2.93267802456955
24.48275356217064
-16.04841655861407
-12.48833659586391
4.053999592290642
0.6660511822370739
-0.7331309962844568
-23.45397399717523
23.52105381135303
-2.667496276219523
11.11984057632442
-13.12721225425372
4.674867954308541
-10.25056657051841
34.52755645160992
-2.626501859228259
3.974639860490526
7.672892322807296
0.07592063484758214
-0.07917969872042022
0.5799310911054538
-0.5766720275935029
11.65192295929046
3.66057719380265
2.845884468365461
11.19002000767805
-0.1593110511491733
-1.422847225525942
19.38967418933726
4.876584978660061
0.2905137808119075
-24.55677294921863
2.833338986280292
-7.435260185956167
33.15242069045509
-28.55049949106387
-4.93931472953005
-17.15191558375571
1.079742852637336
2.722122687398568
13.35005004376498
17.0359230088546
-0.8880929502318138
-16.14969279581353
3.54445134090615
-17.6815641604948
20.90313343423608
-6.76602061448842
-14.8810662996247
17.21470364022771
16.56248176769557
-18.89611910823869
-41.73991740292903
-10.33908609819552
24.44782435720376
27.63117914400803
16.49705453443685
4.600169751122578
-20.72753119724753
-0.3696930879821644
-37.28259127278156
27.87228076435616
9.64254874576298
-0.2322382380082984
20.15583524053087
-4.183781559753323
-25.05185613195131
9.079802451191718
16.995531680679
18.87572885968656
-19.37420600526583
-12.05609552264124
4.932577330178585
-11.36708006544661
18.49059825792557
4.295363825056068
-3.659487506056633
-1.725110038364787
1.089233718665224
-34.26290433058228
37.4909917784703
1.37514357081654
-4.603231018715442
28.96397578322628
-21.6159529106774
17.28583930798136
-24.63386218049197
-15.23806733230211
7.569583423520346
24.66401558976831
9.9538574362392
-16.28086335546238
13.53325711778221
-7.206251198546444
3.422904522633549
-27.07692756177477
16.80617813308675
6.847844905985279
4.775462239145433
-3.701351064643829
-14.03448385994444
12.9603726854062
-12.25442637997322
1.61652879883815
18.93060919113686
-2.656964201035457
-24.07298324890542
7.799338258796791
-6.938393040409595
-20.2309019307039
0.07577969266066127
27.09351527847134
7.370927492909052
20.66601798590471
-9.106336287618404
-14.32533140811899
1.91467418765571
12.40822941811201
17.59304514178399
-18.5173460282353
7.40671184445597
-6.482410957967474
-24.02695524126605
15.74049317146165
13.30026248369107
-5.013800413918716
-3.668888781800882
3.058860520750899
-19.24536923705222
19.85539749815091
0.6878933757422796
-12.16042972959913
6.601468223298976
4.871068130576488
-15.67093308773934
6.516909725233195
10.52769542424744
-1.373672061742026
-14.47004599403182
23.86144118522518
9.998278998081629
-10.08423695288985
28.03063762115466
-9.516264166861745
-8.430136501393568
-5.268666363253861
4.021039917271007
24.46411822898317
-23.2164917829319
-32.09965761529573
8.294659769685422
20.65705556703388
3.147942278580339
-24.35307251252702
0.1569167438546961
-10.16995336733992
34.36610913614751
27.55776656959415
14.9358120994601
-14.45487809729654
-28.03870057169258
-1.570773361910205
-7.679568376216697
21.56787101456899
-12.31752927650052
-9.504379533998367
31.50717188285975
-21.38679572518154
-0.6159966236686748
11.74664273914129
15.51037354455827
0.04561362193936552
-27.3026299055396
1.672516013890094
-23.42964824202734
-1.570361131243324
23.32749335939056
16.15401082397749
-13.27992523044994
-18.77786869849603
-0.4411833414181903
14.24039714617426
-13.80232760238432
-22.1409102174925
10.99111415532914
11.14816323726688
12.12252104164273
-22.62319460190592
-7.732295632033569
18.23296919240436
-16.69699576357353
13.84966913728776
2.845495496341689
-9.070386774549796
12.43097073106639
18.07258685973309
-21.43317081612383
-15.99732799874058
-2.811838611269094
17.50509110785676
0.8060195706185683
11.91895290796431
-24.3072410426781
11.58226856412185
-17.64271597031181
12.73731797053725
-11.09192999887826
-2.989171655257209
1.242963878663008
-18.42842671614144
20.17463449282166
5.793540932993924
11.85032373491659
12.99622087040842
-30.64008553825425
18.75025686689451
-2.136528458433209
-8.171219354613713
-8.442509053934772
7.498161380823687
-2.468736565783197
-21.38973635614646
16.36031154110865
8.913049347114573
-28.67480693077701
10.69137080920046
-4.789800375389837
-13.03926322436219
-2.727470547387134
20.55653414728568
-7.999206376714546
19.09468509275986
1.885261462874444
-12.98074017888872
3.022600172195155
13.84465591755845
2.051434753099164
3.926824584197823
-23.35134728650306
15.16280578884207
4.261716913491575
18.80260126447035
-15.04113568378611
1.540865749175217
-5.302331329851279
-14.46300954307567
1.139055332466897
-2.05182530229837
15.37577951238804
17.39411695820821
5.843419830686942
-19.06771731027828
-4.169819478581502
2.632107904667533
5.12456482130089
14.4762037337145
-22.23287645974676
20.67181452300897
0.1972885756934063
-25.46749629792456
4.598393198292477
29.36781519629296
-18.70179110686046
17.95003554945361
-28.61605963901114
4.623136595590526
11.37585335639055
1.78311556885734
-30.01170361145949
-3.224689778303495
20.45561198702239
12.78078140287445
-4.13704462695767
0.3542394585999365
19.23465528111389
-15.45185011274746
6.923381587818059
9.380081878935268
4.807575747419423
-21.11103921414078
12.15921068574898
-7.079110029175883
-18.0797463622702
12.99964570577254
-18.49762515489259
10.04877321770677
16.12617059971761
-7.677318662516027
-18.57735548991045
19.89297407039088
9.111143185269968
-10.42676176576004
-7.942508671671721
25.56123198875881
-0.4168358712771708
-17.20188744582753
-21.05095465369172
-3.351329470939952
22.78341295626565
1.618871168406821
-2.326695103518486
19.29466530153867
2.830098413577529
-22.37184629546259
-6.846123296300628
3.605345834147279
-26.92249920662931
26.24324314447186
-13.79078993200701
0.9037736648965067
-41.85297545023305
6.877614687999515
-18.6742019347618
34.56986708851014
-22.77327984173166
17.70374018423027
-41.64840676879277
-13.69622868563915
37.64089527022947
26.43655344745836
-3.630894066467082
-22.39351373583086
-0.4121456451366176
4.308726617413137
-1.438055818641055
27.70844444966508
-30.57911524840713
24.21988120713504
-26.40177545427566
-1.141692385216083
3.323586632364033
15.52425558518235
-12.54978405275053
-24.33158194892484
21.35711041688108
-5.594838425982055
-12.91462612962208
14.29494180374539
4.214522751858768
33.37484261087878
-16.9890812706142
-19.75808563622393
3.372324295652525
-11.46722854858722
1.615489480919732
12.46656445283673
-2.614825385271021
8.01380177932708
9.714484899838576
0.07039411852495626
-6.282516375136335
-9.832443712147278
30.86219838973974
-14.74723830243919
9.918320157938986
-20.3088020119756
9.020371606504607
1.370110247525355
-19.44894622787229
25.25086022734874
3.451261354531279
-9.253175354063332
14.29144702580507
20.46402607469186
0.8175738182427947
-35.57304691875456
-27.19780283644339
-8.579495548800724
-11.61252996474472
47.38982835023563
37.7528342438081
-11.30588220469704
2.568031390774296
-29.01498342978947
15.63490726804863
-36.02941930803898
-8.402608663898119
28.7971207039344
21.44980705407207
-12.43561846347053
6.159256044824203
-15.17344463538066
-20.27990178448469
0.08428064411512548
-3.021699767262878
23.21732090767742
-21.2602496087667
0.09414845561991002
7.464810813196816
13.70129033998084
-10.940945567462
-20.11441416431433
18.79642512520609
12.25893460671885
14.02161791460291
0.2384416405663794
-14.2616589278343
-14.45363104408576
18.78360101487216
33.42286427298828
-18.07894768536351
26.03618927523344
19.3832499334933
-27.34049152196
18.92420261829846
-0.223051173460161
0.2869410254302421
-10.610633235785
-9.673916051046671
2.45388076021253
-23.02205725877685
-6.629626337799561
-21.15384446096972
10.5227870128227
-0.3098881192558508
3.485330722910571
14.95281041119249
-17.24884469410476
37.01511312731718
-17.00571794998649
-15.10153773406746
-4.907857442854585
-4.206293995411461
10.88943581151354
-26.79755598032702
14.20970773743326
3.808852753372499
1.710081906025304
-19.72864239675039
1.272974196017808
8.80752975094433
10.58303818359249
-20.66354213080891
2.256803606829843
-3.675408490523231
0.541925896991057
0.8766789867931273
6.399265915844619
13.00785822779947
-1.270808303032611
8.745991315474704
7.951827475216399
-0.3205123943222532
-3.64991380465424
-6.720239280769337
20.1672371495463
-9.797084064196298
-42.68986627536619
9.517981028337141
15.0929375624514
1.648920001741252
-19.68539243440838
0.933703653107377
17.10276877978875
-10.83177067998878
20.94307647456274
2.360328284781257
-12.47163407944998
27.001087328812
11.53655100421926
11.16598810604006
-49.70362643892545
11.33956677298468
5.468348167458267
-15.81005084760909
-0.9978640928407859
-23.53301461820683
-5.926685944445788
1.3385602623402
28.12114030038585
1.208875901386652
0.5902709657970073
-25.33216148532763
-15.30292447507316
-5.587443063632318
-8.046358553505758
15.42921013994294
-15.9375678174933
2.157277679563741
16.25091011493488
2.764763578519982
0.8598240395023289
-19.87549773297854
38.53698770368014
-20.8078220040381
3.579769045659121
-21.30893474529207
20.42392285953366
-27.21702187017517
6.791947493667581
-9.095928027062788
29.67749098557686
-1.460617826467925
-19.12094513203598
-17.34463503637486
-5.429187621020045
14.93774082884121
7.836081828582762
6.840451451184714
-6.663521766648589
-2.543204247249284
18.28427447029925