/*--------------------------------*- C++ -*----------------------------------*\
| =========                 |                                                 |
| \\      /  F ield         | OpenFOAM: The Open Source CFD Toolbox           |
|  \\    /   O peration     | Version:  v1906                                 |
|   \\  /    A nd           | Web:      www.OpenFOAM.com                      |
|    \\/     M anipulation  |                                                 |
\*---------------------------------------------------------------------------*/
FoamFile
{
    version     2.0;
    format      ascii;
    class       volVectorField;
    location    "1.4";
    object      vorticity;
}
// * * * * * * * * * * * * * * * * * * * * * * * * * * * * * * * * * * * * * //

dimensions      [0 0 -1 0 0 0 0];


internalField   nonuniform List<vector> 
19632
(
(0.006552272094091501 0.00995985655695396 0.001940652560124438)
(-0.0005500858930882043 -0.0003211168855802728 -0.0001647967448159475)
(0.0002800136074036535 -2.317789144095789e-05 -0.0006059733787583131)
(0.0003087350301893336 -0.003496673790019043 -0.002964369603079717)
(0.001480478527032466 -0.0008339557303731579 -0.0002419162324506496)
(-0.003500491840046692 0.00256386667898515 -0.0002808172357149985)
(-0.003019097826260267 -0.0003000449634067747 4.294648365486906e-06)
(-0.002873831943441247 5.32396689532081e-05 0.0003777821881647748)
(-0.005873668495729813 0.002548366903232661 0.002232277833231513)
(0.003936217200130214 -0.002262405139543576 0.003141538682599654)
(0.001829453507922203 0.00100521671692231 -0.0008581475026025809)
(0.001129450189177373 7.872860162072429e-05 -0.0004844053135004121)
(0.002138587965787919 0.002443057683522737 -0.0005581391984974184)
(-0.001213343499097483 -0.000429467413225574 -0.0001646643813071727)
(0.0006102071015470891 0.0001822154279703885 0.000177497681080757)
(-0.0001911379766779724 -1.843784007337854e-06 1.82061769508347e-06)
(-0.0009060233665282805 -0.0002050551981319341 0.0001088636487798884)
(5.910627814887698e-05 0.0002525449116362602 -0.0001892467127229746)
(5.627526084841624e-05 8.732074907658564e-06 0.000120014272046768)
(-2.044658334867939e-05 2.759316805630034e-05 0.00207069528611188)
(-0.004936418408898532 6.991097429776677e-05 -0.0007497788053320085)
(-0.005326671885917652 0.002459725902036357 -0.002157906500890852)
(0.003776979994159403 -0.001511276695880445 0.002367900720673598)
(0.0003297073129763532 0.0001920233722253971 -3.671803581003697e-05)
(-0.0004184049258568649 0.0001653465063343986 -0.0002966204687442399)
(-0.001629940390646582 -0.003000508871910338 0.0006490474657131443)
(0.0007176936437142775 -0.0003909788808277777 0.0009130497271367419)
(-0.001320114647584942 0.0006279666421471577 0.001691901467093707)
(-0.003633587787818199 0.002287594473594343 0.0007583674565513695)
(-0.000300132396901767 -0.0003038106296778861 0.0001697976725543045)
(0.0006067924599135853 0.0005322770021920443 0.0006516125716893178)
(-0.001097086880706211 -0.00146355120115762 -0.0002283309726938593)
(0.0008893691910613366 -0.0005765105471131588 0.0002320656205350776)
(-0.0005160161014810215 -0.001431677173772472 -0.0002631019159630429)
(-2.757861372879719e-06 2.376046271581536e-05 4.449660935028648e-05)
(0.01565697357113663 0.004485464822060655 -0.001039733071037232)
(-0.0008279896620700805 0.0007740856259491873 0.000433650788193968)
(0.006049684419865232 5.435096351084971e-05 -0.0006050698725495662)
(-0.002293805976168033 -0.0006573249603599906 -0.001235870107325285)
(0.0004998221154908901 -0.000302414656327795 -0.0003378192050397977)
(0.0001719269125640332 -0.0009076805703123899 0.0004036934154702)
(0.01313713124055118 0.002764253606652139 0.001707547218349058)
(-0.0008569473607204707 0.001370090863821949 -0.001003120802869044)
(0.0003060481383946119 0.0002135219297202371 0.0007478288532968515)
(0.0001508363912087148 -0.0001797687065124539 -0.0002350502556088095)
(-0.0003729472670146422 -2.177645915579269e-05 -0.0002453538015306708)
(-0.006414729366929892 0.004705111340945981 -0.003406925811789573)
(0.004151837676044346 0.002182730734958397 -0.0006487440138834321)
(0.003620154340447451 -0.005776787135521287 -0.004977411665067929)
(-0.0006646914154775054 -0.0001569763383472046 -7.478032255954593e-06)
(0.002561760401764758 0.0003188678414292154 0.002592627515133045)
(-0.004765283543558498 -0.00415214015816984 0.001406745664599119)
(0.003439932365825335 -0.0001431611881024775 -0.00257003667791799)
(-0.001935749901186674 -4.640835530979564e-05 0.001428220877324267)
(-0.002547069979250053 -0.001295657628918791 6.588155906535483e-06)
(0.003116314139618695 0.006933363462045795 -0.007461064562136436)
(-0.001112549778113595 -0.001626290772499983 -0.001250649274254755)
(-0.003001591967664167 -0.001037544456510452 0.0007158117009095208)
(-0.0002777380193904008 -0.002505621072610139 0.004032017588058656)
(-0.001450684361950612 0.0001371576972938553 0.0008956200631005539)
(0.0005882835456697967 -9.581150601604758e-05 1.290648957081539e-05)
(0.0003015639708427929 -0.0003042587579617617 -0.001691005598170275)
(-5.062727234189315e-05 -2.388565604170758e-05 -1.535646662339514e-05)
(0.0002397819150279319 0.0006929864395287591 0.0001195253054541768)
(0.001376526007529269 0.0007664768190497436 0.00109217154340617)
(-0.0001870147867768773 1.779640360133137e-05 0.0002875882732820116)
(0.0001977639594351757 -4.768970177587721e-05 0.0002275191178119413)
(0.00183224141507561 0.001512965605146464 0.0001665076393836392)
(0.001099460905117968 -0.002903433169399362 -0.001753980282589345)
(-0.006219430053035958 -0.002131782671866883 -0.0008187999651227626)
(-0.0002268833639313016 0.0001588311892764761 -1.510114685585219e-05)
(-0.0003021986143357516 -0.00172589109313123 0.003459699800325935)
(-0.002320489867421639 0.002598806003317587 -0.0009694846523646639)
(0.000885804179666766 7.204597487212548e-05 -0.0004507250588822156)
(-6.098243046711136e-05 -2.062006189384036e-05 0.0001126816151647956)
(-0.0004838192283322927 0.0001496510770988857 -0.0003499645822266688)
(0.0005602561350150507 -0.008205818932023169 -8.516579301675171e-05)
(0.01448930735901702 -0.01972066627542029 -0.005744527802738761)
(-0.0004401270647102663 0.0004212654735731442 0.0002700548969721856)
(0.001486869640977991 0.001356164177498575 0.0001875296570553807)
(-0.000917944823136555 0.009989104760330885 -0.007420080411570925)
(-0.001483127011640725 -0.003061321339805649 0.004302072962546847)
(0.003672405696860212 -0.0006488397492610453 -0.002018802881142935)
(-0.002484486515125353 -0.002124755802433524 0.001370182362271199)
(-0.0009517645418721939 0.001055423748302947 0.0007387009364924455)
(0.003184637725473582 0.0007003243497953435 0.0005316947690168388)
(0.001568295337854293 0.001119900843261945 0.0001083483220043341)
(-0.003682844203852273 0.003439798964786213 -0.0006420126415903144)
(-0.0007685580103990793 -0.0007643694187468189 -0.0003748919908173591)
(-6.379021950557847e-05 0.0001805128050788016 -2.12522717789892e-06)
(0.004429086137892537 0.0005823906364469254 0.001757797964452748)
(0.01095931083947436 0.00154045015767154 0.001504992242912449)
(0.002113858260638027 0.003235031412854878 0.0002808227925223752)
(-0.006427025884612064 -0.001514810345426666 0.0003917399638652369)
(-0.000613425039075666 0.002842972735243718 -0.003944947212783973)
(-0.00101667565138332 0.003060263047964859 -0.007013381868224091)
(-0.0003246162309851162 -0.0006525592654426607 0.001326932093921336)
(-0.005754372435743819 0.0001369171692116519 0.004135539434755145)
(0.00239926316739141 -0.001178324274560598 -0.003691615614452053)
(-0.002217524266039146 0.001676512759557918 0.0006918714744357166)
(-0.0007803890045132934 -0.0003386745984004525 0.0004457402999877572)
(-0.001390688585000244 0.002944019721699829 -0.001935633283324946)
(0.0001003619070890999 -0.0007006504545339928 -0.0003427595620611369)
(0.0003213697478462013 -0.0001272021064011692 0.0001567525284742501)
(-0.001286485723330175 0.0003297941659739451 -0.001171619403823258)
(0.002084496495999882 0.0005915784330811189 -0.004080051566613376)
(-1.616529975349452e-05 7.911787280719565e-06 -7.592334536027809e-05)
(-0.001878055920047399 7.207306803312473e-05 0.003433172579514535)
(-0.0002792279719540121 -0.0005643573936496429 -0.0008870246043950576)
(0.002631621333522 0.0004152682198820081 -0.0008655824762499742)
(0.001905968354029202 0.00181289945166728 -0.002122500133512892)
(0.006021151701838373 0.001440664991486758 -0.003649509458081917)
(-0.003173475954335541 0.00017919062558572 -0.0006063007582143531)
(-0.001347039231750672 -0.0008878190953483272 -0.002163134732426446)
(0.001094926919846407 -0.001364699784223076 0.001120207250111607)
(-0.0122409942882183 -0.002308968901671339 0.008072693582939768)
(-0.002316892757947519 -0.0003320531433091417 0.004064746991511765)
(0.001430562352304096 8.143871064195899e-05 0.0008570364250445975)
(-0.004448532929191608 0.0006587988184647236 -0.002329435379434652)
(-0.005556021269160008 0.0009141807108335996 0.0003657851779699591)
(-0.002115485361593362 0.003248130064678084 0.001158889809000582)
(-0.003319208523103375 0.00296781380165292 -0.002183821148050042)
(-4.269900934974174e-05 -4.782923705824336e-07 4.110061342575484e-05)
(-0.001874294155562621 4.679552634470141e-05 0.000437641063029612)
(0.003641723158337315 0.004803508310382396 0.002385171552382341)
(-1.207433595256875e-05 -0.0002429377678535777 0.0006804984381133228)
(0.001275140535545516 -0.0009790119583882114 0.002508119245593226)
(7.096430490592632e-05 -5.074691321197078e-06 -4.28750145165918e-05)
(0.001951535162715071 -0.0005459429472925066 -0.0001540486828533697)
(0.001475718835859781 0.003158051582371302 -0.006676733938558988)
(-0.003298309070345477 0.002377737388152404 0.00132114626003245)
(-0.0001637756866518179 -0.0003722252416108718 0.0004743545930745369)
(-2.037303138393675e-06 -3.389887821098198e-06 -0.0002603753602221638)
(-0.004097141076092772 -2.028979537076154e-05 0.004072938594148979)
(-2.361872741911103e-05 -0.0001103534058464749 -0.000223620667388902)
(0.0008632243940376542 -0.0005803968399307714 -0.001604557902206996)
(0.000823934783892203 0.002818665579327927 0.01038908216332975)
(0.000370652954483989 -0.0002282653894645627 1.033079749328321e-05)
(4.674557360956776e-05 -0.0001163276252008866 2.165520994110481e-05)
(-0.0002013979412577417 -1.705638762988912e-07 -1.267717653942587e-05)
(0.001902429983844868 -0.0002209237427809763 0.001349825312217068)
(0.01876251817502369 0.00116971007079852 0.01891392621932029)
(-8.342712580934893e-05 -5.728089757839313e-05 -6.805265942289493e-05)
(0.02088219569982034 0.03677140836817021 -0.02870009624555541)
(-0.001264242156862678 0.001749073870608461 -0.000174839916926022)
(0.009169478265787715 -0.003266989619208104 -0.006914787618374676)
(0.0007312969515001102 -0.001274306799794071 -0.0002553611766304819)
(-0.0002757539076496038 0.0006332157054787873 -3.486244592346531e-05)
(0.0004083133056956523 0.0001620770868170466 0.0005321143111862286)
(0.0001966910632770198 -0.0001436655130674316 -1.502467062157307e-05)
(-0.003877472689938551 0.000328880901371958 -0.001143913681051334)
(0.003075915822107447 0.00157885905898027 -0.002488354157157961)
(-0.0007852762665701127 -0.0004205195588068378 0.0004039023302866011)
(0.0001209555030974675 -7.374549234274696e-06 3.833497054596613e-05)
(-0.02778893244985498 0.007136282624610799 -0.007106757761420633)
(-0.001260302933102422 -0.001332906001623761 0.0004930916638838046)
(-0.008295604873755406 0.002578908264340267 -0.0008036067510618153)
(0.0008143965623270001 -0.001362974703384541 0.0004567028967986606)
(0.00975462771971335 0.0002663781790977968 -0.0124558677183535)
(-9.456693386201498e-05 4.838471256511363e-05 0.0002903417298895281)
(0.00384739168959441 0.002743323133044406 0.002104348632023623)
(0.002225966681749058 0.0002605286297425847 -0.0003516831153278349)
(0.001404615329222903 0.001001536015436672 -0.000798294518032836)
(-0.004234126074862996 0.0003122240874958963 0.0005604970008724854)
(-0.00572900965235764 -0.0001951020588123584 0.002108243295813779)
(-0.003706977458421508 -0.006037460714209037 -0.002691467908216931)
(0.001244406161093683 -0.0003336062366488484 0.0001029633133992273)
(0.002983573949691985 0.0003173557653962408 -0.001146597379832316)
(-0.0001393308677625239 -0.0002254928658888628 0.0001425699277434808)
(0.001667959778729372 0.0003144842472769003 2.290745766188378e-05)
(-0.0003137298651051546 -0.00313425299123069 -0.001927858895895828)
(0.0070648514378668 0.0001846225321877352 -0.001054152490724657)
(-0.0004673731455814835 2.467255862868087e-05 -0.0001050300749128915)
(-0.001030526309381119 0.0002698807051478015 0.004356545101458897)
(0.001888010861672346 0.0004108679635271976 0.002318190439130192)
(-0.006777802868852083 -0.001364202065239326 0.002222796846294885)
(-0.0006398202592978036 0.0005749733983080006 -0.0004937253042324952)
(0.0001686831709858382 0.001014781110093942 0.0008278419213069533)
(0.008773984923164804 0.0002413125090929037 0.003986609907028256)
(0.0003276595575426616 6.236212604001094e-07 -7.509128861539882e-05)
(0.0007607019912779585 3.224308012152268e-05 0.0004004735259441281)
(-0.001970218334340311 3.955435532370479e-05 -0.0001843838633930438)
(-0.0003259413066796908 0.0001520169350940697 -0.0001352774460401178)
(-0.003103907883481669 -0.0005402877589179933 -0.0003316828932202961)
(0.0002147868122058053 -6.716268816182335e-05 -1.962800518284522e-05)
(7.481048017220869e-05 -4.960600164171895e-05 3.673254603827177e-05)
(-9.04605499773206e-05 -2.982882553299563e-05 -4.043167052255995e-06)
(0.0001012981789211263 0.0002797876488771248 -0.0007560030186766135)
(-0.005173914964766628 -0.00165845336483313 -0.0002756547296379094)
(0.0001896967303257036 3.143888535887584e-05 -0.0002850418191336789)
(0.0004516249741739896 0.0002466101313084632 0.005475511266040097)
(0.0008961690706518961 -5.35152047202182e-05 -0.001082613335999614)
(-8.41023736465127e-05 -5.758076587942597e-05 -0.0001269807127277498)
(-0.0001044688338646753 6.337070559552348e-05 -1.643462142507807e-05)
(0.0007917873257633507 -0.0005701020502843154 1.845617642103863e-05)
(-0.0002023932196750568 -0.001288833535814177 0.0004967051762870992)
(0.0002645042095011544 -0.0001474024400830586 -0.0004526806785023758)
(-4.820846137978255e-05 -3.026636359167731e-05 -3.595067950263738e-05)
(-0.005855916824144936 0.0001036734996101064 0.004788735666666893)
(6.737728744575549e-05 -4.300400143957025e-05 0.0001331549728312466)
(-0.004137366598444958 -0.0001821525361367264 0.0002712617814014082)
(0.0001684143060489151 8.078708653989947e-06 -0.0002321938487351592)
(-0.002830435471300801 -0.0001628626364720411 -0.0001252340928238837)
(-0.001393728249729625 -0.001777286048434866 0.00306161483873342)
(0.0008490851182238369 -0.0001570926709599635 0.0007947370320655639)
(7.770336923087752e-05 2.687522669991363e-06 -9.947209208073136e-05)
(-0.02666113234057621 0.02224927566989961 -0.05176875058301304)
(0.0003701923976234717 -0.0005319190808941667 0.001378100602471993)
(0.01896947305243796 0.003103586888078366 -0.005832124379870671)
(0.005161541676341879 0.001178710200454962 0.0003537483208196949)
(0.0001263337453627319 0.000214050045921838 0.0001303237543578265)
(0.0001243336994116819 0.01746356092107636 -0.002907717097142218)
(0.0001431573104683767 -0.000627408609671924 -0.0007351213996878423)
(-0.0004341549800252615 6.251197662879304e-05 -0.001385200260545182)
(-0.0005258938774435267 7.425888176193583e-05 -0.0001957840772038796)
(-0.004583693679292365 0.003166164172142738 0.001066013373377428)
(-0.001773439894377868 -0.0006680706808986471 0.0004113577510492367)
(0.0004323110998977058 2.561781576740291e-05 -2.040642631885408e-06)
(-0.006765598943066598 0.002367989289347081 -0.0006866537427036024)
(0.006751018240415675 0.001235534884962867 0.0003802844202553376)
(0.000933111631891969 -0.0001930682182746928 -3.665132220239862e-05)
(0.007048237744832112 -0.003245409832738612 -0.0003202989903931345)
(0.0002255143716923841 1.45789825961644e-05 -6.682167982298254e-05)
(-0.001004270061064715 0.0002198693581693231 0.001129942791851175)
(0.001437247104338398 -0.0016273697629123 -3.242769223052141e-05)
(3.905059003556547e-05 -2.112787110124781e-05 -3.951798162972676e-09)
(-0.001119283602022913 0.0004441755833508964 -0.004853506460566615)
(0.002416180539640104 -0.0008513326775311433 2.245177426378876e-05)
(-0.006142230673129369 0.001776214733541495 -0.01242683583724965)
(-0.0006215577518712438 0.0001920298094721153 0.0002988043436128909)
(5.585170176637662e-05 0.0004266816534922355 -0.000393709893964837)
(-0.0001420458690100841 -3.473546013230667e-06 -0.0001221305162686626)
(3.914550585085073e-05 9.326439195355293e-05 2.681835431245353e-05)
(-0.0001075051097624204 -0.0001214293659423955 0.0001764719675684668)
(-0.002268215897774029 -0.0004898931201522774 0.000310008564721088)
(0.003487406788530885 0.001269385283309602 -8.53391843992781e-05)
(-0.008605583448354295 0.002494219785290383 0.0007696527481588734)
(-0.006336703429855443 -0.005295900892316699 -0.001228189903067081)
(0.0002578218922981533 7.32346553958242e-05 -0.0001257874891103994)
(-0.006672213154809821 0.0001640292269524227 -0.0002259771740418245)
(0.0002087701414688595 -8.482989282559983e-06 0.0001216593721736402)
(1.976662289693049e-05 -2.226480251951915e-05 -2.297683455238699e-05)
(0.06780236883520402 0.004171043608747219 -0.007205981533987932)
(-0.0001021386314358376 5.827527595779955e-06 -5.286304674068559e-05)
(-0.000170510371781337 0.001058955373211953 0.0004082083912248319)
(-0.0001065412205066488 1.467808076721978e-05 -0.0001747517259684043)
(1.922696898692743e-05 8.079820822956168e-05 0.0002268198021661701)
(-0.0002119349049080355 0.0001416200035872636 -2.975962727820212e-05)
(0.001506014147677068 -0.006067059741609685 0.0003850988064216797)
(0.0001276103636906812 -4.004392147669803e-06 0.0006014767323306938)
(0.0009183487874783848 -0.0003939773212644306 1.731468508042162e-05)
(0.02713515276580335 0.01279781831768501 0.001017868131401587)
(0.0002021573608783886 -8.394062013028513e-05 1.950867084689762e-05)
(-0.0002114823979230742 1.72079888307975e-05 -8.919164741866117e-05)
(0.002148491766004997 -0.0003563278147852364 0.00374516296877729)
(-1.68565668980498e-05 2.030733765884105e-05 0.0001434983809330689)
(0.0003074756012000219 0.0001261010629201645 -8.169689949514608e-05)
(0.0002853349823030376 6.711912397509774e-05 5.625557298833154e-05)
(-0.01283394010118755 -0.006871238052130709 -0.0003524592572550408)
(-0.0002028663015011397 -7.997938494135395e-05 -0.0002847653891411981)
(-2.638610612910213e-05 6.639784491139928e-05 9.713445278461248e-05)
(0.006467551532079734 -0.003209987782162377 -0.002447970890274228)
(-9.154804268945962e-05 -6.955096138099456e-05 0.000155797493795859)
(-0.009728141406944243 7.255007127207743e-06 0.008985594181773729)
(-4.448129240860166e-05 -0.0003220178843808952 0.0001633637349927933)
(0.002638181476585976 0.009048632028405586 -0.0004285154859149497)
(-0.003736870065511218 -0.0003066400365461034 -0.00131663350912112)
(-0.009752233647108935 -8.172866430161164e-05 -0.007213461909200549)
(4.563538243799618e-05 -0.0003534849596007195 -0.0002234597019326411)
(0.003337481169816218 0.003281559847291088 0.002835003565910608)
(-6.481212994725645e-05 -0.0001904433831150223 -0.0001167536786099675)
(0.005398193313677602 -0.0003413947965227393 0.0005048703035800987)
(-0.0005032785775000049 0.0004552718042283472 -0.001127691487913179)
(0.001056830943953148 0.003456141591409931 -0.004179797076154476)
(0.001478815919777835 -0.0002448850668487766 -0.0002398683034952717)
(0.006840935266122254 0.0007128768365528859 -0.00112972191170812)
(7.60469435447541e-06 1.053066508987028e-06 1.684540050146162e-05)
(0.0001672411279488345 -1.079074286792491e-05 2.365605408363626e-05)
(0.001489658021836588 -0.001466133033487723 0.0008156847756280593)
(-0.0007054561689126418 -0.001600184034394602 -0.00223980743535055)
(-0.0007295843210539405 0.0002254920122197172 -0.0004734957100934276)
(0.0001350522743145606 -0.000299520896841826 -0.0004845095836259351)
(-2.114335149146879e-05 -1.716797970263815e-06 2.209484932447493e-05)
(5.601408886579135e-05 -7.429627981061024e-05 4.819167939334834e-05)
(-4.607729948281204e-05 -1.300653131225043e-05 0.0001680054093532314)
(0.003705296849120873 -0.000139241362884477 -0.0005426036691337086)
(0.0004107406723138287 -7.074869727458469e-05 -0.0001421262622110243)
(-8.862033759894941e-05 3.530877352030068e-05 4.84671769784334e-05)
(-3.912124342461687e-05 -0.0225078621067972 0.01501337008980324)
(-0.0003902542236128381 0.0003102375211692144 -8.160114839240261e-05)
(-0.001208469229431062 -0.0002060471997835074 0.0008223429764051237)
(0.0008325348415347012 -0.000268669926258689 5.573537961403715e-05)
(0.002608674952973472 -0.000286607095540043 0.001425801648245764)
(0.002001243445835058 0.0002501003922918496 0.0003533090349266978)
(-0.003570388368916874 8.253367831668296e-05 -0.0009803145231054228)
(0.001953898769714876 0.001405665050631849 2.187076860453354e-05)
(0.0002213229985099691 0.0005657621306702112 2.943306326106269e-05)
(-0.002641494973464749 -0.004825534953841229 0.01372359842437204)
(-5.69963420557891e-05 3.535832260287621e-05 -6.600504579577286e-05)
(-0.0002076528714398548 4.603530283750414e-05 -6.800893594188608e-05)
(0.001444296946652489 0.005366203146282516 -0.0009163097266936456)
(-0.01502638902216246 -0.01070464123475715 0.02274123047466367)
(-0.001474597514998463 -0.0001931715966638395 -0.0007359251316275432)
(-4.946093640125076e-05 8.522603898743854e-05 -4.425180090713496e-05)
(3.567373163074441e-05 -2.492280697035258e-05 -0.0001424056431488689)
(-7.558418533399776e-05 1.014563245220102e-05 -2.364497741880062e-05)
(-0.001763386470721479 -0.000199993153677344 -0.0001713824184616115)
(0.001663813166585765 -0.0001846009034301322 -5.920194879051896e-05)
(0.0007624874377506466 0.004618912482758196 0.001595002671821359)
(-0.0004981584155524023 0.001647458381620163 9.921169487786422e-05)
(0.000973845283621224 0.0009230349107799991 0.0009792976530543676)
(0.004559259405954132 0.0007467715737691252 -0.003627921662222577)
(-9.627167356746495e-05 8.621395337129873e-05 1.474113550809012e-05)
(0.003188472598856216 0.002995975622580823 0.0009488632948374341)
(-0.00193164017718018 -0.0009389305680572242 0.001347700026383751)
(1.979283184820208e-05 -9.856396870111867e-05 1.01245634094174e-05)
(-0.008369761086325884 -0.001988708423700268 -0.008057347695978464)
(-0.001686817422477592 -0.0002581089232253507 0.001338531068470034)
(-0.00405328249205178 0.001695021864966126 4.692294472488732e-05)
(-0.003381577199532847 -0.0005226920066175274 -0.001667951329380366)
(-0.02351464375063859 -0.005998190230621051 0.03640825461337616)
(0.005889353881074398 -0.003107917431032548 0.0004390262877077374)
(-0.005458355116106337 -0.001654094391085349 0.001585106108585915)
(0.001537355666489012 -0.002192676157025142 0.0009609063797617549)
(-0.0005261192511680608 -0.000381082807787206 0.0001178712690252841)
(0.0003190642914943182 9.706866081908901e-05 3.593402392833205e-05)
(-0.002170473868679831 -0.0006628603369538665 0.0007662218829401316)
(0.004102115927496184 -0.0002884388734281876 -0.004230264359174525)
(-0.004464347316889337 0.0002396014510300155 2.797937810104437e-05)
(1.609450525314498e-05 4.646103606682093e-05 -0.000177680752710297)
(-0.001465585666506062 -0.0009195845710518416 -0.00240023425393867)
(-0.0001748224708375697 5.694404371038548e-05 -0.0001217660823066439)
(-0.0002442708272313448 -0.0001108414272633745 0.0001356256967269159)
(-0.0003702908559354125 5.632526974117853e-05 0.0002450902944612093)
(0.0007041297563096861 -0.0006503612753827131 0.0001271390632340716)
(0.0002808996344856349 -0.0003020099217569253 0.0001834237476848803)
(-0.000265211985032768 -0.0001807705813992889 4.180681572320911e-07)
(-0.00520831627969691 -0.004140089730258665 0.004963263295917249)
(8.705798619875225e-05 0.0001518809079124607 6.495434405300623e-05)
(-0.0004918857189420819 -0.0001815595755429894 0.001257818365938967)
(-0.0002330695539117432 0.0002706210849970636 -0.0001705111432048091)
(-0.006276498508247706 0.0003456816650118693 -0.001743637698613032)
(0.002808898935000022 -0.0005176037329780781 -0.0001694353952113904)
(-0.001557320183888057 -0.0005548435070787595 5.052528775942593e-05)
(0.0005940331297344008 -0.0003657810417482554 -4.520560557824037e-05)
(-0.004647754161012783 0.001461515742510506 -0.001279795315748638)
(0.0001026047286062144 -1.676690129357548e-05 5.264204990364888e-06)
(0.003614715488322909 0.002592182041071635 -0.002125815421874902)
(0.002103331923445844 0.0002178255625868641 0.002167068208674509)
(-0.000375355996068995 0.0001382020450524293 -0.0002766526291586696)
(9.891193988846361e-05 -1.540628660760547e-05 -2.429129767570851e-05)
(-0.00102854830406653 0.005560584185956605 0.003874035040846852)
(-0.0005027854734059728 0.0002864102285280947 3.292165234409063e-05)
(4.125313329263192e-05 -0.0004365449433539808 5.61317686333495e-05)
(0.0001031588497223776 6.686856602310077e-06 5.362602916693279e-05)
(3.63515554695606e-05 7.685186584825883e-06 1.155925730021105e-05)
(4.024079541344708e-05 5.598240007621234e-05 -5.800820233424646e-05)
(0.001333742853571188 0.0003502804361460863 0.001650055865539848)
(-0.0001157972459877114 0.0006885060959500902 -0.0004953586510511164)
(-0.001718973996255503 -0.0007984072743576058 -0.0008432596238264281)
(9.822490270712944e-05 0.000137473302933879 -3.589476356688097e-05)
(-7.413913833279702e-05 6.27505139003175e-05 2.060110989908034e-06)
(0.0002776200186444217 0.001320923193184154 -0.001374267222637764)
(0.00110690142143608 -0.001371793639985639 0.0001091730575548522)
(-0.0008317813248109479 0.0004170913106275037 0.0009349660727206447)
(-0.0004279972885536976 -0.0008510088340090375 0.005725950825758287)
(0.0007264709535692457 -0.0003290714397042017 -0.001449102547677124)
(7.419901082189796e-05 -1.332393559977339e-05 -0.0004732394004266996)
(0.00355783855915613 -0.00457022643971437 -0.0002066785899831853)
(0.0001131978924719877 -3.503694859176985e-05 5.26022961707555e-05)
(-0.0003932606679702967 0.0004029503455395524 0.0001949739764493554)
(-0.0003093116344023238 -7.058446777059297e-05 -0.0001343193872271059)
(0.0006714704389731234 -0.0001956121710438823 -0.001157391927580179)
(-0.0008022349462586146 6.41214433551745e-05 -9.172124517665004e-05)
(-0.001360244917804395 1.374597875174199e-05 0.002098720803900485)
(0.0001733819701364718 0.0001600799697438577 0.0001117131837221302)
(0.0002967391197461155 0.0002181677726276446 -0.0003270689116904036)
(-4.049587274734814e-05 -0.0002650623075364074 -4.181887183094907e-05)
(0.0006733586210657873 -0.00167107375773798 -0.0001525884247309083)
(7.155968790601614e-05 -9.378764237703663e-06 5.089207570229412e-05)
(-0.0002816089838982869 -7.021162332673225e-05 -0.0001038912352324428)
(-3.991109106560053e-05 3.940458815691654e-05 -1.556561701714653e-05)
(0.004178893916223312 -0.003137635617410514 0.0002355212314784959)
(-0.0001094293841689875 5.9347548363136e-05 -4.667260677550503e-05)
(-0.0001942702090359468 -0.0007472102492922792 -5.832163385283541e-05)
(0.000202371135325878 4.300310815347906e-05 0.000308698168041923)
(-0.0002567746564565512 -6.731249426064758e-05 -0.0002086885714633725)
(-0.0004012076305170289 0.01142665089732864 -0.002433796815201725)
(-0.0001742300617858224 0.0003759731795535788 0.0003702009629561777)
(-1.475277067351143e-05 9.426061570548728e-05 6.975471001061547e-05)
(0.0002688118914210977 0.0009939662369186214 0.0001694945319690157)
(0.007772956128113913 0.004715813995842117 0.005221874328219394)
(1.892589669692461e-05 -0.0001175853911828387 -0.0001587801807580688)
(-0.001924503308903638 -0.000370650368762401 -0.00142196988457541)
(-0.001977006657676857 0.001825558287265178 -0.001027140352925966)
(-0.0002565149028546101 -0.0003720512225966045 -0.0003458227484526009)
(-0.002386266425703497 0.001986704744182551 -0.001760085360641396)
(-0.001475139281306553 -0.0004139525095134019 7.415413831010458e-06)
(-0.0002914229652586775 -0.0008525120496282754 0.0007410184179154095)
(0.0001131985504505826 9.76674612573596e-05 -0.0001058686292327488)
(0.0003645964078628981 -0.002273828855855145 7.525666401797559e-05)
(0.0001901752299858118 0.0001431463599161758 -0.0004038989813125312)
(3.633704866566557e-05 -4.36129207876662e-06 -2.185098329873386e-05)
(0.0006235294504054534 -0.0005669624151240819 -0.0001249074586976989)
(0.0004946470987645684 -0.002584584274458549 -0.001918800166149346)
(0.0006689281881292472 -2.507611812943211e-05 2.279535784452311e-05)
(-0.009305785734782461 0.005812179784866228 -0.001918976032964212)
(-4.663316389797962e-05 -0.0001055547953176637 -0.0002077519583037039)
(-2.776532767513708e-05 0.0004075034481958778 -0.0009573044408692909)
(0.0008559638945644206 -0.0001189942143868072 -0.0002449978486707387)
(5.290822135621236e-05 -0.00142376482050089 0.001428727864476073)
(0.0009147609164046929 -6.044987439966126e-05 -0.0005734577414647916)
(0.0001023967844813336 0.0001303844644042048 0.0001388594336304622)
(0.0002831641058851124 0.0001020267099571061 -0.0001329862456630741)
(-2.456651901814124e-06 -0.0008271074318295747 -0.0009114868064946101)
(7.242851367275454e-05 -5.367456994925615e-05 -0.0002328565998934494)
(-2.873571512930873e-05 0.0002757981787652206 -5.466980285686776e-05)
(5.509061180945731e-05 -5.337462363844913e-05 4.086847562409171e-05)
(-0.00806934434191117 0.004938731465289745 -0.001407203194604902)
(-0.0001442242530054995 -0.01832289250664322 -0.0006290664330709506)
(0.001113721053750181 -0.0006197869188383778 -9.303048630995066e-06)
(-3.55150559530955e-06 -4.334915721246469e-05 8.654353471699836e-05)
(0.005665182557972722 6.821419305849661e-05 0.0009571181359161931)
(0.000110328655449355 0.0005382881945253781 -0.000239167872412806)
(0.001066095355177114 -0.0003327377697049678 -0.0002364206272316036)
(0.0004813787115856048 0.0006853273290610331 6.705266837495391e-05)
(-0.01933643997420487 -0.00133916893614171 -0.003309964079359295)
(-0.0001226893867197027 -2.569746529901766e-05 4.001527865124486e-06)