/*--------------------------------*- C++ -*----------------------------------*\
| =========                 |                                                 |
| \\      /  F ield         | OpenFOAM: The Open Source CFD Toolbox           |
|  \\    /   O peration     | Version:  v1906                                 |
|   \\  /    A nd           | Web:      www.OpenFOAM.com                      |
|    \\/     M anipulation  |                                                 |
\*---------------------------------------------------------------------------*/
FoamFile
{
    version     2.0;
    format      ascii;
    class       surfaceScalarField;
    location    "2.1";
    object      phi;
}
// * * * * * * * * * * * * * * * * * * * * * * * * * * * * * * * * * * * * * //

dimensions      [0 3 -1 0 0 0 0];
oriented        oriented;


internalField   nonuniform List<scalar> 
37503
(
-7.332642423827138
-10.82550167675254
25.75347960620768
-7.595335503557409
-41.9360136718595
24.28764726973845
25.73508112839678
0.03509642549054278
-0.5496638964972134
0.877140031237166
-0.3625725603233878
-0.0901638164816104
0.1119168607692211
0.001956517501580516
-0.02370956194338607
12.38387313075913
7.127770284669658
0.6033345927622159
-0.02217462425615998
-0.08676153567624793
-0.4943984331088802
0.090932929341138
-1.625660242328922
1.568359787058486
-0.03363247469819823
0.4851066627060959
12.44653027094091
-12.93163693319002
-7.954552172573901
-5.227333736864979
-7.734897225366263
20.91678313641062
1.777384302002513
-3.145835572508648
1.480962253659865
-0.1125109836810915
1.467061613985402
0.171902663395304
0.4155632754174241
-2.054527552501055
1.6818098632777
2.152387647746767
-2.715558924522191
-1.118638585383878
-0.01931199250229569
0.001809451447978091
-0.02095672190468024
0.03845926276800051
1.134357130024381
-3.582705924047139
-0.9951622953190313
3.443511091307875
-0.913416947296479
1.973259804703895
-2.758031427954126
1.698188571774071
4.44857067547816
10.46637842125801
4.453071839757538
-0.0135045270723552
-0.1517389543069574
0.1314511760745942
0.03379230496242582
2.085852760724986
-4.645499107566873
-1.991297197747144
4.550943546342342
-0.2084892005816737
-1.475973940260963
-26.90538674558507
12.88449482644562
28.60411515088861
-6.219507937358092
12.77848249592039
-8.130972264061718
3.746568753211505
-6.827765479013303
11.21216899057364
19.3455585007506
-24.99416496328923
11.53414377450197
-0.04253669397932595
0.4314568062145567
0.0217156504852953
-0.410635762879651
-0.4484747151189493
-2.163107550676401
3.745939396974193
1.378613514027048
-2.67412756262474
0.3820971021825514
-1.455391777793092
1.937458540351439
2.218075359532649
-2.700142120562359
-10.0790428835639
-9.330830885002674
0.2367405166098454
-0.2754900772976545
-0.05107031116783851
0.08981987137318598
-2.269866079812903
0.3689700196218461
13.41178850772811
-16.2174781603047
-23.98610546340609
26.79179511426104
-0.1475508765642007
0.1261320022023025
0.07195685380701175
-0.05053797969571087
30.0922462388398
17.45120959204218
-8.998639704055027
-1.540415203932498
-1.008585249742602
2.100525740050379
0.2195789650038686
-0.02026954644877308
0.2122556155131541
-0.411565034478151
1.367893611417703
-1.12997329447026
0.4892507082442685
-2.075918071894547
2.716640659432985
21.32950214006491
3.896542207319236
-3.735141337339895
-21.49090300818453
0.05053640588836289
-0.310965935288393
0.1193594631257255
0.1410700659009457
0.3270832465246968
-0.6132320571104201
-2.142583445729386
2.428732255494304
-0.0278861043084405
-0.2257800171661702
0.3624144451151919
-0.1087483239622466
-0.04515713110075831
-0.03779934776473964
-0.007646735840048536
0.09060321452605975
-0.5008241061605826
0.4501670810803927
0.3002236098028866
-0.2495665851305476
-0.03591452916477059
-0.3054970601978731
0.4727092353501851
-0.1312976466470855
3.610950431034378
-2.327737908003207
2.170113947977383
-3.453326470988623
-0.1025290963682103
0.0272184903278171
0.01313444475204631
0.06217616106763404
-0.02884536688844738
-0.08303780012048101
0.02455104666294767
0.08733212005472986
-0.02590505090637356
0.1198326042346806
-0.1428971056155533
0.04896955211928856
1.966944006284069
-0.9829585216283852
-0.2483113490803643
-0.7356741357775823
-0.6608607131089207
0.1797097240433518
0.3251766988219498
0.1559742892945025
8.422732594527027
20.73652637774522
-26.76807976242035
-2.391179209681315
-1.249786876898733
-0.07221759907659477
-1.393554448057663
0.3829816167819786
-0.1212319831492015
0.08797394922949771
-0.349723583036499
0.820375777607114
-2.189182304732146
-0.9010595518983981
-0.1926313161367015
1.510380481890908
-2.084111691462018
0.7663625249527407
-0.1484725771451673
0.2055536916805327
-7.174026864186417e-05
-0.05700937454379794
-0.2343471762942173
0.1215837871179644
0.165856937726074
-0.05309354883406994
-0.8803961987218024
-0.5398647789549398
3.162209099297983
-0.03429958881257869
0.3191950503237947
-0.324456389475359
0.03956092744417748
-0.001811109305557008
-0.08850628073464305
-0.0236593769662783
0.1139767666752064
-0.0110676743933041
0.04886005803318731
-0.07201976822127355
0.0342273843919609
0.008468187559260945
-0.1345725506054969
0.1165984835941501
0.009505879126372446
-0.06845853596380934
0.06917860125613889
-0.0338820728539743
0.03316200743602668
-0.2369244848944596
-0.2315229321165675
0.459138425237822
0.009308991259707874
-0.1423385528785359
0.07335568157162725
0.07377972814863533
-0.004796857057662665
-0.1080916134194333
-0.008206648080526943
0.09639400016759635
0.01990426112413427
-1.935153985239354
-1.156295053854454
0.05187359850911943
3.039575442400527
-19.46996177287829
18.3610645267565
1.108897246408018
-0.1266015109584134
0.05020256347959336
0.0685789808669645
0.007819966340116304
17.86159658275229
-14.78137162582919
-15.18414278732619
12.10391783226217
0.07476356538835227
0.02352980944197914
-0.07297359138872109
-0.02531978378222444
-0.1525413437303633
-0.4920717881938791
0.4384314173852762
0.2061817141280591
0.1252267360005114
-0.5890347452085922
0.4902703828532866
-0.02646237460033848
0.1139937979643445
-0.06419732732533479
-0.08961210063522351
0.03981562962854378
0.1949114887382841
-0.2175572398849311
-0.1583831242238196
0.1810288749105314
-0.0385613451052943
0.1353424744319591
0.1568114191990076
-0.253592548818337
0.8145643302751489
0.6224297805329361
-2.217341531966578
0.780347420694251
-0.008354573443854431
0.1136147895354154
-0.05335678153173161
-0.05190343484937597
0.04674836985636373
0.006851824323091684
-0.02961619422185981
-0.02398400021499335
0.840058240849374
0.8433438638309956
-0.04081226061080947
0.01690838467150044
0.02390387584345832
3.003273826860915
-1.579431233725506
0.5776408479635801
-2.001483441498631
0.216431770057877
-0.08793677273823407
-0.1090497057820662
-0.01944529195723467
0.07757846892996047
-0.02269535424553817
-0.03713192613200222
-0.01775118877051845
-0.08258673895325487
0.4575168538068802
0.3997621551151115
-0.7746922707918792
0.2548640999201264
-0.1880213420750377
0.16147147621012
-0.2283142342432737
0.1151023670073189
-0.1709669883434947
-0.244063065568512
0.2999276864831529
0.04829593387228687
-0.1026028397630637
-0.01307155352320245
0.06737845924162154
-0.08238625099212615
-0.007613765317884947
-0.0001638002736367293
-0.08101940710640583
-0.08868964002169999
0.07717351193110414
0.09253553494247795
0.1877609518820993
-0.1070053565808746
0.01709664813979217
-0.09785224353992378
0.8845046595912239
-0.5134954401595412
-0.3869050071026299
0.01589578666532645
0.06179545946441257
-0.2684297964481585
0.317043221923354
-0.1104088854522602
0.2517099180319306
-0.0357881863341236
0.02072818538808407
-0.236649917431049
-0.06674321210547657
-0.231304375992269
-0.1838378529778634
0.4818854409546479
-0.03452931457022295
-0.1936599276751878
0.4123113939736041
-0.1841221519614961
-0.09987005017706337
-0.2530567010362533
0.09849828869665991
0.2544284622578877
0.02746123004342557
0.1478660862804603
-0.1952615062598816
0.01993418963032586
-0.1050234984998709
-0.08260604489807377
-0.2541173551978799
0.4417468983591823
-0.1996538657018764
-0.2832358187984869
0.3441891316036881
0.138700552778566
4.812505358703946
-1.471351942087455
0.04731303132617325
-0.04719665110807419
-0.0001163803726749451
1.004730577346753
-2.227224698259193
-1.451633440948688
0.02629589117605355
-0.01953482704392713
-0.006761064231503699
-0.183094891825009
0.04588543591498466
0.01826216347454032
0.1189472922004801
0.003587803085376583
-0.06690634710382314
0.1542763413840171
-0.09095779768512234
-2.335633045098539
-0.8220397907471949
2.617632072518076
0.5400407646676131
-0.04183419933562344
-0.0864401423964801
0.1350153428072932
-0.006741001283527693
-0.4246043035297331
-1.169543855723701
-0.8874382826299219
2.481586442158777
20.95834350304206
-0.02773516355492678
-0.3230938172051431
2.897822384064622
-3.704701860964638
0.06247892094838453
-0.1001874453480456
-0.02989664941917098
0.06760517366878271
-3.071290245012434
4.852691370310992
-0.1033763814847161
-1.678024745426512
0.08812339465550939
-0.04471203059809643
-0.2208622066069578
-0.1774569668428277
0.2259995307740854
0.1723196423509437
0.1846464126616671
-0.08818726651506059
-0.03055201343710038
-0.0659071329100052
-0.06471032102345235
0.2438374729191144
-0.2296471706344267
0.05052001821163994
0.1750804194956261
-0.2814239692417237
0.3017102917648373
-0.1953667424220691
0.02615836894985591
-0.01357231707734127
-0.0357289419236019
0.02314288992800181
19.80333519860781
-18.46981162002451
0.3315039783484413
27.48557361067907
-27.33197092549359
-3.375821628091747
0.2505577132287334
3.835075177364935
-0.7098112612480414
-2.044184875692165
0.3410457019239141
0.9140683467518206
0.7890708270125391
-8.063648522857523
-4.371318420859295
6.566380612043705
5.868586328056401
-26.14682112854763
-19.56900547869026
45.81011805122299
0.7702573397738467
1.578541491210774
1.397140567001953
18.08143240958094
-10.89247915050442
-7.188953259234752
1.203022161215366
-2.361340262391312
-0.05406137133237666
-1.699239479231525
1.154368264449658
2.331994690459828
-30.50038337879937
-1.86368787229074
2.549683127221292
29.81438812572693
0.08673087906636411
0.002622874072080631
-0.1065279772584198
0.01717422381483149
-0.1416589758246473
0.002430383667951666
0.1392285919630676
-0.07604813255870453
0.03734506545159101
0.08973882144190046
-0.05103575458497195
0.5336756822420209
1.431960924102056
0.5375116639611903
-2.503148268548435
-0.6082078945531292
0.2100333897713194
-1.794889197545281
3.104515684442766
1.809283283486924
0.6815913262429683
-3.250808460999561
0.7599338505389449
-1.907853529039197
1.891767920330809
-3.104045895926563
3.120131506827514
-0.3988536287857027
0.1875977165230193
-1.902718534664029
1.618207691122079
-15.70206221803486
-2.976323649167266
-0.0549356241420716
-0.1502584144411989
0.1120828476224171
0.09311119075165315
0.1181294790279938
-0.3452132033415664
-0.3600577451565628
0.5871414687635099
-0.5181647713797353
0.362721748080583
0.1195319417291129
0.03591108077084314
0.4537998601246593
0.2141672045342243
-0.8204162323403388
0.1524491671992807
-0.3554414436417639
0.482583739957833
2.206941070523722
-0.1463259334384976
0.06125752937092063
0.009474298871105407
0.07559410510524364
0.008488717734054721
0.02042164376817706
-0.1113809554986826
0.08247059386371257
3.124395549718359
-1.098504786271495
-2.59562531850149
-1.1450740327705
0.5342525235114293
4.746025485703281
5.621131845900644
-10.90140985442575
0.2014998605044593
-0.8063127219254473
0.4649947504643232
0.3413179713388263
0.08247542792183485
-0.2803448382752703
-0.208182454020721
0.4060518639500845
-0.6411579868261338
0.2515375521798763
0.5500263145918939
-0.1604058804090354
1.810546683725759
-25.92095217432526
1.577752996471965
2.901625912184916
21.44157326629994
-13.81074286441004
7.657077808442375
6.687917581210679
0.178505627607755
-0.0463256389027086
-0.1078300312451793
-0.02434995765123673
4.548044877983533
3.843013708215962
-26.85998725061789
18.4689286668967
1.654278291421634
-0.7739170416831884
0.292502909637705
2.673721390874834
-1.763202138278769
4.076544242304561
-1.734535538364035
-2.965024940006034
29.16517540432555
-13.85173901874321
-15.31343638418723
-0.07746300857572744
-0.003146930142144996
0.09322863779977379
-0.01261869929846193
2.456260472450933
-3.680413841536063
2.081292189973557
-1.780041684000608
2.596571879159143
2.144075520064365
1.970077064248783
-1.657892110961197
-19.87907734807924
11.67345335222228
-11.32344273265496
4.44205715771403
-1.929011617260903
4.05136925474208
12.57596950522928
-7.603322066223833
-4.352414441252466
-0.6202329991329765
-0.01296089144851914
0.07862251021965148
0.007101997719384013
-0.07276361674023986
-1.28813091670111
-0.7329401394212902
-0.4680958741468577
2.489166929260222
0.3881453019618821
-0.1425564976940983
0.03132483966273568
-0.2769136443159851
0.04671239519653932
-0.0609384823101123
-0.2201210894209742
-8.060591837110582
9.07536256256471
5.197527863931575
-6.212298589005568
2.575970715400079
-1.946602180186346
0.7153458362474779
-1.344714372815421
-0.3503195611312162
-9.488272126731161
-1.41005633566833
11.24864801916367
0.2180795632338529
-0.1522250990358501
-0.06585446430426897
0.07975756972816292
-0.1486046641695328
0.06884709423283837
-0.05219220891895678
0.2709671901120995
-0.04733302803273173
-0.1714419534146825
3.723010995271661
-21.33940370217268
-4.200181707650618
21.81657441585326
-0.1449349464564052
0.1498789671557681
0.1569046329403281
-0.1618486541102641
2.631694958284102
-1.259844325959848
-1.796454935525194
0.1711503929062957
-0.09139282334464748
-0.1473786131622447
-0.05506020876435041
0.2314159794371684
-0.02897715791669742
2.846878112603457
-3.295105942476308
-0.11211834140105
0.560346169641696
0.3663605409923111
-0.02762095350223334
-0.0192053993197416
-0.3195341892338255
-0.008922065901598653
0.01099762467497591
0.08751390361823901
-0.08958946263409913
-0.4302962906787638
-0.1150616501849645
0.266943897261241
0.2784140429333469
-2.287759115760039
-2.115540245482555
-1.455008825254473
5.858308186954274
-0.08702494718804882
-0.1538491244275069
0.1031885890877797
0.137685482368251
0.07835357032033825
-0.1620064383099833
0.08365286777518569
0.0698936354845073
-0.02412690052563612
-0.08740742256611952
0.04164068735480551
-9.355299381743205
-0.1321476819326857
0.007797403629608023
-0.02182982152895215
0.1461800994693635
0.02191334419893809
0.04535852538294786
-0.06727186982818059
0.0290021458434334
0.05854590128900473
-0.1067173879220077
0.01916934054794547
5.847510478877772
-4.068491072548464
-5.280383044701852
3.501363636408624
1.963020265217947
6.081411541614044
-2.370417281305
-5.674014526274823
10.39443486152036
-6.57680817958057
-20.63097052815506
16.81334384769335
-0.07413950811751881
0.05278731814673975
-0.08426266484502301
0.1056148544835841
-29.88947791232797
11.98898473970934
-9.004893572736123
0.7180487668891578
-0.3615643726843272
0.7025287237172099
-1.059013117604948
0.7264342897516753
0.1496756298051283
-0.7214482962287442
-0.1546616237113768
7.205202150322212
-0.8858909702462118
2.213228355167113
-8.532539535907187
0.09959540029624216
-0.125232869432857
-0.331968523142399
0.3576059919599635
16.40336714965088
-13.3100423152188
14.98810757507789
-0.6395273532745132
0.1927769807694133
-0.06141688114876283
0.09759215893867998
-0.03617527792260163
0.06314243034933195
0.1221480132429934
-0.1651186794021842
-0.02017176437248814
0.1078273986321533
0.02953275597077839
0.0224015059736104
-0.159761660989231
-26.81450478520523
12.26552298861993
2.139152445844477
12.40982935331506
0.3142791400773394
0.4389546101356213
-0.3753293248427862
-0.3779044256901963
-12.82973470675763
16.40240631403512
0.09373327296465123
-0.3754008313504874
-0.1154075331814498
0.397075091016637
-32.58476613638437
10.27635285320378
7.065242843820015
15.24317044036704
-0.1624130528778495
0.03921628101089956
0.05620550866094435
0.06699126294960807
12.1572436485339
0.01781012050887141
-0.05936298301877148
-0.003425736545482036
0.04497859886775465
0.4455420487136769
0.06416808282375221
-0.5506978223174572
0.0409876907229892
1.434151475118824
0.1488107184652615
-1.016800492511107
-0.5661617020712316
0.009767618440011179
0.3797057527704434
-0.1156634063160218
0.05074468548348955
0.1955062491867371
-0.1305875287128837
-0.06938440747212382
-0.1303607536667263
0.01531068711086905
0.1844344738596727
-0.2085512980487317
0.01669384062863625
0.0009295987898098098
0.1909278582763454
0.1143062688193919
-0.02267714170073547
-0.0916291273801588
0.01720090843165761
0.03929262296577597
-0.05649353157184801
9.586207759338595
-13.97929529636434
4.393087536470307
-0.06284297413371004
0.08239152291113562
0.1819575300723207
0.2133952529818116
-0.1379566037036777
-0.003674051976948949
-0.07176459778182871
-0.1011013013422707
-0.3054291719671957
0.8343332023764524
-0.4278027293456856
-0.1364026342715076
-0.3193123106504254
0.1620951389898654
0.2936198053340039
0.2087781221919086
-0.3953765336694515
-0.3682184595843498
0.5548168708789405
14.09622006025682
-26.39171515419088
-14.51900968921384
0.9167402222887366
0.4206333022406994
1.724617796416954
-3.061991321349906
24.04932077884824
-23.03405564499747
6.291372326329592
-7.30663745933014
-13.16290227538058
-16.08933830675424
10.12403110572162
19.12820947827625
0.1091628861564734
-0.02610931202144576
-0.08305357443394704
-0.01928574768425306
0.0005381407951064153
-0.08188445491941242
0.1006320613802942
-1.259539128868387
-4.778186582702858
-1.042090181614322
7.079815893011461
0.4013510290772971
0.09577072616414033
-0.5761149380263278
0.0789931826966483
-0.04342943080844255
0.1447781341619422
-0.01991284308062471
-0.08143586053895598
0.0393622474036459
-0.01840628979411308
-0.07581257661933025
-0.03098432688646388
0.05413250609260604
0.08186452188636406
-0.1050127015341544
-0.0508386353177263
0.1049665062243134
-0.05412787106762526
-0.04175892064666854
0.04095198466510053
-0.1237788643374431
-0.05271872844319098
0.1909210991191928
-0.01442350669893438
-0.06446195485840796
-0.03265665093317827
0.09711860550574729
-0.4007072345215466
-0.06657874688978385
0.391782727514623
0.07550325353587198
0.1992013602125899
0.1784535795003963
-0.3271185341495024
-0.1367581537358966
0.09499446402744306
0.06420544378686591
-0.02244175439199935
-25.78521313543629
24.6957847333524
-2.794151181971655
3.883579586153192
-0.4458749371477466
0.1003274444315132
0.2792946105817614
0.06625288157532069
-0.3841325316845935
0.1603357540951746
0.4797328945971661
-0.2559361173749919
-0.1646539733488389
-0.02661875771401333
0.1068224105909408
0.08445032020255661
-0.06864928632300304
0.2800318316215359
-0.2449607992872457
0.03357825358563368
0.07107018728684819
-0.2174624858129031
0.02935761450377892
0.1170346836973674
12.87758292480227
2.210062856430547
-1.840537034527569
-13.2471087460004
0.1117616914945763
0.02137607876047166
-0.09328977790544718
-0.03984799267428647
-0.0863101547906973
0.2072615284116137
-0.03230132100520131
-0.08865005298231876
0.1107525338759372
-0.1176222777883651
-0.1417349204935862
-0.04570902959137525
0.04001446151910822
-0.04371143034875408
0.04940599821177635
-0.06272853005944171
0.4306805036297167
-0.3162607247178846
-0.05169124911192915
-0.02227958152720302
-0.1969826217899763
0.1929216590196666
0.0263405438893486
0.08950664010901871
-0.0213882219987743
-2.259289453909867
2.191171034434206
0.1164694252372673
-0.01506101153551963
0.02953844608768064
-0.1309468600624909
-1.331112685032248
1.970599617524543
-0.2568723153314598
-0.3826146172264322
-26.64854943724337
1.236156704246945
27.40207754327598
-1.98968480932713
0.07597779746559294
-0.3245136163923126
0.3345524932604974
-0.08601667506249354
0.09566447083164087
0.01975888353391944
0.06801426923917341
-0.1834376239053684
-0.06279851502652085
-0.01554123190657173
0.0602196489439401
0.01812009780136522
-0.5160041775684723
-0.6119478464041062
0.5892947615544762
0.5386572622617166
0.0548770668098273
-0.2603469765615151
0.2055090200240038
-3.91107126618234e-05
-0.1937387256453793
0.0402405749009352
0.1846159156228113
-0.03111776514086798
0.02167209321058812
-0.08816536032034261
-0.0111440052124611
0.07763727217388849
-0.3787934221804606
0.3708579421589263
-0.6638923606104294
0.6718278399956806
0.2553828255447844
-0.009263560956668594
-0.6411080471179518
0.3949887811607625
-0.07335671122541181
0.1397766473434019
-0.04505573991288054
-0.02136419641593475
0.1282478651065414
0.2804500344702911
0.0112243512872384
-0.4199222511014976
39.00678122016545
-25.06084151267595
-18.05317731678661
4.107237609917193
0.34357661422805
0.1063084201638907
-0.1630460419599212
-0.2868389928261998
0.01250796140988135
0.01943620801517186
0.2026258190134798
-0.2345699888053738
-0.6580343437981448
0.139178434046765
-0.1033762054144331
0.622232114707384
0.08872465919820696
0.03991706545018332
0.04796311548404573
-0.1766048404031183
-0.05174002618518754
-0.05637221369253997
0.0239675439398529
0.08414469577881704
0.04189898898278956
-0.4098224991308432
1.724822952834305
-0.8419864417447955
1.268820546038637
-2.151657058234943
15.52301328637435
-10.94689456247738
-0.03861875445323139
-0.1294865300984615
0.1307631817088561
0.03734210258871465
0.003383022859595635
-0.1243997716872998
0.02001609123419544
0.1010006574012215
-0.1272408860092586
0.1243810671901775
0.03064906885163652
-0.02778925028833944
-0.2404577348672863
0.1064447212248391
0.3126563140544713
-0.178643300782967
-0.06211924711404358
0.02280684299438317
0.01556385398200137
0.02374854993645337
0.07848293462001019
0.02546352769187234
-0.006296670218497164
-0.09764979242924998
-0.07380161182342226
0.05744788616383265
0.09832462536459165
-0.08197090000938126
0.5654550316396303
0.7396128717279865
-15.14116776565352
13.83609986522893
0.1558323369777354
-0.1650908566734929
0.01409624425259252
-0.004837724822501145
-0.1580807132597372
0.04616480594252654
0.0393699358539059
0.07254597108411562
-0.1913499176636546
0.3419222394489326
0.133338001895206
-0.2839103242332386
-0.04078801631632149
0.04122894937396217
-0.0004409332375146024
27.35178511536169
-28.09678716956521
-8.136936495208426
8.881938548613419
21.28429100539581
-2.19390331497346
-21.52558976036272
2.435202069857695
1.977375135108278
-2.192942096083289
0.3300820563633357
-0.1145150964811832
1.829910243506563
13.14267794375258
-8.38342291400944
-6.589165273464157
0.1390717168412525
-0.03398970079592602
-0.1050820163364244
-0.004842955493900713
0.01171389369384889
0.08000287547292184
-0.08687381376374316
0.2823172528694156
-0.1233286461435572
0.4388095070973072
-0.5977981142312531
1.828192688372146
-0.1339783400963246
0.2850266007948775
1.258426194713325
-0.4698963452037132
-2.056561036047146
1.268031186108548
-7.381512877610088
-0.278596594436315
-2.400581334956324
10.06069080990168
7.573487262013225
0.8954305953965365
-8.165012921698581
-0.3039049368087653
-0.2786420321408127
0.1257096407315769
0.1143710460726309
-28.49462867474838
21.91854578748801
4.723645149978908
-0.1052117319849531
-0.157117926464365
0.2278003437403836
-0.001730011078630169
-0.0192032025213832
0.02093321350971878
0.09542696995019839
-0.0492881819094109
-0.1435430279483156
0.09740423971276001
3.610622170729977
-1.657428950997407
-19.77736853386329
17.82417531607505
0.502338941141135
0.07562824170498135
-0.6932984537250301
0.1153312704279818
0.04681063845078273
-0.03718061265174236
0.1257124484638751
0.3501126738225734
-0.0192685298997147
-0.505248732371161
0.1744045882742429
0.1302373528219684
0.04073679890904198
-0.07564945890349299
-0.09532469301898887
-0.09819686173192525
-0.4150706168185128
0.2066672726316242
0.3066002057038428
0.2683859550403317
0.02045893509884281
-0.2616482460323835
-0.02719664452090855
0.03465131652965375
-0.1960637250199624
0.03017537450788017
0.1312370334245825
-0.03999429213088262
0.4667782601368429
0.2559515529364054
-0.6827355213632769
0.1993354629856328
-0.2538140177153292
-0.271009834414518
0.3254883885771644
-0.06333161144641712
-0.2877015792027081
0.3031265590048843
0.04790663082860665
-0.03757772804581243
-0.1469376478682504
0.1845153756758496
-17.02427482010533
15.38035476974136
-2.600349967835312
4.244270015850405
0.08176813000946119
-0.1193458581565144
0.1028273234969428
0.07128792823956087
-0.06041186569283784
-0.1137033862706495
-6.590461534884102
20.2062025798338
7.713761096591333
0.7186608818895622
0.01623402688121561
-0.4525776560793434
-0.7970027499141492
-0.3189210758464641
0.6608496509486744
0.4550741739762874
-0.03118742987900686
0.1094970608066637
-0.07480552956849933
-0.003504101627977652
-1.05916953890391
-0.4083759809539782
1.357270747955817
0.1102747704167749
0.003103145184590824
-0.01028083270367549
0.03333605636099879
0.1270153386932462
0.04642092340959737
-0.2108058820661463
0.0373696197548382
0.06440390990490787
0.1443795587002223
39.03525386231386
10.96789445359904
-37.12699252769654
-12.87615578656666
0.04521074867641565
-0.08667597882192214
-0.003945486598183687
0.288612847733818
-0.4843212270210064
-0.3410688632946017
0.02514538158753543
0.3681076992882331
-0.05218421808217994
-0.2748004254081823
-0.2723764774525484
-0.1682225139875613
0.715399416120149
-0.1056385776486065
0.1305102509279182
-0.07667284145847086
0.05180116793753619
-0.4503458947330097
0.374177515515305
-0.0235793612536303
0.09974774020103637
0.06455433641047899
-0.00421555797574338
-0.006682182589938198
-0.05365659617130574
-0.650389078448964
-0.1009350469323519
-0.1546677753915787
0.9059919008364801
0.1000768323758318
-0.01175165659588147
-0.0242234701195303
-0.0641017059104749
-0.3623007769252231
-0.106115099360137
-0.04974889558457539
0.2610569127208249
-0.1732000859346983
-0.08785682701433674
-0.04007622890270045
0.02553118217579273
-0.1206071308319946
0.1351521772638851
0.0323722366372247
-0.1103511472108546
0.09492017106629669
-0.01694126077401515
0.5386964574836755
-0.7375388552224069
-0.1241855222157469
0.3230279194765376
-0.0733777987771959
0.07185090673091514
-0.05254785655118281
0.05407474818185147
0.1422234631160563
0.06536553215014497
-0.001703712877720753
-0.205885282635262
0.5942592001029909
-0.4312268576151442
0.03238121041943024
-0.1510563436420057
0.1107636215174548
0.007911511415530792
0.04223656820897075
0.00221108789471356
0.3366053081589833
-0.3810529647768076
-0.07821884803355235
0.007152924068231382
0.008267408818340047
-13.14789875055839
-5.89688603283306
-2.837931290693073
21.8827160745929
0.461589356236882
0.08031682522112854
0.001327096602997119
-0.5432332781638435
-0.06937968090876812
-0.1799117398698846
0.1812399991700956
0.06805142114975911
-15.5100906642314
4.216102484558506
11.46966974339846
-0.2806042382595541
-26.69915616921281
-0.1310448938562622
-0.03834908095160774
0.02201536137997451
-0.05105361779021618
-0.09334184631285337
0.1851726671529884
-0.04077720339184312
-0.3110235346332455
2.194680473974708
-4.353671755458892
2.470014816827166
-5.651874260207985
15.78770975099747
-8.305925246931126
11.23401300328362
-12.54420265713386
5.235931209961771
-3.925741555653568
3.24646378017332
0.04090516277836129
-0.6700971806897095
0.7676843875488806
-0.1384923701147633
0.114443351466918
11.03283355524417
-4.674882123477115
-6.472394783088648
-0.09759598771847716
0.002247785338222969
-0.0816094276646231
0.176957629525955
-0.6420490176443026
4.064183723539709
-5.15667024492507
-7.748361482600139
3.258946251477441
-1.182046805993221
5.671462036966035
-6.590734261093908
3.853085508135862
-6.824888237590135
9.562536989045368
0.002574699478549844
-0.1472527357124448
0.02849264858216274
0.1161853873990608
-0.05621649430938404
-0.2914869588200847
0.3807921906512582
-0.0330887379220832
15.51114424490723
16.19077266681606
-12.06611784488581
-19.63579906599899
5.831728362871814
9.679415882637677
24.25701908955887
-5.29927354879163
-2.766972873240209
-0.03868788353482953
0.1560572985124533
-0.04843381723820176
-0.06893559803773337
0.1345169539570938
-0.08695080933517089
-0.08625402843557455
29.43621016379218
-40.37693215481681
3.180735839913685
7.759986151641344
-0.04478035142307368
0.04304605997014919
0.003310523766478409
-0.001576232697263076
-0.02347891943397569
0.05903850307579751
-0.03555958382682069
0.1340465709160871
-0.1730752417088286
0.3302288249673765
-0.2912001547178489
25.55958645237985
25.85038370322227
-0.09323412839276529
-0.01648232157465252
0.1265959835338827
-0.01687953384775499
-13.59366954590237
13.3769976624541
0.1283738344157017
0.02017271334200873
0.02232535697035167
-0.1708719050817002
-0.02519150785654585
0.01137662868365907
0.0138148789960183
0.1540306615195775
-0.01212785737271846
-0.1691013840068577
0.02719857969574649
-4.298350962365855
4.75611110373836
4.571926536004436
-5.029686676800583
-0.01340421739710218
-0.04274231412046196
0.01343066570646723
0.0427158655693024
-0.05037086615058364
-0.05288021443151533
-0.02978260255604765
0.01637838508432298
0.02526859147881513
0.05733217019390426
-0.000820457428606771
-0.0817803044400362
0.06135955768703267
0.1217003846381408
-0.01195923773680943
-0.01782336491129082
0.07195730883019411
-0.1156492084443323
-0.1005925846027014
0.1442844839885087
0.039619162477268
-0.0145331811143892
-0.02508598150541543
0.01710342001869274
-0.0752617890915198
-0.09462293744941741
0.1527813061532107
-0.3087283173201664
0.1257687262092568
0.3196347040927278
-0.1366751140106384
-0.7443628569040777
0.09110932883283271
0.488648130631277
0.1646053970986624
-0.108445895617798
-0.2001786559948183
0.4274454758682349
-0.1188209249127188
0.3029715407605113
-0.03314956394849766
-0.5040164201125784
0.2341944432251215
0.07520287985284421
0.02018175373636013
-0.02221731337147972
-0.1377655876853089
0.3284591793191675
0.09446344393106876
-0.2851570362457396
0.08370787898571794
0.04365987071257927
-0.1273677498318765
0.08713200932769026
-0.1017905143005489
0.06089710382160374
-0.04623859904476003
0.8098643559585987
0.002597197533693034
-0.4824044526542524
-1.260015413324865
-1.299963764837795
0.9312352791199149
1.628743898876298
-0.1063577829611443
0.02656206074046276
0.112176932471705
0.07289971098121595
-0.03712151033820221
-0.1382233087167326
0.1003305360363858
-0.0157476204256112
0.05364039268705266
-1.18474200064312
0.7402307110169983