/*--------------------------------*- C++ -*----------------------------------*\
| =========                 |                                                 |
| \\      /  F ield         | OpenFOAM: The Open Source CFD Toolbox           |
|  \\    /   O peration     | Version:  v1906                                 |
|   \\  /    A nd           | Web:      www.OpenFOAM.com                      |
|    \\/     M anipulation  |                                                 |
\*---------------------------------------------------------------------------*/
FoamFile
{
    version     2.0;
    format      ascii;
    class       volVectorField;
    location    "2.1";
    object      vorticity;
}
// * * * * * * * * * * * * * * * * * * * * * * * * * * * * * * * * * * * * * //

dimensions      [0 0 -1 0 0 0 0];


internalField   nonuniform List<vector> 
19631
(
(0.03084885463699584 0.01031445917160991 0.007125569118466136)
(-7.785294401992079 21.01272426934796 6.909260468176438)
(-2.27353430769772 1.499305155794495 -3.101892889498682)
(1.167432914207845 -11.67552297725359 3.451063084699428)
(0.05211091840068714 -0.05921348182284917 -0.0233618743648211)
(0.05897031556712087 -0.04100294502103075 0.008820670223721565)
(0.003033804331240061 -0.00443615979860619 -0.01622815818408982)
(-0.433507990491648 -0.7791115306880192 -5.737650093772231)
(-0.02078789436602186 -0.004899349364196568 0.0436691239083204)
(-0.1560512950442059 -0.06954574906649055 0.04180007529673256)
(0.1656983887812163 0.05070223107215137 -0.3097858270784429)
(-0.1578103612960445 -0.0470113437277694 -0.02723724697566098)
(4.373251254284185 13.65636299562909 5.312016332246619)
(-0.005124282184223729 0.005192723187532172 0.01460403040067368)
(0.02315677041327291 -0.00465322925335572 -0.01887307753617189)
(-0.09805203506567188 0.08989006483289114 -0.06597369552408419)
(2.066420517079429 1.612415520491313 0.3538746884935873)
(-0.008863085952448658 -0.006367715927436591 -0.002316520318061652)
(-0.05931709002062507 0.03816918274391222 0.05093922434152917)
(-3.024354659666848 1.282223613530417 -1.81185875505442)
(0.04791115470154819 -0.06643851081886457 0.06880754954142711)
(-0.8661356665991689 3.259012593783605 2.32603152472731)
(-0.04128079458281286 0.07092706574078927 0.05927279463866046)
(0.281699531917474 -0.3383435429893932 0.2656459255307545)
(0.03725027747374345 0.07025555565263181 -0.08007771260230563)
(-0.01585435394797235 -0.022895902420656 0.05921328147610511)
(-0.03973828222335855 0.02421279100899935 -0.01638101199803921)
(0.3966257330700572 -0.8644489991385003 -7.891142570661129)
(0.4699638612935666 7.148597063265438 -3.424027354582843)
(0.3456406323777662 0.07924793503558172 -0.0175035869943958)
(0.03514489750222383 0.01389468144547892 -0.03398232182870611)
(0.2584351620247047 -0.4246626816265521 -0.4548460529107724)
(2.223895198515077 0.8550667574925868 -5.42531756509023)
(-0.03302255279676958 -0.02578095719332356 0.01571130792897221)
(-0.1566108020838075 -1.94704268204552 0.3062667777514052)
(0.07020764609266567 0.003727244458132085 -0.03595639018376758)
(0.09570866438663725 0.03024588020366482 -0.1516659341269613)
(0.617446136596435 0.2435845294136993 0.04019641454601983)
(0.1690197124426497 -0.161345752880471 -0.02002013699169768)
(0.06847235222015165 0.307115203170381 -0.5512600805902111)
(-0.3264418315672235 -0.2838206061660034 -2.869203426625881)
(-0.1174679542967835 7.432305909406326 6.045382338477744)
(0.08704925641647039 -0.004749293851092545 -0.03488011195049498)
(-1.132912451239493 2.707562956294472 -6.598663523533401)
(0.4322357350480751 -0.2983587554717742 -1.105989392671322)
(-1.044930723137163 -0.1062856176121169 1.3469639970384)
(3.451261863538586 -0.2110788311316547 1.03284517129881)
(-6.286319861274599 -1.374494379848694 -0.9931432713590319)
(-0.07483631320970038 -0.008569870501747512 0.01661385318170057)
(0.0549741630372538 0.01794475325798722 0.01566090321474136)
(-0.009049676017611643 0.006272710237758945 -0.08566749870842721)
(-0.07492038942947582 -0.06029688132530532 0.09111258240131687)
(2.117578477435084 3.530141085863648 -0.9445284675179088)
(-0.1483545746822599 0.02315033631818441 -0.01269776450921095)
(-0.0832852273875113 -0.5338815972755931 0.1178534810405486)
(0.8425041814120874 2.1210280732866 0.1410253526313479)
(-0.6242945188293996 1.257080679721994 -0.5204484541373284)
(0.007515018522313227 0.01765632283005521 -0.001257419610598498)
(-0.6695146110408071 0.2267231548307614 0.1684602597876879)
(1.250431875224942 -5.72024259238836 -0.6599846602580717)
(-13.68124553277185 1.507077806587632 6.465059903732433)
(0.1337967014982867 0.3734783910422486 0.194894091120927)
(0.7396182296271976 -2.511064466726939 -0.2966863579780691)
(-0.2646540301382077 -0.005946118568256432 0.01008677386517461)
(9.835884807997687 8.825474223813639 2.509544115989244)
(-0.1491938686666808 -0.2361761403521882 -0.01566493500128091)
(0.09403643243145852 0.01337507015803995 -0.0530372667823017)
(-0.1252603256972833 0.2910354461911148 -4.653467842462309)
(0.4203958980276528 -9.170918512824695 -6.226240513285936)
(-0.006283783092716136 -0.09341077398520697 -0.04483920364310968)
(-1.2653340980383 9.124164167400338 -0.6882579541773299)
(0.05964395247425451 0.2009053616724659 -0.06501571116756284)
(-0.1970602751515913 0.03637030839000176 -0.1323620101923184)
(0.6916371755531545 8.494135831936767 0.3955269354610109)
(-0.182927634459136 0.1851036769921114 -0.1189565345237451)
(-1.952405787426174 0.7738441318935427 -0.1049068819814719)
(0.0430531044473286 -0.1961580126658768 0.01281473034933354)
(-0.7145219970214119 -0.6562355426257921 1.915927099078958)
(1.791358642345682 -13.66165082493019 -4.602563253521105)
(0.02480486054467197 -0.07188905003557536 0.04586821605557895)
(-3.834662401873462 -27.4751318677935 -1.568346212504567)
(-1.304458124553311 0.3404138783560615 3.590630194077502)
(-0.2649743319585994 11.28514321676303 -2.092443609934907)
(3.745267569708556 0.9227538047637152 2.11315709099769)
(-0.2135600670208808 0.08029775171799128 -0.003678936335799167)
(0.07721876725380576 0.03038669286354339 -0.00135152135114272)
(-0.1510400452518136 0.02643988182595867 -0.0813985775862686)
(-0.6918470771748997 -0.2501916750836012 1.337845835631913)
(-1.908194709505928 -3.526481858839214 1.027527535292992)
(4.662749194050465 -5.71009398548604 -3.851775848027043)
(-0.43021682107025 0.6704347653450687 -0.07757873283541308)
(-1.316822082522857 3.025829942003407 -0.4867405811956301)
(-0.7626909748672637 1.159725057950828 -0.2761808976919959)
(2.348391781781256e-05 -0.9509228885800014 -0.7131465162031856)
(-0.4896700954522772 -0.3312799559891824 -0.5112117466773521)
(-0.8161787312580425 1.537367348008226 -0.1414529123781151)
(-2.161186634982327 -1.861085137844408 -2.000766088609653)
(-0.2665104895212334 0.3157502108061639 -0.1767772144973827)
(-0.06752335653972548 -0.1318714795748596 -0.2000326722859866)
(-0.005223714740569466 0.02557952092679603 -0.01371140027320936)
(0.1560915852729285 0.01138508206438785 -0.04214474919237429)
(-0.6586260948748163 56.76205229792195 12.65574123574235)
(-0.04349195197929156 0.007349906775721216 0.0340939423999588)
(3.109459141490872 35.27329329175909 -8.88454220459926)
(0.260241381369182 -1.758880908556822 -1.697557308409814)
(2.388792335008129 1.915997630328566 1.068637086744941)
(0.01091882304452915 0.02401234746839998 0.02699561870757804)
(0.3291697892429229 -4.929586971946296 1.483300747954041)
(-0.2717982339158786 0.02679403459065169 0.01829457354759947)
(0.1043179982939274 -0.0591922797676854 -4.541453044188717)
(0.08518167607499846 0.1990079839893569 -0.3446350276407762)
(1.559794717869467 9.780840336248964 2.683459703858906)
(0.2671963364729558 0.01044045866811039 0.02398503887233175)
(0.8782855088311752 28.37082429368678 1.235299399995208)
(0.233467234444995 2.798898465553208 -2.307354396687574)
(-1.353150077973754 0.7011589296561855 0.8445191335003038)
(0.2891018150987114 3.204893757338161 -2.759625163933139)
(0.300261988828451 0.04101836264977195 0.1124308071687851)
(-2.073941948495502 8.88605162356173 -5.134000033343412)
(0.004064605589579788 -0.0002021899105518164 -0.02420785449591355)
(0.3800101711992082 -0.1384892897658109 -0.2138725177081529)
(0.08478963870321986 -0.001383678442631053 -0.009533555836611128)
(0.04624912663241096 -0.01161664152574553 -0.001640648122348607)
(0.4686742085250736 0.4357123488095183 -0.6034562962206679)
(0.7623153849661983 -3.779193538987772 0.01153898506015394)
(0.06963128508876817 -0.03533954864380401 -0.01183824177430342)
(0.2403423822234282 -0.03954270983432294 -5.211941886815019)
(-0.035543490877522 0.0060280096736331 -0.01127915714310784)
(-0.07815226796868727 -0.00323875425652036 -0.02312449228284773)
(-0.01145475163107838 -0.01024597311384227 0.006863126507632322)
(0.1204612181448393 0.2584070299808674 0.09977351760813157)
(-0.9634810193814036 1.933766366368927 -1.364577104178033)
(-1.475665326510622 -30.91046809394662 4.367626146336342)
(-1.133487961425042 -4.907137125206916 0.478937923967079)
(-0.02142857729880738 -0.02236110591440899 -0.01565486277161424)
(0.04608730546528113 -0.02879776262652352 0.03349861861210994)
(-0.003423080743117132 0.03236490198513949 0.008680676545791882)
(-0.0504116305292938 -0.8164699777105486 0.2472153039347329)
(-0.2657431865988302 0.01816166729585549 0.0969889023842759)
(0.03840286849553852 0.03853642814908208 -0.1214330702142177)
(-0.07091488872163548 -0.5337125518091722 -0.4923776888038155)
(4.283232881760179 0.02262880770418185 -24.35618875055962)
(0.5620032950786343 -0.7694863476520726 -1.895203687075148)
(0.2463622424876502 -0.8828367144681923 -0.6281914204614042)
(-0.05285273381382567 0.03392052062511994 0.01630676278451672)
(-0.1654815324237991 -0.02692699058125231 0.1646736124649995)
(-0.06730709751930815 0.05393032620754845 0.06181599797815296)
(0.1054468336530819 0.017174305306115 -0.01942484538909728)
(0.4615460144870454 -6.845174591771224 -3.684436071766693)
(0.5273222931226997 -5.485291044462513 1.019355420698012)
(-0.003477470838089845 -0.001082437434880758 -0.003891050414501881)
(-0.04935073981717403 0.09175584842360612 -0.1095979865750213)
(0.1737984925420477 0.0760761715638939 -0.003912333398685883)
(0.1258516086668419 0.1068222732527009 -0.02248032253109013)
(0.03796898443348386 0.02454012754804882 -0.03674626139632099)
(-0.1708190561164878 0.01698815493547466 -0.03803624798511518)
(-0.3046487216368955 0.7707952500875969 -27.15890925532675)
(-0.1895474196149508 0.3312954605750754 0.2115298751711696)
(-0.1712306876742959 0.03533570448497866 -0.00800257146997807)
(0.03751991901469656 -0.01551562589180591 -0.0314849871552501)
(0.03853656807174952 -0.02731923920213679 0.002266735849440718)
(-0.1189812645267155 -0.05734891601932497 -0.1366245871577286)
(10.15807996952191 3.84138811993531 -3.425794767149694)
(0.7340735998834623 -1.525853936475744 0.5055960156170752)
(-0.04531041777007786 0.04795392899754675 -0.0199127590482336)
(0.01861098076125929 0.006000031553973639 -0.01379771746938554)
(-0.01950792325171788 0.006244380731072169 -0.01366212423724309)
(0.003448731352773009 -0.001769804635691737 -0.00709008226988482)
(0.124978032097729 -0.2819544090147233 -4.131773172595897)
(0.1916368945325863 -4.96142476799393 2.862131460824581)
(0.2577025955341343 -0.008752556378356327 -0.2409079233980342)
(-0.8841298000296697 0.06987742669282992 -0.5344808675321553)
(0.1515881928477181 0.53494328004498 0.2571004512636343)
(-1.789734177985936 -2.660010587826133 3.136057965935465)
(-0.200953458904063 0.006756185954675226 0.08613767646630413)
(0.2302229603420068 0.1792861544858131 -12.73686481980063)
(-0.01616090691903872 -0.06745797708013732 -0.0352533277346512)
(0.6320607403637096 -4.112993396450801 -6.84195794947585)
(0.1010468549976389 0.01578472056069678 0.01299764450203977)
(-6.699184805952308 -0.9624692111399327 1.793617445927833)
(-0.185675280912955 1.599218024031885 -0.9872782521628996)
(0.008796153824964806 -0.03871117563980184 0.005671663869088992)
(-0.1565918641949061 -0.8450136679841264 0.02975332338309264)
(-0.1851898019405507 0.5730404117873569 -0.005455703580197608)
(-1.405095395981513 -32.68585137632714 2.456758404233077)
(-0.7682198021698587 -22.78927037088743 2.497010337615945)
(-0.4094927810034407 1.971624997372186 2.526751334712083)
(-0.03975093205154057 -0.08725223621600157 -0.005841448267322759)
(1.090084023398286 -2.438557211107752 1.569418392920479)
(-0.01322955219970537 -0.0354726430572807 0.002535314560681671)
(-1.068066792071784 -21.48109506946336 -5.168977919364078)
(0.4971485006219931 0.02007320674119373 -0.467489948873643)
(0.3049614115045711 0.2172777398433028 -0.1495270038599413)
(0.4957908094821019 0.5139400421277276 -0.4252720721289804)
(-2.02483428568104 -10.83035453344559 -4.599889048734616)
(-0.4151465163948388 -0.6169161346042576 -0.2431250857051477)
(0.01593288240936826 -0.02280890271380685 0.006003795622569435)
(0.742791621102131 -2.09275594271212 0.3505748192014879)
(7.265532450409653 28.80284176645618 7.657368835359911)
(2.22493715794813 2.503984192505709 -2.609457279225881)
(5.66987433154841 0.5657191578806815 4.57655136197033)
(0.5629567892994212 0.3870231184852813 -0.2671942999351259)
(-3.782850472893741 42.90631210922285 6.366780326122338)
(0.08839864778803241 8.389537442762668 -0.2357074838762091)
(-0.1498715788275995 -0.01005341315429008 0.09588829000195086)
(-0.03116410703708864 0.01804902908594731 -0.001288948158370339)
(-0.01332733745418243 -0.01529572412949079 -0.02295820641184496)
(0.556620803723289 8.115230628509362 -3.008701994624234)
(-0.2830657071254405 0.1764249660486193 0.7619652255523008)
(-0.2083660037307159 0.005319271395418882 0.09930701160016094)
(0.00540070723248285 -0.07831744389723456 -0.08650013694437139)
(-0.4183109486958713 -0.1737991005561739 0.4159902555668539)
(-0.06290252870423702 -0.9808439070047228 -0.3462140075049627)
(-0.05785579917615754 0.2027906350354449 -0.1159394803648316)
(0.03471900945528193 0.01152963057315088 -0.3024461390530685)
(-1.769564827489206 -63.89635535860534 -1.590744633751173)
(-0.03869997992742295 2.175654971551813 1.872617540567842)
(-0.957810840226282 -3.899567798931221 -0.8661633743486845)
(-0.4797472247341394 0.4369604899243915 0.0568623430185639)
(3.049392183512656 -0.9916979552680329 -2.56097303864347)
(-0.0135263938147818 0.003597376481931328 0.004444269238196854)
(-0.09286519626790168 -1.549568520703803 0.2581357166914645)
(0.6296118862282822 0.1733806089168806 -0.04420291975805345)
(-0.36890006523077 0.2283394932097547 -0.1605490539552842)
(0.5905033338934218 -0.4803907018189661 -5.091462622935103)
(-0.8926547196939365 4.470895891944195 1.521569526013656)
(-0.2209792272266352 0.05557197789970954 0.03323974137012715)
(-0.06147090447664863 0.01391263084738702 -0.01572142646671611)
(-0.5207478458030655 5.645417226832985 -0.4093118902067779)
(-0.05898604105958771 1.149103138309251 -0.8277613030388317)
(3.871259010249616 -3.984407551616691 -0.8508174562495572)
(-1.422112915936283 1.849378049175427 1.176087300973886)
(-0.03510878986047687 -25.49065039508794 -0.8889359997709254)
(2.860747669306109 45.92833555309616 1.252044045975706)
(0.02010424935265292 0.1191677265222097 -5.850723607193858)
(-0.250074481715067 0.3218816099329788 0.2254527837541169)
(0.05382009900239779 0.0518010981183079 -0.285169904049442)
(-0.1060865404427851 0.06957948448968961 -0.0213348526272269)
(-0.2831247708495471 0.6807354902856371 -4.572810032093228)
(-0.08131077494355105 -0.1239263525891343 0.0384399357984903)
(0.0957446353727318 -0.08306038346670705 0.1168144011539936)
(-0.2342337946000062 0.04558685710676696 -0.2985665770421789)
(-1.348347748066666 0.4690280168114157 0.744450704244336)
(-0.01786012973287751 -0.009450960300044265 -0.004077934647811143)
(-3.760903475413183 29.91213647748365 -1.111472565080563)
(-1.264129239796568 6.675856843067709 0.3289872591243442)
(0.03645553634410597 -0.0395736153001637 0.009905217015492416)
(0.1597870300591309 0.02279518706225074 -0.1133759146242397)
(-0.8033186367086549 -8.685672782398246 -0.6697892797487504)
(8.390523926621203 16.21530042213017 -4.247255012043414)
(1.612307242680496 13.85821151592165 0.1204594758408188)
(1.992128041337645 -34.61462338412353 -1.775111767801679)
(0.4005796510524465 0.695419144265615 -0.09039941331917981)
(-0.03404296870912715 -2.939892810798459 0.04313775879776761)
(0.3858720336454017 28.10892889938529 3.684976763116213)
(2.218367001233402 5.105407823845435 0.3557476607585653)
(-0.006313452190679455 -0.08097438384043357 -0.1478278540756689)
(-0.9426040416905763 -8.524064005723927 -1.238526048557318)
(-0.3357621823344922 0.2300761302915727 -0.03860115814322416)
(0.513384626878931 1.471868541552466 -3.059376996011701)
(0.5476105546843881 2.896789290518135 -0.2180470498423513)
(1.107584605505667 2.009658403049951 -0.3946852273076421)
(-0.04058188263899751 0.03630921726217042 -0.008804993112162179)
(-0.6825986835935568 1.294401119777378 -0.7493144915119206)
(0.07379634772615519 -0.3539033296124178 -0.4141445486485544)
(-0.5535486790954847 -1.007733393843399 -6.049607417404244)
(-0.04018575521374085 -5.033006109708507 0.0687344631098451)
(0.5834308700331147 -10.71092912158906 -1.107123109054699)
(-2.006434565456566 14.17367049532034 -6.127387975178278)
(-0.0428908046500939 0.01661979761937252 -0.006219034007406039)
(0.3314162523216514 4.227129706895624 -5.553539050117139)
(0.1935119202221637 0.1152683326496692 -0.3681798657210999)
(-1.706754057832364 -8.552184117747018 5.477393042563856)
(-0.1144620479655805 0.9392044280668644 -1.042210314498354)
(0.1655843479041261 0.03385622506409262 0.09240920979376527)
(-0.1697803534564406 -0.1190857580152847 -0.3000371177877776)
(2.47283183289434 -2.318101295749818 -1.231015425607373)
(-0.3139559202153648 -14.3205653410077 0.5279254640917278)
(0.02130387189498521 -0.1193021155008504 0.1220823209446923)
(0.2339747642126495 0.3575248880141437 -0.1424306375367112)
(-2.929767716321531 -7.021406006641086 -2.547104146946017)
(0.5007282879120107 -6.718096047669067 7.600946356695693)
(0.09899989324661738 -0.3966562319053252 -0.05959141626954925)
(-1.470557540420764 -0.04694532127903008 -0.1950691700939399)
(0.5730804413415569 -3.069298386661591 1.0633545072711)
(0.2686491464316363 -0.3894231408667481 -0.7118909402877751)
(0.004187314979053162 0.01802285194050023 -0.01096702165218492)
(0.1110337834676878 0.1722007972389149 0.2445789361408914)
(-0.1001082317689038 0.6190753557886494 -4.065574310951229)
(-0.05982229897640753 -0.01664668942942915 0.06003301462372425)
(-1.639854021538623 4.395600571572034 -1.932779722562617)
(3.609720062302931 6.768939031764775 -1.379742455774353)
(0.08313362656137939 -0.0343441840961653 0.04613098733732977)
(-0.02115418805399391 0.01734305473267163 -0.002952802066327594)
(0.00152604225197458 -0.006899951769646156 -0.0008638694056265568)
(-4.063177551281523 1.609686237624465 -11.54597959008543)
(0.8577946895618045 -1.622274267638556 -0.5028812452878648)
(-0.5201929011156321 -0.5798317620850701 -0.3041190394214285)
(-0.09133425562376163 -0.6833215158671457 1.778125975808279)
(5.120727568651633 0.8755760608610661 2.875573529045855)
(1.072121351172941 8.278118807797936 -0.05452183241460032)
(-3.590355324895047 -0.420348026322111 0.08924924188057831)
(-0.01733072365468699 0.05637988931846416 0.02419331140487258)
(-0.2579808209106585 -0.9838177381893378 1.717432325467047)
(-1.473781676657895 5.854016536173923 -1.70151805207762)
(0.04871535555184656 -0.03747573605160686 -0.07500647626834674)
(-1.166894377456444 42.36488791272694 0.4010422530952851)
(-0.02837953102031274 -0.09455434221575214 -0.06457883469942273)
(-0.04551610669298545 -0.03048695292550836 -0.06622330316914704)
(-0.05239937802745714 0.1100162166774414 0.1104872074907738)
(0.03814631941601701 -0.1465428467813247 -0.004189899803316473)
(0.2226701027792501 29.14145209608108 2.135877530405047)
(1.120465898435449 -5.183285318909052 4.163766465645026)
(-0.1509963611569427 -0.04878560649341585 0.01052488628691829)
(-0.05061206773992503 0.007827889181390421 0.02299410213980768)
(-0.1231432724443149 -0.06074592015362163 0.06907819453369762)
(0.05530789685568761 0.07931786548118361 -0.05337797944177167)
(0.01232868661808202 -0.05107327209158071 -0.0238100360107119)
(-1.575704873587204 -1.437540206823088 -0.5624044859730331)
(-0.003278934640924709 0.008700078499092875 0.002086517729780611)
(-0.4632133270247459 3.449817590725337 1.502864486295086)
(3.517111947036575 33.07086619364357 -0.6427328914522714)
(1.069580220701203 4.778450523774785 0.876865515301946)
(-0.1459070979509228 0.3547218978770092 0.6048842619573693)
(0.3488415762512072 1.473737274108693 -4.999145374046549)
(1.414742449628591 -1.310884992942018 -0.7928388692266575)
(0.7366941311044668 0.5255173350155284 -0.1762644728026847)
(3.492915402750341 -3.25317343913129 -3.444764256990306)
(-0.1868156382761937 0.02249919953861616 0.07952707038135644)
(0.8544526537862074 -0.5924839936183431 -0.5959252497200858)
(0.3258507260538427 -0.04542298725151225 -0.1170816033109812)
(0.1933903297301441 -0.006159903304542233 -0.01183545875266413)
(-0.1235208800379906 0.0919965147945688 -0.1416966605125619)
(0.3185239891803554 0.2535758934525535 -0.05485694040751971)
(0.5577244737473345 -43.50807087882673 4.906076308461349)
(-0.03867030011691589 -0.07023217220060839 0.09132024984361012)
(-0.2761632402533683 -44.89202120598758 -1.614034234382004)
(0.2470820621940449 5.864473274339716 1.874642839150323)
(0.317677096502063 0.2133781755129411 0.1691716426152751)
(-0.0397250637609441 0.02958369972488115 -0.03046012837215342)
(0.001321991505410913 -0.01893239746608403 0.04833113677721262)
(-2.210547697339039 2.63324370975321 -1.125736440605416)
(0.04640062971371066 0.01784160916570884 -0.05748810738925297)
(4.822703637104576 14.52346098462538 0.4254560693862932)
(-0.4798601961511683 -4.219280963830477 -3.663120652824178)
(-1.401572670819004 -6.952849924672757 -6.197184306568946)
(0.01675011134958885 0.009075834889286129 0.06650500150265402)
(-0.9543354301922041 -0.2693456035286265 -0.06093450520773548)
(0.02867515482489751 0.008905177671659381 0.0520280074962108)
(0.7989863691109705 -0.04730188421341351 -1.092705446454428)
(0.1463746919379952 0.03482169100726597 0.07498746399714278)
(-6.8110947808801 -5.126058845839641 -4.116748933959605)
(-0.1781240297327892 2.099903835313361 -4.987028278140396)
(3.4837319735037 8.617809290052728 -0.8432132699674126)
(-0.1385166967548623 -0.2060596434590818 -0.07792315620177065)
(-0.1787976390725602 6.504898860848346 0.5243025509304354)
(0.365133162016117 0.08584720243068272 0.07010296660840735)
(0.7426733019721918 32.74930346335631 1.33670113692672)
(-0.430693023160141 0.8066660146939179 -0.04475233560064969)
(0.4257054403460394 1.95359467496844 -1.107654383384419)
(0.02028713120415937 -0.005826734446745674 -0.02497769168869091)
(2.909281497819318 11.90432239379176 2.021450605984003)
(-0.8089573922367114 -0.5592743574492771 0.1040240908101731)
(0.1129016441444555 0.5180806477760287 0.01642440341001786)
(-0.22409723066159 0.2173075395530455 -0.4171615911731296)
(-0.05173614866344062 0.0232447213901986 0.01747718488195322)
(1.049743184683444 -10.9666916598959 -8.556386696014226)
(0.6710802016744434 1.224186792199319 0.6293768595744529)
(0.1130932837397336 0.03147877066009683 0.006908693687901383)
(-2.94200532528324 1.433692175452252 -3.64308690541619)
(-0.1927411589939033 0.05497858565282093 -0.1721983103704365)
(0.31181648189879 0.3483633159398585 0.01850814940272316)
(0.4946772297643336 0.4879619465336805 -0.3050997995742852)
(0.1332363160664698 0.03055981229116408 0.08515404369600091)
(0.6829843981336253 0.2690399386268953 0.1733003807696545)
(-0.005019109408408385 0.003976455299081144 0.0243076729308536)
(0.2078308065057438 0.7950508117321861 -2.046076754064234)
(-0.0331971984769143 0.005289084540559688 0.01347587760446471)
(0.01199802403336706 -0.02076935691525132 -0.1379830657302591)
(0.02254637245458778 -0.006120335036506268 0.00332221069602711)
(0.02196719921461099 9.936662660455331 -1.655462215723272)
(-0.01266479551325476 0.01833718992921485 -0.001494131471842474)
(0.01774038786628096 -0.02680992754029368 -0.04486399757260321)
(0.05756876889477325 0.03595482494378602 -0.03049396417245231)
(-0.5847906458164903 -5.407530089679577 0.4743974677925449)
(-2.858400318948494 1.188302061545588 -4.730909704738182)
(-0.01382686291121708 -0.2816480962449832 0.205496506314211)
(0.08694868253140398 0.1563957282032689 -6.207152099503285)
(0.1322439530102191 0.3664145035932074 -0.1650862244246921)
(1.164664060231237 -11.20046862152823 1.445285887990814)
(-2.06605299055322 -4.900479580855282 2.125677710196568)
(0.1212580830630557 0.03264702903717157 0.05762387484639858)
(-0.3420390276088655 -6.774454761333881 -11.03613447808791)
(-4.061131822256618 -30.33569014945866 0.7269284728494352)
(-0.1825215814106743 -0.1500176703996397 -0.03461114120269985)
(0.05986890163796083 -0.04767752566370531 0.001194107577352936)
(0.009359039136372527 0.006863211293769639 -0.005356716726113705)
(-0.4817649187825851 -4.10837710805868 -2.486570096304292)
(1.337781661949368 1.200892667831721 -4.842366799744904)
(-0.6872284532129209 2.433951895086676 1.048120683327481)
(0.2330463673240655 -45.91295517737672 -9.888305241124943)
(0.254322966337569 0.8482028633463443 -3.217724183188521)
(-0.7640754872834816 -0.5076333093171834 -0.2983859239288623)
(1.896901875656241 -15.80723138657208 1.404271613945733)
(-3.529027466449106 -1.196185925846422 -11.13025350851796)
(-2.393926178284784 -38.00582903583697 1.572563741804602)
(-2.747395988605756 -3.508535215438387 -0.7883157573959074)
(-0.7905056920117061 -0.2546158461960472 -2.568871903282202)
(-4.231708940400152 -44.999006105607 -5.471293786123992)
(-0.4800405188392387 -0.1228343017461938 0.8188631560951811)
(2.454437502915231 -33.13771711547244 -2.574384319977706)
(2.617242370368226 -1.628856001764448 3.250263234140029)
(0.3984164647489455 0.3017968138927294 -0.2344383887946238)
(0.653688803247657 -0.2493457643286618 -0.27121606465294)
(-0.04691785565444145 -0.0392323199684053 0.1694183879673867)
(0.08546308881738532 -0.2781342551341706 -0.4291731860378267)
(0.8350554585463735 2.399696892687246 2.157203404104042)
(0.1593192862298723 -0.1241019040471326 0.05530331429257751)
(-2.600366029369967 -43.73969869895581 1.658611168003164)
(-2.351000314489688 3.713751093870237 -1.546196472486162)
(0.3925870814336496 0.04585607570762733 -0.3248939922057226)
(0.01250063028710068 -0.003113576368100278 0.03542751366944174)
(4.498773846244276 1.686135569719585 -1.404570265764563)
(9.328077790713747 95.16970078097201 -3.347596316020713)
(0.3744289509183218 0.0205912785781987 0.185144895068682)
(-0.06132685445500065 -0.04455785803981685 0.08263453029776234)
(-0.3381676066809249 -0.1791761431839092 0.07333015812684775)
(3.991495693258636 0.6992947280517074 -1.285540690621984)
(0.2298766159792663 0.3631991351303395 -0.2764734883793249)
(0.02522880582926788 0.01956535844087076 0.02130701102424323)
(0.005958184641574071 -0.3358325183014804 0.2404486674514185)
(3.459788582047075 83.59571500996387 -2.705110300225167)
(-0.2650590855426985 -1.333473810122491 -0.9650376651412643)
(-0.07498018447402703 -0.03456191116767507 0.1006615781581367)
(-0.1996703839187013 -2.490728120146673 0.03314543919543067)
(2.166958451245301 10.76874820278203 0.5947272940360171)
(-0.009284788430401411 -0.005559650078743483 -0.01026146365402626)
(-8.476098124350321 -18.25501169822778 -1.461356002061399)
(-1.008681634557755 -4.840957104072964 -1.797118089528798)
(1.376847061904615 3.040168125890884 -5.413947791015704)
(-0.009626514782547568 -0.007233835546648989 -0.01169647436851465)
(-0.447932406907593 0.1061478388453244 0.5960484215477531)
(-2.136638873577832 -9.949139049627973 7.636735252002305)
(1.597746160637384 0.8900385356638438 -0.2972584340382615)
(-0.01524291906783432 0.006716573584897372 0.01367871924852862)
(-1.441760909565742 -5.194674358196647 0.8733297903548237)
(-0.01581916476973348 -0.001057408552915023 0.007921931376382391)
(7.358244408918358 1.938974002498136 1.614740777572743)
(-0.28246212871738 2.71757769318268 -29.25763419631511)
(-0.01175468305162758 -0.01685048556195794 -0.09342619320810427)
(-0.4050590912444443 0.5098659311420195 -0.01774019026776948)
(-0.7614401647095237 1.732031411669772 1.11365884723517)
(-0.3061690300622724 9.481411147625158 2.832703495411334)
(0.8782028491287923 -5.014310854744093 1.054224599462954)
(-0.006810951039761183 0.0004007027136831293 0.01302056276550767)
(-0.003306003718122605 -0.006703396544926799 -0.005955254733319732)
(0.04206124373268121 -0.02285988237072413 -0.03866117592235968)
(-0.3330663175369679 1.579410887729232 0.4654295097835423)
(0.4751908690196696 0.2231480153956697 -0.2013251243561687)
(1.81118896193006 -2.652040680431923 -2.985405811429992)
(-0.2389795418398557 -0.8192394901048907 -0.0732409619635776)
(0.01773396204565722 -0.1147775804648669 -0.03849774055213571)
(-0.6882775695986078 0.5151275786567493 0.8480577256212515)
(0.006220744454155166 0.01685754971712024 -0.04334425737362319)
(-1.964282498182589 5.301008436398758 0.7999693752804802)
(0.1647899448759942 -0.03540821771284122 -0.03077862781793697)
(0.2059205609511891 3.899858005955911 -5.460483821766453)
(-0.3314106861454463 -2.317573802913908 0.8970079872445325)
(-0.2304251553059538 -0.1149834051727002 -5.82995282078218)
(-1.163680897644078 -2.586919772460508 0.1777994469621402)
(0.954709786487502 53.71427149342648 7.091455808518802)
(-0.2926662484381698 1.339957118131568 -0.8876332499755656)
(-0.01515520750998199 0.01113036400644852 -0.01827077305176783)
(0.01198245315315351 -0.006859226333688494 0.004627580221252111)
(-1.255089197309107 -53.18994476460817 4.854067974135017)
(0.3334358228398562 0.1060424555752022 0.001453088740929261)
(-0.003891839545257198 0.04178638664323932 -0.1753841953293717)
(0.3573783560917856 12.39352742661955 -1.012391251400622)
(0.1793261023879709 4.454592749834235 -4.373450942496727)
(-1.496414410638098 -1.458727070552666 -1.669006141284123)
(1.189122224057713 3.39941327371287 -3.047664094934177)