/*--------------------------------*- C++ -*----------------------------------*\
| =========                 |                                                 |
| \\      /  F ield         | OpenFOAM: The Open Source CFD Toolbox           |
|  \\    /   O peration     | Version:  v1906                                 |
|   \\  /    A nd           | Web:      www.OpenFOAM.com                      |
|    \\/     M anipulation  |                                                 |
\*---------------------------------------------------------------------------*/
FoamFile
{
    version     2.0;
    format      ascii;
    class       volVectorField;
    location    "0.1";
    object      vorticity;
}
// * * * * * * * * * * * * * * * * * * * * * * * * * * * * * * * * * * * * * //

dimensions      [0 0 -1 0 0 0 0];


internalField   nonuniform List<vector> 
19632
(
(-0.0002764627868395938 0.001834816354983461 0.001472197724427185)
(2.844317117086005e-05 9.711950999986334e-06 -7.908474388362305e-06)
(1.213342740196207e-05 -2.528103204791899e-08 -2.246774311056148e-05)
(5.329639345363815e-06 -2.209407804488286e-06 2.739973195341378e-07)
(-8.194290142453659e-06 -1.652149172062352e-06 2.101361053759991e-06)
(1.592317528091997e-05 0.0001165634788514222 1.458328063803464e-05)
(-4.323080468506777e-05 -7.216315380969275e-05 -9.7252838333597e-05)
(-7.238440089393281e-05 0.000377937226122715 1.536239490924625e-05)
(-0.0004157453656590996 -6.419647373642496e-05 0.0005010605932218517)
(-0.0002088788169208416 -0.0004758232549877222 8.490237036518338e-05)
(3.668642055672736e-05 2.755314415998111e-06 -0.0001952931337799744)
(2.255691437308735e-05 0.0001053628182199531 -1.251955705032228e-05)
(-0.0004299012745364766 -0.0001250938556459539 0.0006760160709322888)
(9.961587441952912e-08 -8.291523036865085e-07 -6.993246295521252e-06)
(3.762735762555613e-06 4.287284388720599e-06 2.663935003391356e-05)
(-6.486915931742631e-05 -4.361530954577232e-05 -4.569261258165135e-05)
(-5.266938224590013e-05 -1.157812139516e-05 2.499198154661726e-05)
(-7.887668847939499e-06 -3.560684254142605e-05 -5.497929592728867e-05)
(1.059577174381675e-05 7.591931353609222e-07 -9.98712934351921e-06)
(-6.153120178522036e-05 -8.725037783087524e-05 -7.445454611662938e-05)
(-0.0001738492746073407 -0.000625907631717502 0.0006856460679373877)
(-0.0009765954532379062 -0.0001167420625371999 -8.994222887398658e-06)
(0.000313492228283538 -0.0003175130771692235 -0.0003357953814565759)
(1.229251341399045e-05 -1.606715067018171e-05 1.301252338111752e-05)
(-0.0001195776713716318 3.348272793593151e-05 -8.659194717766507e-06)
(-0.0003941890241105444 0.0007044892936502265 -0.0003204136357452852)
(-6.123332328259164e-05 0.0002473466425657434 -0.000252797444542567)
(3.027390487592675e-05 -3.086091065608232e-05 -6.313311822385107e-05)
(-3.067844866484001e-05 2.129340104389206e-05 -3.322743632156913e-06)
(-1.043767705452413e-06 -6.344550991074545e-06 -4.460666955902117e-06)
(2.087391237697753e-06 -1.507679525395548e-06 8.12294255168753e-07)
(-7.318757849148172e-05 2.021846573322555e-05 -5.523262361574136e-06)
(3.345589097902889e-06 -4.433807019145701e-05 -2.657771445718048e-05)
(1.422212669657011e-05 7.238709983138823e-06 4.674531170191855e-05)
(-4.568774706109799e-06 6.709150021978704e-06 1.846091016116258e-05)
(6.101206882460884e-05 -7.757142345439965e-06 4.499521968509887e-06)
(-2.986595218300994e-05 -0.0001686741349318984 2.180958110771331e-05)
(0.000196549423223921 -2.722288270059251e-06 -0.0001239430870254518)
(-0.0003717532505002137 0.0006692039024310548 0.001196963245940875)
(-1.178419655435202e-06 1.50293904475764e-06 6.147053695665348e-06)
(9.041890839704767e-06 -2.089564561264589e-05 -6.103755912924229e-05)
(0.0007080428564166301 0.000522003032735489 0.001051647518068437)
(-3.3649431190317e-06 6.971023921149231e-05 -6.76754347955707e-05)
(2.719010708290299e-05 1.852941577567749e-05 -4.084303061428346e-05)
(-1.647429832219807e-06 6.1067596984569e-06 -7.458370508721949e-06)
(0.0001017788421478847 -0.0002129434024776385 -0.000394588375804775)
(0.0002036404744055161 8.885226225691497e-06 -9.651246166395796e-06)
(3.814909330482126e-05 -7.04918566941262e-05 9.591628741174662e-05)
(0.000143298972493911 5.109194302405984e-05 3.252139727187827e-06)
(6.378613870522601e-06 1.023695131135215e-06 3.551727053796259e-06)
(9.662776327439213e-05 6.938284348449734e-06 -4.379719927829577e-05)
(-0.0001289040713481983 -2.248162629964367e-05 1.12315341450368e-06)
(1.240891124427341e-05 -6.514175304632988e-06 -2.93348860815564e-05)
(-0.0008537672995098288 -0.0002562822594382562 -0.0006043971409801955)
(-2.353290156263405e-05 -3.153219576303972e-05 6.859797804341779e-05)
(-2.473857174535019e-05 1.603056607729544e-05 5.468531030552796e-05)
(-0.0001991121258032592 0.0001329247743834322 -4.323290760007673e-05)
(1.10490287235305e-05 -5.624456477029286e-06 7.108470958706662e-05)
(2.01211862930708e-05 -0.0001564367664107207 0.0002637847065792301)
(2.818886795255594e-05 -5.391052748556511e-06 -3.529697001292291e-05)
(1.833456016513234e-06 3.482696376011956e-07 1.360097636433546e-07)
(-5.269354649517839e-06 -1.295763458891292e-06 1.742526610990116e-06)
(-1.633479149948168e-05 -5.010776524374398e-06 7.93676444365682e-06)
(-2.129374325191601e-05 3.60618386745188e-05 -5.795610382979981e-06)
(4.060855106990579e-05 2.507990308582806e-06 5.533818346571337e-05)
(-6.53565934007084e-06 6.370959992039208e-06 -7.513046708342541e-06)
(-5.158344954584598e-05 -9.621501938662085e-05 -3.98008206118966e-05)
(-6.598521989359556e-06 9.597850943281855e-06 4.328251417767069e-06)
(-7.439673341630463e-06 2.685736238094429e-05 2.18840493779185e-06)
(3.020985643916642e-05 0.0002902538604056144 0.0002449852126815236)
(1.398748468178988e-05 1.061175647366355e-06 6.114009792242604e-06)
(-8.880901163285668e-05 -1.078070532630724e-05 6.28418090988936e-05)
(-1.623527303288762e-05 0.001046086823837728 -0.0005083243822944283)
(-4.210652998894691e-05 -0.0001620984226876006 9.109385099631445e-05)
(-1.714005056565274e-05 -8.216509448187373e-06 1.571250807686711e-05)
(-2.766487199740089e-06 -5.803833246796649e-05 -2.090427073044765e-05)
(0.0001714674023287021 -0.0001890698218971387 5.485128046114089e-07)
(-0.001021273374295396 -0.0006693004015813603 -9.549225504032629e-05)
(-5.055430930661071e-05 -3.379112006681184e-05 -1.712633207396224e-05)
(5.290846488376078e-05 1.674726558962999e-05 1.823019635407112e-05)
(0.0002682529945587765 0.000832371226739912 0.0006892066148106936)
(9.516638775911463e-05 4.055111946345214e-06 1.904919888506479e-05)
(0.0001016797357024266 -3.41856372411122e-05 0.0001455198620238611)
(-8.002269710081175e-05 4.478557766701944e-05 6.09794516235701e-07)
(5.209578142799539e-05 5.336790534766814e-05 -9.264612935837223e-05)
(6.930048641589788e-05 -2.787849660586854e-05 9.283298576820152e-05)
(-2.885976435333178e-05 5.246111516376047e-05 -1.141951352233352e-05)
(-0.0002771945575916204 0.0002289242041029241 1.286188765297375e-05)
(-0.0001182207131460959 0.0001358865781228811 -0.0001019628714651075)
(0.0001208370848804956 9.358475987709353e-05 -1.893779881763899e-05)
(0.0001371776689193332 0.001322433903406903 -3.051866174969513e-05)
(0.0009737463051908173 0.0003198970034251697 -2.579352585401715e-05)
(-0.0003917756839901278 0.0002430886251191347 -0.0003600981350091954)
(-1.598678673165847e-05 2.148439747187413e-06 -2.709686279838289e-05)
(0.0003347264398416644 0.0006141851106186641 0.00011681952226601)
(0.0002745854435966999 -0.0002819289244813193 -0.001042975652499163)
(5.264055984445182e-07 0.0001493150813132624 3.722554853330506e-05)
(-0.0001952130365109804 -7.355527086860161e-06 -2.555046967880878e-05)
(4.20364723906282e-05 -0.001199566630759149 5.011784651852983e-06)
(-7.674602019698727e-05 0.0001186862465659487 1.448930177163794e-05)
(1.17454689155162e-05 -9.331195140839374e-07 2.221810777484619e-06)
(3.258453690441109e-05 4.678882390083597e-05 1.035339991054844e-05)
(1.79609909884797e-05 -3.355263614954594e-06 1.101647646145169e-06)
(-1.206641760539324e-05 1.3658057158175e-05 9.978020762489704e-07)
(0.0001264360435732422 -2.451407331610327e-05 -0.0001379680678148557)
(-5.049734602902564e-06 -5.130456043989723e-06 -1.506759318850501e-05)
(1.533289039416278e-06 -6.429288263203527e-06 -2.470092737910955e-06)
(0.0002390153199080264 0.0005366051696425931 0.0001392734055362468)
(-0.0001247358265402033 -8.828706541275626e-05 5.429095857119426e-05)
(0.0001679308102675739 -1.984821582920774e-06 -0.0001198100831291936)
(4.252873759442311e-06 -1.945044131442048e-05 -5.287407974470748e-05)
(-0.0001770437348410368 0.0005878958458886163 -0.0006613347250094849)
(-5.568878732079862e-05 -8.602741408687907e-05 -9.158785659183357e-06)
(0.0006674742146442116 0.0004325550891074671 -4.014112420784564e-05)
(0.000164685682492108 0.0002776060133298974 7.359274167876315e-05)
(-0.0008146558083689053 -0.001423861477017491 0.00145055580660184)
(0.0006797571397591125 -0.0007348856002467633 -0.0002907363219397184)
(-7.215465951147392e-05 0.0002748018816208916 5.922294500521514e-05)
(9.845624769780674e-06 0.0001262891761847209 -0.0001844403990910573)
(-0.0003460234717998351 -0.000121814375853007 -0.0005648300301780287)
(3.558291134704649e-05 7.377576040951466e-06 7.927759412530954e-05)
(-0.0009497778327938698 1.363801170158621e-05 0.0001128980997063344)
(-1.113766232812823e-05 -4.503877415655938e-07 -4.828406211650796e-06)
(-0.000958489002478468 -0.0005518098798293166 0.0009323516149651465)
(0.0001821771716343638 -0.0005545471961952457 -0.0003357036521161128)
(1.240600199606564e-05 -4.466471367997283e-08 -3.713436680285112e-06)
(0.0004894102015717795 -0.0002447992379922451 -0.0002765055363929135)
(2.319648756888431e-05 3.62580082872518e-05 -1.95268643835872e-05)
(6.806354421424598e-06 -1.855383355581613e-06 -6.1722315799342e-06)
(-0.0008422728011264525 0.0006522482836922292 -0.0006776268836420004)
(-0.00131834601383065 -0.0004112695966535987 -0.0003521584456326715)
(2.267223400649542e-06 4.343198067842633e-06 -2.335226181420147e-06)
(-4.463097685311257e-05 -6.455421284036239e-05 -1.899003899156224e-05)
(-9.578991613189332e-05 7.66343430313796e-07 0.0001533049852168832)
(2.927717784793275e-05 4.545871694295357e-05 -3.332024660786079e-05)
(-1.612884673127741e-05 -1.08393563981843e-06 1.179289597568763e-05)
(0.0002414872866498956 9.451652172226137e-06 0.0003991669032925771)
(-2.684356822619136e-05 -0.0001046976713366548 4.304538315457117e-05)
(-3.670621314275024e-06 5.669704123199711e-06 -5.837726054983917e-06)
(1.70475540333886e-05 -2.277873417265557e-05 -6.829013234279267e-05)
(-7.370967239056914e-06 -6.730685983343871e-06 1.896085132377423e-05)
(-0.0004283346040889604 -0.002085382279855905 0.001776671113351317)
(4.970563337242237e-06 -2.170470065332828e-06 -1.620293824329447e-07)
(-0.0008657818175434218 0.004639419267232528 0.01145912801106993)
(7.722211313316495e-06 -8.622612612918411e-06 0.0001520420346048555)
(-0.0005616185768466285 0.002031065457006644 -0.001045439857053381)
(2.512137741833903e-05 -4.17962109473782e-05 9.993653202038384e-07)
(-1.978946477597877e-05 4.104842614759257e-05 -1.982681457808353e-05)
(1.642238414320124e-05 -2.312702317207637e-05 -9.729597991232471e-07)
(0.00011248107883548 -6.579095643876767e-05 4.768265940834266e-05)
(-0.0001801300306179528 -3.511614761229757e-06 -7.600421261580674e-05)
(3.781716023692756e-05 0.0001270234609817084 -3.783783286658479e-05)
(-2.52915070519751e-06 -3.254219125581243e-05 3.401639421467011e-05)
(1.084643744450203e-05 3.461896228515239e-06 7.02588088210398e-06)
(0.008449774776506299 -0.009740700407931489 0.008546708596804984)
(-0.000258011636595381 1.866446754904174e-06 -0.0001463064367165652)
(-0.0001429728051197909 8.089607517620178e-05 -2.716012732623048e-05)
(-0.0005553643509462288 0.0007173695910409967 0.0003764827134461241)
(0.002595174109186812 0.0005406123850347743 -0.0003977536707335294)
(-7.783367242971279e-06 6.731298668101539e-06 1.285567981649243e-05)
(0.0008152842812536698 0.001020837750100531 9.53891487993081e-05)
(-1.945312120506387e-05 6.891288949525068e-06 1.767201559498135e-05)
(7.581862911814431e-05 -7.24345381129833e-05 2.418403298772582e-06)
(-3.586798957905612e-05 -3.051851503758407e-06 3.43762167632125e-05)
(-2.673478902922795e-05 5.397110285291507e-06 8.5589425970707e-05)
(0.0008446932415696017 -0.00079489526622262 -0.001796831698963857)
(2.011393536627632e-05 -2.23206527923943e-07 -4.824597522849973e-06)
(-3.394693611770485e-07 2.142382292875554e-05 -4.408435000952952e-05)
(2.661096299864745e-06 5.902057984888924e-06 -2.997780429156473e-06)
(-1.562415911301267e-05 9.410945954283134e-05 0.0001015547679703005)
(0.0003338684218852242 -0.0001960354472925179 2.549179832493614e-05)
(7.627642335504235e-05 -0.0001312284702470789 -0.0002194290688939562)
(-1.291821461042848e-05 -6.354911054501128e-05 -2.174872409041902e-06)
(2.376898878960526e-05 -1.879936005253196e-06 0.0001575922066158436)
(0.0001046153964727686 -8.990172291181872e-05 -6.667680382215803e-05)
(-0.0006139176186581922 0.0004383372455352789 0.0003319433892222818)
(-0.002400889904538752 -0.001000880354005429 -0.001140912536160435)
(9.735186714793875e-06 1.996602887001105e-06 -4.28739304046655e-06)
(0.0001580941450190559 2.057043374919086e-05 0.0001100547907051545)
(0.0001234196668766048 7.954912360404369e-05 -4.183487057524725e-05)
(1.10401801941757e-05 2.013240722328825e-06 1.270375183938067e-05)
(-1.560714145028716e-05 -2.974590564351613e-06 1.422388208891463e-05)
(-7.071204406758259e-06 -6.768656649989526e-06 -2.435479068867719e-06)
(-5.724532929914192e-05 -0.000574643879978897 -0.0005928907955457951)
(4.505201227108105e-05 1.309511727173526e-05 -2.857512299775194e-05)
(-1.677184737525431e-06 2.856526180583433e-06 -5.229252700591271e-07)
(-6.188917326687458e-06 -7.198594837781311e-06 1.048922393978052e-06)
(-2.192092692053377e-06 1.30242509475198e-06 -1.503170166750098e-05)
(0.0001526649547571866 -0.000109973648850631 0.0005763679789867271)
(1.155825229216294e-05 -2.448201806275591e-06 -7.028637277500179e-06)
(-7.828552392929402e-05 0.0001348297901001948 2.042140840197658e-05)
(9.120185332356787e-06 1.813818178065832e-05 -4.138033573669761e-05)
(-3.163252654898406e-06 -1.697189083406316e-05 -3.550249710948723e-06)
(-1.119200153903103e-05 1.157020244138344e-06 -7.535784542011354e-06)
(1.948443777471862e-05 -2.609111018075959e-05 2.175163987019759e-05)
(4.783149209941055e-06 1.081965889399813e-05 1.452448989193738e-05)
(6.716385704126913e-06 -7.949703425629425e-08 -2.240742799478234e-05)
(-1.108930481998607e-05 8.30272192903488e-06 -4.819423086537159e-06)
(-0.0001818945515181108 -3.461456426582636e-06 0.0001758716619639536)
(8.509213945930017e-06 -1.672890667986813e-05 1.150079055538212e-05)
(1.061938891333403e-05 8.907229888163976e-08 6.152553890735927e-06)
(6.349175421310829e-06 -1.473877557779764e-05 -2.048253682444133e-05)
(9.878499408712915e-06 -2.13049762260663e-06 -1.3674502559839e-06)
(9.835589699813904e-06 -3.96502220987084e-05 6.440980426589913e-05)
(6.958859967829275e-05 6.703437967061664e-06 2.459116668919108e-05)
(4.082754970884748e-06 9.675743099673681e-07 1.96046123531221e-08)
(-0.0009267994062422259 0.0007287095151925177 -5.10875866923861e-05)
(-1.00076875469348e-06 -0.0001072430474213744 0.0001598491571972931)
(-5.891441907576278e-05 -4.62296949495128e-06 6.091119653369018e-06)
(8.532236964504104e-05 6.602900129236729e-07 6.956244210950385e-06)
(2.971291910884664e-05 -3.31736375311276e-05 -7.892666434791057e-06)
(-3.783384111736769e-05 0.0002094078543223942 -2.498520535505774e-05)
(-4.340946029979308e-06 -3.725938055922309e-06 3.272896788829213e-06)
(-6.474638317560418e-06 -6.058239205106376e-06 -6.427898163375467e-05)
(-2.16158606764118e-05 -1.898759980520125e-05 -3.4286358874524e-05)
(-1.508829019132461e-05 1.008411230051707e-06 6.448418480826006e-06)
(-3.041709849889575e-05 1.438130631533159e-06 7.674878093641842e-06)
(5.456173178966417e-06 5.365622721956365e-06 -3.520704190439269e-06)
(-9.788038074045576e-05 6.40870830893133e-05 -1.40743171025601e-05)
(0.0003142605340885236 -0.0001496844683281832 1.708791570749491e-05)
(5.233557678841319e-06 3.28109251129009e-06 9.751778249413326e-06)
(7.405367658325676e-05 -0.0001010260457891439 7.781528245474268e-07)
(-1.482440434286232e-05 6.136132349000468e-05 -4.13324545893914e-05)
(1.579208605927002e-05 1.057892805490412e-05 2.099795631135663e-06)
(-8.269882443081509e-06 -1.47869489619368e-05 1.099437332214061e-05)
(-5.546581733898943e-06 4.855282051411402e-06 6.621248839887784e-06)
(-0.0001864235248790877 -5.548984603693857e-05 -0.0003684513408796514)
(4.944100090781041e-07 5.995174110508738e-06 1.548662352217316e-05)
(-0.0001580585423561193 3.638758230133131e-05 -0.0005290593130139989)
(-6.170066647277583e-05 4.62412561287895e-05 1.502491812108047e-07)
(-1.514030105282697e-05 2.437627515022364e-05 6.050408232490936e-05)
(-3.850769416577694e-05 4.544289121835573e-05 -6.549695756646386e-05)
(6.189916903650713e-06 1.018872920444693e-05 1.2570215824931e-05)
(-2.0039746937478e-05 -6.170486103042522e-06 6.69442533515554e-06)
(-7.614568614767806e-06 4.321602350192795e-06 3.283852537686142e-06)
(3.594901074349959e-05 -2.596538307129246e-07 7.222861239262518e-06)
(-0.0001397602318922314 9.767987432801687e-05 4.671347750439512e-06)
(-0.0002270963502437994 -4.340567871857762e-05 -3.13590529082671e-06)
(3.319231872417265e-06 2.017149366770553e-05 -1.474487356598521e-05)
(-6.64586485616814e-05 2.796560006458166e-06 3.147285368780352e-06)
(2.410690557889138e-05 -4.095546100615604e-05 -3.901913990766201e-05)
(7.526334515366261e-06 1.859491413195147e-05 -3.138097214464798e-05)
(0.001061692835636163 -5.322172165356199e-05 -0.0007124203251566168)
(-3.85019280841491e-07 3.504754679827198e-05 2.836025030202003e-06)
(9.881097103530384e-06 -4.693585799015837e-06 -9.820292663772563e-07)
(-3.895630679205851e-07 2.24448523327537e-06 1.718447489145832e-06)
(7.697904019055753e-05 6.927055989457896e-05 7.220872134359855e-05)
(-2.457580048034191e-05 8.741847981927494e-06 1.831791928497836e-05)
(6.594401161166668e-06 -4.637377569473326e-05 -6.451562220357912e-06)
(5.424118530390206e-06 -2.376098621526319e-05 -1.233528566346498e-05)
(3.678379346061509e-05 4.196528645660206e-06 -3.070778404966406e-06)
(0.0004872049209166193 0.0005002532610511254 2.242243278632257e-05)
(2.335412015416324e-05 -3.444828910432482e-05 3.349784088055453e-05)
(-5.103023929628447e-05 -3.395130755127543e-06 -1.17440982940645e-05)
(9.771970785643792e-07 -1.453685799264184e-05 1.651144733884306e-05)
(-3.04426105883827e-05 -7.824387908123058e-05 3.889740868496162e-05)
(3.2200867030946e-05 1.057066295965193e-05 -2.529921401896413e-05)
(-1.96546676990778e-06 -1.281271668719252e-05 -4.386724003041481e-06)
(-0.0006421186518644197 -0.0003587813286441652 -3.392077066649308e-06)
(1.025691546229361e-05 -3.079708779089038e-05 7.289705024812949e-06)
(3.946805313975254e-05 -4.463569070699509e-05 4.455523823291845e-06)
(0.00053837612755079 0.0003931028590644967 0.0008470566434678147)
(7.80648402201338e-06 -2.771397925078081e-06 1.133985894790664e-05)
(0.0006476888161195197 0.0004341374937952177 -0.0006663792661774312)
(2.778168596561772e-05 -2.57378197098689e-05 -1.161786573114759e-06)
(-1.226458433139143e-05 0.0001093251207412223 -1.38999927028074e-05)
(-3.079210684299684e-05 1.442963694635664e-06 -1.342545842237292e-05)
(0.00132276280917532 -0.00352886434083019 -0.0009264126089909368)
(0.0001005400031779585 6.520500933799088e-05 4.858613885249154e-05)
(-0.00057161425319132 -0.0004989057996278941 0.001420040131728508)
(-3.184200491819704e-05 2.286779192352456e-05 -1.55713944259752e-05)
(0.0006949773898843039 -0.0004759384953471143 4.4551242668172e-05)
(-2.537350766861424e-05 1.583437847171296e-06 -5.317726876297243e-05)
(0.0002310853569203801 -0.002156817086752806 -0.0002716820994810591)
(4.109478234454185e-05 1.58043927641294e-05 -3.371709240858079e-06)
(0.0001567309602940449 5.620214583151314e-05 1.830825364839911e-06)
(1.256330238091342e-05 -2.877268398208767e-06 2.221722541351864e-05)
(9.554940853205173e-06 1.053226473737716e-05 -6.144735290253299e-06)
(0.000328219363094198 -0.000547111418307007 6.873078287217659e-05)
(0.0005591813301840319 -0.0001375902711820454 0.0001383879181053988)
(-0.0003919796079453704 3.434547534776288e-05 -0.0007566452069668048)
(2.068117501823602e-05 -5.464205289381041e-05 -0.0001360489245512156)
(4.381962061881825e-06 -1.276951377549755e-06 4.664338910828151e-06)
(-1.978255760681169e-05 2.256911023443625e-06 2.015343870457776e-05)
(-2.04033513797839e-07 -1.005938496889177e-05 -1.949107863866963e-06)
(2.607497927212174e-05 -2.352738566716226e-06 -1.355306749602662e-06)
(-5.266920793259078e-05 0.000119353204794497 -2.223976624170885e-05)
(-1.292657151430762e-05 -3.364795136742831e-06 -3.327226329091287e-05)
(-6.04346491027557e-07 1.274305804756992e-05 -1.173285014921273e-05)
(-8.153646126939934e-06 6.644397095412459e-06 1.649388075921227e-06)
(-1.579295185516976e-05 -2.697578031519787e-06 1.256359349642599e-05)
(-1.127654513490121e-06 3.230997321518699e-06 3.902684543707634e-06)
(7.291210493860733e-05 -1.257597285831002e-05 0.0005569939925781982)
(1.187233248676472e-05 3.598674728904263e-06 2.661733690051137e-06)
(-2.323177893061629e-05 -3.534383303887023e-06 -7.919482968366631e-06)
(-9.002516210131565e-06 8.083316056759761e-05 -4.690527724632474e-05)
(7.374975686931429e-06 -1.194116310484382e-06 -2.697167267198355e-06)
(-7.672683372182999e-05 -0.0001095766791073315 0.0002172743037687992)
(2.822353122556071e-05 -0.0001049584301241971 -5.156032018292017e-06)
(2.565339897023157e-06 1.643043498369825e-07 -1.070301978104081e-05)
(9.375884864067526e-05 2.940024170728247e-05 1.562072308935922e-05)
(9.105126093157959e-05 0.0002350135805596494 -6.652192722604266e-05)
(1.563866717914544e-07 1.628412330263029e-06 -6.649661999786967e-06)
(-4.734062983478894e-06 3.181611318295641e-06 -7.68342469050349e-06)
(1.536605379834284e-05 -7.175657704205908e-05 -8.769844740815417e-05)
(-4.513631931708958e-05 3.200943131976391e-05 1.012967263505746e-05)
(3.440813526639931e-06 -8.873607465545621e-07 -1.447372478858547e-06)
(6.694935544952147e-05 0.0001012550554623165 0.0002541467539474571)
(4.208967195587286e-06 5.145884972890095e-05 3.580494987313603e-06)
(-3.770965159768096e-05 1.977928377281702e-05 -1.819773877948451e-05)
(7.299514449817841e-06 7.1771883055976e-05 -0.0002533228933367869)
(-0.0002552757041667311 0.0001128522627853764 -0.0001355420133832674)
(1.389143887079551e-06 6.081377655740802e-06 -2.027369424597371e-05)
(0.00123835763635055 0.0001486725067006351 -5.660750985127082e-06)
(-0.0001969788100553473 -2.778852041532983e-06 6.998337720467312e-05)
(8.391909211165905e-06 2.336982159487304e-06 1.690019309574561e-06)
(2.130916050041545e-05 8.060852881111679e-05 -3.141988544722794e-06)
(0.001017985551067354 -0.0008785052243585748 -0.000246372805170067)
(0.0001446787355751771 0.0001438455863419379 -0.0001740992324740819)
(0.0001457327098161499 0.0003899346771168666 9.073591934254914e-06)
(0.0125969598742221 -0.005349504027188113 0.005234689472835129)
(0.0002729736173885814 -2.419539110394057e-05 0.0002555906497071965)
(6.926243664854259e-05 0.0002465076531762545 0.0001883123232881596)
(0.0001339902747217183 -0.0001230053742307726 2.332192382953788e-05)
(-1.474202075968184e-05 -6.069131290916286e-05 -6.832091303700318e-05)
(7.173545080483311e-05 -6.686420828178866e-05 -4.0206286497048e-05)
(0.000130215791780823 8.86603896296352e-05 -0.0001259804204410222)
(6.946316150368061e-06 1.753484497593539e-06 -6.907815494117125e-05)
(-0.0002523982681510636 4.354851444383266e-06 1.172542075213078e-05)
(-2.463497142032446e-05 6.900424323702234e-05 4.558152604905754e-06)
(-4.736933592445372e-06 7.269437993511034e-06 2.068063879419628e-06)
(-1.129322976886028e-05 2.086685568127524e-06 -7.654034500395443e-06)
(0.000236786600381118 -6.630309955634096e-05 5.740248856617504e-06)
(-0.0002264456531537486 -8.529581293481741e-05 -0.0001957920405809296)
(-1.963281366230503e-05 1.99451645395867e-06 -2.162892735728023e-06)
(2.656497130152827e-05 0.0002037896874944654 0.0003279743436484921)
(2.267541156509572e-06 -3.439496119310501e-06 -9.619618051002496e-06)
(0.003055637686321395 0.0002434679355297082 -0.003264954941305007)
(4.210703932613582e-06 -1.062823795482174e-05 -2.230765510705106e-06)
(2.060975544935662e-05 -5.639506260038052e-05 2.182179135198669e-05)
(-0.0001139841256427554 0.0003632589782308947 -0.0001344644681675376)
(-2.170422477850305e-05 3.616947777903412e-06 -9.156884203669311e-06)
(1.987745694834983e-05 3.011502924618396e-05 1.193557844077261e-05)
(5.380191249105382e-05 0.0002525335271262795 0.0005990647744903011)
(-7.508520013672324e-05 8.10658591388057e-05 -5.954137235146683e-05)
(-6.843393425248051e-05 0.0006852715724210551 -0.0005419304356423757)
(1.058435102505354e-05 3.417157261636463e-06 2.337518706297624e-06)
(2.778142091105313e-05 6.758425079501191e-05 -2.558146021674798e-05)
(0.0001533775034623228 3.02497920995851e-06 0.0001402812096412301)
(-5.295844564847708e-05 -2.701661808659437e-06 -5.993012901004081e-05)
(-2.382150489484202e-05 -2.451345503390455e-05 -1.03815424256666e-05)
(-2.814949728878365e-05 0.0001580753876294363 3.700525105960679e-05)
(-1.314220666489512e-05 4.408453879387427e-06 1.081453892708342e-06)
(-1.022638420771532e-05 -4.653824528684232e-06 9.978539628909777e-06)
(4.376861622547175e-05 -1.897622342608059e-05 5.094694163720185e-05)
(-3.079081674011827e-06 -4.570867740015386e-07 -8.601370427093455e-06)
(-3.18466511423265e-06 -2.928865831623853e-07 2.959573642390687e-06)
(-2.061611292376199e-06 -2.083144184614167e-05 9.605126771913788e-06)
(-6.852422018871659e-05 -3.993981924203855e-05 -6.198215355571684e-06)
(-1.728754324345226e-05 -3.359485423686087e-05 5.651326642500965e-06)
(-7.087700507760604e-05 5.161208853795351e-05 -2.909477361454171e-05)
(-1.384881237119889e-05 2.190931139829952e-06 -5.944941847104317e-06)
(6.182721595385081e-06 1.081627922014214e-05 -1.45916024187682e-05)
(-8.021835042019957e-05 3.849246179154343e-05 -4.190628529091246e-06)
(-4.824918749778031e-05 -2.197412011268733e-06 0.0001055227748642885)
(7.809264778287383e-05 4.942046115405063e-08 0.0001997017155411674)
(-4.449065172962532e-06 4.063675522573492e-06 -0.0001214731763920723)
(4.149255327232666e-06 -2.993845838112439e-06 -1.545450860048325e-05)
(9.685721830977707e-06 -1.162049556224363e-05 4.951648791403397e-06)
(-1.85632080627966e-05 8.133366121186479e-06 1.043240073497086e-05)
(2.535147111686563e-05 3.391614444358423e-06 3.675895252878899e-05)
(7.778675218076713e-07 -2.100221979954549e-06 9.830144371590962e-07)
(-8.337143189961653e-06 -2.826166442534405e-05 1.743063065463255e-05)
(-5.501505477869412e-05 -6.192104946928581e-06 -6.484501770311532e-06)
(4.705618973102094e-06 1.817407118794463e-06 5.223822100927144e-06)
(3.720685786414903e-05 5.182478735616083e-05 -7.215847631990899e-06)
(-7.720034546910946e-06 2.365900532515585e-06 1.627832005434302e-06)
(2.790632849446014e-05 -1.537271625721425e-05 1.57980977473995e-05)
(1.993713165887814e-05 -1.902906423155486e-05 -1.029089065259879e-06)
(1.24322932623912e-06 1.447315260835482e-06 1.338002717475426e-05)
(-3.202405139119115e-06 1.043274181735622e-05 -1.374865994756677e-05)
(-1.480189354116698e-05 7.621819260877749e-06 1.856724794264092e-05)
(-6.891694632789108e-05 2.6925407430844e-05 4.26004885216174e-05)
(-7.316321534245958e-05 2.16665357853696e-05 -1.72208225864346e-05)
(-8.453295209908424e-06 -6.317535602584985e-07 8.166198681598114e-07)
(-0.0003365748893500217 -6.666205322288215e-05 -4.395854913680737e-05)
(3.806225434548315e-05 3.663484937936825e-05 -0.0001344826762370268)
(4.210035519766444e-05 7.554689747419064e-05 -8.067587685346578e-05)
(-1.87047890801159e-05 1.080115569387203e-05 -4.933579909001303e-05)
(6.99624376544619e-05 -5.118066004169873e-05 2.701249649015858e-05)
(7.751467383667326e-06 2.619032466256048e-05 3.037311750053831e-05)
(1.513785759110698e-05 -2.020695967404843e-05 -2.627904486691796e-05)
(-7.024939593758836e-05 -4.184893321466898e-05 9.999222234138595e-06)
(-2.543433694154045e-05 2.031749405129013e-06 -2.198841718248614e-05)
(3.060863188765084e-05 2.285741202093014e-05 6.356963649928426e-06)
(0.0001134344542473375 0.0005372433294345883 0.0003219396723476483)
(-1.388535641542327e-06 5.304617636571855e-06 1.448267877589214e-06)
(-4.817584178634005e-05 0.0002919537776044694 -0.0005192198187180413)
(4.766043722100917e-05 1.117801702606246e-05 6.070014588613934e-05)
(-0.0001092711711708262 -2.716146302651737e-05 -4.335124283229423e-05)
(-6.744284050007554e-05 -1.472885046080811e-05 9.108133444569362e-05)
(-4.507549027489907e-06 7.722545331808944e-06 -5.438852111375101e-07)
(1.354964576367544e-05 2.720509435421156e-06 4.043760038588215e-06)
(-4.721435696677344e-06 -3.826877262162661e-06 -6.56902067330677e-06)
(-9.628738455787455e-06 -3.356654473507979e-05 1.614127362533626e-06)
(-7.021818032853639e-06 -2.003192301358765e-05 5.915837047266879e-06)
(-2.018548789602337e-06 -1.746408665073142e-05 -0.0003121160071453961)
(-9.578457431985955e-06 2.033505165129946e-06 -1.197110281802757e-05)
(2.272099320917686e-05 -7.364422650366363e-05 6.221865960223303e-05)
(7.557756365687841e-05 1.204915493387845e-05 -0.0001266651248118409)
(1.260709538036383e-06 -0.000177725029945496 0.0001468835454874865)
(-1.915753726658826e-05 -1.554698072913777e-05 -3.038171102254957e-06)
(-1.547774884393779e-05 2.208038207192984e-07 2.917874734458975e-06)
(1.402930970611509e-05 1.237850551587132e-05 1.632538796145191e-05)
(2.816353607953262e-06 -9.156981433145058e-06 -2.698757638735348e-06)
(3.159662709261914e-05 -2.628874563228049e-05 -7.850775016553159e-06)
(-2.011743684119192e-05 2.109892467615346e-05 -3.674212331143909e-05)
(5.872480471331718e-06 -5.958752557346402e-06 -1.376289645025943e-05)
(-4.400695659372632e-05 6.535873964587561e-05 1.963900700073068e-06)
(3.541994686439277e-06 -8.229652009653894e-06 -1.731604897240611e-05)
(-2.47077182892038e-05 2.190444470942975e-05 -9.863873235445417e-06)
(1.533965636868215e-05 -4.844331444043004e-06 8.760579518370147e-07)