/*--------------------------------*- C++ -*----------------------------------*\
| =========                 |                                                 |
| \\      /  F ield         | OpenFOAM: The Open Source CFD Toolbox           |
|  \\    /   O peration     | Version:  v1906                                 |
|   \\  /    A nd           | Web:      www.OpenFOAM.com                      |
|    \\/     M anipulation  |                                                 |
\*---------------------------------------------------------------------------*/
FoamFile
{
    version     2.0;
    format      ascii;
    class       volScalarField;
    location    "1.3";
    object      p;
}
// * * * * * * * * * * * * * * * * * * * * * * * * * * * * * * * * * * * * * //

dimensions      [0 2 -2 0 0 0 0];


internalField   nonuniform List<scalar> 
78526
(
-0.03006309911998737
0.01837490933646579
0.06618780013329247
0.0283023769417895
0.03172707397797548
0.026107954613517
-0.739428164229367
0.1334130641897145
-0.08611805568457422
0.008253147595014115
-0.2710997991452113
0.2063581086519227
0.1824539838528771
0.4000213448539551
0.09237569384203423
0.01970077271733373
0.05565828311234709
0.05329940358963867
0.09015107297868789
-3.200667350071787
-0.3984401604895741
-0.5836689166305695
0.06520110450490528
0.04709337926689032
0.06077049759876743
0.05938323092677129
0.03868620162938292
0.03105027313802453
0.06373523794938769
-0.01212315154412502
-0.129624140830032
0.0663527748020158
-0.2081099817092838
0.01600652085949664
0.02112329658885363
0.1509313893353963
-0.42324071772357
0.02219286753975413
0.02588160041761163
0.01477709931606922
-0.09650440024283523
0.02886454928343806
0.07385978801748365
0.04522457850454581
0.02083336257169803
0.02047046255245179
0.4924626336819276
0.01958269959090379
0.01369625539755901
0.08747781186817589
0.102724108405075
0.05240706254301838
-0.7142068678327204
0.1091330801660437
-0.004192569954796607
-0.8849064606040303
-0.1263140205332257
-1.043169076936604
-0.2789268682042883
-0.3289153425652253
0.0004432942585729209
0.02043950149700705
0.04198601881503707
0.03962411366522393
0.001453521251241521
0.01151666915299842
0.006128894470723231
-0.07978296647234225
0.03329885267525147
-1.081299122190892
0.1116137727370269
0.2600636218496319
-0.2702245615000914
-0.145725716163077
0.03123995396140533
-0.2590828208136728
0.03870750355670347
-0.1311894904417321
0.05596475635059118
0.05213938298203389
0.04364444837960105
0.01708440102603738
-0.003129644186555304
0.1169668090746588
-0.05992423415705189
0.02287352444950603
-0.3304281627799925
-0.8508386057580516
0.01474977768085737
0.01671394767029035
0.004451472439270759
-0.2530298105359746
0.02275340169178216
0.01647874492231632
0.02929801040124995
-0.004671292351497729
0.03046392626247111
0.03818679011306826
-0.09075467348212471
0.03515823572156958
-0.0981257369352511
-0.09567384454816732
0.019965118160781
-0.9372189425524223
0.01384091154874533
0.03614200596394213
-0.7002616261893136
0.08157006480624664
0.02482480334724331
-0.7856591441984114
-0.05211456008403968
0.06670716103263447
-0.0153393014018
-0.2575471971750179
-0.2076664155364282
-1.809825474715314
0.02563636302830794
0.04487952071677606
-0.06863791207850244
0.06143443512922975
0.002121877117924614
0.2978156049483106
2.353978930384836
0.06801052799166239
0.08794445563796936
0.03920938076489926
0.01642208125277027
0.01794528892474405
0.04127712832961072
-0.06155145096267592
-0.3137088931785486
0.033541577053218
-0.2229579299571879
-0.06247061925210483
0.08513174956757312
0.02863105647220633
-0.9348607809883271
0.01176154500846
0.02284107032634184
0.03143429669289399
-0.07665515185919801
0.0786597058192287
-0.332091238817177
0.06138833277432568
0.03293430885581256
-0.8286860884002786
-0.1349853293340506
-0.07831737303275711
0.05316876811908628
0.07051963886159796
0.01648821109415293
-0.002978026435110427
0.4094512672262721
0.03237860924854337
-0.0316025471777649
0.04111216240817206
0.007473408184959871
0.02261390135138601
-0.002278943600995649
-0.2569271692397273
0.06200821886583317
-0.2915842169404858
-0.01437962302206749
0.02541389263511539
0.0198520521126723
0.01939417088207364
0.02138614249758152
0.03506371567271912
0.02099119576697968
0.0905404934854053
0.01047095011216334
0.04045160205666213
-0.01862453461803808
-0.26209283007253
-0.5247359396922715
0.02020154138001905
0.05707210213302879
0.06822160268834684
0.02984093277340241
0.01056628735334793
0.04757371243369598
-0.08848962982166296
-0.09538260093224984
0.09599265800142717
-0.05719960140080313
0.1443976599538233
0.1377135603447927
-0.01753747396179911
-0.01940622390861356
1.96052374817141
-0.1803562327814459
-0.1887502602315151
-0.0146541311879276
3.052465287196936
0.01766334933982545
0.1333484987292471
-0.1254111785239457
0.3110891752231625
-0.3785451945268228
0.0639917001120274
-1.189322196577568
0.01963416585931773
0.04302242022437056
0.02923604892995765
0.02772489877084377
0.01521775781695349
-0.1717952746198952
-0.4659966240754407
-1.172437223342091
0.0552259695516471
0.04546248156528303
0.04658550421387207
-0.9892018327304289
-1.560575900346937
-1.081581095706928
0.03920109700161467
0.0257544678407367
0.00998208023880098
-1.547333742522601
-0.1156847884800302
-0.2370524541666961
-1.732982813990074
-0.03209738616754545
0.03718055651291317
0.07462177883110807
-0.003083360292825137
-0.05648029007957719
13.20668190448215
0.1164795312738605
-0.09291524725900996
-0.05504418407239722
0.03192163931459675
0.03243248810013871
0.2121462736387916
0.03150669685750223
0.03044907163839919
0.03821754339344896
0.01222110439154966
-0.8754452990188214
-0.3739785317004947
-0.5418116287720766
-0.06109657602075179
-0.273276739965817
-0.02505335238577202
0.03576593994715939
-0.09238518368282224
0.06355874964225007
-0.04026908504843183
-0.1423306257003466
0.05604615003376606
0.06437107187708357
0.03041170068586859
-0.3988721230745504
0.06135491487299623
-0.2124400244306662
-0.3581701927786208
-0.3069423777958863
-0.1392333180665421
-0.0145916859706203
0.02685015087990911
0.0444405288260687
-0.4990634444513209
0.07144099783578188
0.3706785524978086
0.08032257919894689
0.01977918892987257
-0.2198348989735587
0.02083720901700695
-0.03722149985018815
-0.367495339280883
0.06930717264407088
-0.8970681243378215
0.02259872403216861
-0.01760269440950603
0.02431525352784325
0.009186569554440572
-0.2931313497594583
-1.359995478120649
0.09718657759199512
0.04033290795305382
0.06433859605970606
0.03599025152922805
0.01614993163011743
-0.6142919291037445
-0.1358398662451219
-0.2539530360008217
-0.4689403306738849
0.03594961747083927
0.02045502476607933
-0.1358183954923198
0.001561153985844245
0.01529204558674719
-0.3820077794585853
0.05982119234898211
-0.6064032645723243
-0.0001458645709304834
-0.03532004364337486
-0.5983986500138435
-0.05519864402795198
-0.904021997650081
0.06693772239421958
0.03123870739185626
-0.02573957652852565
0.03861053104596004
-0.2178472047931233
-0.8641470863561279
-0.2229295903527502
0.01511072633505697
-0.04652824947467065
-0.0009016103100726571
-0.2282667986622206
0.03967922807582019
0.02072974533246601
0.01126670996740776
0.01228844730063384
0.006176815980673063
-0.2821122069283964
-0.01874379788522278
-0.3771866158786127
0.01477005049759099
-0.1803668835433263
0.02020280883198552
0.4910132137429243
-0.002873068698588096
0.1255366777887449
0.03698005640370153
-0.2435280810778134
0.03642587618773068
0.6023791197324613
0.02304521331367343
0.03782966168873258
0.03135642564218326
0.02462572140346091
-0.03997687612720027
0.05756126180996762
0.08713352630686173
0.003567342373526346
1.916068434619697
-0.06102378953527626
0.02440365158663355
0.03854169955967005
0.1792773493754347
0.07854772628086666
-0.228256454174432
0.0003293823681910512
-0.3162724140208981
-0.2527534682524642
0.03045332756837152
-0.3700430439327382
0.01813586914208467
-0.1556805088897109
-0.0160995243100761
0.1168371453241171
-0.2942824946661911
0.02465473298366697
-0.3463925935546714
0.3251348961478701
0.02028923230845558
0.04663373602392428
0.04824774355873661
0.04693393850589164
-0.0867236707784229
-0.1630178173961447
0.08809800342239316
0.1046938892547176
0.06908814236986933
-0.09410658744453121
0.01891993365761694
-0.01801765263156918
-0.6014512412872978
0.3557562792617103
0.037166994667959
-0.05002403319513919
-0.2908729897101581
-1.599569892098549
-0.01184688926529606
0.2722948048590781
-0.004118996204490114
0.2480448947695811
0.007778215023466122
-0.5935053497544549
0.007935623347771703
-0.4133801355771695
-0.05492823286025035
0.5356534787713131
-2.093084061456624
0.4738460216535325
0.03381576188796963
0.105286211162212
-0.6516914309892189
-0.9658283469502309
-0.3394970586402578
0.03011974962611818
-0.06129816073720374
-0.01373728952754306
-0.2898134562298089
-0.06842514492015617
0.01598790498643469
-0.01619062210106369
-0.1250846546888364
-0.1396357386187926
-0.603369789766099
0.04410792059342714
0.1008463949952353
0.07436759996344072
-0.4138578500009927
-0.3937378297338688
-0.1679581012648123
-0.2429928309061567
-0.2695282969541472
-0.1679891152408011
0.06228734718546066
-2.189215642721382
0.0213232794766089
0.0296914511821751
-0.0971125662532918
-0.2437583746158406
-0.3031750498285166
0.03667844111864823
-0.1453873213777553
0.1539603203503767
-0.1968404745857369
0.015673670346503
-0.186762010722392
-0.8236448145947164
-1.303178744520186
-0.1360930014042351
0.00697331460462623
-1.226913910991175
-0.3893414864479265
-0.02104104078680825
-0.01730339593120412
-0.03923479093198311
0.03180321708597921
-0.4990286639974685
-1.370843490262203
-0.0714806742211799
-0.5807106110848131
-0.4794511841985245
-0.3279750431777994
-0.2208097175637615
-0.2365686280625276
-0.1116990874187598
-0.2202208867727278
-0.05380324163431077
0.01811213793264562
-0.7199477176263341
-0.4303299792149159
1.43619272089687
-1.142801257659961
-0.2330337458005755
0.03432245656145212
-0.2323057139688144
-0.3293092814038499
-0.4326697446016217
-0.0003206510675942145
0.2317244175781732
-0.9049628634371628
0.0294184548147957
0.003382908066095291
-0.4867055790127654
0.02283735206582164
0.7799396022115509
-0.1087091661647196
-0.5222131241388123
0.009695057831969082
-0.4436954417391349
0.1514006949711077
-0.3228482522273692
-0.7357893251926807
-0.9911103400771814
-0.6275912108451611
0.01587429918657062
-0.079222968260496
0.01255902759806666
0.02095575309103838
0.05236212054427346
-0.005781476340492668
0.1174945339707958
-1.084532038924089
-0.4356214218801015
-0.2899895776860485
-0.6928210793756759
0.01213295019537664
-0.3113390996928492
-0.508227040503898
-0.2481577885955808
-0.2406987092460744
-0.3154720053578571
-0.2980668362466969
-0.0173212755372205
-1.645235756979506
-0.2741848641507111
-0.2192615466068187
-0.3505415682461283
-0.6006230764967349
0.01193993724911653
0.1128415017979953
-0.04065684302603971
0.4581218063911353
0.02303403296850929
-0.2590772287103054
0.099550235878985
0.008942719987401463
0.02682361485668637
-0.04125401307532287
0.7785077136517869
-0.1161005123299516
-0.0354644589366079
0.02625585977222489
-0.5423581876848304
0.01879478217025335
0.01585310823602779
-0.2136689302032452
0.02621781894245436
0.03064968557123177
-0.01164495914898372
-0.4098404858979295
0.05131900820658151
-0.1948434341120056
0.05633090501239664
0.01312415801456609
-0.06672691779905927
-1.613388396747057
-0.09817369470291953
-0.01800168519063224
-0.08974796409820547
-1.651092356249156
-1.067924039792171
-0.6070907187566305
-0.1543438819672165
0.03215799434970633
-0.1627750808539825
-0.1158373141599413
-1.530047729064465
-0.4939750837688047
-0.3628038777302021
-0.03740753047940622
0.09021771991938571
-0.4245338357986244
0.05840978757368408
-0.1001760843309674
0.1401864550975425
0.01623325158339189
-0.4145288983858645
0.002295028488200387
-0.04493651904773622
0.002817903242110703
0.05619761878675714
-0.5906719861968468
-0.007219058545419622
-0.9905921921128333
-1.113179510114046
0.05864824440950656
0.00959869052455394
-0.5313867654820824
-0.07635888443520086
0.08200405112315096
0.04474076843779271
-0.06955661289861159
0.09183580215822632
-3.436149847151827
-0.3217747327419003
0.3811175564124449
0.02651792144639062
-0.5056650586953813
0.03236819583103624
0.07030640307580276
-1.024278595771138
-3.656492352244014
0.01455662436164521
0.07452215478354512
-1.212330919748237
-1.79671878811445
-0.8794887801785404
-0.07907407175665214
-3.293158882895767
-0.164101548251212
-1.325513765409281
0.01523366821327032
0.097873028459914
0.07079721636753519
0.02839986632592284
0.08166001465270643
0.0216584267211286
0.02159500011354769
0.02065790963903572
0.2180157525853443
0.04998570139833199
0.02234025574530468
0.01039554871903396
0.03685617007707084
0.1287141793280274
0.1012127909074799
0.04388517140465518
-0.226685202950783
0.01848786477638275
-0.1941701311890796
-0.1715659462483266
-0.0483798666460382
0.01214627105431013
0.009683364948065515
0.01173033212417972
0.03490328949704641
0.05561109179833305
0.02149773617821436
0.02936295026894963
-0.2045289454671468
0.0429216497654237
-0.2218321393231916
-0.1703428328326224
0.02377321476394641
0.01045760717613133
0.002189497136091292
0.130020852923714
0.01609723624771715
0.01190825081583384
0.04346484297056886
0.03258178839717352
0.02202815839933386
0.07080075595274994
0.02037083830823295
-0.1366077458988263
0.1532018115756605
0.0415300517389546
-1.745519056988095
-0.01684472581988325
-2.314922009665315
-2.379708454832032
0.004766492050459639
0.03683003282981624
-2.809373024825536
-1.619030638693287
-0.1253038193433186
0.02618676703743166
0.02943414380921226
0.01250964497818061
0.03348207866334212
0.01550496689492419
-0.07202098115028448
-1.360172349934701
0.02139048774513546
0.03615430813246777
0.01218416219886226
0.01851157038846636
-0.04278106551557333
0.02634751528812363
0.01533238084620072
0.01748389372178984
0.009640928793725989
0.02105441761569098
0.02546712705808526
0.1254879970791805
0.03044106512053156
0.02573681026608053
-0.01502966702884359
-0.1241347237885684
-0.0258005851191552
-0.103666282296721
0.01898490345019069
-0.04516618183421853
0.01648066146332271
0.01453636441669836
0.006608001770765021
-0.3279905430149586
0.0139702139943321
-0.3154976665190628
0.0496022301003486
0.01613144392570596
0.01407906190064609
0.0104930514356679
0.03064371084369865
25.89669197959312
-0.07630672674085598
0.04959071683574975
0.09870333003861508
0.05705855933882582
-0.3427958684444968
0.005819565567172069
0.01293130216549367
0.01821153763132964
0.02050689783779246
-0.1006707815413226
-0.06633767194048253
0.01702487877304428
0.09320621561217045
-0.09436783283074839
0.7381601746252526
-0.09997192621982302
0.005550077038602248
0.03354412660781483
0.01455875793695159
0.100292705548977
0.08413749023445492
0.01459625308170743
-0.01735403209318451
-0.1535199112797511
0.06440123896627201
0.03994593794789903
0.02709244087916637
0.01720873841953707
-0.1263083762685487
0.02373612950573082
-0.2029437254835077
0.01462420740736784
-0.06361624201358484
0.4077243331082454
-0.5208735754620029
0.02871878986060087
0.0322987617912336
0.03237062919636558
0.02786813348328978
0.02067936226244891
-0.9177413748850316
0.01905877295675038
0.0001578003632247536
0.01159745326859202
0.03020941449857504
0.02555721167576845
0.02189622211190762
0.03087081581003733
-0.1943225237763078
0.022571609915154
0.02111744188396842
-0.2814609738716362
-0.6408161217193151
-0.06634063595145459
0.0734508412833509
0.04519192585734703
0.02066449318900622
0.04620690600523699
-0.02062345178192769
0.0225779240530325
0.04815953246873208
0.05499330142054501
-0.02332172823903692
-0.302465602709636
0.009111721398065771
0.007978310751199322
-0.275705138027561
0.01729511538671957
0.01422491687113259
-0.05879684338900348
-0.1363353349177592
0.01074948923372204
0.01381393292724767
-0.007762412687333803
-0.1349887841906098
0.04028872537873779
0.02745989053905107
0.07687604402410063
-0.02401695004709117
0.02933675395206806
0.03676114259446241
-1.181873738499846
0.03765418935966339
0.02914855341165636
0.0182691606006332
-0.170135476304019
0.03343234299534288
0.01927468097121808
0.01719432902495914
0.1277306941251467
-0.2855482758923374
0.04844467132968155
-0.1363369632583413
0.006794514796523808
0.06368041279744578
0.04011315904780306
0.01034776528078438
0.01931078649776172
0.005689552097432557
0.1195005869056926
-0.08487380000587427
0.01619161796074189
-0.4071252939002667
0.02137440134803274
0.04533505850138855
0.03642274543362994
0.05943215305554694
-0.273587090104442
0.04686980824898487
0.0231894180790138
-0.04155914065831723
0.02242904856581946
0.0175498738707548
0.01857683306156678
0.02106340517289765
-0.281110324136152
-0.03770767262596052
0.9282642830501011
-0.3632102041086759
-0.2326894664189517
0.02382100097454554
-0.1897774177463708
0.01921941827441339
0.0252761627127876
-0.02190399161306319
0.02365031855531602
-0.04429961721568496
-0.3040833603287594
0.01267301558004635
0.0009890945607668796
2.007346325247972
-0.0990935636495429
0.09739489577517438
0.02775887962793351
0.05877617373169335
0.02506036048645358
0.02318644330240801
0.05593803645808312
-0.1935687158765857
0.1038468008397049
-0.2003617663858619
0.02717056829390947
0.01573138954590416
0.2146819157900013
0.02296451494470474
-0.3477845462439165
0.02228758638689229
0.0333909026173859
0.02111954378448803
0.1526586424819357
-0.1902421290392387
0.02788843250213834
0.02267723611918636
3.554970020483019
0.03110413192465748
0.07731793298011054
-0.07798088749544402
0.1081596518096802
0.09862650859689558
0.02474234579855481
0.09938393384985826
0.02348348267097026
0.1676700840262344
0.05475753469674271
0.06770244637766711
0.03716298464783455
0.5586497206117954
0.04348430367463148
0.05425760288175255
0.0893141596819039
0.01859239155050382
0.04907399620566365
0.0141459456631715
-0.04134744118748491
0.02192214641809708
0.07459990658543428
0.01652165766522866
0.04869641801693595
0.037267919415064
0.04588512729932016
0.02737916512256711
0.03726879197083834
0.1415295185117167
0.06937104785845001
0.03628014707754308
0.01917705981605586
0.0151471934667502
0.01914151078789154
-0.05152298871854072
0.06877027656720253
-0.07997441972096525
0.08831491530109406
0.08571584233387461
0.03656501885619895
0.08738034852372788
-0.4878030566786802
0.009946449782453843
-0.2745707097872667
-0.2833169648559072
-0.2099728155894846
0.05853712881814772
0.032645123731558
-0.232127550256828
-0.1550178342728057
0.08987016976440566
0.001495250308028945
0.2291341043982744
0.03102194446747152
0.01118790090807963
0.1073198771619225
-0.1769458635596957
-0.3328030814220943
0.01316032305361971
-0.08759521428611632
0.03475861699829518
-0.09661288249062398
0.8925294131739031
0.01931944259140087
-0.2919719259064124
0.006692096477288598
0.4373453535145813
0.01827597331956684
0.3283118704555599
0.02447616296594842
-0.2220984856934864
0.03866932446533495
-0.2792672176938214
-0.2765955360563361
0.01938058407453904
0.2379504927132328
0.01592849948133855
0.09703328394907923
0.02125076740758342
-0.3143924783763452
0.02536838051237441
0.01967404857103042
-0.3497053883389783
-0.004955741160070582
0.01183558573303493
0.05040103538415813
-0.1986914819399946
0.01997932020991954
0.01980823090771409
0.008834748065625401
0.07679952469957071
-0.2303671885220607
0.1785781923414543
0.02023232580000401
0.1128343338005013
0.08204851275644842
0.009107931140633959
0.01076333702012937
-0.3062785040100205
0.1419182166311919
0.01958133380725026
-0.3198212937961794
0.04159849524609251
0.06013591877746706
-0.09296633680499737
-0.1053942758183527
0.2698209816422734
0.009953112722587074
-1.028662298944594
-0.05707469034250132
-0.2510173303425476
0.03514857924437618
0.1228636594166994
0.02620431974703764
-0.07656884766188156
-0.04737424969501876
-0.1758365292618111
-0.1450874755966166
-0.1219441502662189
0.01549079054597581
-0.08158089427398599
0.02577574973908538
0.05559975729953475
0.07110127502189177
-0.1489776782610346
0.04993050748603307
-2.091755189860077
0.009440552886834487
0.03366754809223576
0.15515751768841
-0.08206259014603447
0.05529304385162551
0.02295846097080197
0.03855096663729579
0.05429352598430363
0.066301031751669
0.04678374355292694
0.03781349775058562
0.1328410432855366
0.02397470696402184
0.07531671401634052
-0.04561280080104806
-0.1494032658140131
0.03836569312254193
-2.401515824062924
-0.2517534942221629
-0.3290834483733711
-0.09259090953846856
-0.6349878887915167
0.3080687445258812
0.01590153558293925
-0.238416622494619
-0.1429159922625837
-0.04366129347388792
-1.038465723227272
0.1879153026388273
-0.01934008602359747
0.04052491813407717
-0.02598092994715469
0.1182560948584493
0.0002455074216277359
-0.9630564259934027
0.1017027820435667
-0.004863070023144919
0.0413806932081705
0.002442606189464484
0.002807859729654967
0.03430789885293065
0.1821717934732847
-0.03908977921362582
-0.01916672458253105
-0.1013282598963501
-0.1106987219333106
-0.09399048343769344
0.02603614463496428
-0.0708278693623043
0.3494446810455007
0.06136754629315078
0.0234429942713951
0.01899882799693563
0.01043330761995509
0.03219524504122817
0.01490635674623556
0.005140296279480468
0.001608317623088649
0.02674178408201267
0.008894911470004603
-0.4292354176625281
0.2673088434522655
0.05881026854344096
-0.8170731961118205
0.01358385465225516
-0.6574366940658815
-0.137280805054344
-0.8519047853681515
0.03292203059020406
0.03517411641758868
-0.7435140150421127
-0.09402989322029999
0.01921296554515186
0.01777241629672504
-2.754961887918373
0.02525416775072835
-0.2163712247277476
0.02093646408957475
0.04097896840674192
0.01405055919426423
-0.7465492525962225
0.0139688390282123
-1.294093342066282
0.05725975896180487
-0.06779734551668858
0.02491787240413898
-0.6663420072670259
0.03309117294828044
-0.1047631961744692
0.04316429735080302
-0.07800550174004164
0.03373479063100623
-1.277830040906868
-1.320050102713422
-0.3252954980114306
-0.09165285720454829
-0.1971528987483609
-0.7134487542719677
-1.989868326596395
0.04636750045933021
-1.024698264624608
0.03492322100143813
-1.690265698095625
-4.667151190519348
0.03622869396646104
0.01587096525178025
1.386672059582407
-1.393355527180126
0.01913800726080426
-0.0541920983931511
0.1284011712991735
0.07718207122023307
0.0415339532727753
-0.5896093189597721
-2.201872571606961
0.01676049627816555
0.07182977928931597
0.0877593011606716
0.04166531627018531
0.05610294445853874
-0.1392170338021351
0.03240520165571233
0.292650920654597
-0.1382664548931327
0.1640676437850494
0.002926742347708585
0.007459395318735924
0.07791223144044351
0.01753112904584665
-2.484093091588809
0.0535979293651245
0.0714215983571958
-3.592954523049734
-0.03569698455467119
-0.06949219714934793
0.01520341294295443
0.03194454267909592
-1.2401520582145
-2.218004041542174
-2.055752770900827
-0.02538299619937722
-0.08875215494074597
-0.4089913523432594
-1.32764387290837
0.0268962030530654
-0.009685373871827564
0.2065738400009383
-0.04848662790177798
-0.4494599395651389
-1.574484671576499
-0.4692191382995716
0.1945628355207331
0.02006424576548694
0.01879976891004256
0.3079975253620448
-1.50913573716312
0.07679322537919016
0.02201547942084742
0.02399003646624973
0.02019140604527769
-1.308265663930523
-1.375799149808523
0.01503833618016571
-0.9932242882723171
0.02559794724382432
0.06827459877276311
0.07014142548471576
0.07580992349084224
-0.2363315237185925
0.02122412330159086
-0.01537755667853524
0.09915497848796151
-0.07362206126788898
0.01050492501293285
0.01797270584562337
-0.1919786777336933
-0.1151062325846162
0.005794228518743823
0.05555096181742408
0.01784168803317749
0.0184830019592281
0.08809326723362637
0.02151795170925627
-0.2735935818715512
0.03682010543241944
-0.1375931275514954
0.01447578302098704
0.01260416553115036
-0.3925784747178362
-0.2543794555085439
0.03040453550878363
0.01046412949884648
-0.07657421552671478
-0.4979020762288262
0.01591628638870878
0.0054943395513925
0.03227136934208042
0.02187396757834399
0.01487799264818785
0.02202539745468787
-0.1150717058969569
0.1344838914446753
-0.2050081228791776
0.06062170139475124
0.006777334391578089
0.02126169176965286
0.01913123587748582
0.02699276620408099
-0.6818652481847689
0.03177130295162225
-0.5400835539187715
0.02904940277587664
0.00696705301781727
0.02157069294097943
0.0255400113380818
-1.240984863773357
0.02131276876541253
0.04019171586960747
-0.5306612563118084
0.04363503894914794
-0.02093681522919881
0.02088058555801077
0.3511577985152646
0.02093661792581993
0.01835408767360787
-1.471036585976756
-0.5839497179005647
0.02065709089368335
0.3561417139738714
0.0176796877898376
-0.01048298151908133
0.01836487639622055
0.02438409140881028
0.01388300045649779
0.02071246092683941
0.01810985056390891
0.01374804475047604
0.03945416123201869
0.06644176101610412
0.02596339868682468
-0.3457483826106635
0.01061567467541458
0.03768035463904953
0.02859434409829478
0.009195945129216133
0.03050236068069684
-0.2960237843010141
0.03155902213543556
0.1943574831282821
0.02196451811199203
0.5226534640501551
0.02603446942869731
0.02771206752116202
0.1899181679725565
0.09629926823521173
0.01808035848285408
0.01487633566182809
0.1706747982794404
0.05462350005448222
0.09905225986824931
0.01138881238484492
0.02374012024989767
0.02844758511434173
0.04838750399828463
0.02180000440602686
0.008358803861704192
-0.6471198118509537
0.02953600533292593
0.02708879874014369
-0.06621289135700226
0.1399298337614127
0.01554094070509929
0.02863515592539067
-0.6433449865548472
-0.1188153785221851
0.03469811238650272
0.02229776939454607
0.03252648555289374
0.01527799893904506
0.01616011547742661
0.01643392898543748
0.02272914408315283
0.01427172568894428
0.01669081871114573
0.04588411242292042
0.01997273650757702
0.0602472966143734
0.02230074492419476
-0.09113073036999425
0.02257495847712352
-1.086346664495404
0.05679346835147955
0.05852340411418898
0.01321342635051619
0.02168299941516452
0.02292002919075179
-1.428378728402619
0.03511921035510692
0.01323009233973089
-0.8243478060938967
0.0406749553069635
0.01787735515952098
0.04003776682237421
0.01845097461115433
0.0239817411682861
0.04016454928904364
0.01799651417374052
0.01197686376496239
0.2079237986409561
-0.3841932660030812
0.03468731344187215
0.01802644479507388
0.02413181128076991
0.01213846881048241
0.02426510765640152
0.02658042118535844
0.04048763857901064
0.02761957324777896
0.0123362365791917
0.01878944249926634
0.1068217495202502
1.274944204800907
0.03504966291296315
-0.6135909853909618
-0.3129431535769359
-0.1098992757180895
0.08954814402575764
0.01756438821307522
-0.9616369309480319
0.01836777086825659
0.03876948473861046
0.02964334483478013
0.04301184709475579
0.0158251612559393
-0.5289598543714913
0.7254792368036617
0.03340835635322082
-0.02276478942024967
0.0143213611506021
0.02497274949418331
1.531244477188727
0.1120961713286952
-0.5410036313495202
0.04892558869221519
0.3266038825636652
0.05181186538771397
0.03579074022306775
0.2824242108845648
0.01447690375202288
-0.127335518594032
0.04859207357373035
-0.8787351817784662
-0.2403218604086729
0.03651223852306471
0.06405401440926091
0.279104817254087
0.005617583220183285
0.05308937050578867
0.07073528263598639
0.001718131214761231
0.04031780260925834
0.01092946758185657
0.01875064590793871
0.03214069454577267
0.0349771613344631
0.04383453728638717
0.08031484951679009
-0.006883537582957028
0.04091387948380588
0.09166193049182006
0.02298030921493171
0.03838024900834212
0.04114684328200684
0.01798393777122858
0.02446695134794256
0.03118979441990348
0.03067909094209643
-4.390353289163333
0.02933615718932045
0.01905167702408973
0.01957269956394683
0.008200172026268365
0.009151030170566683
0.03393427217149097
0.01969082250025117
0.03308812558771867
0.01628848217482141
0.01951426964294751
0.1032530811362896
0.04562276098057306
0.02952219239773245
0.02199668027895698
0.01184480885312473
0.02781271418602992
-0.3251336860566896
0.04477668390543744
0.01938288634176131
0.03307097500618383
0.03262912684547021
0.0805541444235343
0.04974214859668164
0.02042273584772191
0.011225803777391
0.01394617268314667
0.02001026439870346
0.2264273091812427
-0.5128614059102745
0.02148028467251164
0.02192782273727351
0.02109121115073002
0.1380777885846835
0.04342144327739209
-0.4671996055097049
0.04713356944035593
0.02095249671344091
0.02192595272490908
0.04371144706360948
0.0223324537119807
0.02219113893874244
0.03825854823698196
-0.6022740884455992
-0.9101278651289285
0.05112695853669211
0.02148247000470989
0.06306808401967014
0.06266962439895397
-0.540621330173696
0.04392085789476039
-0.426541551208555
-0.07564913461547138
0.0771243880019369
0.05212791855382259
0.05253197164952631
0.1848286361237813
0.005126519164436323
0.0001827931495364612
0.01779790272371243
0.03849865696132566
0.06962992884341108
0.02235493868238331
0.02365125342601624
0.03250839690730564
0.05966581970856767
0.03259505477650129
0.0319777422222107
0.03275773168566951
-0.08669382567412021
0.0235583835772351
0.07083542138061483
0.03008641272888705
0.06320549695514727
0.07591857876817068
-0.3093551725484306
0.02816127530510869
-0.008718612000515699
0.03088348336026404
0.03551494810101383
0.03400990483878068
0.06710743637918594
0.03876603844592905
0.07934521275960416
0.01071435457112419
0.08630498705694124
-0.07270454189530254
0.02201175404311383
0.03085912262083781
0.08228779225782672
0.0217551178245368
-0.8023626540914899
0.002926024712484478
0.02285671103832299
-0.3507900116767547
0.0849058055393576
0.02811121864101418
0.1416605855922375
0.0467857145049213
0.1175011513871335
0.01924874464610476
0.01864204111248816
0.08226241392783398
0.06769304290926997
0.1437083827180362
0.008216174903934542
0.07020665670150844
0.03807456676325675
0.03239793774082979
0.0602816353107082
0.07843943673059553
0.05476213961163996
0.02229077399826645
0.01955219346022729
0.002274714112984144
0.03360187655078622
0.08500899394246982
0.08940845885152526
0.01881346979084163
-0.9265459524721659
-0.02505300291020554
0.08465784941201497
-0.2125847651048129
0.0248345764650468
0.03615847658995271
-0.1039650514097554
-0.02268208815374045
0.02226343994143138
0.02108043351612427
0.02731869357283362
0.01761838778258875