/*--------------------------------*- C++ -*----------------------------------*\
| =========                 |                                                 |
| \\      /  F ield         | OpenFOAM: The Open Source CFD Toolbox           |
|  \\    /   O peration     | Version:  v1906                                 |
|   \\  /    A nd           | Web:      www.OpenFOAM.com                      |
|    \\/     M anipulation  |                                                 |
\*---------------------------------------------------------------------------*/
FoamFile
{
    version     2.0;
    format      ascii;
    class       surfaceScalarField;
    location    "1.3";
    object      phi;
}
// * * * * * * * * * * * * * * * * * * * * * * * * * * * * * * * * * * * * * //

dimensions      [0 3 -1 0 0 0 0];
oriented        oriented;


internalField   nonuniform List<scalar> 
153371
(
0.01732946637235901
-0.8086792607636032
-1.449908912747313
2.24125870711013
20.62048803651292
-4.650910049038636
-15.96995900075407
-16.56574918229155
8.228797404143599
-13.28822648122962
21.62517825938215
-0.3776499303776286
0.9989157463127765
-2.77447894190788
2.153213125952123
-5.161937421384248
0.8042714391125524
52.36975940009538
-48.01209341782066
-18.28139266870238
21.92279079632785
-22.79737701008542
19.15597888242821
0.2200065851075676
-0.004049438666910449
-0.04006607070147485
-0.1758910757061025
-13.90221630976138
-12.09066047018174
25.98998729688583
-0.1090903652998432
0.4228589502363011
-0.4556174845768703
0.1418488996295923
16.80083348446093
18.26370011194806
-18.54544621888658
-16.51908737752319
-7.332717633093057
-10.99459142465493
26.10036369155867
-7.773054634122032
10.32140568968021
5.091333598593446
-15.41273928841258
1.596464167701831
2.841854395350687
-1.507975194944833
-2.930343368055211
0.5859841439100605
-1.097424260808594
0.5114401170684906
0.1152602760025039
-0.1660674277099887
0.02952955185181452
0.02127759988118075
-5.076225341356959
16.72643596136373
2.817278729041089
-14.46748934905219
9.380636979746741
28.05698197661999
-20.94060113443198
-16.49701782195087
-10.20355260637042
-24.85382250842442
44.43801209453495
-15.07203723741318
-30.354524249637
29.12993345452685
16.29662803251608
-11.66025937545556
4.922138823430132
17.2542232012639
-10.51610264938862
0.05795022591566313
-0.5636377724970473
0.8631850628977454
-0.3574975163065526
-0.1028262273051765
0.1274634765946483
0.001467440704108348
-0.02610468997389869
-8.935204552744665
-24.34732166958293
21.36957213941574
11.91295408283352
22.75632892559432
-22.16056229096577
0.5015923808384091
-1.097359015487169
6.968344628778944
-2.984281273768222
7.608363118091332
-11.59242647305809
9.646142988724058
0.4395416506056311
-7.427577117537823
-2.658107521816012
-8.923727977566502
7.607640629286881
-3.174934869954856
4.491022218359491
-7.537611986537916
-7.295340497164854
14.83174704528515
44.36649033490507
-10.67282405435491
-22.32971018907516
-11.36395609148404
-11.27764290914022
-5.813463566920129
17.0916065535297
0.1589181470662219
-0.4876457673903009
0.4000267061253375
-0.07129908568790287
-0.1302523578742692
0.8526673691745038
-0.6940937782511138
0.5657382376057555
-0.6118088510997213
0.7401643918412799
4.851694474373051
6.943873651425068
-24.12572813519534
12.33016000939558
-14.94140761574142
23.74623344022253
-3.412997297715496
-5.391828526753079
26.5906885872943
-24.1680259923513
9.190588953457771
-11.61325154851659
0.04940595869664983
0.1427646647006888
0.3030576453406029
-0.4952282686364101
1.513226020899087
-14.62566205151399
-14.31252196319339
27.42495799376576
-2.272306358410479
12.35677132455266
7.207296905611877
-17.29176187198811
-10.10421559868967
3.664105622284646
-11.81939759538594
18.25950757172629
-1.433033988674056
-0.1270280840242402
-0.6519112737900837
2.211973346685199
-4.864866501763402
-9.488970996151616
-3.438539504687817
-17.13550497382958
14.56641471425321
-25.45949918823157
28.02858944776894
-1.498167599479029
-0.9586459025589673
20.45043976281987
-17.99362626090122
4.408728061441934
-0.01275958419299108
-19.33737609298963
21.12687519975416
13.41293010280716
-10.79357186234232
-14.97596738288162
29.47220929813353
-14.50537022264902
-14.16278349402553
-9.922126772940599
-1.577781146194621
25.66269141314507
5.336600655879599
-18.78013390514828
-5.076460517920344
18.51999376717198
-17.94677473347827
2.302915023536417
0.3235190244284867
15.32034068558038
9.160222446401935
-4.655819547826943
-10.846388605789
6.341985707228893
-0.08273517496612788
13.59693404691862
-6.545854243119777
-0.04567550708802821
0.05238472276205668
-0.006812485249607253
0.000103269624085469
7.28371731338794
2.755251430299483
2.526499312091937
-12.56546805544271
-19.60548704384936
18.72265176078077
0.8829252966927945
-0.1292084245842036
-0.01868376788054573
0.3340357900341712
-0.1861435975271822
-0.8240797687233424
0.3080388410370863
1.129511773672802
-0.6134708458913949
-0.2293785943838796
0.1640844679530419
0.1979174128041071
-0.1326232863415604
-14.19950585833904
18.03991852980742
-2.563863724514997
-1.2765489471236
0.6028593035278905
-0.02410987841280341
-0.08453707243257824
-0.4942123526467708
-4.474387183402692
13.6022451563843
-1.520217343436615
8.273578032406352
16.64875089265455
-3.795453725325693
8.627989863852898
-9.409022799088843
0.650780577287505
-8.333385960816512
15.13439583515371
11.10224201999748
-17.90325189418452
-21.68291267337754
-14.9754412720448
17.05286690157091
-4.71095932402599
15.79421899877849
-23.88980917339008
12.80654949863241
14.85502008293945
-11.62795206193423
-0.3799462843458707
-2.847121736661967
0.08207123755369289
-1.616054421278936
1.579488897030837
-0.0455057132151538
-17.09503319878562
-9.024612818572342
14.70554364319047
11.41410237415948
-0.03061880371898568
0.02124679444810421
9.711032928030829
-20.23640742838239
-8.185866610319806
-0.4829761545538566
-1.407419877805832
0.4296610889475369
1.460734943457347
0.2958471325255554
-0.5456053221277856
0.7695706529237912
-0.5198124631319302
-1.06860435951674
1.389559130518873
-0.3209547709425272
-8.441982385659889
32.56096633796809
-27.42227645461281
3.303292502287567
-0.459207486709876
0.4920041522182218
0.6066600309292458
-0.6394566962964586
39.66583801005053
-16.63488179243763
0.7867599946624313
-23.81771621228525
23.53717323767373
-16.27627845705453
4.236754260427019
-11.49764904106803
-6.212813765711812
-2.210371342729839
8.862726759119113
-9.711913798932406
5.607893699739169
-6.411916200371071
10.5159362997845
-17.18642499635196
-16.30060975913056
24.55797233456013
8.929062420793574
-3.226616049075429
-15.90772723068908
0.7832346091951375
18.35110867058772
-0.06052970710473444
0.004349937951919479
-0.1193568891825896
0.1755366583713444
-0.4200701028938342
14.44077960151632
-14.02070949868921
-7.795937140524278
-5.737701942970646
-7.803211207282191
21.33685029054036
-5.088868152567136
-16.73179085229538
6.423758433914843
15.39690057094124
0.1605784594291227
-0.2635031667828544
-0.4859936017828758
0.5889183092301327
-0.1168499920845045
0.09953452571836499
0.01457068372379538
0.002744782669173804
13.99456448675627
19.53460305385441
-0.9059764506464644
-32.62319108996287
-10.19975973783393
3.518362818733469
-11.99904647440233
18.68044339317549
-10.15241752855292
7.736142792884939
3.938132553997845
-1.521857818334605
-0.4660987570066437
0.8164816007465586
-0.0545357111320123
-30.54415972779465
25.67727506177289
1.531781577363825
3.335103088624781
20.81020187828932
0.3800915777519293
-24.41690950511607
-17.5919008330516
-25.34222129162448
19.08093932645784
23.85318279815992
16.61843117289927
-19.01185083197685
-17.95593025644907
20.34934991552604
-14.33585526412483
15.42704636359161
19.71901077881189
-26.56338272923308
-1.132280741867429
4.119682190338363
23.57598128075832
1.79725660348736
-3.130252997506876
1.480749842007331
-0.1477534479068083
-3.484206651393358
4.908216981493662
18.21467934113631
-19.63868967124483
1.500250512525466
0.1851727822417419
0.397169464229195
-2.082592759040399
-0.9411117720223162
-1.522653653808991
1.353917520170896
1.109847905661231
8.561575344275123
-8.749238461825579
12.97414032679367
-12.78647720925584
0.1814594303833088
0.02476671690169611
-0.1805679478176537
-0.02565819940364366
-11.22077013058601
2.012049311861021
24.95756082711357
-15.74884000838857
-8.052115815224736
10.59986847620171
-12.9177112713516
10.36995861036441
0.1059643701649659
0.03115515754101973
-0.01075397885544628
-0.1263655488061211
-23.75612656923608
7.421745128754651
-9.016699032915319
25.35108047315288
9.293711939974028
8.775157918566739
-18.06964161268845
-0.02164962054639744
0.06120690939771235
0.03032328307661383
-0.06988057188841444
14.27622832369556
7.295577485721957
-5.896139698200312
-15.67566611142843
4.577024740050913
2.628789213619005
-10.19009522737522
-0.2196681131899261
0.3782965785475295
-0.4248188387449526
0.266190373415947
0.4063102709228859
0.6849900147859647
-0.2724752369196842
-0.8188250486501216
1.705489894088742
2.119941655733515
-2.720145806940322
-1.10528574305057
-0.02284516540565806
0.003253681496859592
-0.0278965415958718
0.04748802553282704
9.078189589231179
-7.305225412457489
7.520747763198431
-27.4053887621881
1.953918852995343
24.24159748694161
1.209872422278225
1.092412188492034
-3.577118515786792
-1.013458085810893
3.498164412806682
1.469837111963191
6.953297031279962
1.299293740744576
-9.72242788459163
7.368161355587038
19.97809193280717
-43.21493943671959
15.86868614832022
3.205363105159321
-19.40614187411627
-4.199692204549532
-0.1124027862152102
0.1245737543908524
-0.1071923299005597
0.09502136176557742
16.38110001313126
-12.79477167237096
-3.133864884094118
-0.4524634566704818
14.71162134397606
-17.579866597284
-6.329554635043599
9.197799888003216
9.1219465237135
-23.37114434243647
14.85615243893809
-0.6069546202148109
-12.71734732358482
-10.77236616117779
-15.57517260973276
39.06488609449539
9.215800895895825
-11.83676041505973
28.12961556605739
-25.50865604690267
19.29758527501904
-8.679471729078232
-8.239357765858438
-2.378755780148191
-0.893643889030041
1.974779038322329
-2.777993009560995
1.696857860081545
0.5928771053885492
-0.07185324683438687
0.09421705221903875
-0.6152409107536977
18.8897860849907
-18.96617840416483
-0.8296986067022285
0.9060909258287917
-20.33374637115323
9.257079776885972
11.07666659424678
4.330379687156729
10.50825446922144
4.581807813651601
-19.42044196988931
4.821461019848252
6.966363110473787
8.372009679099751
-18.93489384638589
28.59466527671409
-5.70377730960907
-3.955994120730884
-0.01647698870361278
-0.1564775958968706
0.1359712528526705
0.036983331797689
9.427823080705908
-16.67347153726236
-1.057095920433145
8.302744376960803
-1.891527980676675
29.90413265530736
-2.921309219804079
-25.09129545484548
27.32095436989256
-27.17058231992268
-3.798955797318942
3.648583747339539
2.096818055800106
-4.625607866549324
-1.996575018079694
4.525364828563495
-15.57469901206769
-9.508110047802104
10.24090428907619
14.84190477078313
-0.1781115781050912
0.1405249169241821
-0.4285120957511345
-0.1425778485515112
-12.27686894889925
12.41769923637191
27.85501297280939
3.221718474513839
-10.75279954299232
-20.32393190433342
0.0745101825192358
-0.08851600486894123
-0.1596491968183032
0.173655019203414
0.1696344708187233
0.01209953645422303
-0.1812871793300239
-0.0004468278806393391
-31.89133702602356
-0.3412395220922327
33.50071496922447
-1.268138421398123
12.32068488170543
-6.315356267314647
-4.65532241164311
-1.350006202759873
37.07280331424887
-25.53549741522
-34.52205678181307
22.98475088273356
-4.248775175955457
-22.4427040841393
2.731755152372141
23.95972410720902
0.1677415187637333
-28.61766405899551
-1.044957111132449
29.49487965133098
-17.16602443628185
12.71788521921242
-14.09901050192297
18.54714971896027
-21.59334202947099
-16.49657294315514
10.12785756194293
27.96205741069887
-20.79357012609939
-6.602544418021957
14.14458481459573
13.251529729461
-16.11954253694015
13.55682089148896
6.848588086429083
-4.285866440889571
18.59689980027188
14.12911903021988
3.013368747821212
-35.73938757832284
13.93684608580076
0.3540603269239662
-17.24342624378011
2.952519830975393
-20.22658595303852
-6.303740625835792
28.0781063148037
-1.547779736096717
0.2114675957400893
0.4029192328584613
-0.1592923549056816
-0.4550944736295118
-22.18960858328645
15.41598147491973
9.943713372148782
-3.170086263807061
-8.101957064706856
6.871515279944644
-7.97070451855168
9.20114630320885
20.13603620674644
-25.64606794876941
12.03156737651284
-6.521535634842141
22.83556556655062
-22.06728603639975
-15.38101043773529
14.61273090757806
0.392008593526289
6.646841983626781
-23.83977173310739
16.80092115594502
6.197918844164406
-8.321586661557435
-16.82207206480412
18.9457398821907
-22.64015219910046
2.170894448160325
20.07381924120038
0.3954385097576042
-6.75546610102969
-11.48729877096629
25.6420857665441
-7.399320894552279
11.4904715889849
-20.38046059281378
9.053622110149254
-0.1636331063172718
-29.00046781390369
-16.96927457907108
16.95825360225533
29.0114887906924
-21.77908170872566
7.073651646210759
0.5964830126522673
14.10894704985775
13.8824354523253
-21.00778406876771
-20.28004014569305
14.58419704901494
-17.50103898227889
2.917316440705636
-0.08974550530900466
0.7075233720024631
-0.06232919316139013
0.4576072908327317
0.03478637693183965
-0.4300644745830603
-11.08400087634938
16.2983492851078
-9.21583758059834
4.001489171837558
13.57462139448559
-18.67244173616228
14.91827417654718
-9.820453834898823
-21.84445259490141
30.72764869521763
-24.91030864781239
16.02711254745736
23.17874308113738
7.008625461788607
-27.70034947903971
-2.487019063885214
-23.26470375007017
11.4012787572829
10.93853820710887
0.9248867856767982
21.61813905846068
5.162651777156921
-2.015952657668443
-24.76483817789699
-0.4547878301678367
-2.185134059640846
3.732334078123428
-0.01762228705221242
0.1092439627163899
-0.1020823034333157
0.01046062781144154
-16.79638458949542
-3.728624418158913
12.20265818909416
8.322350818547624
1.399096241124132
-2.676596186853594
0.3838560565665893
31.04611610556714
-9.178893669128795
-0.9225987012809453
-20.9446237351998
-1.325218143799558
5.204174341032031
0.06325824716745614
-0.6400520357535856
0.3470071220724548
0.2297866666134796
-2.967803831177693
17.55252030033781
-0.02695314981699488
0.05701601234511918
0.09070420921843154
-0.1207670716660443
11.37619220563064
6.652675455159807
-18.8901757297
0.8613080686916383
-1.442918405501481
1.925664766990002
2.210941706062927
-2.693688067793099
-17.51116134614486
-3.570302538850944
21.08177560649013
-0.0350918754250524
0.009372066564336857
0.1196177434574223
-0.09389793456622292
10.32040632006639
-4.153761784579173
6.497067687941969
-12.66371222344046
0.2386873641688556
21.45231461907481
-19.32850838381131
-2.362493599457835
-0.4895817036779291
0.07100300404472411
-0.8884424542812102
1.307021154034269
-9.738340065863849
-9.502492359186718
0.7991064624942507
-9.703818194364288
9.258378527324618
-0.353666795725778
6.179615717920401
-7.815404743542181
0.2305444174486626
-0.2861803807614923
-0.05373543325361278
0.1093713966384829
-0.1025192052780007
13.08326356455193
-27.28251735035481
14.30177299101926
6.990212575960592
-16.30405524804553
-9.499446284800655
18.8132889566744
-14.69563473333884
-2.094392675080209
16.78910392204895
-17.15230576186485
26.89106030246493
-9.739393753789685
36.666794179244
-9.09628466248305
-16.74928427895996
-10.82122523780953
-2.32423108967725
0.4526024678915877
-0.02283601759996326
-0.04403315881747008
-0.1051008039788981
0.1719699804370112
0.0288144564831883
-0.09705437347906097
-0.04861007507443041
-11.29429558150372
-10.41615922791326
21.70903311190911
24.59173181783265
-10.46880054949735
-0.2404958160010683
13.54040379037089
11.35107480962875
2.628565976642386
-27.52004457665939
1.876270998973692
-5.79026133025569
2.347172097623013
1.566818233887811
0.05489698175697901
0.1152096871528336
-0.0705721431658311
-0.1319251417920952
0.00719081173997521
0.1485238378171028
-0.02378950773657791
-20.9370619112453
8.141242428355323
6.583977179701153
6.211842302925208
29.2177427370455
-20.03830666543454
18.46994178729559
-27.64937785888616
4.429791391130178
4.836657605767297
14.40560250384722
-23.67205150073361
0.1342688037965105
-0.1207534741371301
0.001055354086316461
13.12505760107162
-16.19812839829532
-23.77374998541437
26.84682078288698
-0.1481707773390899
0.1344345164890983
0.06998841954340727
-0.05625215865694189
0.2114389038254644
-0.08767574061298511
0.04032130475553626
0.5534585164136062
-0.7006727819216625
0.1913817799230106
-0.04416751437824022
-19.97511127221113
-0.001264317724223444
19.97547092592903
-23.79901756168397
23.95922368465486
5.829628821845201
-5.989834944797864
-21.02712438447418
3.679048795812257
7.158085426977263
10.18999016150726
-1.550974100126873
26.58373541148845
-10.70721358122916
-14.32554773040608
-27.82857018006567
28.29082864562535
17.1186417368313
-17.58090020245318
-7.84249581221362
-12.41778189019261
2.358816517250482
17.90146118500205
-1.552290640043379
-1.000286670110371
2.097789479754072
2.290667751240247
-2.217395965090921
-3.683231857658164
3.609960071645992
-0.1404398100338451
-17.28769237373062
2.524279977709818
14.90385220609416
5.844529737036332
-27.4166446993026
-2.27927903711894
23.85139399938105
-0.2192512806271132
-0.9220892096727787
0.9955867873154933
0.1457537031777327
0.0215890314312288
-19.99746111884739
10.46028320450499
0.7837175383065729
-15.84316684272863
4.599166099933973
35.2211142223062
-9.09661574872289
-46.4684186610758
20.34392018747924
-7.245691902298826
-4.339875173870479
32.3652375068357
-20.7796704306666
0.3421783959547113
0.01281243207392126
-0.4907259657689907
0.1357351377386202
0.04231931622003473
0.6623057605426688
-0.07800743041410876
-0.6266176462339925
0.2346537552720991
-0.01086321327062683
0.2006298988327744
-0.4244204407773075
1.333903837167654
-1.168434466410696
0.5089725238856596
-2.06585586599911
2.72531780833995
21.4385435004338
5.067052969060206
-4.444262480258653
-22.06133398951157
-23.05646118311499
14.85019693494716
6.137658890578124
2.068605357596236
0.05023317480308189
-0.3094273986795124
0.119545209324461
0.1396490146121679
-3.594674503962251
-21.70955109102093
22.59112889351361
2.713096701431813
-0.9439971717671463
-0.6456994905634296
0.1732395292955921
1.416457133042874
0.5182096365783536
0.2476894443403261
-0.5248824668220616
-0.2410166140569582
-33.11802542562432
-1.708387586641144
8.329515931488102
26.49689708090823
-24.37336734344283
3.871377790016607
-12.61603587217442
-14.30080442962772
0.8594046173227178
-5.709828096090211
0.4287498911148281
-0.1780445693021729
0.3706230146610645
-0.621328336411389
-18.45522587827073
-8.68720140756275
14.13057422002942
13.01185306566536
-1.249748462071191
-9.544988242295785
10.79473670403813
-0.6671472006361643
-2.72284712414636
1.132951849121331
2.257042476335587
-0.2530333366282782
0.5920377224514194
0.8097578421157464
-0.5488615910548105
0.2052020256083504
-0.4660982766448705
-10.82860717003959
-20.06320944327599
10.25935255988493
-16.21060825428287
-1.055143555426914
30.44828843910292
-13.18253662939881
-15.44662373195878
15.93932741225379
-0.4944226078839968
0.02596365967308571
0.1740733072850671
0.04678602450525492
-0.2468229913969177
-0.1325761732162923
0.04558316160396485
0.1058473480444046
-0.01885433639387811
0.07241203432979171
-0.1161641056542928
0.02822659247959689
0.01552547887712262
-0.5064949962530954
-0.08459102888463245
0.1056283435570603
0.485457681767286
5.39856289061606
23.7689509650343
-21.51503701360727
-7.652476842119495
-0.08900974067749802
0.6012875196531982
-0.8706944632033518
0.3584166842991847
0.05149036706772694
-28.53528092909724
25.79262859531471
2.691161966676015
0.2962282935279218
-0.6218056619694007
-2.132115046867848
2.457692415428233
-0.03834543357830936
-0.2210711385670913
0.375718137734883
-0.116301565544376
-4.154641986666366
-12.63485160945719
-1.654304871348211
18.44379846733006
-0.05443236070150576
-0.05027772144753256
-0.005051797663265406
0.109761879838153
2.39998774491803
-0.395417098814565
12.5653806860739
-14.56995133217884
24.19220197547709
-0.1538155804162707
-5.289945783836372
-18.74844061128334
15.51828204099475
-3.142398374605051
-1.414745154024404
-10.96113851233021
-15.87363983816853
-0.1820070884786238
-5.627265746737266
0.2682643733775039
-0.07290495945624563
-0.02009011332280524
0.01007326228679596
0.08292181051441956
-6.975714156738409
-3.221103276404417
10.76783657986208
-0.5710191471613721
-6.59486518137019
5.854330950723116
-0.964189113728755
-4.922446766873991
-0.7082293007074265
16.454419180204
-18.38746943630279
-24.63033247313687
-3.048585482872308
7.202188163392986
0.03393959853989327
0.0292573495821177
-0.02430560403541234
-0.0388913440587229
11.79650265748261
1.845269218729853
-15.05319259357146
1.411420717255846
-0.4978978092598864
0.4511723366687728
0.2979513287448603
-0.2512258561007057
0.0003538920604187302
-0.07680840239679732
-0.0001913232491034417
0.07664583361057631
5.888007027968713
-0.2002151387636813
-25.40336191645103
-0.5935758232611982
0.6944237862737037
25.30251395343267
0.8969696556588074
-0.9460960112106312
-0.3260949824259483
0.3752213380350407
-13.11722730363331
0.2219477289205306
12.89524253613447
-14.55221703980717
15.0357419293319
-12.70061752141347
12.21709263188238
-0.06719581130959719
-0.3538489123530495
0.5563478669884468
-0.1353031432269818
-0.8150669987168452
-7.696112420151846
3.775859496638533
-2.501936089313375
2.401420623912999
-3.675344031236435
0.3949142942549622
-0.3787349085807157
-0.1341132662575494
0.117933880672225
-18.25626436400954
17.09694726449112
-17.05574505995836
18.21506215926022
-0.1255412472202235
0.02401138905506696
0.02343743513631676
0.078092423059326
-1.728390874683423
0.2440244483414798
1.458400412887825
0.02596601341519964
-0.04366738332978019
-0.08078953982660399
0.03637912392807047
0.08807779926395271
6.237552198300216
-11.03634010223879
-6.397721306281996
22.8511538305477
-0.02310136857327112
0.115648037158063
-0.1397830985876528
0.04723643003142496
-19.34284868782322
-3.465445917373515
6.597686350912451
-0.3210075430547105
-0.150875819528597
1.156873377492144
0.01383288962272955
-0.09295078106276573
0.02497543641337178
0.05414245507932357
0.1104560271849745
-0.2976893282428264
-0.1554654847586218
0.3426987858569622
-14.24600627316003
-0.3066841054126072
13.00490299509407
-24.87681223381084
25.2970285940863
-13.4251193551026
-3.373405337274026
7.965181759928491
13.09493631398698
-17.68671273652324
1.964936582748575
-0.9873006828737282
-0.2485504297902369
-0.7290854700566375
-0.434581082684043
18.54112995078395
-18.10738486898191
18.95869912414778
13.2452329372855
-21.82805893274133
-10.37587312870153
-38.05991360461633
0.06966191718177474
20.9203260070288
17.0699256803942
4.406626617106518
-30.71634529596006
-1.873016873276437
28.18273555211633
15.7017960713522
-19.45313558798508
11.04857591536375
-7.297236398738846
0.3403015549397954
-0.7908213610812524
-0.6623020734512943
0.1832530072541717
0.3243043041351186
0.1547447621972548
8.749813163857169
21.034227840051
-27.24346182353522
-2.540579180396363
29.21182856822686
-25.17404286724741
0.3688409161196989
-1.267136605297807
-0.08409790269953162
-1.368911299018565
27.80557389113
-13.26509359876659
3.668544149876368
-18.20902444236944
0.2223022332409519
0.3640296545054442
-1.139867202654495
0.5535353149940807
0.4415015640787757
-0.1141739322839701
0.07896099522768896
-0.4062886269950738
-0.1307049228374012
-14.34983960578451
-10.74977577198821
25.23032030049608
17.65444812805741
21.90134602623045
-22.27609700032173
-17.27969715397958
0.8265967454936273
-2.16567628693601
-0.9851515483556004
16.75274992523276
0.900719220867819
0.1509781667186401
-0.008046476304606365
-0.08618907589631172
-0.05674261448545596
-8.540937328237279
3.956406703010964
1.535945142249092
3.21420886764207
-4.801849164194826
-13.38240528230589
-2.607181530472548
18.28434496422727
-2.294758151450582
-26.79228281547361
23.42924804646325
-30.65596746369274
34.01900223267648
-0.210611911230633
1.515418672632085
-2.092401717590364
0.7875949562978343
11.85619683926102
-5.759316296285335
21.20566643223765
-18.57634299855874
-29.64932810732688
27.02000467368799
1.844374115120777
14.08869767485145
-10.86962367248083
-5.06344811749376
0.0769525919708464
-0.04778564894328301
0.01725813857433827
-0.04642508154729656
2.801388245739864
1.386161378916841
-1.427012381079153
-2.760537243365265
-7.689818258359495
-7.462312854623498
15.15122899945829
-11.65964738002225
-5.957364666277567
-2.602873660049426
20.21988570633438
-2.383967438337805
1.017350366759787
1.11428483946884
0.2523322322161105
11.25432242382252
-13.51633913046802
13.9426084797688
-11.68059177313611
-0.5352032495742217
0.5311657422593009
0.09781891370498118
-0.09378140628233592
-20.19104177658882
11.56975147459728
5.859000624908488
2.762289677152814
0.02211498274427637
-0.2925642677811717
-0.3584506591811849
0.628899944232779
0.008055056626414781
-0.1232837426439299
0.03295415820917848
0.08227452783448182
-4.964473080163881
20.56467455811394
3.253753059193441
-18.85395453712565
-0.1617432795354976
0.211594593543956
0.01128492899587862
-0.06113624296650924
-17.01376069705911
12.5459292623924
-5.145757036952506
9.613588471754667
-0.2335718235085253
0.1213094780711642
0.1705633380854139
-0.05830099260555728
-9.907260402615563
0.7906650973215665
12.22997343349686
-3.113378128148362
1.048814333715061
0.9998783938959661
-7.254558505603705
5.205865777988895
0.3503673854964516
0.06980918318106627
-0.4163264518222197
-0.003850116817075097
2.461888606257473
-5.918828411752369
0.00488495490908734
0.5455924615449161
-0.488799002886272
-0.06167841352819903
0.1165432806190486
0.07816203108575
-0.1543292818970258
-0.04037602975907501
-13.23813095193814
1.688318438131449
2.918519435159621
-0.9153998782310763
-3.691437994686335
0.02959767989838664
-0.412713181798885
0.7126842370004272
-0.3295687349120874
-17.67080287052897
29.31832928309204
-10.17443880726304
-1.473087605323599
-0.9007795485450752
-0.528303243165213
3.164929498529407
-1.735846706419049
-0.768725565244017
0.6965814674545235
-0.6032397884884594
0.6753838864483908
7.063588186721373
1.207290025659265
-7.222063878614131
-19.51975070041048
-12.21463273397339
16.89158552199548
14.84279791237143
-1.716005670555883
-0.04770810640308765
0.3263538719905991
-0.3196570770045266
0.04101131148868842
8.158844890515496
17.77381392186656
-37.31378561548626
11.38112680309882
4.988481639445049
-3.325990567305888
-0.007510586107902013
-0.1040928912460882
-0.02431306473303564
0.1359165421373015
0.6369281769452633
-1.989618407400822
0.426246975747256
0.926443254838213
-26.03590425969431
14.37702237908122
28.41163180583335
-0.008917027431342071
0.05860655310864317
-0.07408282373476287
0.02439329808985889
0.006818323546551772
-0.1350891949094317
0.1201058030902872
0.008165068310312521
-0.01918567816008927
0.009383220462407194
0.009802457724304096
-9.166953127756363
0.3092412187342227
13.8461935483898
13.77816914761917
-1.012596775439197
4.737208901811043
-17.5027812741923
-13.88255485103947
-3.618349685989499
-0.02590610546383604
0.1541501698033578
-0.1265536696514035
-0.001690394661464662
24.20835976706192
-23.65839505220032
-3.517768546042021
-0.07280527490890341
0.07348287921861896
-0.02899492810951904
0.02831732382000319
8.011752313677704
-13.57674033599105
23.76048375830452
-18.19549573634498
-0.2367074704202614
-0.2335073569982565
0.4598512661530325
0.0103635613409245
0.7401283218047823
0.06719803143147746
-0.001314950155002318
-0.8060114030208624
-0.1205775020961676
0.09656985891657761
0.04138437536540904
-0.01737673215258285
0.01806421675644956
-0.05167244706574312
0.2450471341589258
-0.1823753997033373
-0.5254707636818906
0.02926059760319627
0.6785855658462062
6.8059181395557
15.06487181244698
-14.1329486833509
-7.737841268630086
1.578936493370532
-7.554772256296894
0.3268369438649895
-0.1592547391007575
0.1115809097553245
-0.2791631144453244
0.005435725822374712
0.07121209449396179
-0.06861919060891511
-0.008028629661378408
0.04147830524561601
0.04153426625872898
-0.08301257147912823
-15.80066353664412
6.970100796827573
15.45690758176479
-6.626344841982776
-0.1076546028285237
-0.004464161333462421
0.09750670934327486
0.01461205485205904
4.270215678140191
-21.7810181161164
-0.07669461831259092
-0.5360250369850398
0.3596863186743866
0.06278286450281965
-0.04288624567890895
-0.108987360869574
0.08909074209026857
23.13405105746199
2.759737367397011
-18.85805604473482
-7.035732380134461
-0.05479322833138706
0.05124027285973282
0.003552955503642089
-1.939345725631083
-1.166304299599531
0.08821965265856439
3.017430372306069
-20.03668120148393
19.27030743579492
0.7663737656473472
-0.1498383792619631
0.05393981868415283
0.07335491727273627
0.02254364334294627
-6.84587247223026
-0.5824242759192876
-13.50876516324703
17.91592118557315
-14.76267662594326
-15.21940254734668
12.06615798744631
0.06260849202508163
0.4289915204911403
-0.05961738217283902
-0.4319826302824005
0.08464918117736675
0.02694646093859702
-0.08330924946363702
-0.02828639260043947
-0.1541037606872605
-0.4894871638763286
0.4373413772269278
0.2062495473948274
0.05320000943851846
-0.02494142713655606
0.08399040236238169
-0.1122489846307909
-0.1151028843287021
-0.2358853495891186
0.4614442611268833
0.1274537467615824
-0.5856544246796931
0.4862046843118737
-0.02800400625708165
-0.3075706662837252
-0.2438293170438448
0.4099879022199852
0.1414120811696752
10.77226412484949
0.782493245837935
-5.736367744964541
-5.818389625666315
0.01849778775647905
0.1706679978097718
19.00599246530554
-18.38734804556755
23.1138879210254
-23.73253234076923
-6.080102048740677
-12.15531604143195
1.550292759758659
16.68512533036862
0.1496420693912263
-0.0855839949047941
-0.0720403001810169
0.007982225744704322
0.2952101631708767
-0.00739381459418157
-0.03116427206491866
-0.463407287807452
0.5380258536780862
-0.04345429374506049
-0.24950722109947
-13.09576585479671
13.34399605913749
0.1973117990404023
-0.2218389197364223
-0.1552755936210209
0.1798027143883359
-0.05615337420098463