/*--------------------------------*- C++ -*----------------------------------*\
| =========                 |                                                 |
| \\      /  F ield         | OpenFOAM: The Open Source CFD Toolbox           |
|  \\    /   O peration     | Version:  v1906                                 |
|   \\  /    A nd           | Web:      www.OpenFOAM.com                      |
|    \\/     M anipulation  |                                                 |
\*---------------------------------------------------------------------------*/
FoamFile
{
    version     2.0;
    format      ascii;
    class       volScalarField;
    location    "1.5";
    object      p;
}
// * * * * * * * * * * * * * * * * * * * * * * * * * * * * * * * * * * * * * //

dimensions      [0 2 -2 0 0 0 0];


internalField   nonuniform List<scalar> 
19632
(
0.08380390099027042
0.03753224310341115
0.1290342058578917
-0.3449353619387475
0.1068046901307849
0.09803332092821049
0.4268787669951134
0.04935156478312541
0.040780128771739
0.01080455879557505
-0.04416457473256491
0.2103409372495096
0.07119043181315851
0.09550772952801623
0.04633554031923973
0.03391426693109332
0.2776575525082267
0.3931291704281025
0.03232234318189463
0.02080336785575788
0.03572798541212689
-1.451060688315932
-0.5071678868180589
0.02622161676163258
0.02670674194222008
0.01707754952867326
0.04456780070954128
-0.9740350492297686
0.1296629080515978
0.0822772319271399
0.02927614248726249
0.3554199460047699
-0.1243270572762414
-0.814604130794311
0.2359052277207693
0.06256465045705473
0.01716980896276536
0.04389291185996141
0.04442137487750025
0.09224259894609098
0.03072497482504403
0.01926495592713339
-0.02519005875944586
1.672732187136366
0.0295244977837684
0.03700369374467369
0.04460191905320002
0.06129676923885877
0.04628972287979131
0.2500158780973433
0.0927043294560175
0.009747692293103597
0.02647710335535238
0.3095093001577088
0.1325622779056443
0.004377412610258293
0.5485796111742993
0.01417581219159822
0.03245644866352618
0.02747519289011717
0.04634119505656854
0.03894911376266746
-0.8106722296151569
-1.63317701166866
0.05453782621620651
-1.321445640808371
-1.42037054706442
0.06011169755066029
0.1983333124230529
0.02472523349676793
0.09648523486075682
0.08044261492826556
0.03373891345042068
0.05068441406067169
0.05292546429943541
0.02918288767746201
0.04277139236253488
0.1489546497186603
0.3759488539632392
0.0350370461820825
-1.639063589969115
0.4296727106807168
0.06389178917526325
0.07256900116008808
0.03849794154001893
0.888696250629784
0.02534324073991718
0.04351581670692481
0.5776461858361241
0.2914301882230846
-0.00536461739649037
0.03000311415380027
0.2462403147485306
0.09710078227783196
0.05286152573182514
0.2735985273069368
0.06549261546494617
0.08063271338389603
0.04051892024137367
0.04793690280624648
0.6185866243279388
0.02412154812238627
0.133539030758007
0.04419398016902445
-0.04070335422843435
-0.1159372752033536
0.175278224907976
0.05810719104103163
0.04243599912563621
0.01243130568905242
0.2899488189431736
0.02379778451692935
0.2892452875901938
-1.370681336652408
0.01377140386618173
-0.007938193386493361
-1.782794040070312
0.005243997809655953
0.1306710935407383
0.03938878453657137
0.00438298003194956
0.1281964943301863
0.06533436819552435
0.0781537422013531
-0.5497633627784348
-0.01968110629462356
0.02783601381182662
0.1199380891846995
0.07424846866929496
0.02114608544584517
0.07795303521874541
0.04819054052271148
-0.09136658358980537
0.04721978432820229
0.03224670020187825
0.007080844404315397
0.1927673850970895
0.3513002096377016
0.02458423777623779
0.2154295714465344
-2.863040021098142
-4.157175661551469
-1.482393078235873
-1.526211975971567
-2.884451145114055
0.04589053814700577
0.04897179941042602
-1.208215601993552
0.08866753461532501
0.03212518745564558
0.1383671103273413
0.1627117344512956
0.1268986750431847
0.02255706995847076
0.1801610334921003
0.1069402392076723
0.05088343058253694
0.04835329531128593
-0.1560569537777388
-1.57040146314169
-2.264308989980576
-2.390872091780148
-3.224927312616602
-1.184332325306157
0.1018554733938837
0.03762078861769839
0.04879105661021206
0.005796946917324497
-1.253895301917895
0.2281131645059802
0.02075398339308166
0.09164057113248203
0.05698887574677121
0.05555382754358302
0.04038754122406511
-0.1721825816588287
0.03849483244561388
0.1005879113897879
0.04047208065763271
0.03771189976498984
0.0215827667415773
0.04157628991389924
0.0351804403373279
0.02681184082695336
0.04692831955433158
0.05790491278353721
0.07007389520508592
0.02550394190131739
0.03253870781124113
0.04157600783902152
0.08713040400387527
0.06119111481225638
0.002313430549233006
0.10753875374672
0.02618297384698399
0.1455205428412975
0.1174110617380514
-0.04927846487525532
0.1517492087687682
1.260546816144487
0.04782097013011329
0.1098615276450243
0.04555492989199887
0.1500768219334745
0.05881579247509344
0.09406143527853093
0.02852971326468262
0.1182925844247199
0.02740625377012309
0.05538291754829739
0.2342087311671789
0.07821497032782999
0.06064535248763408
0.3010083271384744
0.04131393523405157
0.03478698349515025
0.2677546460592659
0.02204987712017738
0.05139452701178546
0.2307763719506224
0.04053145477667354
0.07332259373935823
0.04825247310616113
0.03881745918407617
0.1129917066552546
0.01748365596180095
0.06643308965434483
0.2121062189069337
0.172401631025437
0.07572431760612687
0.02402323178902373
0.07003545550175609
0.02900931152080343
0.07021290623324628
0.112985424112047
0.02917326479257771
0.0508556521203004
-0.01666207355392334
0.04512327457491828
0.05341853861007591
0.01087090066052714
0.3798569480165976
0.1120962990418144
0.1061895258694305
0.07625987336045038
0.1216690376032461
0.05524235500571502
0.1041351197592384
0.04511949729600395
0.07097139412865776
0.06206860223309842
0.05501532493716358
0.03167039437493665
0.09028312510248011
0.3355940901832707
0.2387721242268615
0.03717530266265771
0.1220284794817987
0.02852917866803192
0.4479217552352674
0.2475261439451017
0.3907889373165317
0.04520665491574127
0.0750933735878884
0.1138954590547425
0.07018813063915307
0.07597563329918079
0.4287868983190081
0.06769772717449939
0.02491761377504551
0.07410312878055755
0.04208684271594792
-0.2344790023619707
0.04442404983713047
0.0906451321133661
0.05426768091272501
0.2270849305860586
0.3780074247058278
0.06729149842760972
2.357405658021343
0.03346530561791374
0.2128426409488963
0.08564283503668126
0.1039507536043346
-0.1375837725055205
0.3954726674808529
0.4143299418810305
0.1436570588070303
0.5790884442321939
0.1420788395964573
0.0724792046433335
0.2492241197847814
0.04107200512716303
0.03240701320162948
0.0218898705158644
0.02045652516615592
0.02779819422838316
0.5739969361032818
0.06567746553347246
0.04818389930653418
-0.0002397313732570389
0.03420192671863842
0.0587391487137456
0.03735182339764968
-1.307917997148358
-0.001354080025438939
0.07939343477043749
0.04469750720054234
0.05674675434112374
0.04464853873498134
-1.184058812742829
-1.000454181349017
-0.1644790733659242
0.2622100023038675
-1.715570666841311
-1.586746736145204
-1.134214425505225
0.03444641302608457
-1.623565404104182
-4.828262274240924
0.04106976208311728
0.03026131734909969
6.008990986695256
-1.141646580939597
0.05131115805916116
0.1974119993490628
0.2429334870707558
-0.9125853448089525
-1.968649213471716
0.04059746567493604
0.1889226544015963
0.04887777093870188
0.06281925723170353
0.3658129168132124
0.02653776983771882
0.382975638251512
0.03263163906999998
-2.345347752405372
0.07371749450988144
-3.806455248184696
0.1642654143919844
-1.417967642111806
-1.636046020177755
0.1449466444957318
-1.109800574061241
0.1005508309091377
-0.0715098089995564
0.1086334775904637
0.2967272833409381
-1.830567465303425
0.2844935317266827
0.04613279228364321
0.4610717257778975
-1.065926324217263
0.02602416941082566
0.03576868371092093
0.02946242591739538
0.07391429723594679
0.06653074178522957
0.02213324952286116
0.06826078585205277
0.02222872618635263
0.05710390924275015
0.1781393939437832
0.192377186858422
-0.7075637922072654
0.169068294209316
0.04516138218284602
0.02434755926624237
-0.4619651609658522
0.07891569879393232
0.03898452524692803
0.3428557207498577
0.149758493043707
0.1496677064262476
0.1373407610836387
-0.7171662882488078
0.04784927317627595
0.04135157701783248
0.1588524897624235
0.156155033897234
0.06930439791144277
0.2364121508787598
0.03970507839173372
-0.01529201974785708
0.06713573390529846
0.03499346633356729
0.2544759186901672
-0.2143046700347372
0.06967157873479753
0.06772323531346308
0.1249185947530362
0.1325789076431106
0.04822947898530035
0.09924745058986952
0.1020287469581563
0.104196700066085
0.1013231282239604
0.04113310771315639
0.0554411591887463
0.2277589018016811
0.1861879877350543
0.2658752822809287
0.2180379551856197
0.07332415919578486
0.091640246646922
0.09600268917760919
0.2916546452529231
1.880345369396002
0.03725183878565239
0.03840001208358614
0.1127115777766643
-0.07695279240199157
0.1454421990647092
0.1076618615994927
0.2221534874170799
0.1793430205302488
0.1466160845396041
0.2047724209311482
0.3078255501066811
0.1587711300749322
0.1032363686990048
0.04765546992857831
0.3989262859348017
0.06770769685379668
0.02680728007595877
0.06045401983648562
0.06843400261790869
0.03197718051093929
-0.1440241083022942
0.06391651506442204
0.06036894069718929
0.06063721443207633
0.05834171435135416
0.09003448354500403
0.1002202201386514
0.06172482847131455
0.07972506986198764
0.08001451051522884
0.07119369073354573
0.2145378709556657
0.6406475097336083
0.1893235856915396
0.2463545022670228
0.1005987443547769
0.2229649312706967
0.02299738217337322
0.2714947568183667
0.08481460022804564
0.09283990121844962
0.2356554434809356
0.1393409393590767
0.07336721965491724
0.151416097338172
0.09762089872931154
0.1703075486720802
0.04250296596052905
0.1649780652678795
0.1719116154655647
0.1373241739832226
0.2840588485674048
0.09663327663470973
0.108804460301788
0.1955866283095164
0.1522528300383062
0.1245207039175278
0.1202812144381787
0.1060774237484347
0.01351884517173145
-0.06700616357356247
0.05055243615588744
0.1573254307796987
0.1441446388897343
0.06613731042288316
0.04554106384767899
0.2249437574697693
-0.997591011859281
0.04074194190528287
0.3092631263643111
0.1769723547400506
0.1458289971174947
0.5987583695847003
0.04615822529580212
0.4595180409199279
0.387038666880967
-0.5538978774735646
0.3322093955139076
0.1165630419325692
0.06380556805375154
0.303399828335206
0.04753874136929169
0.4454702104116759
0.1407810744151095
0.3351160120774525
0.3298379503148188
0.1350605980337479
0.0528144287424232
0.2287028588960769
0.4230754300614173
78.90993641810911
0.2630238422057137
0.3058925359901915
0.1086837390172165
0.05780062945689235
0.2622203112429911
0.299757167318312
0.3405057969925325
0.2680921721983688
0.3424987950629477
0.1290189982173108
0.2711662546550916
0.1034162152075945
0.2195535977421122
0.1931259560205712
0.08034422800839951
0.07439785749787603
0.06003223629923095
-0.1007116527441448
0.6350349311307387
0.04018874205384711
0.04681396938184036
0.1797759270755482
0.183136130668321
-0.4319916329668704
0.6018669765579758
0.6309877165606709
0.3296457906428765
0.6231295600903743
0.07246838279942042
0.1054672853047569
0.2212924829981752
0.07857679969922365
0.1234255223682269
0.1064927842434152
0.1384016655946471
0.252830941296412
0.1311026782362421
0.4032096152164283
0.4191873990008168
-0.02913897567161433
0.05320560619633601
0.09665199139605615
0.1027675245063178
0.1021798527999569
0.1866188049426684
0.1949479751972732
0.08559391850198085
0.06092424812457254
0.06191527755058658
0.1419808741719612
0.3967184233767632
0.05378875074827588
0.03571887390575608
0.03622381189997567
0.2831004954084801
-0.8286457521071096
0.2436797402207384
0.03664966390432806
0.1410654697408849
0.04459992114924012
-0.1986909226379938
0.07229332119288336
0.07652047539383806
0.177189818991188
0.1260768781724957
0.7462284670442054
-0.5448636868361447
0.04234762694480616
0.07590858433259835
0.04451840949446929
-0.5857515256889927
0.05994737335244325
0.1359210223667981
0.1137815700893677
0.03794320127002452
-0.02469359622770684
-1.497927838813376
0.01651956980984569
-0.05481470229501847
0.04387548813170129
0.1704592942932774
0.07296944377120414
-0.006657021106570691
0.0835018167048292
0.1536043836110363
0.3682248847595994
0.08185718382922436
0.2930849644571147
0.08047616705661194
0.1413395186391155
-0.1009609634096582
0.06652484791485651
0.1214836519315025
-0.06209605869329055
0.04001863119352585
0.4316338490937798
0.08384905998022643
0.05298340042731151
0.06499330322954333
0.1789697489520835
0.09444868248783268
0.07027301882047593
0.07599109305404494
0.1755993369777327
0.1430573092390555
0.08761789860388183
0.1082570514856876
0.1132827096117454
0.1365312496539891
0.194345504605183
0.0966294575848167
0.09464170853190206
0.08823520314015723
0.260479524107267
0.0596032530400304
0.6016857845368524
0.05758241425005852
-0.04097326325070834
-0.6735809945993735
0.08741552838130583
0.05834630432381464
0.05837110283392207
0.0760195464182179
0.05681982220133592
0.05518145173006262
-0.0823057564263531
0.08172762394885331
0.07066105927114991
0.08040053689526346
0.09080931545359126
0.07414296024429415
0.05585481862322392
0.2004599346204912
0.2830563520135386
0.09504125482585191
0.07948026386136869
0.03293841229138691
0.04699237685872727
0.04146541317260964
0.03589556485268653
0.08552366900477526
0.07787506370543698
0.1871747824951488
0.3534174956406762
-0.1690332634646934
0.5627285729708286
0.06948811437510757
0.2086597678537737
0.1235047190641011
0.07212501844917632
0.09102025761852306
0.07391038584289449
0.05198330698467578
0.05273841334262882
0.0008147787095050707
0.1283934242749707
0.05514194277845658
0.06366919381332913
0.06835967882743497
0.03483326019859893
-0.3582493581059782
0.7221631136504866
0.02625654269231118
0.08990002995279318
0.1436207329288866
0.0387253487644103
-0.4892180402378194
0.06887479319613768
0.03725311181155735
0.05397734843943339
0.148992922401909
0.03750037330077158
0.0751721002025765
0.1106791988512952
0.1965214748070568
-0.3801715922862284
-0.04460984221479398
0.1565845293549283
0.1286910748743497
0.09157280125463987
0.1075020449814231
0.04136486775693041
0.1462112908491511
0.04087553394407936
0.09492110727152801
0.04826296461505795
0.09292012316946066
0.1179477712753022
0.05369328727018836
-0.5670868225839852
0.05011912056302367
0.07639613568178351
0.05070724490893243
0.04958604730177843
0.1247763910886901
0.06417061641312298
-1.536318357912874
0.110986941100915
0.1159844330153747
-0.02120948412078249
0.1605343057260308
0.1248946918919258
-0.1685321531317668
-0.2905354710685926
0.3497862477504235
0.08580580944587694
0.1335563626792623
0.1080793988798355
0.1071827801855669
0.1635275020253632
0.02850417946309869
0.1427976610122624
0.1119269579021571
0.026274645932076
0.04671379533311489
0.02666375286266497
0.08203789726373409
0.1240556369734187
-0.01376411661013291
0.3527821023901035
0.09295129104232704
0.1596763468219107
0.07827651558054434
0.3695150074736995
0.09491046587493664
0.07976943770785294
0.07145272606895799
0.1035026232040687
0.2202284310664227
0.163259618482566
0.2606597235837489
0.3531556419608756
-0.4817973866954068
0.2222598569962559
0.3067626390695842
-0.02809455598605698
-0.5657171231875054
0.3785057162898442
0.2122639030773827
0.1684556796641877
0.08083568446321433
0.1142043512279221
0.3207082284430831
-0.6056196257501488
0.3134070637281219
-0.2315495637253433
1.593306362548068
0.3380807810363829
0.2597820125947668
0.1046416217859718
1.445838846210334
0.2495666230604558
2.555616300208207
2.861158312468185
0.1039227222646309
2.519522573727371
1.234889986989183
0.04349974512472059
0.04535743790788727
0.3004675250151934
0.05005441320442503
0.04703731756520909
0.02857409314848823
0.03183006797926586
0.0264230662263386
0.06463695924404064
-0.2851517889689615
0.0242403419203225
0.03311837326493945
0.02972126933043859
0.03755981395861144
0.05217584134969601
0.1678023050612543
0.1286179886970771
0.1975579882381809
0.05489769630914444
0.05680867401904847
0.05720492180653512
0.05558924750696978
0.05729769214803384
0.166936470894889
0.05287411184248163
0.1108142789286385
0.4318486570719741
0.03526515659290928
0.0410888628319612
0.221779672030878
0.04469651082362744
0.04400005692919134
0.04249081800304468
0.04045605068069184
0.09078215313156524
-1.637858619577591
0.1275581047905218
0.1179169254790585
0.3125286910884005
0.01754062895219036
0.09998549422658815
0.06057684962298503
0.01844715828403756
0.1210951089602968
0.1110305285612133
-0.002986538109579126
0.1372596942954347
0.2122485989215472
0.03541099236321695
0.1747809488627215
0.1336445765303089
-0.07441442327366966
0.1566995051683735
0.02959100747096561
0.171423947949537
-0.005618545841981254
0.5097728940795991
0.1543012120463448
0.06632224206737224
0.1048789505957477
-0.587170104494686
0.07250840324399124
0.09315443123056912
0.03274737769864622
0.1469566738546959
0.1159377865143675
0.130659688402967
0.1366586386910701
0.1314995783694619
0.1317063868383134
0.1303259345599657
-0.08509318288443013
0.1575875756308036
0.067289235007866
0.1152625791480362
0.02571471749027216
0.3371968960293246
0.07608556838667467
0.4221278097415503
-0.1531227151300084
-0.002481495859565402
-0.1610010151798607
0.4000886604002352
0.07874308085992467
-0.258416711471278
0.07004118260433242
0.2133211498813833
0.1437936542129883
0.06849087261089219
0.4036041523353164
0.3364600473199476
0.08039258677840143
0.06838543699279524
0.09825553022868534
0.1217821727629226
0.1092227238943864
0.144276846805259
0.1636041210104902
0.1638600688346439
0.1094118989052573
0.1033212622634807
0.004067575029883939
0.3371325428157271
0.0765156676782715
0.1037626283623848
0.08766708998566448
0.09963771135064053
0.1226032449179188
0.122481415528416
0.120534094233218
0.09571672255843007
0.1010219297938576
0.08715978513732447
0.09436764214659922
0.09217015787664239
0.1967749944752463
0.09315993414060571
0.1277656203353552
0.1469528724792812
0.03427033160281799
0.1135024545796217
-1.578181065342736
0.791424556136621
0.7123543372423233
0.09898818161315334
0.8542419478926181
1.056823774742194
0.9447231729019089
1.133765239116209
1.412522161742154
0.1086402550699415
-0.1519223668343175
0.07248238045009849
0.5509351128045304
0.1194087034397185
0.06031032334351853
0.2551247885478786
-0.07653103196190375
0.1947956435985586
0.08654796256945987
0.1233663803310958
0.3880943439553025
0.05864635597657122
0.04792307783120341
0.1332495731858307
0.07717522597361549
0.0395875456774323
0.285257124993488
0.02693460236310513
0.02410375945525072
0.1402331848828203
0.04658352479964559
0.0723699878202292
0.08110637909224386
0.07483793480496892
0.1090031890723143
0.01267847413076759
-0.4244744794563613
0.04456775637261607
0.08068295422781629
0.1587830819456709
0.03309909727993805
0.01998822265042558
0.07196298800957025
0.2007801303451634
0.04949126634318615
0.2216556801700209
0.1562971758893473
0.08909518140107205
0.0002514822197810534
0.0583678978597111
0.1399639907420332
0.1202552963724741
0.02855428491236161
0.04444051040843347
0.0409047013994642
0.3493182229535303
0.04030932283864384
0.08600659922742374
0.04484109165045351
0.04419268334609145
0.04570505334384242
-0.3794189648867882
0.06472732956372249
0.3925950365866517
-0.6813350528042758
0.1874014417239884
0.2792563285669779
0.2494457539061309
0.231465765478727
0.278027735407463
0.2934096680053155
0.04522538438596058
0.1063660142509004
0.01847012316212987
0.267062659095204
-1.500411593180993
0.03653836644294123
0.4043405719627882
0.1035862820475981
-0.2055806129365813
0.1937984103029484
0.2358385949486285
0.1766605742920202
0.2003577131346622
0.127035249604258
0.1035768174254112
0.1127522365198497
0.04466228281167093
0.07383257485683437
0.08168565895295621
0.04007613590400434
0.04246785777357369
-0.3116121002400062
0.09045097473810383
0.07485443508596118
0.101077162623109
0.05529941770166238
-0.9059315411739818
0.2411165607843573
0.08882947522090577
0.3053969654149898
0.09249133199061464
0.08494998712430453
0.08824278357463944
0.0933111345318363
0.05847775657789293
0.008729928178095685
0.074386663823931
0.09278409889802343
0.1488399658889161
0.2749577219031905
-0.6395111852489147
0.06094632265035874
0.1505967337107952
0.1724779967621513
0.04889448948924525
-0.6907203066004123
0.2594951846528255
0.1055561669567726
0.1189376336065705
0.08774191678492349
0.03003170088230769
0.1611759541286026
0.1228588861691644
0.1348485855041076
0.151732857699285
0.1585037944778211
0.120805027374462
0.1091590742276675
0.1310508339208318
-0.003934319874303798
0.1081431945234147
0.1028695104578996
0.1372181134865378
0.14570917915093
0.1734399973618599
0.1001200670322541
0.1212025320476985
-0.07315952112514516
-0.01490901513611652
-0.2968726622347172
-0.3949877657636278
3.218356587331152
-0.2099459870222847
-0.6394660416380108
0.02351868497933417
0.0842041164509084
0.9960911341325966
0.1385838116165788
-0.02752739374845542
0.1945443736193126
0.1409175948473921
0.1186993524095916
-0.1069818638870611
0.07066026180131078
0.07336015955102024
-0.1184677430033696
0.2513997823894529
0.1899080255843566
0.09841709926758851
-0.0335270182218809
-0.1783119440791604
0.1132969582055764
0.1041434332119434
0.1054703314957008
0.158286151703914
0.2929435514228341
-0.05309704805111662
0.1061570257732448
0.2078674741988607
0.09197626145694722
-0.238816665272019
0.08287318592640149
-0.6374819366196547
-0.007304289631955072
-0.2687209958792188
0.1168713479892175
0.3005539637160183
0.01911206836278137
0.1201871627934059
0.06078260765788986
-0.07530251080638965
0.03718433676799725
0.1193504963880968
0.06702728235019147
-0.05629323539560618
0.22696672545803
0.08529667450872937
0.1669554221512611
0.03795830938180678
0.0391326002322344
0.04153714748142728
0.04295896455609272
0.03941168210113907
0.08203786407099033
0.1485459094290763
-0.4117314295428017
0.1802724021165291
0.2427359342564272
-0.06822257491913016
0.1498875016973234
0.1343093445351127
0.2154270006479938
0.1250786085029247
0.1555642489823945
-0.05070517921102315
0.07081830175455124
0.0883400278554605
0.1036111591999846
0.1585759926199857
0.12156778780186
0.06398124391060539
0.07320004214310262
0.1631648110591563
0.2661822363045249
-2.435124590899779
0.06438377446841403
0.2298695284965902
0.1260622156875746
0.1456478635035172
0.09827868504574501
0.03994578406729186
0.07694966846609683
0.03348751947804042
0.8406149210826362
0.2615962175245227
0.01348004976359803
0.185110711008837
0.1337515671353771
0.08169248047407603
0.07367081211883238
0.06879991537291193
0.1219437950832587
0.09684171373755733
0.1496254745399866
0.09327687594840182
0.04117080827291059
0.2730829101147768
0.1441663280645446
0.2253761686466562
0.1353111908084872
0.1305506476844176
0.0600694398303583
0.7089286370967116
0.07475631503718312
0.07473816535715469
0.1512491531252952
0.1177686946861777
0.09501141593971832
0.2720636677277553
-0.03121701380550006
0.07205195922823715
0.07622112453274163
0.02988841015647934
-0.05727220553916647
0.07542804244966972
-0.1065995982354886
0.08351448883586837
0.03960768319204462
0.4108246380702262
0.3813942853863829
0.3443962721193314
0.3999552566041611
0.3094338322940843
0.2630148017627207
0.3193286928981635
0.3019081406431028
0.3339394008484671
0.2834184683607259
0.3342331441275921
-1.42482664662753
0.1981475031884547
-0.1796123668279069
0.2070450775230155
-0.6771456933332086
0.1952445460766143
-0.2083099832763166
0.1175701972043788
0.1204422334597765
0.1125330470127058
-0.1241516605882945
0.1133656946832184
0.102838568218612
0.1366421702420398
0.1339115016891254
0.1342908707383563
0.1269360165200237
0.07417075264467582
0.08414301980915938
0.08594807963998702
0.08773273159025061
0.09316086000960661
0.1095368903463938
-0.8439521042789273
0.1152507947605847
0.0254537196899555
0.07206657635390655
0.9005859843259024
0.8173907718804266
0.6638900714267326
0.1670379784005736
-0.08465865975739126
-0.02579535959715125
1.345312196268881
0.4027403740559196
0.269083822724638
0.2433969533641977
0.4382939402539912
0.4959145690816968
0.002172141215754131
0.4176276285464547
0.3753300597275712
0.5218856486280673
0.1087094547310549
0.1956546000374287
-0.09083877244895715
0.27841133395336
0.1265219250241854
0.1837184251923631
0.276528291803266
0.03984781232271714
0.2137073119634747
0.04895714147864409
0.1595148249570167
0.1104855412398113
0.03553959359905812
-0.2824163721773805
0.1579514062366518
0.2024652651555623
0.01503735948338551
0.06385315536391205
0.1593561611662742
0.1621249988113608
0.01853920236674965
0.2304873500426288
0.1487378245280148
0.1508562469054275
0.07144966995972425
0.212815065096237
0.2144191026567132
0.2025188630054703
0.1420182824209051
0.2301324060420033
0.2904427735987992
0.1653843383363656
0.1923459966070529
0.1102191212243164
0.1530034382157792
-0.124238075529519
0.1570503203480023
0.5124374936952335
0.03081888193808709
0.09856583444710547
0.2572237844027018
0.07072939959179957
0.02571586241128635
0.08314860645378969
0.05167172268908193
0.06657950425518157
0.1440460759995806
-0.1790047601134818
-0.3941680024188973
0.1406209208557404
-0.4807928758430103
0.105326099896947
0.2594108803949012
-0.5341271723781116
0.2280820698535629
0.1165619975123559
0.185230055535455
0.1254649760117194
0.07667881260278607
0.271282027070665
0.189258331268252
0.5064691798904518
0.1998190472326752
-0.03995285500789131
0.5798036686834327
0.1465693155464631
0.08373147315309162
0.1735844419054145
0.1285351603237097
0.2198221139787356
0.1283680435786826
0.03447067273985473
0.1555686700163473
0.1542990428873393
0.1272869842115061
0.1230488397938119
0.2177260827849386
-0.07657297307502499
0.8378664178000689
-0.1043154925706759
0.1295350154833778
-0.06827851253194131
-0.1878107249616486
-0.1266756916206919
-0.2601766082373599
0.04045124016311128
-0.3487927599229595
-0.2011986177902012
0.1519127311148834
0.1671106127365174
0.1175299132620127
-0.1835027858119161
-0.008712820888677962
-0.2460309544778457
-1.130085393314142
-0.5678288755375944
0.1614224142587286
0.04532865404618731
0.6382516660263845
0.05342559425651238
0.6109171398833273
0.06928891377849832
-0.1685284581818589
-0.0444070526310465
0.1383315179298195
-0.3145738678379491
0.1376665763432628
0.05797715540027146
-0.7896584724023731
0.06310575742018082
0.04717408132297086
0.1035033507014917
0.1148910836367911
0.07682855835367776
0.0786534267755139
0.05531783279492727
0.1595975679722317
0.274774003329826
0.01253651646528832
0.1377682914484092
0.07796078114043743
0.07981628861873176
0.282989718395355
0.0362994617971054
0.3089716947759084
0.3050916495738272
0.3376656060994185
0.1427478254738648
0.1147189255075671
0.9799349120728845
0.36194397098371
-0.3383689458120318
0.1410455254485251
0.4156130804884912
-1.084302505406769
-0.03965160588524917
0.259822253798343
0.03252860347014816
0.06411664302490365
0.09691326016100722
0.06612778273221274
0.2411713965786394
0.1254954853241944
0.06159818864498143
0.0766055021050788
0.1945002787154675
0.03000884401319693
0.07415275415790368
-0.03599533847743005
0.01542759459294438
-0.03408917039606948
-0.3212834712711304
0.1783483587849637
-0.007489487750548826
0.08078172629115288
0.08319737613598484
0.08748960066968135
0.1142691126824353
0.04858106830782972
0.07664134193658412
0.06111984671072295
0.05359739939006902
-0.1072367609598091
0.5471540159575189
-0.9587221156642531
-0.1541061542024154
-0.4787160638272501
0.05423336369467203
0.1665099227221984
0.113859563830847
0.1077014384899947
-0.3384112648786013
0.1404393415478198
0.08533387208961386
-0.03437197799767108
0.1084228256023943
-0.265500021767977
0.1552651148667804
0.2346543428676413
-0.2079013992013099
-0.254918911041908
0.7193908256283806
0.2274925022501644
0.01026117231048399
0.4175000309940904
-0.3326558400684866
0.07713581060281421
-0.2510294636476625
-0.07426964721170215
-0.3056854404888186
-0.3755535325309179
-0.1009393415894334
0.0893406821869856
0.1367823134607341
0.006808457298875609
0.141585431824496
0.152936126031788
0.02826419878444074
0.04127606168832541
0.03594998335214011
0.1113887193095953
0.01601065842987705
0.08680035184807376
0.1253856810144885
0.1256180042147848
0.03111160269597738
0.02255644161985243
0.08071126190849222
0.05973435197825656
0.07168604770084927
0.1765522773671334
-0.06007554736196326
0.2539587056457827
0.1700734325458031
0.05503742563280424
0.09175092107293659
0.1387538843928498
0.05427306830759673
0.1454250117900434
0.2211074862583234
-0.2281551368724501
0.09839619500529359
0.1074554228500162
0.08668532138572087
0.1060018096924649
0.1516904410184415
0.1000918521967243
0.08663406943769889
0.1087683220518789
0.1085465500076784
0.1132658562837938
0.06626341353969969
-0.1213816205896537
-0.3364766054817266
0.03373465180642642
-0.149105824713844
0.07503228548435081
0.1014748628470684
0.09866340850298694
0.1232381328276657
-0.5726728885336819
0.106386825668405
-0.1431815668455849
-0.1247902677184211
0.2689780187048195
0.004837737367518886
0.06786403968054576
-0.03235059067224819
0.2514387767840678
-0.7020233384830171
-0.3552808150484436
0.2010158800491321
0.1462172890809071
0.02690711504419967
0.2865057709630993
-0.2104306137011151
0.03628461700897369
0.2826367645340048
0.2255343870102626
-0.2845652487344346
-0.3859664908000865
-0.2263892805696247
-0.01231730310097173
0.0325164007132557
-0.03337651002339139
-0.03377823455828229
-0.139322338730961
0.7469988691692254
-0.2742756371754601
0.07581662988170582
0.1117340545811972
0.1498020535045038
-0.1844119036579995
-0.7989294967352208
0.09959105349538371
-0.7156602431388647
-0.1513680386649396
-0.0127048293292195
0.008413022850488968
-0.1018659600638548
-1.321923340552707
0.0404098508789524
0.2331795156601981
0.1551134818841739
0.3833641753838462
0.3313246648850309
0.1652419967570977
0.4019713339010529
0.114254791978244
0.03932899942166463
0.03925784136043878
0.008677858895502214
0.1186408570433495
-0.1465046397327656
0.210290902180717
0.1332626531476856
0.1634380786579179
0.09342909066427382
0.1145536390542557
0.1317697598275518
-1.346319742834707
0.1875304487342232
0.1093854300637829