/*--------------------------------*- C++ -*----------------------------------*\
| =========                 |                                                 |
| \\      /  F ield         | OpenFOAM: The Open Source CFD Toolbox           |
|  \\    /   O peration     | Version:  v1906                                 |
|   \\  /    A nd           | Web:      www.OpenFOAM.com                      |
|    \\/     M anipulation  |                                                 |
\*---------------------------------------------------------------------------*/
FoamFile
{
    version     2.0;
    format      ascii;
    class       surfaceScalarField;
    location    "1.5";
    object      phi;
}
// * * * * * * * * * * * * * * * * * * * * * * * * * * * * * * * * * * * * * //

dimensions      [0 3 -1 0 0 0 0];
oriented        oriented;


internalField   nonuniform List<scalar> 
37377
(
0.01788738706800204
-0.8081968529968431
-1.452494726677529
2.242804192617619
20.62100173729086
-4.650181716588555
-15.97159759344418
-16.56721701911255
8.231150394140633
-13.28749573476843
21.62356235974754
0.2232123951876741
-0.008290619274781606
-0.03706829323081712
-0.1778534826583832
-13.89757005247817
-12.08215615996718
25.97741263750909
-15.07629740304047
-30.34679313112814
29.13050748080915
16.29258305335046
-8.898255666015977
-24.38874417664832
21.61866449537547
11.66833534719738
22.75389974462227
-22.16180944534422
0.5026739064550573
-1.094764205757871
-11.27522818514177
-5.816334741481502
17.08990267564985
0.1616184714043754
-0.4899907051489625
0.3946992504667974
-0.06632701665960143
-0.698086145811589
0.5579966685136913
-0.6299873220981475
0.7700767994901874
26.61485465870137
-24.21806864255608
9.198583474082918
-11.59536949036728
1.512999427374527
-14.62819037963597
-14.31000203888643
27.42519299109758
-10.10426868699305
3.663745985693184
-11.81832018380539
18.25884288503142
-1.432113142618199
-0.6544906908187749
2.212296593426732
-4.842868399505559
-9.503620395673076
-3.445996811952837
-17.11112994946155
14.56941014167982
-25.45608504002609
27.99780484776108
-14.9582395261717
29.48926441334864
-14.53833955015127
5.335789767648247
-18.77927130889296
-5.075248096724158
18.51872963794732
-19.6091202052647
18.72401588368802
0.8846645695442288
-0.8214691027252831
0.305768591486423
1.127189923219673
-0.6114894118962878
-0.2375154933381191
0.1631425044164611
0.2127972186027407
-0.1384242296549348
-14.43721552371218
18.35009058996302
-2.586573111474117
-1.326301954939631
-21.68492074031642
-14.97074004947117
17.04654058452039
-4.709075205850685
15.79479814636132
-23.89050160211673
12.80477866159974
14.85089394919981
-11.62890257699619
-0.3791956774818628
-2.84279569472495
-17.09382055954227
-9.022068170393114
14.7009370718217
11.41495165810385
-0.03068094420828715
0.01637784606024566
9.697624127357642
-20.22117646752098
-8.188130258864319
-8.440875475580338
32.56302323637541
-27.42396820161119
3.301820440797234
39.65836315797476
-16.63701884412634
0.8048572234361776
-23.82620153729703
23.54379518720138
-16.26382690005574
4.234289356695515
-11.51425764385091
0.1622059159838508
-0.2652408661101954
-0.4851629883758338
0.588197938571014
-0.1193348956622911
0.09290759150664844
0.01693999111594927
0.009487313059426062
-10.19941118658056
3.521511389648476
-11.99879369013556
18.67669348670086
-30.54506470057608
25.67662109917837
1.532738823728573
3.335704777629521
16.62036180368198
-19.01113321743612
-17.95357808666552
20.34434950041889
-26.56252505192795
-1.129702769397146
4.119052327856331
23.57317549346404
-3.484734618586857
4.908699923418058
18.21363874583161
-19.63760405067291
-0.9419293656627618
-1.523137820560657
1.354293654035109
1.110773532265235
-11.22103128249782
2.008998488111331
24.96018247309847
-15.74814967871195
14.28169898778481
7.314385777709978
-5.911417412148547
-15.68466735355515
7.433411211044358
19.95888543047538
-43.2331536650792
15.84085702355302
2.828595552599212
-19.20766176604979
-4.07481238362109
-12.71675887230468
-10.77585862602719
-15.575605900396
39.06822339872795
-18.93374217390215
28.5955490706334
-5.705126228060256
-3.956680668685141
27.3196978996464
-27.17177844840837
-3.797770894232737
3.649851442983306
-21.59438432569273
-16.49604122543403
10.12901737692804
27.96140817421881
18.61939072446125
14.1120952898546
3.008783307496481
-35.74026932182412
-20.22397545930426
-6.2529298198764
28.04616998615824
-1.569264707146871
11.48717360630643
-20.38189632825625
9.057278179418752
-0.1625554574647868
14.57721477184097
-17.49603910363058
2.918577746324555
-23.2656551049949
11.39950699775398
10.93933182606093
0.9268162811779788
21.61443128490086
5.156590411280399
-2.018479706791251
-24.75254198932528
31.05107985810215
-9.191788834938556
-0.9258925187806384
-20.93339850443405
-2.971262105329375
17.54836042435587
11.37262852909182
6.633636237382237
-18.88227996171738
0.8760151950038164
-17.50820387419542
-3.571737071716378
21.07963766496308
10.31867463362018
-4.143844580665252
6.491829713503525
-12.66665976647223
-0.4844940288026398
0.06208658236835982
-0.9000218367692695
1.322429283306579
-14.69546852780673
-2.094603776567356
16.78864329659456
36.66350940302761
-9.094952258498765
-16.74949659704656
-10.81906054749255
0.0253810885708713
-0.09706802994115085
-0.04764795428203097
0.05716777004065816
0.1140336584401621
-0.0782938369561996
29.21670019100343
-20.03924203497234
18.471859364666
-27.64931752067097
0.1364353702798356
-0.1211676750470006
0.001672295901519329
0.2177772780623598
-0.08992936040002557
0.03529458676402188
-19.96709280246575
-0.007629370294583513
19.97328869096436
-23.80065704124781
23.95947602605402
5.833122685520502
-5.991941670305737
-1.533165397574589
26.58602764002212
-10.71863645994488
-14.3342257827726
2.293233537691639
-2.21636979796739
-3.685060080173293
3.608196340591605
-0.1387320970890792
-17.28855099258162
2.522872767094988
14.90441032262464
5.843340421025458
-27.41352059238403
-2.281639433382489
23.85181960473587
0.02647699065291073
-19.99478681175547
35.22216018664714
-9.097859066038316
-46.46742679158805
20.34312567096289
-7.243742446118316
-4.340738443753709
32.3658932764121
-20.78141238654005
-23.05513332103993
14.85079193392255
6.135981665270124
2.068359721855841
-14.39314327790474
0.846325001728964
-5.608127227369623
-18.44735349156584
-8.613946807303357
14.56927123643281
12.49202906229869
0.8116017715800532
-0.5508081528899401
0.2047470663518478
-0.465540684999014
-11.9759281161486
-17.44926358989246
8.838337047131473
0.07210320692088812
-0.1185126391246427
0.02881629969867896
0.01759313255192917
5.400399091765251
23.76718702645956
-7.652820295274497
0.05162907956847711
-28.5366025213151
25.79225537027985
2.69271807142058
2.399136002512916
-0.393807889529471
12.56567193494293
-14.57100004792823
24.20612893303262
-0.1377171511084582
-5.310013550937358
-18.75839823105505
-15.8762653624214
-0.1774042102827924
-5.631251167620496
16.45445898143807
-18.38887280154394
-24.62811123182528
11.79364346510343
1.862380254423162
-15.04849810443761
1.392474384788184
-25.37912616727499
-0.6185994137459279
0.7424352572849942
25.25529032372556
0.9005810721933835
-0.9441455930953212
-0.3314556840320357
0.3750202049824596
-13.11923546222931
0.2230232826729787
12.89548745571654
-18.26124579020485
17.10291459670939
-17.04077983111006
18.19911102440025
-1.726369828264845
0.2462826912268273
1.456574435652051
0.02351270138445734
-6.397367164575572
22.85011434285277
12.99817911038838
-24.86793175731184
25.28996834616051
-13.42021569894316
15.70073453068525
-19.45239275757855
11.04588629398526
-7.294228067101781
27.80519941882319
-13.26642084332862
3.66982779688708
-18.20860637253231
17.65543028096611
21.89707702589147
-22.27553987547615
-17.27696743139804
16.75269287596754
0.9014384727754315
0.1503908162480196
-0.0007957706614105985
-0.08621992453560229
-0.06337512101767735
1.842283015546402
14.09323453051464
-10.87050118434101
-5.065016361722958
2.802492624812167
1.385985714215802
-1.426213188856117
-2.762265149940238
-11.65579834148634
-5.959307634811404
-2.603649939049737
20.21875591532881
0.007217248107901556
-0.1234406827908654
0.03400592371107938
0.08221751099079286
0.3498426790752946
0.06985417744298276
-0.4170895185617569
-0.002607337917832607
0.0259972816504593
0.594751463810155
-0.6244797589294928
0.003731013496246182
-0.7678304706327147
0.6912704041278369
-0.5968927942948886
0.67345286093811
-26.03447141215946
14.37408777099217
28.41307651711906
-13.88270297269676
-3.613740822527347
-0.02761271554233176
0.1545534017048041
-0.1260073658199325
-0.0009333203129274629
24.20800821410937
-23.66305271865497
-3.51621760078714
8.01072719121469
-13.57198349054869
23.75805940939449
-18.19680311045274
0.02161283303320942
-0.03501114946306112
0.2311755945073779
4.269654111425448
-21.77822431950348
-0.3093241635852743
-0.2430698635084911
0.4108156892826842
0.1415783378673633
0.02443586324452358
0.1691672770862715
0.08390584689898928
-0.1283270118052774
0.05098538290786286
-0.006564217978871027
-17.79562227526627
17.29039888541984
4.538331975216415
-4.033108585344427
-15.7931927277577
23.33476484584152
-3.559413583612006
-19.77543347215418
4.772776939831898
-19.93778947324005
1.99956689096785
13.16544564294583
-27.28680108247386
-0.7041046471672613
31.60660125955046
-3.61569552993859
-6.574518215599945
-23.89897253262055
23.80585559190062
6.667635156294585
0.1054857992866449
-0.0826257575480772
-0.0004009398633017063
-0.02245910185421174
0.5136493433806176
-0.7311923404222719
-0.01430364029902172
0.2318466374132166
14.92800054163139
-0.1781846821120538
7.205798570542101
-21.95561443006792
-0.448547836314051
1.09003024815001
-9.383836050380362
8.742353638502653
-9.63757031904491
-16.79683601714013
19.65161559726904
6.782790738874962
15.56298196222992
0.1026796972045994
-15.55130453677646
-0.1143571226608459
19.76896805675833
-24.20132362345378
-8.450945979265889
12.88330154596843
13.16346807199944
18.19776912235248
-7.825532482789814
-23.53570471156597
-0.2094484164154094
-0.5411460291219384
0.3479259168060264
0.4026685287766056
-7.315612748925744
11.11723001051067
11.60477744904322
0.5355388465994718
22.13046436997841
-16.04380765115555
-6.62219556541443
-0.08333092173450461
1.429129746593852
-1.335298370139608
2.416425091590678
6.054809180628748
-9.725867147316809
1.254632875187703
-24.8952379744399
14.37149805895197
32.13817120052203
19.07027011132573
-8.150080469401965
4.00781089970334
-6.815065635173474
-1.39592998869125
9.522004381003043
-1.311008756926227
0.09924020647161008
-0.1204040754862336
0.02116386902986197
0.07196749447096164
-0.1453398722997724
0.09086504184783668
-0.01749266400914348
0.08586935096777736
0.1009686924706167
-0.1302096186876305
-0.05662842474188753
-0.07386636440998286
0.1148553172196811
-0.01560786422700426
0.1236760697213131
2.902753567909214
30.42652819740236
-25.16998074536257
-8.159301019942898
-5.765904276244639
2.610109001292515
-19.39685455921208
17.0065356210231
-10.39914147870765
-8.184796599062425
1.577402456728592
-1.760417503620451
1.888068309021497
4.449677103156962
-4.577327908107411
16.01413067772558
14.19974200344438
-17.08859643966629
-13.12527624151256
23.87717827360555
-8.347137571456308
-1.226951956684655
-14.30308874557267
14.38057387759643
9.400554244260999
0.09605015164884344
-14.87069625089063
3.045089260610792
-4.516717657773816
16.34232464791506
-16.93914568364363
20.6016486946846
-16.3792618833479
1.759972868775602
-10.50668283872585
-9.374658053843552
15.46277644241712
-18.29400522608008
12.20588683743469
2.768691039426433
23.11927710908683
1.175282166793194
-20.46690390303343
-2.429422743867438
22.89512178204127
-17.08620040286587
-13.57373379866301
5.77917231809551
24.88076188325185
0.005459025816247572
-0.1119698611833133
-0.01465683966850147
-0.139537624361916
0.0002588303583066515
0.160891627048233
-0.1391494823681867
0.07157935248251515
-0.07455353701868458
0.01508301569318629
-0.2457281192670546
0.0166492765038341
-14.48239582621349
21.85416971531703
2.960699402012772
-10.33247329118529
10.48534480418394
9.26863139656257
-8.604541126794217
-11.1494350739538
-12.72222318888866
15.29392348845295
-19.07345530665077
16.50175500708157
22.33504839714971
-22.41546195133028
-0.06763388034348145
0.1480474344772268
-0.1373520961909269
-0.007407330600916572
-27.09712213860535
16.43033656949503
1.955451415322319
8.711334153646012
2.345738643913128
-26.29687191098976
3.144353744833874
20.8067795222407
6.16522772859985
-0.9964227344433497
0.3488474714640429
-5.517652465330003
13.83315532124174
18.05927097861029
-17.32696378721709
-14.56546251263625
35.42459763404282
-13.28778220218113
3.244298846884595
-25.38111427877005
2.385854618006827
19.65481562443578
3.503922406608055
-25.54459264907487
-15.05740945256167
-2.819899481036949
-2.001896445928891
5.731213739540388
-3.118381702020834
24.15606766292478
0.5073948464049642
2.396749008067717
0.2316947047040958
-3.135838558878052
-20.70198728386188
24.00259359768788
2.430607425708704
-0.9936571064134211
-20.04214034779834
-0.1335016275274168
21.16929908174399
2.422833929970947
-13.06954343526605
6.669026184849931
3.977683320437165
-28.49025933290705
28.52440361826512
-1.027801391762468
2.507135111500665
-30.36214520412085
7.812869744825419
-16.61999961890866
1.0981072367342
15.52119546278454
-2.325963520119011
-19.28398752548295
21.60874982777938
8.105580610197746
-7.84100223413679
22.04001940537631
-22.30459778145192
6.155014132651875
-12.12260391567587
-17.23024368047352
-11.57030699632312
12.08035454691838
-5.428427414383904
4.918379863782248
15.57484025127017
25.17061892343115
-44.84315038831854
4.097691213591896
-21.63207992831306
22.70193094650522
-29.56011035108217
-5.524022795183306
5.50517620062908
32.47320663774084
-32.45436004321452
-0.7107460018829347
-1.133583419819242
0.02333476907203539
1.820994652721224
0.3774726991560728
0.5873181021838552
-0.7175205705032726
-11.81904390093477
-11.07763454203315
22.89329233644839
-2.735610207926556
8.186270154702582
6.685091611476318
-17.08283756447387
10.62042097002356
28.42000828097878
-21.95759168648296
0.5721618371703617
6.671717958539947
-7.692427632273333
-0.2664715542030555
-0.1587780684061503
0.1922919314831555
0.2329576911669519
15.22672746000251
-8.465692831727424
-14.79811056707669
8.037075938779166
18.81856519975856
-26.81166007402623
-19.19068985008143
27.18378472427058
-4.197927755756821
18.68425490799158
-14.48766867132234
-1.888216548547714
1.67005159754758
-1.299031966232337
1.51719691733552
0.4996824652356888
-20.26425990730467
1.311422145571658
18.45315529648242
-3.979875391319878
-20.2861624226204
24.0292922137212
0.2367456002303695
8.20853517249331
13.79852596456474
-10.01667679359839
-11.9903843434611
-22.88047590414015
11.05840840105751
6.778349252725783
-21.18322888469343
14.22669494985261
1.699040351950318
21.99671710135618
2.465820571411041
-26.16157802473372
13.0471386090167
-33.60696349057975
18.08117830409164
2.478646577464318
-34.73323958888158
-2.040816566495779
22.58650581470962
14.18755034070308
13.43797545525751
-12.67995569088118
5.296720194128839
-6.054739958204149
23.74413168639342
-20.54185523682348
-7.220734598525875
4.018458148920705
30.2590563079927
3.40966287392392
-8.727841544171314
-24.94087763776086
-35.11447122046972
24.88014797125048
18.41360609513075
-8.179282845710413
-16.18645556424688
24.55480207032841
-8.369971596699836
20.76716535496144
5.9545223802383
-19.51588916465978
1.154845441016938
-7.144997315001871
-4.769756125144403
10.75990799967036
14.72783507442891
3.204553480349212
-15.5312643416328
-2.401124213152304
26.11117836186697
-3.609833851373914
-29.07662022897234
6.5752757184715
-28.83367518460809
20.05408475518433
3.88340470595589
4.896185723371088
-3.246347921438807
-20.42912814695666
3.286791494721732
12.54310523036762
-8.40243318021254
9.745090802654861
-13.88576285283131
-12.19743650951006
12.1565728210218
1.546489296448415
-1.505625607993824
21.44571163802611
-4.276506958502404
-18.39680230743104
1.227597627899768
-0.5502664878081047
-2.614474601705811
-16.2885969211807
15.1277520719341
4.720328680795771
1.318874200171877
-21.16695495290855
-17.53567168073415
11.36214104309741
6.64896279099244
-0.4754321533537875
15.11062731044424
-21.08710204688461
-10.67318336405931
16.64965810044282
29.37569468831219
-8.913773615657993
1.354544502955487
-21.8164655757834
-22.12391376632289
-15.08598907225772
10.77844145241932
26.431461386098
20.29239307116897
-5.458310991778898
0.2936699925404465
7.586818714360938
16.43041383935442
-30.27743293160936
5.938109652022495
13.86840909338592
10.47091418619427
-11.14123005117332
26.5128758536311
-0.4799395424448901
-14.89170626017378
12.61169051261139
0.7121109092504105
-17.78196752010978
4.458166098617043
30.74223300507878
-7.239197523007126
-21.05618779297127
-2.44684768910275
12.68616172162861
8.438028716298554
-0.561437753180302
-20.56275268474263
-3.001538071303764
-1.162975757892375
-17.03349999410833
0.827156769024171
-5.165017421164942
-1.442864782859813
5.78072543568658
-1.266893210254256
-22.1172674661361
22.89786868762271
0.4862919887239783
-21.66281679604025
-3.423740584997316
3.687477498273064
21.39907988275901
0.4252043869394069
-2.31671834511129
-17.31039612413508
-2.447898801709967
0.04983798708079236
0.03504354228977341
2.363017272886488
-15.55075505681259
12.03724934105833
-11.70259511085316
15.21610082659675
20.11734924418859
-18.43620089522494
22.66261271607705
-24.34376106509326
32.62546078715812
-12.83205279089142
11.25767186180815
-0.007541960125142779
17.56332512443327
-17.55717190864511
1.924362154661115
1.722973252959258
-1.809550670772847
-1.837784736562315
4.266779874150491
-3.537538526794987
26.01546175293241
-26.74470310030591
22.59690989967929
-23.32917834865478
-4.801023069181052
5.533291518136565
20.59978832001025
5.664325475373442
-7.039206445360852
-19.22490735004698
-14.01350844186121
9.119750428228443
14.1075335393229
-9.213775525695423
18.70548386116165
-10.99584346520169
15.00346761295662
-22.71310800892715
4.27318258265541
1.236954939109508
0.6550902071574364
6.546617589450307
4.680283291210328
6.172210237187492
-17.39911111781341
-2.220926905218932
-10.25052044120136
-6.614542462477434
-20.47406150104255
-15.29456378957748
50.14271306159836
0.02104496479073344
0.2786207041614852
0.3046684975804387
-0.6043341663585701
0.6238553947217279
-1.345914612004115
0.4450805588685823
0.2769786585375104
22.48314925157889
-28.62521144473978
-8.814848374881027
14.95691056801806
6.683643252101796
-4.822563949288979
2.482646203505998
-4.343725506426535
12.73979117801041
4.608058015687334
6.579620762874932
-23.92746995651555
15.01248304969455
15.67610999200857
-15.76592914161563
-12.9463004156298
12.26890465768449
12.79866150259108
-12.1212657446452
-22.90038358668789
10.60389877063298
12.29351604099084
-21.96064705920117
10.01957336562172
-1.00522672204482
-8.968415348043475
-2.58282838898878
23.82014839467068
-23.62968461038768
-0.4907827351109751
-0.5626206054459149
24.68308795079666
24.44352674454475
-5.406195091158187
6.993136272328054
-26.0304679257301
5.883777231591079
15.25393039639061
-21.30185355660819
0.1641459286161457
-11.28803503071718
13.19437587833528
-19.95007489093184
18.04373404330682
15.72487723206009
29.44610526532236
-46.36664212917117
1.195659631779645
20.92539152950402
19.23848098051579
-32.73046129898005
-16.73070947278703
-0.3335633255196937
21.33105267244614
-11.1346027474867
-21.10068003677613
25.64372457697376
6.591558207234659
19.94594824149271
-1.34740213864019
-18.60029602099201
15.76489943410987
-0.6621019146693868
1.62053717164131
-16.72333469084344
-6.095714276054099
32.36430904232575
-22.47813793130535
26.46350560867241
-15.57087788067959
4.608716750844053
-15.50134447886899
30.40264758240818
11.05380058815412
-39.25699035541482
-2.199457815351388
6.044585075946449
9.471981199597462
8.444566868600189
-23.96113314415317
22.60882926528876
-20.80859604244404
-1.804949160679074
14.8662383191839
8.892799631905428
-10.35805228166321
-13.40098566949947
20.44830323322654
1.9154168822596
-22.31634012749217
-0.04737998798115427
-0.03872919235364668
0.08551067397595639
0.1305727104501512
-0.177354192034081
-15.83826896930942
10.31919874967447
5.510330378658221
26.74145504100001
-10.65511837578142
-2.069195901539779
-14.01714076365794
-9.601477613022581
-9.92858913790597
19.52501797847828
1.56481136032514
12.12905466591598
-16.86225724128085
3.168391214995149
-23.33343115899018
19.73964232593754
-14.88639090955101
18.48017974242937
-0.2546814973934687
-31.5463627868125
7.782429462536753
24.01861482162331
-16.26271226376036
-12.80212300468139
-8.136037759321932
37.20087302778257
-9.153410282770066
-32.40432660865974
10.63033237415257
30.92740451726661
-2.923355871637204
19.59946084949804
-17.64799849764594
0.9718935197888828
11.99735372629275
-13.85661619418089
12.39790614936528
-10.53864368148235
19.61060556378483
0.1940860564050982
-19.80516954159356
6.018348153623542
-6.240482990182405
-4.645438662616518
4.867573499172146
-4.070557381106192
-19.31704140182735
4.366296338963136
-8.506914388784351
10.46158611417788
17.42710162927893
-19.38177335465859
-1.736434295771581
19.57720204791145
-28.32527275812395
10.48450500598249
0.06143344946210073
0.8554495087397933
-0.2930275633789617
8.114783642125307
-7.71648817997863
-12.2158190336084
11.81752357146111
17.83308288118009
-5.817138163227355
16.94241760685328
-28.95836232480201
-1.651987425546652
14.42303448705299
6.663863588281504
-19.43491064980438
-0.01319808198419736
-0.1548349584093113
-17.70719710400231
30.45573069424749
-8.789821657736784
-21.79418352010151
12.19861210792412
18.3853930698739
-26.8715931297369
-2.853631569394451
12.99451522633661
5.710942469844251
5.802999373852345
-20.4779608205993
8.964018976898725
-24.19841713800152
-12.81538682090723
10.14221082916137
0.08969619086938038
-0.07331834480490045
0.09678428261382913
-0.007088091736364823
-0.06626714824772564
-0.237719265243553
0.1300684017727307
0.1739180117627594
-7.17114663912022
6.509982466676418
-0.07388820737497605
0.7350523800632001
-0.02103178946182042
0.1988178586141763
-0.09280574455289901
-0.02213930510940023
0.0757524931557304
-21.61573110848741
-16.4341375708845
42.17923059634294
-4.129361916975378
0.1376930277492853
-0.09590139828851932
-0.02062776041419323
0.09112387221267276
-11.43888451388634
15.46416002481363
13.41862950952481
-17.44390502046398
10.07798618644069
-10.30628830843558
11.79988839800192
-11.57158627601
1.963062241285909
-5.206345392109557
0.0002314179717396194
-0.07478495498389336
25.00414065893096
-22.5783598592836
-6.24161752310761
3.815836723450579
15.58644502773624
-13.21596957880733
-5.663145257479147
3.292669809105918
9.427968483681431
15.61531597739336
-40.59403951789495
-0.1431762826978728
0.01975820365943353
-0.02502567104804615
-0.09180056253932625
-5.575233503562572
0.9081092874465764
-15.56279100116313
4.54678565795513
-16.79688369091003
12.71363964805612
-0.463541615056789
-8.675407216530839
1.510755805658166
-10.37853943728424
17.54319084815683
-8.233116208267038
-12.76094470429466
-16.46523325178081
37.45929416432469
3.518428092772754
-6.663423498375197
16.48807329410247
-13.34307788830836
-22.58278448811992
29.82266537433452
-7.240470062738081
-11.11640338533583
14.0815869197224
31.46109290184941
-34.42627643633665
24.18368576926726
-17.52466035288415
-9.786167735100374
3.127142318678745
0.001681872340226252
-0.09389352985626029
-11.96425989348527
-5.29501187707515
-5.200105272779931
-14.20873091667639
24.20042721630787
-17.38200163007296
7.390305330505209
-0.03657007293624542
-0.03729629146699632
-0.06159574398074902
-6.057818857329232
-0.08156835937757537
5.405286864906853
0.7341003518807833
0.01489685872238961
-0.03032390280868047
0.1294607025394351
8.479269742761131
-12.85193295510451
7.849766272576225
-3.477103060158934
-0.997256912078692
-14.46501184815334
-3.933901896191467
10.67107264876785
-4.269258520979179
-13.63157938700905
7.229765259465764
2.352146067097574
-2.921331231483996
21.27954910295813
-20.71036393858775
0.03656148027101872
1.113122669669785
25.53713793586386
-22.13714523657232
-4.513115369153026
-24.55021676353055
6.483730147845142
0.2275769423970244
17.83890967327818
0.7119292709332294
23.97365587503687
-24.7012926131703
0.1045276392798924
0.1568414582021277
-8.374892690574187
11.51751536237287
20.19214217403973
-0.6477841490295114
13.2667152806762
-24.57191776518449
11.95298663352211
10.32613185337037
-0.7389943344011385
-2.04597778352392
-7.54115973545258
-20.45503795040226
7.6458551528256
4.302268408806882
-2.736136906722246
-0.9966223391114811
20.99370191829795
-17.26094267251399
11.78532356509918
6.348178229183986
-18.13432512416976
-0.4694682021323303
0.006932911729087369
0.511364567857918
-0.04882927739260241
15.22803380308763
-9.336008776461766
9.670956935601403
0.9800215854781011
0.1403764479010936
-0.007590932948122596
-1.112807099955533
1.221480414621323
27.4064935100848
0.7477207633856423
4.255367385661486
-1.227433814664144
9.306921107136958
-12.33485467821022
-4.221810341452698
-8.591384208675656
-0.5180103017909401
0.8970549519720635
5.200014898052625
14.20510913826134
-20.30217898831479
-0.4314259285207903
1.457597159155043
0.941097677778642
-1.967268908171445
17.60082840183831
4.703795672549413
7.36212066047895
16.36240991362472
-19.85816997865889
-3.866360595443283
-3.696897919052879
-0.3732204694405259
3.314689966468372
0.7554284220653291
-1.381472615241674
-15.06566401199781
16.44607673228458
0.8720701684676238
-11.00337799570878
-7.072764758743001
-0.5825008033822802
-7.861489445026027
12.50427988717214
-4.0602896388059
14.48187932837047
-9.86204377574337
-5.202336356041966
4.983708516717074
0.1941333861643341
-7.492372850590065
2.314530947786088
-0.06986098449737485
-0.01593138041379147
0.0351944171918952
0.05059794770377663
-15.88117695463163
-3.027614372550137
18.18111528477291
0.7276760423923766
21.17198721361105
-22.23823634250231
2.323151435086527
-1.256902306217947
10.94984154337198
-6.638376249028198
10.1704140340288
-0.4740745504989402
0.3743444910051177
0.09641032586276928
0.003319733863258663
24.16555837908897
-5.66784838853078
-0.9852082064506957
-17.51250178413692
5.029209916390482
19.14353206634952
-0.994050348731076
-23.17869163415297
21.9316459819743
-12.22768820872306
-0.9431994914687521
-8.760758281813315
1.252381595918053
-0.1805921894127044
-0.9900641009925195
-0.08172530541940416
20.96007655114892
-13.36492507234406
4.159274325728784
-11.75442580456749
22.85405477028976
4.231719104827861
-9.351088241193237
-17.7346856339389
-16.92324093276377
-15.46273956119862
30.67217474685954
1.713805747160458
0.3166813222796647
-1.001562729337664
0.5484989916086117
0.1363824155619782
13.69340166343771
31.43223326678093
21.79795701582263
-3.365330980273029
-12.99678496111787
-5.435841074465467
0.3764769846483162
16.57432952880328
-18.43665804980895
1.485851536234278
-31.34851285569533
15.49546293682651
8.202676983780055
7.650372934983453
-20.23346532016796
-25.09564552099184
25.91486874879989
19.41424209236239
-2.354735426757011
-8.119097856757847
19.45780965436595
-8.983976370855379
25.16964354215673
-12.38915713946958
-15.13522182946599
17.5392742463759
-0.5795896027202675
8.209958898473134
-2.615557500276977
6.626426276506186
13.52840547010604
30.49522316415577
-39.18140076432917
-14.36895572085965
-26.32583331422005
-7.586326927524197
29.69911907946385
4.213041162254047
-13.48219961390029
16.65169622394567
21.47845188169193
-24.64794849184321
29.0214633736833
-34.67762106429861
20.27121487784083
-14.61505718732005
-18.54518363011211
-8.30392204058249
22.99229015278208
3.856815517551937
11.492402470597
-29.64152244370509
4.666920358952597
6.454066926816221
-10.86193432976222
7.009823744642503
-2.601956341111445
32.96567091794673
9.612735933054402
-1.663629474722657
36.35600047141412
-13.2489665633129
-21.44340443342851
23.20470444466307
-11.92835956598787
-11.28275218914739
-15.42468432650928
19.1176756183547
-3.059995851546216
-16.05871813577552
-1.062805192710796
0.5625176199427384
-0.2648835873335221
0.7651711600853326
-10.95088736712709
-18.68096814441587
6.147462340667627
23.48439317096337
0.1598561559627827
-0.1770495032497592
26.07641976900566
-8.887450519454827
-3.903053307389769
-13.2859159421229
12.46029684601833
9.719883857703413
-10.69300709741212
-11.28122734130195
15.82089796224155
-21.39272332562887
16.85305270447816
5.430454418165436
2.85830860050438
19.02337902354036
-27.31214204225508
0.2918249935701163
-0.4066942445104497
0.3192981784024679
-0.2044289272792866
22.203440413916
8.878823985083072
-25.65180998099479
22.40482883101195
-18.13541946113841
11.96701508820406
-16.23642445809209
32.3306223818038
1.093771734190413
-9.541906511929431
-23.88248760401351
2.435455232767173
-27.77978132999255
26.5139369969337
-1.169610899794805
-12.24097279729874
24.39842785879677
-18.88230139399293
6.724846332515022
-17.21516801659988
11.72152788934913
-4.905501351513291
12.70709541576202
-30.64431762701766
22.50146235403118
-4.564240142755374
4.409519478361577
-5.170763759420652
-21.19437014901193
-32.78827069711385
26.65231294319156
-3.607822976159885
9.743780730062019
-4.557680961420405
-22.27276786494829
13.58027601084432
13.25017281551873
14.21865877582607
-11.92337064062338
-5.810146972048289
3.514858836842079
-0.300837450618146
-0.7206907812223142
0.5750195179585337
-23.8033240550697
26.12415472343625
-35.1091013655108
21.70976628336185
-2.199051077125024
7.141597736937436
-2.900268294399739
27.99777915271278
-2.615468423035393
-22.4820424353039
-21.96112853617351
24.5663604953491
5.385419810772144
-7.990651769984527
17.11829730724521
22.29695727451466
-28.96318505481733
-10.4520695269052
32.32921163946525
-30.14178994033966
3.54219538289516
-5.729617081965113
24.29479161224395
-14.49106822355139
-13.99622944085342
4.192506052137973
-34.39247419281129
12.19180884207282
32.90990245430247
-10.70923710362512
-24.23694827502965
12.35086213430378
-22.50638805213023
26.86117996490812
-13.1563716954804
0.318933621056661
20.1150118143809
1.610105566955849
-22.04405100238458
-5.838194977589981