/*--------------------------------*- C++ -*----------------------------------*\
| =========                 |                                                 |
| \\      /  F ield         | OpenFOAM: The Open Source CFD Toolbox           |
|  \\    /   O peration     | Version:  v1906                                 |
|   \\  /    A nd           | Web:      www.OpenFOAM.com                      |
|    \\/     M anipulation  |                                                 |
\*---------------------------------------------------------------------------*/
FoamFile
{
    version     2.0;
    format      ascii;
    class       volVectorField;
    location    "1.7";
    object      U;
}
// * * * * * * * * * * * * * * * * * * * * * * * * * * * * * * * * * * * * * //

dimensions      [0 1 -1 0 0 0 0];


internalField   nonuniform List<vector> 
19631
(
(5.037545603834113 0.05441810186222247 0.05101559081391135)
(5.046270566541257 -0.1679280883551549 0.1213782832309983)
(4.998651930713667 0.04129858953609872 -0.03911107933744841)
(4.699719599254174 0.8405178524564605 -0.1873248041361511)
(5.048811794732591 0.09308337952062311 -0.1746966315296337)
(5.004563074640069 -0.01991322050046945 0.01281310289791747)
(4.990125778249136 0.01790036616221395 0.007698433033307492)
(1.667577935783731 -0.1234324516140438 0.06484679362567759)
(3.701404342400162 0.04014533437638411 -0.2610157237289062)
(5.021973666444937 0.03579175526040691 0.03192413081200451)
(4.913891076680122 0.06452520423160629 -0.05349188865476123)
(4.999804176350794 -0.05497957382891379 -0.02023135827569324)
(4.307400207696912 0.1591276869587827 0.5703618646971879)
(5.01220097310549 -0.008656820934391931 0.04368031067991176)
(4.998950857830907 0.008900522591914943 0.00695313095480539)
(4.982662442134641 0.113519137349349 -0.002835674709080942)
(4.960967054310021 -0.02505592706375221 0.001908814378317053)
(4.219238862696681 0.5628658347698535 1.265786951003394)
(4.394459566766926 0.3358972173369075 0.193336958212122)
(4.056681704349895 -0.004677547107598817 -0.1857110075185139)
(5.013597243627452 0.08333836432457394 0.03903399788651405)
(5.060710894925844 0.009999565337945106 0.06921726541107656)
(4.460387462870567 0.3466745112816786 0.2689998697251654)
(4.96227848548344 0.02010780052422277 0.000354208198172596)
(5.047046688806294 -0.0241931920661644 0.1763008733856335)
(4.985422653706149 0.1018886687278452 -0.03456060067734229)
(4.887975365971156 -0.141799909320143 -0.03119080918859055)
(3.864552418167591 0.145478051305491 0.1174491073217997)
(5.040368107836208 0.160969896721007 0.1480384385216144)
(4.993639984115021 0.002988187918218325 -0.01559331858123099)
(5.059601839609337 -0.009066238600005829 0.05177878810863574)
(5.059653233837471 -0.01700581486521243 0.0234964900778176)
(4.959350228971037 -0.07393024141494213 -0.1132837419189071)
(5.024192854053439 0.0396417924275206 0.03409197925569302)
(4.19802861727209 0.4571188726367236 -0.2755011475090974)
(4.510763253315803 0.06775907480775206 -0.2494351727105955)
(4.931153157749372 0.01047836938910776 0.02199921237488023)
(4.538578433097215 0.08448382376097417 0.05626220062258958)
(5.037996780596996 -0.0783828034333916 0.04807178019634751)
(5.023144127770618 1.137381046248039 -0.3078152268852365)
(4.454661438428842 -0.0255965292997661 0.1890669295676742)
(5.03623177606394 0.02364122547044997 0.05367438517623006)
(4.999266291501616 -0.002530482587379043 0.01683064200866912)
(5.004378630220352 0.08248526518567986 0.04108283585162286)
(4.035211016037785 -0.2872974741748112 0.3166738972885392)
(4.420072201208827 0.2411019845461435 0.1324439629474033)
(4.986791120006268 0.007148145679141311 0.002290709915046519)
(5.028558484202984 0.02510990120595041 0.1165381946918996)
(5.046660478445111 0.05609478788947973 0.05797383512028435)
(5.018427449926052 -0.09311005568148467 0.07765732059213365)
(4.686300171880533 0.3169822869669617 -0.2630400367327866)
(4.818513664203181 0.08664732190110107 -0.0757338148323372)
(5.064550943480499 -0.0201236548415861 0.07423162659571736)
(4.137679800922265 -0.4239161405980993 0.42737674569159)
(4.981807217072321 -0.08194281306129975 0.007445024329379114)
(4.669540528630888 0.0001048687385845014 0.3313568586304468)
(5.011126757652065 -0.1088802423354881 0.07692094043772861)
(4.985164461489667 -0.05545572574891282 0.08225187070579862)
(3.624743872567642 -0.4676115339883211 0.3234127999253723)
(4.997896588998059 0.0171341305923535 0.003411074545510961)
(5.026907863442981 -0.04045462118164975 -0.0007454818733941998)
(2.222383683326244 -0.06216564872586187 -0.1209875416334625)
(3.307975009767596 0.03351276436426433 -0.03353168486504546)
(5.025467964715216 0.06880143286585122 -0.2021938924914969)
(5.038587176858847 0.0099480210540085 0.04334635856496261)
(3.168648882472556 -0.2350568197993052 -0.2844946849601214)
(5.066538283786342 0.004457661447596739 0.0559600890038555)
(5.023944655243236 -0.06321768696178179 0.03729257111698001)
(4.923289234913602 0.1315069773676901 -0.009012550352095378)
(5.025161682900872 0.01611921613713439 0.02023442111660243)
(5.017974831957155 0.02397048317373382 0.0200222843421927)
(4.041554872000656 0.6934306599173798 -0.6719694595157585)
(4.993362863318038 0.04507695117168691 -0.05234729869773226)
(5.068029591182981 0.01271798185054516 0.03144007676750778)
(5.108190549444243 -0.006625925054405327 0.138964008458066)
(4.973874490661287 0.1473526963849747 -0.1215453716498245)
(5.005300379546573 0.02980151956884003 -0.04665088147470391)
(4.883884092637405 -0.07711404752583698 0.1418304355506145)
(5.000626734592569 -0.3770082672446706 0.4508855611563773)
(0.8939114635214753 -0.2988124457207711 0.365186742301074)
(4.992911843388447 0.07777749289609084 0.02115478055988241)
(5.114171789508819 0.1419328026300013 0.05012577956668163)
(4.91915476875541 0.2392321335288984 0.07175689862559027)
(4.872280370703936 0.09065754843053213 -0.06241212749149853)
(1.920416039927397 -0.1020601049932721 -0.02529142950303717)
(2.15392237838336 0.2193362105346055 -0.4069240688983193)
(5.053071634724713 -0.01373321073903068 0.09912097969257906)
(4.878115635635033 0.09754397651415124 -0.1302331812057343)
(1.662342569705472 0.0242291011459441 0.08045386246218912)
(5.037701231282922 0.06037771500491775 0.0429691476194036)
(2.389742235576283 -0.1074325552152494 0.09890866770798636)
(5.079300037588633 -0.0211702275428112 0.06068844863114278)
(5.066969213115261 0.02944716014981758 0.1395550326438098)
(5.08611856404617 -0.04669439808240164 0.05823204790243124)
(5.041953709483356 0.1469031126202482 -0.02542570823360155)
(3.047992758550136 0.113692701961307 0.1084236393277741)
(4.97485866237029 0.3182628682560531 0.109774635668315)
(2.522977647596695 0.02114626150025437 0.3227625049891544)
(5.034018891730447 0.001594988504682107 0.04161715514729367)
(5.114205532171889 0.01273676971840251 -0.02047513825381063)
(5.063574689713292 -0.0102754500906109 0.03209905937488518)
(3.367429961369009 0.1012901416530816 -0.3528173731799932)
(3.522287268864234 -0.08320414798147809 -0.08425631828802074)
(5.032744649448169 0.06454100004230305 0.03177375082593545)
(3.81895142688071 0.05201386291772415 0.004725184737961125)
(4.096786725788424 -0.2553261960061701 -0.9971690779032432)
(2.833542575960017 1.019559383039861 0.5012839536541615)
(5.070630838967703 -0.007393611611906241 0.09652416407997806)
(5.070960623218411 -0.008718398010791308 0.09267116459050342)
(3.652657331512636 -0.1936850500354778 0.1546235238093366)
(4.994942348224178 0.2842314156672271 0.1628073588314877)
(4.926741029078801 0.3063429427068488 -0.08717407651178645)
(5.125739083061489 -0.07544678893762161 -0.08559220607368649)
(4.771679912268597 0.2342251697176209 -0.4374070786682474)
(5.078870161076037 0.01550454170133963 -0.2042141336708827)
(4.873211977907233 -0.1474796282728418 0.05920660407151028)
(2.669307678535553 -0.0886885923905778 -0.1467917128527432)
(5.054884183368928 0.01689476790905367 0.04854843917124665)
(4.907884401334939 -0.134090901743621 0.04554565359787264)
(5.06589620162592 -0.0007810186208012381 0.03057497301850783)
(5.070489234362539 -0.008268546347527366 0.05914023748009637)
(5.07514366515131 -0.0003102016129637587 0.03833015199062609)
(5.084782695567983 0.001789005828033501 0.04594986878048891)
(3.657442092817899 0.2412991877334137 0.06969982718223473)
(4.995723721700092 -0.04003635121610308 -0.067152916237169)
(5.062159964876103 -0.01448168646257358 -0.009007744527345332)
(4.946506876195938 0.1426653916192526 -0.06726826992473009)
(5.033469345936288 0.01641550418322162 0.05309185753541876)
(5.022554318173292 0.01729216622603 0.02420973997228482)
(4.541709666144754 0.05542548050246908 0.3053286143867709)
(5.044714575393349 7.658258231391695e-05 0.01834865621387558)
(5.00904660835254 0.01872870254490825 -0.008781727056139018)
(5.069070581600188 0.1466434888478577 -0.1295292144427651)
(2.540663119262849 0.162469874680927 -0.2129672054188338)
(5.033559823290278 0.1031139408922325 -0.06030874424199498)
(4.120895944464293 0.006119341844683879 -1.293859102214511)
(3.646965643820604 0.3953411997438123 0.0169928097347515)
(5.082458330021828 -0.09976696328229105 -0.0368659881353181)
(2.138715222948097 0.4813262753984963 -0.2764644651143396)
(5.004684646790416 0.04931699749023056 0.1241583157561196)
(2.463003143905279 -0.006152613917767981 -0.06205989182895163)
(1.781235981475861 2.028556126005188 3.615382510677425)
(4.263564116402519 0.1118671389889411 -0.2812267488402969)
(4.976991409123658 0.003643893532389413 -0.00235526335105947)
(5.096266412120762 0.02726974937081231 -0.04326450326297332)
(4.435537619374336 0.1659370438305515 -0.3551042191751215)
(5.044668128622389 0.01222811758179527 0.0665715513143141)
(5.014292281161171 0.09726758648081631 0.01939694237802735)
(4.991395979397652 0.03415472793525837 4.100947970519476e-05)
(2.926421623227844 -0.003267983396418488 0.06543741049302663)
(5.062928345975631 -0.0252529381300919 0.07815280348381951)
(5.055567828967281 0.0151696097318418 0.06016767599025337)
(5.069416252939918 0.00380003245374451 0.06118709667685607)
(5.059796739986187 0.01629710879232528 0.0161040061777622)
(5.069845978862583 0.003507148312850835 0.06402140588192359)
(4.9991945804983 -0.0486028278623168 0.1035349163457618)
(4.989646539654276 0.03118078201444652 0.004593682638116037)
(5.04499014516345 0.08532110957878487 0.1940657796437564)
(2.476500607411584 0.1150141545629792 0.1230585500279757)
(4.50819316941527 -0.01579756566258598 -0.02681539717113854)
(5.06366948674389 0.02005357041897699 0.02997790941436528)
(4.998133554172822 -0.02302946079591476 0.01333777787147572)
(5.073229413261669 -0.0002823645121836482 0.03673439331980072)
(5.077416426820757 -0.005457415426276784 0.04870316575119774)
(4.977083690885773 -0.007969117180070543 0.00739232790958386)
(4.964273712025073 0.1240108278735793 -0.06503720496757104)
(5.095576720844145 -0.02940895520252849 0.04004329126498412)
(5.04924784142853 -0.01244348388975094 0.02618956931087417)
(3.249282004279642 -0.1135726401976891 -0.2511835824725576)
(5.031675057754312 0.06499305683194301 0.06212543679758444)
(5.055674040022037 -0.03578206323386258 0.01529208634729642)
(5.025133942294774 0.004291323282944573 0.05884505404627086)
(5.045472547776127 -0.03950648880171403 0.09957627389629396)
(5.051478943905714 0.04986669515132323 0.0575063904573225)
(5.064396283649764 -0.001941916836215924 0.09141377419519414)
(4.983142983394012 -0.06753619103655112 0.08349959652152801)
(4.999029990525019 0.01679438970978151 -0.02366878020676042)
(5.060802883699002 -0.02212196095106335 0.09682839912383603)
(5.02396484217559 0.05984295624638199 0.1274764220960471)
(4.118476450014096 0.2116859465302147 0.3596627741649976)
(5.014176553878814 0.01029956276223051 0.04745989696293842)
(4.993243351864884 -0.009445512212448678 -0.003374494287875774)
(4.972160975473614 -0.02644858215470113 0.01059915111297627)
(4.579544970542836 0.1106190530920286 0.1714351158268112)
(5.011798178143858 0.02355185061926821 -0.02051669207699821)
(4.973106345545186 -0.0118123665011002 0.02924641971290873)
(4.987598060740684 -0.03695422041985501 0.03874849088396715)
(5.06952325176549 0.02844086429041067 0.021129990919993)
(5.074736825964958 0.02467243397441088 0.03551351810745994)
(5.063543658555305 0.04096989570247005 0.01744189784451883)
(5.067146073000659 0.007653579298667986 0.05131192374568417)
(5.012138938172758 0.1060232803805027 0.3496865495272726)
(4.966258587499707 0.07982785498935119 0.1559681447335264)
(4.989256163552696 0.01230759932800733 0.004676790738321585)
(5.004128552006632 -0.1086109063130368 0.1286129558021697)
(4.79905034915739 0.2905268401386298 -0.2680082564370304)
(5.053941799250515 -0.04480922600779256 0.1808751628800446)
(4.982804315853424 0.02544276446250396 0.004485132650721283)
(4.946480628773942 0.001049050952141488 -0.00288253249024545)
(4.961213425104468 0.09610804812480651 -0.06944387566986326)
(5.085698418940276 -0.01363105008876672 0.03824328256773948)
(5.085120035469215 -0.009005050415808225 0.03225809287272479)
(5.019263134394921 0.01096084551072815 -0.01976151840451331)
(5.084744528260221 -0.01983574343328554 0.04780469837905277)
(5.012574657653866 -0.00106786363464118 0.009773128133056676)
(5.040566523781607 -0.04334161289573931 0.09906083003665038)
(5.023989682979866 0.02218379760724339 0.0005866068544980472)
(5.031610412548029 0.02295954367878951 -0.006725494982525478)
(4.835381769020203 0.2442373383468321 -0.03384260549883502)
(4.983705572227868 -0.00719815131948233 -0.1246771574458733)
(5.024566121567893 -0.07568976608143077 -0.01495822067531698)
(5.001812126977496 -0.04435068230206966 0.07770159556930269)
(4.453589113795921 -0.2186221918670433 0.08468479683253413)
(4.993231083157821 0.02636722241951436 -0.01546398299315008)
(5.036393924631986 -0.08165343529904155 0.1228335459981929)
(4.296811801649874 0.006330010471515833 0.427064222616979)
(5.018104505823309 0.01533180375176933 0.01453281386573848)
(5.006040033980393 0.002576861935438106 0.008585049280852974)
(5.001874244419855 0.02464519730406051 -0.00423657993520561)
(3.254129677951206 -0.2365978837071277 0.01686092415053148)
(5.036636294591498 0.01239020065437665 0.02765467664346927)
(4.959772740725311 -0.1432062494971121 0.07955036556851681)
(4.970924518865808 0.03613412435595886 -0.01292142370970128)
(4.99739884988382 0.007809732383485308 0.001040308661326782)
(5.029394755688604 -0.005463319494175484 0.009046392772814356)
(4.98613876575131 0.112395436982662 0.01133495647794234)
(5.007076568813033 0.07156159329086691 -0.04899546089460733)
(4.965143620242802 0.09215180915263875 -0.1411159838735045)
(0.8814109210691531 0.01888614127657401 -0.1701362648741269)
(3.814475069601416 0.1944413621265452 -0.1294045098972779)
(4.977140018721004 0.02900132903665631 -0.03285052981456667)
(-0.0052221625784548 0.003868175810708809 0.08146832907633199)
(0.002836845323017038 -0.07863848050452504 0.03931482194039943)
(3.212879050746846 0.1004782498149499 0.2478825045579219)
(3.798463814742697 0.1712919102790942 -0.1353708388556459)
(4.758066146408877 0.3608038554410513 0.1832463017241686)
(4.115805340615887 -1.009396476207811 0.8011570380543717)
(4.481793976972822 0.08222152655015029 -0.820243593874482)
(4.927451868683097 0.1427772111895866 0.3260789355741611)
(3.097043960973311 -0.139437295874874 0.1943696934511926)
(4.937461763288065 0.002754490314029269 0.007637261109862753)
(5.133221059210832 -0.03815575365865478 -0.1034156305610256)
(4.998774905281651 -0.006537375866510846 0.04315057025354457)
(5.083618806735305 0.0186439651922051 -0.007782421034596494)
(4.979688475507892 0.02472869993753867 -0.02267150984401792)
(4.894708482798317 -0.1658926870498915 -0.371758915976258)
(4.911514021331862 0.06753784177866097 0.1119592412838829)
(4.970154936115962 -0.03147424666130546 0.006047099269061305)
(5.051847693576196 0.2116175215361117 0.07704329440526343)
(5.034886877183075 0.02375130640986598 0.03170032403398268)
(4.655114932343582 -0.07064320997492617 -0.0786468255124506)
(4.426084870876574 0.3656789032658991 0.1206835440961716)
(4.976779500854242 0.09594608708447379 -0.03830803992372477)
(5.124402959330862 0.1479871746940438 -0.1180918886249614)
(4.910129983579221 0.002232546713358695 -0.05216500412708687)
(4.833687238818258 0.355782826597864 0.2152339858109152)
(5.047107856797916 0.0429658879133351 -0.01666220360821363)
(3.38474612683199 0.1903024262054192 -0.1583888131167799)
(1.683037769616837 0.3939723668165564 -0.09143073329842107)
(4.932188934588598 0.03110139003113363 -0.01868428618926699)
(4.997056343855087 0.07813429192568097 -0.0355934910359843)
(4.942677787648331 -0.1199581082438322 -0.05510775144825364)
(4.342669459975244 0.07868020983842418 0.01765042502183808)
(5.07339263705762 0.04685386243011968 0.1710333906605833)
(5.089034555766907 0.08716838491988048 0.2368538498064867)
(5.010622820414206 0.04784847873172882 -0.0428612181324672)
(4.984954009395858 0.1200505698578488 0.09715072361390038)
(5.066965508241063 0.04654059244465959 0.0663038978821516)
(1.703743699971426 0.100828596799883 0.01436244258743236)
(3.610424864544455 -0.4349374450275222 0.08850244015678166)
(2.480526963433437 -0.06200522761721221 -0.1621914301478232)
(4.971309986223415 0.08313720221680554 -0.1278857245316419)
(3.122613704989949 -0.06263355671822718 -0.08802123323015291)
(4.998009744709368 -0.0001643434891409524 -0.01849899309324908)
(2.377253149931542 -0.2416196519479257 0.1605135236529917)
(2.05465400297122 -0.13689584995133 -0.1692362878959484)
(4.995433859442758 0.08696257882598092 -0.01762688310591396)
(4.288290259965863 0.01736631547139709 0.07943842681986488)
(3.008797368220044 0.2022213310709365 -0.1374117737311213)
(4.982375401492037 0.001889652125580654 -0.01765812194002085)
(4.923659400482421 0.1202618417908169 0.1038125779371465)
(4.997333164505529 0.1159151373302374 -0.07686808280328165)
(4.80135397166069 0.09572967470996377 -0.0597606736955964)
(2.695233907371497 -0.4729124138272809 -0.7674661216604005)
(3.361580967094245 0.3548405839386173 -0.08699349209864471)
(1.350048080502571 0.2892912913754247 0.61178120911348)
(1.223821847893594 -0.09420106523151178 0.2020698872559704)
(2.603310343501838 0.1155941803796506 0.7371260577557429)
(5.064879692855265 0.0161389992214053 -0.08250500005766255)
(3.890209078781883 -0.101429462964521 -0.2240311450981543)
(5.116289672808321 0.008470174911339423 -0.1158395516851006)
(4.975676855745347 0.01958280309652433 -0.01053614631421543)
(5.007130313390574 0.1105027036871758 -0.1370083671271169)
(2.903895863570785 0.6043673582326371 0.6449210182468423)
(5.110541298029645 0.07150657424237077 0.3183073348477836)
(4.999477447580627 0.007075783465703076 0.008907304112422505)
(5.054096693322319 0.03477368987961033 0.2789557834512272)
(3.438091959227688 0.260938810722157 -0.6370323117757283)
(4.963191625764912 0.06134090061961973 -0.0375528109805825)
(4.788604150122895 0.05696112464953292 -0.1519957503730758)
(4.816572417290068 -0.1279784309223284 -0.07080041194255628)
(4.636745913967451 -0.2444378242443284 -0.03235990995211856)
(4.473033043972775 0.02850831551021175 0.2570706048770519)
(4.654676565888146 0.106406794240103 -0.130901422723665)
(4.883282840770431 0.4324146415569389 -0.2276591570995733)
(5.037520785463554 0.07810633345373982 0.04966079315834829)
(2.92711956016545 -0.1743976472327541 -0.1905872612436202)
(4.936904080946984 0.02860060303808225 -0.0611653203196818)
(5.025983226418172 0.05865533832515916 0.03338923014320836)
(4.82723276925536 0.4315581172984413 -0.1144201921336806)
(5.000426770737191 0.06854374195124391 -0.1199959484495896)
(4.998176493050763 0.00352085426844404 0.003094307940272808)
(4.973454839434518 -0.01801346310490321 0.009077188508543103)
(5.00694526606726 0.05710858312359084 -0.05694075644426651)
(5.077289093099225 0.1039532707669439 -0.1843634669564851)
(3.329931948387221 0.1411760112460171 -0.07391898165348791)
(4.016245738812112 -0.05846313080859684 -0.09915706718333521)
(4.941737301998637 0.00723384520710167 0.004034833499323124)
(5.035128458911711 0.1180562432231962 0.1563392234951247)
(4.984961216239741 -0.01865588788134543 0.02698433272179995)
(5.113925110989854 -0.0148517816347623 0.1043893680964854)
(5.033539013852815 -0.1951840058723611 -0.01938819078630538)
(3.964114009721149 -0.006498626603790709 0.1061279629930161)
(5.098932840007442 -0.02786973336776306 -0.03264647521177166)
(4.984355178583765 0.08333298952285376 0.01423111178731425)
(4.956433246663572 0.04838353200580695 0.02290588101550716)
(4.591176944426492 0.2473092694269819 0.2175840713464388)
(4.970105183175431 -0.005292903198077372 0.00521407381617979)
(5.00984372962554 0.09661461733865913 -0.1267447738669637)
(5.002309366683786 0.007890541893224235 -0.01526938180152174)
(2.390426743430583 -0.2411678074434856 0.01328359030926695)
(4.541596120318632 -0.9306436437183622 -0.7023709786374677)
(5.101873498541472 0.2292238625885784 0.4449313233106698)
(5.054604088774383 0.03109087439529674 0.08415580692752836)
(4.940014464617293 0.05600664484641388 0.03056783485527223)
(3.262112957623904 0.02081475175650946 -0.0314668581935808)
(5.176063077951622 0.2195350114075496 -0.07286278089487287)
(5.090879597163218 0.1265887323293577 0.2787422232642844)
(4.532517894763445 0.1060860805711146 0.02069330557755131)
(4.968962427345423 0.003877410266302097 -0.009410398695590771)
(3.695614427900491 0.08253315894039566 0.2905327807321579)
(5.078948920413644 -0.04966101469446877 0.04876020685015463)
(4.99475493830412 0.01833253382366154 0.002888589422686588)
(5.278854199930501 0.1105132033326385 -0.3541593967559399)
(4.511770915155441 0.02111417948553821 0.1398554124434493)
(4.985935874367806 0.04750367186614638 0.08925603101030657)
(4.296730061992683 0.1672220443753569 0.04412541556509277)
(5.074333126575031 0.02268428932692209 0.03057049082398)
(5.000693957001331 0.04146346277396559 -0.04219691092954345)
(5.05527225252146 -0.1039145467577326 0.08094938524445831)
(5.094930822594997 0.005884981021859951 -0.03785310997088014)
(4.999391845077431 0.004296955154475864 0.0060646831502344)
(3.524432064324858 0.2832379314774828 0.3087099646136149)
(4.949661965439743 0.1097735691584224 -0.1818508232039229)
(5.008698465624626 0.03600644506583594 -0.03400727641541491)
(3.624729749897789 -0.09339116227224277 -0.08088786567710017)
(5.037146967592868 0.05636287498903744 0.07287686151113677)
(4.998387700264733 0.01944981308854399 -0.03117257851799161)
(4.946725514102551 0.6216954294145144 -0.05793858117591716)
(4.482532442835517 -0.1018672028333157 0.3377631195269477)
(3.949543456206358 0.1613410901564381 0.2738881780758817)
(5.070811884136906 0.1281521632348941 -0.05169834679545923)
(3.312034675949199 -0.2805918712973847 0.08321855568475782)
(4.193616441663636 0.2651990067000253 0.6691785457787311)
(5.080552852169137 0.1210063135408689 -0.1163808222874547)
(2.517353045492871 -0.04291753542599685 -0.1707054297523461)
(5.009333883454953 0.07325676842757264 0.02073292745204115)
(5.08818864387042 0.03069109877823642 0.2056845873929187)
(4.102211195328533 0.1330877987132096 0.1484705446948591)
(4.964694689614651 0.1354765954030203 -0.01913683573973178)
(5.052997788912723 0.1373957086257578 0.05434112261411875)
(5.04187774172936 0.1313116773055909 0.01103755185560692)
(4.76766953440074 0.1983538612498414 -0.1126472996653515)
(5.009931047767938 0.1443792410768145 -0.222490885291708)
(4.315606803864213 0.01516848955427708 0.0254759038522002)
(5.319680076566678 0.5434586373337364 -0.9622763925781943)
(5.021545113118192 0.1058598437483727 0.08322126021390859)
(5.016468055098498 -0.02680292854812774 -0.003521232367096575)
(4.675095778806204 0.3704811973958934 -0.1599107059985287)
(5.039436505237891 0.2685118258042858 -0.1964341534483371)
(1.31266939317998 -0.87947767607306 0.2488032819752514)
(5.079024142118488 0.03910171626420377 -0.07808792892842228)
(2.688918506542363 -0.1121168870473427 -0.203282824085578)
(5.087364865637729 0.2356057085245047 0.01813249773853996)
(5.015760178716835 0.2000694335622446 0.09498028657850556)
(3.28350259030697 -0.2584985988412757 0.1495169956017614)
(2.81055508417868 -0.196760197626276 -0.0688388965679788)
(2.926729199384776 0.2149224233560029 -0.111138926586791)
(4.52520109788466 -0.03192958433100883 -0.1319533761280497)
(4.978722908933761 0.001954885799846466 0.01955554838394213)
(5.032662367961096 0.02056255627674618 -0.04260436933337988)
(5.012911683095174 0.1001617232264329 0.08713278111845427)
(5.024164835187078 0.0581701387273354 0.02951066325237868)
(4.981598796063985 -0.0139052335961589 0.0322726238845907)
(4.950032822754013 0.096469773745134 0.009499761902968437)
(4.994668567523359 0.02300555004219119 0.008756531930235336)
(4.902209475870113 0.1619067193718907 -0.1180025413971767)
(3.417775894604448 0.08783086563828503 0.09605758779647745)
(5.004292134877184 -0.03141633052253644 -0.05010766065469453)
(4.865728775611781 -0.1211043227591522 0.06700365412460066)
(4.890164297647387 -0.2499381512826818 -0.1597754866528175)
(4.901740506367981 0.1475780759782467 0.03913747407910335)
(4.078598879948288 0.4582862153887625 0.4370820726855161)
(5.120791592191052 0.06896176547010899 -0.09637553929458577)
(4.760275346507707 -0.01509093060656714 -0.03283838347276952)
(5.034090645041414 0.05693160219870622 0.03168253370999232)
(5.038765385791725 0.1408545999343436 -0.0965510086843733)
(5.050356309093237 0.0425604870712669 0.06275537747857371)
(4.983820034289469 0.1203422243803442 -0.07076254735874588)
(5.008719743515541 0.07255126565791417 0.01155898741039584)
(4.978308449473327 0.003520241230053914 0.02016476487669232)
(4.866586989980614 0.2404659268417207 -0.09001517148707378)
(4.984289583031034 -0.04652333473008936 -0.008739656440669956)
(4.96915871588668 0.1836444193994936 -0.04830608965791917)
(5.005696991866779 0.002142864329414044 0.00264405995180382)
(5.043358674100793 0.1055709156961206 0.01249008260020872)
(4.084707736161072 0.2712639290270557 -0.07089297915346665)
(4.839702816420878 -0.2807141387055981 -0.2080411857035984)
(5.006197249036037 -0.0006154950373828679 0.01517103966985975)
(5.077818043142922 0.0256211311847858 0.007249687164246378)
(0.3707656651163787 0.7770131954654115 2.748800900438217)
(4.988212343471831 0.004096681192522813 0.07392587402326477)
(4.947872504414291 -0.02461408563068538 0.01251905698118669)
(5.034656318887524 0.1146867308017671 0.08053291139639797)
(4.961066891427846 0.02796063579857521 -0.00543515414784118)
(4.972214876102798 -0.01449947500965127 0.1109967975756932)
(1.451621005258638 0.7662168280276478 -0.1325831524150753)
(4.956931356400514 0.1460217909605573 0.03975139189809739)
(4.631456718561256 -0.07967868855469477 -0.2723318910858847)
(4.934984590053931 0.008746574024198595 0.01639917831294522)
(4.975598720801198 -0.001097870849188248 0.02314174909883778)
(2.823788322667993 -0.2249963499381411 0.1527359531783528)
(2.532930207529433 -0.1800837033468879 0.7045710964880278)
(4.962009374588276 0.01571012668224999 -0.01670392318672089)
(2.00000580989912 0.005677184117130025 0.09990294713658736)
(4.998406601316201 0.01892133988739524 0.04154218492213816)
(5.011257023059265 -0.190229845030654 -0.02256260420657688)
(4.966540042625297 0.134106799286717 0.116216255150454)
(5.000038774746371 -0.0001188397329547899 0.0004394602984088998)
(2.18848699306545 0.1347202444763906 -0.07566605711152663)
(4.954648814459568 0.06439271707506197 0.09741253132671263)
(2.11421909641485 -0.1816405506231084 -0.1796493939582527)
(5.084270415409752 -0.06211718967834081 0.08209655287050396)
(4.898267744020825 0.03603092179805476 0.01637653221415973)
(4.421974033622789 -0.1055691801320073 -0.02618632059711165)
(4.800638163849897 0.2022724892757928 0.09640621960215377)
(2.19382313398378 -0.15083727398042 0.2278359557946942)
(4.406323404508315 -0.04859567005028854 -0.203702480336159)
(4.748358717574765 -0.09408651442958486 0.05267883359505006)
(4.814535950697045 0.1215994758638928 -0.04489602728875842)
(4.98510877994137 0.2719773591611946 0.1241614432021184)
(4.958628441733445 0.03870366034467197 0.1296867886858206)
(4.987428705910778 -0.06846145660664706 0.03768033934395083)
(4.015887772018821 0.01683350654450119 0.1985883823968772)
(4.981734702541906 0.2451723015925434 0.03455381477682756)
(4.996383973805677 0.001765725767357392 0.01370239827464969)
(4.949012352374599 -0.1468278036711572 0.03712716761892156)
(4.960482594488689 0.1205229415381125 -0.03131450171691971)
(4.182089585614127 -0.1038973084565961 0.166691863690105)
(4.999992709428872 -0.0361729783992788 -0.05211566388429741)
(5.066974720339615 0.1739722864423611 0.1784918307962481)
(2.095056995554101 -0.07618281012618341 0.09550082686188847)
(4.167840960203385 0.01300929116470447 0.1243806977835393)
(5.011359150973608 -0.01534463366400596 -0.02342158654659789)
(4.937319785373139 -0.03594109297749302 0.1171409939844977)
(4.965227995737556 -0.018334240534958 -0.1701325695889333)
(5.013828693418396 -0.04498550202358968 -0.04911378954367657)
(4.945995382748865 0.01027055913622333 -0.001431653638588764)
(3.75747163332614 0.3018785549319392 0.3606334811103978)
(4.580690982405309 -0.06381337325953851 -0.1656011370097076)
(4.862454890103991 -0.05695798302135358 -0.2661377684578378)
(5.164945393709719 0.1851945896425204 -0.2444851192029229)
(4.98832586806782 0.06357029487801681 0.02153443311324685)
(2.299530383042833 -0.9104462616959863 0.3889275044545805)
(2.233753839320243 -0.08502257998735896 -0.2406023548747087)
(4.590491206012535 -0.07982902917600866 0.2417878520949233)
(4.989947014928944 0.06681345136322933 0.02933230911460677)
(4.781868101882539 -0.3048403871342247 -0.3150258321891918)
(5.007901124182103 -0.01222846343322593 -0.00941539195055217)
(3.777073667236301 0.04056867230995176 0.04777895201617689)
(5.065240768455508 -0.1122962089937521 0.05806027298837478)
(4.929230070570796 0.08275054619864104 0.001426019450336128)
(5.069511122820555 0.05067002109514919 0.0495909528135074)
(4.831910190420277 -0.2589741821373875 -0.4728745781075258)
(4.668514877676072 0.4136627843723442 -0.01894712467502427)
(4.979137408275127 0.1072184505404376 0.1362616688401435)