/*--------------------------------*- C++ -*----------------------------------*\
| =========                 |                                                 |
| \\      /  F ield         | OpenFOAM: The Open Source CFD Toolbox           |
|  \\    /   O peration     | Version:  v1906                                 |
|   \\  /    A nd           | Web:      www.OpenFOAM.com                      |
|    \\/     M anipulation  |                                                 |
\*---------------------------------------------------------------------------*/
FoamFile
{
    version     2.0;
    format      ascii;
    class       volVectorField;
    location    "1.7";
    object      vorticity;
}
// * * * * * * * * * * * * * * * * * * * * * * * * * * * * * * * * * * * * * //

dimensions      [0 0 -1 0 0 0 0];


internalField   nonuniform List<vector> 
19631
(
(-0.1006781531182253 0.003463010332904648 -0.02292525894574652)
(-0.4606888803878527 0.05125873439134987 -7.378313429444531)
(-0.06690618371017897 0.03641093778913439 0.01290784447635789)
(3.159458851023318 -2.894624154538396 -24.86134235660976)
(-0.5169306874130635 0.005288708281738927 -0.2799799730126773)
(-0.2272927934008683 0.1537792483790086 -0.3806342573410988)
(0.0587566415435779 -0.05124488365466444 -0.01715491249525323)
(2.683192091244898 7.855372372810827 -2.589509664809063)
(-3.893678953809211 -1.940641724950735 -5.499823276811254)
(-0.02436240614345526 0.003252932007029094 -0.004650021354542053)
(-0.6883338810940175 0.144024132626171 -0.133703930802737)
(-0.4525864705050199 0.1616430431304184 0.1502016881093746)
(0.8059856373471237 -0.3095654668829422 -18.84683646489931)
(-0.2478744822740376 -0.02611326876479265 -0.002388028617802157)
(-0.0003812941298610342 0.001338820585752015 -0.01359042133700425)
(-0.8262489705553805 0.8537208371364506 -2.370397110284886)
(0.1704879507442962 -0.4523913689643597 -0.05692521269127448)
(0.7895058081827449 5.388429638537392 10.00465303606519)
(3.010992059501032 4.956211799180224 -1.58237373904103)
(0.8924962722152192 5.330959542587671 -0.3624594777274309)
(-0.07833181901832667 -0.01042251344315979 -0.04133036209845094)
(-0.1693319043900313 -0.02526846090988056 -0.06777057732341364)
(-1.092075394706864 -3.498266132281644 -2.992661628564125)
(-0.03528277973450994 -0.02252933931645233 -0.03861600255431413)
(0.03734177060501459 0.40072399466342 -0.007011143342722057)
(-0.04777616612809366 -0.02483411159894793 -5.498395926882364)
(0.03342405649612301 0.3424797994287902 -0.2780081470268038)
(1.999788720578505 0.641460091864573 -4.250960546431472)
(-0.5549528804703618 -0.07858822413223639 -0.2946307438692816)
(0.00194199244270716 0.002665088856435078 -0.01426618561001819)
(0.2892358902905809 -0.1575518390096433 0.05269831857010582)
(-0.1129273586662528 0.06330151676545223 -0.006012206676188741)
(2.035968835584451 -6.075116017730529 0.423715594295674)
(-0.05859048379873432 0.06885734414178318 0.01235528956590105)
(-0.4135760785403713 -0.1968621661049043 1.053429688163525)
(2.769632545533448 1.875176781261219 3.807427337256685)
(0.002200245551122928 0.005037935836503039 -0.1123402688255875)
(0.2152627586622279 -0.7607382354288115 -2.147717704431676)
(-1.35804893389303 0.9137913489931669 -0.5502006839490606)
(-0.03319256748874221 0.6755588365619181 -1.194657162988585)
(1.507243409722419 -1.586624377143994 -3.107766968002003)
(0.07003056817924795 0.07381330730712934 0.008845534215113707)
(0.03934502743131452 0.01338866399631579 0.003396197034507345)
(0.4137354782937918 0.09073005266910308 -0.246869041970662)
(-0.6836804228872794 0.6734604250568981 -4.185011579991577)
(-1.20706422148595 1.75693468569072 -2.554908239267047)
(0.01712796380716326 -0.01841333070382511 -0.01862783470060311)
(-0.0485437410602276 -0.1540162474039025 -0.3627882403077751)
(0.04969707930724215 -0.02363786288732028 -0.04646090914202469)
(-0.1819571165106093 0.07736654111715274 -0.09906809411790643)
(-0.2228456354579531 0.3339972689265824 -7.183664672502442)
(-0.1273963870863657 1.001313999107179 -0.9928637820822805)
(-0.0100407227038027 0.009401802580461281 -0.07676171690300213)
(-1.717770108253483 2.020165969233462 -2.688240884284412)
(0.5147691055979557 -0.8497001029079083 1.829696776297954)
(-2.485836470689395 0.2852296652782479 -2.134597119921287)
(0.122928398486331 -0.2392437872034454 0.1992903319178329)
(-0.6203572530865678 -0.3566596681150734 -0.2373055374528868)
(6.532494677289095 -6.537298099712244 -7.645434037935961)
(0.02300533640574358 -0.002403956844679151 -0.01768390918367913)
(-0.0122232605424601 0.007036637139467582 -0.03387745563659637)
(0.1679696804219452 -8.909485615671064 -2.906163838581531)
(-1.614395954621975 -6.584798981890153 1.583914449639683)
(-1.107850594486151 0.4726605108386884 -0.2154777407867354)
(0.2380298907355007 -0.04350341869019919 -0.1104922729250274)
(6.330606400920283 -9.73807193475848 2.197468826264101)
(-0.1035192550918834 -0.04002362272196264 -0.0224566233772019)
(0.1403040258760384 0.06241029241447731 -0.1271668615358182)
(0.07837486950686202 0.08237475843941847 -0.0819495815030393)
(0.03644833101088737 0.02102580462412125 -0.01995418032039948)
(0.01724731646122984 -0.008303932655493751 0.02263041980115987)
(-0.1116012352753305 -15.57578938979968 -12.99552880427569)
(-0.06850730993177845 0.005278045066618397 -0.03755476112055754)
(-0.3009967840018549 -0.1006083305803425 -0.04766374753045213)
(0.09328543973911733 0.1992674459165564 -0.0165256642076676)
(-0.5674603271035211 -0.01712085134834218 0.1854959371278996)
(0.1485724091295457 0.06419647559160448 -0.1620612090292746)
(-0.2907402210332989 -0.6866305647050124 -1.426716599412056)
(-0.9962912850768125 0.9165346918198167 1.055280489389804)
(13.18978548040145 -10.29499251864233 -43.51141838902845)
(-0.02106706827360726 0.008537839252813872 -0.07135401777128107)
(-0.6608583982193765 0.07123159313055503 0.02298159317182714)
(-0.2437764937127057 0.04642670808538067 0.04136498891362235)
(0.7010368858340332 0.1110017810185585 -0.6745539218933039)
(1.133354003445486 10.38897625875493 -1.887914674407019)
(2.952893114265291 -42.89125479860878 2.591300711719607)
(-0.2523025461822559 0.1781310851025289 0.08209647769727185)
(0.5860516464753356 -0.6482862229141522 -0.5785669736584483)
(-0.2127507683084808 8.32222935702082 16.93008252021704)
(-0.03481693091631534 -0.06484029980995365 0.01336163535931427)
(1.385709253282899 -3.336873020521743 -0.9701485459370816)
(-0.2567931540788039 -0.03718912559986026 0.2629684227271965)
(-0.01175595417172562 0.007947711507564882 -0.07478622631837403)
(0.05447581955919208 -0.002325150208731055 -0.02709013652929301)
(1.675005166340313 -0.8247615745000634 0.6083425990886395)
(1.32288833424885 21.01649462867126 0.7159246350016051)
(0.6176093917770371 -0.5551889851859553 0.3252124491452414)
(0.652032787015883 -1.475643975151983 -22.31240309021325)
(-0.1940095788143422 -0.07373564381977604 -0.1438461064211422)
(-0.08541505062541693 0.06767124267755295 -0.3718526083329377)
(0.3762700994076967 0.1830537009660765 0.02283661477418418)
(1.566984621727308 9.890613995200479 1.675852328090012)
(-1.208891652014631 8.721017979568042 -3.554398990546308)
(0.1056752021575176 -0.01917482730899324 0.02939838706650314)
(0.04156637972472672 -8.968412866747681 -0.6105583948434727)
(-1.701037022206073 0.536792745337234 -0.055305339784121)
(-15.16053952391258 13.11864164477465 2.286671248568982)
(0.07572491538686707 0.001827903040446461 -0.1798640944463925)
(0.07500768255738183 -0.07429091070984213 0.04934326889984614)
(0.5084826766532342 -7.833897803968455 -4.253630746336851)
(0.393989976666885 -0.1591067269888141 0.009667315943194872)
(2.121534275315136 -8.855519453877879 3.333015514234623)
(0.6777543324158066 -0.6087657619010827 -0.6710429268893208)
(-0.7433017596389954 1.341270638779979 -1.147588560240727)
(0.2475281293800113 -0.449194617648076 0.09671759449876413)
(-0.1541347209046443 1.891328709137755 -0.9626468757235948)
(9.398682202573514 7.089893156545084 5.193664913677226)
(-0.1086209962009172 0.07850676401393432 -0.1675028644350817)
(0.6937642500255448 1.439544264095655 -1.049304010223936)
(0.03144992944141201 0.01182327827230586 -0.05768750086647296)
(-0.06633166687000092 -0.01206024130581525 -0.009732234742126013)
(-0.05950157148852281 -0.02133195414820992 -0.08634738948685795)
(-0.1151516269837963 -0.0173169592975934 -0.1417202040906075)
(0.7545019982079668 -0.3224111531941458 -5.043091710726357)
(0.421717029749735 -0.169606801154145 -0.2228439678343454)
(0.02850646668467971 0.05554317130850797 -0.04051850307219212)
(0.8294897622997305 -0.143292889534379 -0.03861970934757392)
(-0.144026955281823 0.007601149810384844 0.004851787805530597)
(-0.02657450162990266 -0.02107569614734704 -0.01044085629301627)
(-0.5727527649385579 -2.232704334800934 -0.4962976139986442)
(-0.04488856529967867 -0.03335135734670442 -0.06746028862636248)
(0.3011563444488789 0.1189217874986371 -0.1174237801493818)
(0.3099051313708993 -0.1050426987241495 0.2844825521462552)
(1.523274664972653 -1.874094337315914 -3.280668869448598)
(-0.2562607506088633 0.1443081781119273 -0.004740383656056685)
(11.86176323020136 28.33765142637669 -19.60119345686635)
(3.260539335596069 5.639584619060926 -0.2759144255636384)
(-0.9854985852663352 -0.5013770611037899 0.09265523313804302)
(-1.766107085092205 8.28904023392179 -34.68179643652311)
(-0.03054429045250359 0.08746692784786314 -0.1047949856393413)
(0.3235455969414343 6.781816509433308 -0.172945142213665)
(70.92575853295919 -36.89161672594672 -55.16909719332985)
(0.4600603959046461 -0.3438932866714896 -2.421345404489181)
(-0.005293602040984696 0.009686499135183872 0.01254969200937356)
(0.2328029921593121 0.05304334901688758 -0.08360579434332815)
(0.6055086441773223 -1.476938671082144 -8.268049106298143)
(-0.004809964588191599 -0.009866907283878231 -0.0127829964053344)
(-0.01396962792258021 0.00511731690913148 -0.030287846863427)
(0.02293109112567013 0.03969315820167822 -0.008314527014935786)
(0.657954863741783 9.626539247599586 -4.044374692744466)
(0.03446626761060239 0.03161129596043957 0.0308129022535359)
(-0.05661467025508632 -0.02560489588708503 -0.001556342907448768)
(-0.07472244712850988 0.00634369498375925 -0.02308193238406999)
(0.002589010719661076 -0.007419091879236393 -0.02404783473704132)
(0.04221200711186098 -0.007263935673068078 0.06644580486799689)
(-0.2988933575923395 -0.05813794263470848 0.2957662020087931)
(0.01611666591093517 -0.006030259077560155 0.03302992928965086)
(-0.1134772614915967 0.4100026119563056 0.6478965605492872)
(-0.8275956797090178 34.13362915786667 5.142252729292666)
(0.178689160194156 0.1401589052111922 -8.427388422493994)
(0.05872418285415583 -0.01057916170595229 0.1293385080711422)
(0.01437098683679967 -0.00294870179352216 -0.03226807866511466)
(-0.06286621779728967 -0.04503866417456889 -0.0207666503857099)
(0.01502040025505705 0.00446442196152841 -0.08647730228533078)
(-0.04519148868612986 -0.003349365601014394 -5.45327987908173)
(-0.02074481141909497 -0.02134047978266586 -4.947002057893545)
(-0.01056993031367059 -0.04896910387176209 0.02883857449761925)
(-0.007622336927378574 -0.01389877911848899 0.0336416783702821)
(-0.5153732549003037 -4.659563778337558 8.729657520372005)
(-0.1169795757119333 0.004372850656361063 -0.01615792155815511)
(-0.04125995737353713 0.1050214265242584 0.2066739657926452)
(-0.07477861893832885 -0.09649331363120456 -0.09016214296596259)
(0.06892037776162505 -0.1346628893581436 0.1199955836753559)
(-0.1059579793498292 -0.009403957076589954 0.00406770230904125)
(0.0264052148314903 0.03022326866918665 0.06111391986736534)
(-0.1523763405169363 0.005553993889230781 -0.1191286262086387)
(0.01157729053273176 -0.02850261263590257 0.001203724918855734)
(-0.03762358034917988 0.1052797977092545 -0.0009286752667216499)
(-0.2891119213064931 -0.1333305693943743 0.04163780014361241)
(-1.787983300706253 -0.8314092368748083 -5.551079919472469)
(-0.127270509106075 -0.002758498122592157 0.1318810773806751)
(-0.03611632512628171 0.002179111327605038 0.02052606093233559)
(0.01030796177780429 0.007115956953508281 0.04542884963927203)
(0.02708213782065885 0.01848296309338843 -5.375906911554011)
(-0.02009215085117293 -0.01604268706250677 -0.08231894023058098)
(-0.01061700177727032 0.00558599553231965 -0.0663973924379143)
(-0.005484636052474781 -0.1858581680070528 -0.2562644687813845)
(0.01809825390254639 0.04131066313121687 -0.1283719490000194)
(-0.04155778140674671 -0.01223455539904625 -0.1709631455427802)
(-0.1453750444397159 -0.0768830290437818 -0.0696311421088658)
(-0.4315791400636806 0.0495368508001159 0.03578285463500917)
(0.06696093608266587 0.1453256963088776 -0.03509600716253888)
(0.1002430401923416 -0.06170513645082018 0.1834076384466856)
(-0.02129687483827076 0.0003587947511030148 -0.01587888678729302)
(0.3034031874768701 0.2116203241622555 -0.1300462719150198)
(-0.6730303146217465 0.3714870941796887 0.5995361741490525)
(0.5101204786829456 -0.03998889906869768 -0.06063849298445886)
(0.06977620479611597 -0.003730418236115796 0.03833369660903626)
(0.1018254182411277 -0.03431841519869144 -0.08235814543466707)
(-0.1056597999722242 0.08645693664718418 0.02373553103006802)
(0.06641648266956773 -0.01189289302623148 -0.04434032688313043)
(0.01175142932162258 -0.04712352404440021 -0.09921044102101789)
(-0.04918545554469969 0.0007595984080669867 -0.07895240886346193)
(-0.09616130151089061 -0.005024810658619271 -0.08963509565642983)
(-0.0008414299387332199 -0.02569362315056114 -0.03093701993145936)
(-0.1419259761039844 -0.00804933411515299 -0.009611563114134971)
(0.2503680291454341 -0.1701523065304708 -0.1058691656702141)
(-0.002755287626984168 -0.0630600973228935 0.07492294284402302)
(-0.08124386567770925 0.07954322215125531 -4.715672633934127)
(-0.308554613427772 0.2870240554490196 0.1617759050035301)
(-0.08635295148437455 0.006440471619599254 -0.05640334388116398)
(-0.4979449444034232 -0.05700178118756044 -0.3620347818607292)
(5.75094929358636 11.78216790118881 -10.44502611795125)
(0.003260553934039763 -0.002092262708568991 0.008476967733745861)
(0.503637594414128 -0.1029506606306725 -0.05095916326248085)
(-0.9291323518696113 -0.9808077067824423 -2.623546953769158)
(0.02421144307727071 -0.006953550988250613 -0.0234324745722812)
(0.1090295029736866 0.03502191986369705 0.002895786924470033)
(0.0145480124629021 -0.02586091218576588 -0.01263734731268002)
(2.429579192611629 5.888524657401316 -2.1873257374087)
(0.243579734517809 -0.1007491789817366 0.005908349243966295)
(0.1867927914292714 -0.07682903468721508 -0.2358893728910217)
(-0.1078218080872144 -0.09492564796044113 0.03226219862897947)
(0.0004766400929111076 0.003936419287384068 -0.00538749363645938)
(-0.008436897286764012 0.0004940383500323649 -0.01604594695380376)
(-0.05105168289313566 -0.03657476169924051 0.01289403677280782)
(0.04362866079600076 -0.07700223700243743 -0.1135365043654074)
(0.1564851550377222 -0.03508531791674172 0.07891399205114083)
(2.633939175223782 8.837592358343139 11.03293853745734)
(-2.571857368608018 -7.231084359436343 5.620364060903647)
(0.04511691529385219 -0.01121034724794246 -0.04184672394561574)
(-4.893124500889108 0.8152304009507247 0.1949045001298115)
(0.6523694553713375 1.051999359329824 1.526487731217862)
(4.414979015312746 9.27548401421071 -5.129320955045412)
(-0.2541037829227054 -1.746160924081213 -6.301329013555306)
(1.729081918111334 -0.8004527724759605 -3.949999410950165)
(-0.8090925946861164 7.266303096511693 -4.970040422839228)
(-3.206027016718119 -0.5619672156365729 -4.981051852071247)
(-0.5006058410505599 0.1791572491588243 -0.2953677146705816)
(-2.079899109102235 -4.393215331814831 1.662042694936287)
(0.05653029893609222 0.01250859475337691 0.04933010972748872)
(0.5953515056685561 -0.1676242914272998 0.01111078376310481)
(-0.1085763385469599 -0.04735749908935797 -0.05601191137711448)
(0.2218794180554032 -0.0549098087321244 0.1240175738232352)
(0.03327450719799746 -0.0003822839277290609 0.02459379155412458)
(-0.3412650260214404 -0.4961325131440382 -4.937740082220826)
(0.03899725703617821 -0.08167611095665041 -4.827106831028257)
(0.0565306523262163 -0.01149667863545596 -0.0003010185581322055)
(0.8668044975399773 -0.5295884360873966 0.1702208098096768)
(-0.02461341907634231 -0.02168815190625279 -0.01343933630913497)
(0.7238118746626157 -4.500221302928369 0.7521381332615924)
(-2.457728556852795 6.789501004189395 -0.6781268050757494)
(-0.01009240961744275 0.08431985949994079 0.03482600422801718)
(0.5222362123912568 -0.282767235292985 0.1107316936714635)
(-0.03141226619864568 -0.04075543389038323 -7.837570687266363)
(-0.1337664736194975 -1.188140103847882 -1.041936924873845)
(1.608197496510663 -1.646199039355922 -2.057552364642153)
(2.121298415193006 -36.09115634335355 -2.251016584942269)
(4.188365978692377 -28.67060201548012 -2.997296092349655)
(0.6940875891357363 -1.155563155512813 -1.063265416301654)
(0.04353624782454636 0.05384542971572956 0.002867561886447266)
(-0.2092853998999932 0.2703377583358 -0.2950939175556487)
(-0.3049488080790256 -1.462863340840517 -1.877434789679515)
(0.03843458420708355 0.5152527484597917 0.5861730984863655)
(-0.1842864216349961 0.04467562745553155 0.2035610941779992)
(-0.007129088651660054 -0.002313894179059819 0.01531749696188023)
(-0.1477613121051838 -0.07872349890632388 -0.01285286519636784)
(-0.2252281546586886 0.2453832492739969 0.01141350106563799)
(3.4409643091285 -28.99054851467648 3.160139945696536)
(0.2427631677949134 -3.2530571671359 -30.46379119158199)
(1.874124261945861 -7.144281303721799 -5.934855186323453)
(-0.2383711132394693 0.139101480180318 0.1523084899616337)
(0.8124929063597627 -5.151845262647849 -4.573660668946026)
(0.0006092069686477793 -0.01682510089415005 -0.0001979071040319089)
(-2.751351929640751 7.687835128599223 -8.58245628872559)
(-2.238059106864901 -35.99202250666485 -0.666725486914193)
(-0.04271248515741193 -0.006906959398896545 -0.1010955890888343)
(0.1429841391069456 0.05836805619754903 -7.143856165608824)
(4.647481370099952 6.076115489533184 3.876878416493911)
(-0.01118555014163175 -0.007116902001199379 -0.01845187802412013)
(-1.332013404152773 -2.091205324498153 0.8579776497982188)
(-0.5099994348145468 0.4978737205948673 1.187312560231198)
(-1.191661386073949 0.285545144081882 -0.07092111989954952)
(2.464665224488241 13.2996745630272 -50.61296017624807)
(-0.1159370926247911 -8.283839975968633 -1.127704907902802)
(1.395556362563344 -15.74591690036486 1.079293431573973)
(3.224066099473371 -9.018365639942246 -27.24082232153103)
(8.202400341679832 29.10381818516221 -3.36758684914001)
(-0.05537619971924529 0.05489940573824208 0.07491891163211782)
(3.206747572170517 7.102874532473329 -0.9791971869634732)
(-0.4370419152791924 -0.08949763325447364 -0.03470338401660543)
(-0.1737484466866036 -0.03679497193612935 0.09963322322140361)
(-0.09958537562671466 -0.3980735989748951 0.1346825569342611)
(6.780941759924438 -1.942718043521022 -43.4894469018131)
(0.438868485092567 -0.6343374144074956 -0.6512090809751476)
(0.003294901443170895 0.001519279048242048 0.001607362242044834)
(-1.191961839842649 0.5515092031689369 -0.195219668725877)
(-1.881685710894614 -0.3275978548556332 -28.23475971717818)
(0.009430682117567084 0.01111887972140446 -0.01259139732100048)
(-0.1828131114286103 -0.5492909206996701 0.383106616001043)
(0.1702523322908915 0.1001167928150185 -0.8656739788769794)
(-1.352941066488438 -1.910174342930928 -3.900222489756646)
(1.702899232307975 2.882800668540753 -2.557229279852094)
(0.04332833086098183 -0.1752221783844111 -5.368764350100527)
(-1.34303358398111 -4.621052036425797 -4.451874810581463)
(-0.003015098149388575 -0.0001515803384615419 -0.04054420239482003)
(-0.1146578828281996 -4.691198051743239 -0.2279607245393825)
(-0.4202807476339501 -2.187463544817003 -0.3653757258175178)
(-0.06434706388792769 0.007532449338642163 0.04009298095417953)
(-1.43010890192629 -0.6574566420114163 0.774871720322523)
(0.7412385301745024 0.1839867002763668 0.2983233569052615)
(0.002942626220147812 -0.005002694730467484 -0.0003963402128503951)
(0.01018888991721741 -0.0006059907533760753 -0.01476852490172518)
(-0.1586594432454684 0.02734392323339985 -0.1392796658478686)
(-0.08750630016971013 -0.1044175119621776 -0.4721320315960714)
(5.962841165115375 -7.400334554564024 -4.827654488330666)
(-0.2063056281620496 -13.6638353153878 -1.391799591733635)
(-0.3340578486286779 1.55327479577987 -1.238518152124032)
(-0.6470204299715399 -1.023266252559956 -1.758429383252776)
(0.02456202096967252 -0.02240143662842761 0.01788046842506629)
(0.04897583810611489 0.08931963311011583 -0.2921992413197375)
(-1.002705272297328 1.894629736406106 -0.6069958574646539)
(-0.4090718606227968 -2.020250038719685 -0.9498722136694455)
(-0.04396888467106439 -0.4451593820437948 0.1925330969972896)
(0.00991318175505889 -0.009654955538018876 0.009230926819437983)
(0.09736677939260574 0.4367849413383247 -0.387152537189806)
(1.013493780701161 -1.54950146476183 -18.87617242201301)
(-0.0357268799388079 0.003875529209194499 0.02800957659172836)
(0.1122667686508893 0.08569310559338325 -0.4690384148898622)
(0.000381537632279483 0.008085188268567257 0.001233618578265949)
(-1.314288713501095 4.542741665560319 -8.737797080904848)
(-0.4897727262092613 -11.23498947438073 1.387590291334263)
(-1.224678714151615 1.657137933684003 0.1183980249451997)
(0.3504207624832804 0.1366710419503796 -0.2785114644199901)
(0.1461899445895581 0.108708294124981 0.07759147483572285)
(-1.406998247779736 -3.817426054839112 -1.71733708601533)
(-0.3643273317193159 -0.6886660046619429 -0.1772981419154876)
(-0.4329141739211523 1.870062418257896 -0.4732330963952166)
(1.899906255651472 -1.117165043008758 -0.5037694812008193)
(-0.006194662032173122 -0.01242747430784525 -0.1166384683125917)
(2.973265722265515 -2.20676715443343 -43.06534190538406)
(0.389924132734409 0.06317556729137021 0.1892453901419013)
(0.008287327248276268 -0.001841106466009133 -0.01193861794881402)
(3.057183548688864 -7.865389520450071 -5.353152039458398)
(-0.2501389612584974 -5.367403397231708 -3.311369208121453)
(-0.009641404154641865 -0.02400316768784709 -0.06489048035233209)
(1.136483842934058 4.459335020073501 2.134798580409777)
(0.07102562644763406 0.04529033924781969 -0.09683446845902802)
(0.1435131088916478 0.008819327274898113 0.0446608195259515)
(-0.0203084756674619 0.03287505635331783 0.06053601743376)
(-0.002986654086542532 -0.02079329900495987 -0.09508044662563989)
(-0.007910362739285758 0.004910379626080199 -0.007793179914747053)
(-1.581963031615955 -7.936735840546543 -3.429255247167103)
(-1.431270102297636 -1.867632556109637 0.2537736602457586)
(0.2339703500982295 0.004619847865725465 -0.06027930264545728)
(-0.6452055369743037 4.267665470790239 3.879999896977193)
(0.08988926552698258 -0.04351424074564079 -0.01732540158503974)
(-0.0593778630608981 -0.0541886701467033 0.05775174166683669)
(1.960722615259918 -1.764020356299337 -19.34380741033929)
(0.07371320817169535 1.873591131685876 0.2359744510796289)
(1.002191317146722 11.54384072679793 -3.815753965856964)
(-1.114816362266405 -3.077344320196806 -0.07113888148361819)
(1.212846656121479 12.97013181314466 2.107264147255124)
(-2.930290639548842 2.634673480974735 -4.386965875345091)
(-0.7540515505222449 -0.6905014223797857 0.204969008235124)
(0.8655972247444833 -2.123980029931422 -3.442554054946122)
(0.03090062569879722 -0.03477314112907555 0.01212095023044568)
(-0.08850052360904651 -0.108285506909041 0.1108296028211117)
(-4.503137775091354 -5.845735003439192 -0.4691045762187849)
(-0.2622224774414329 0.1502359013222196 0.1506794908946819)
(0.06492668249801145 0.3068192301361919 0.05147570341255506)
(0.903683935953586 0.2554292630116614 -0.009418441449941568)
(0.0181171130371281 0.9938402507472851 0.2190059705432695)
(-0.1024590375517353 0.0001776537360408097 -0.01547221840685055)
(-0.154093469316514 -4.531961000780709 -1.126046038620981)
(-1.200424129999413 0.1901113902512258 0.006857179079477776)
(-0.3452805537254944 -0.009359706366274069 0.07871718670407656)
(-0.009332113971659698 -0.009751628889291871 0.003595962223345249)
(0.01312762952300833 -1.736291682524552 -17.05870880403565)
(-1.537654630645984 -2.087219857721497 -0.6932036502647673)
(3.582015065906983 28.01588474772092 6.666935256282615)
(-0.3691333358184483 -0.04077709043225188 -0.2316225708441887)
(-1.612394431325103 -8.083870576542003 -6.719695806982081)
(0.5550630661797665 -0.03695624525997862 -0.1053702030989603)
(3.116744833121896 -0.8961977467351776 -3.357911477996697)
(-1.938960012889505 -0.1410330413972081 -4.459092566138116)
(0.04031322774646773 3.828704805388772 5.80158474475768)
(0.7512426844636881 1.63173295978346 -23.79457622858144)
(0.6769118321728991 -2.532403963647312 3.472034802208024)
(-0.001418770504732209 0.02689526259220308 -0.03700159834940971)
(-0.06175013329006057 -0.002902622261960697 0.001146666580740632)
(-0.0314397419057177 0.1694918051188655 -0.1261675849010621)
(0.04538327183686093 0.025506736693697 0.02269088830425289)
(-0.3474468831566837 -0.3178160312868084 0.09982060080766235)
(-0.008788858544301541 -0.05285944207069829 -5.491706650750419)
(0.007959690226029242 0.02058634866067577 0.01450202618327139)
(-1.545489488535296 -0.05289794296968667 0.234447561415338)
(0.2585302643433086 -0.1856284745007631 -25.05710978679656)
(-0.0195921051357661 -0.02770113982971108 0.02570631525989924)
(0.004316962686094362 1.336363762148763 -0.3317991940224208)
(0.6000191958895753 0.1929823299564651 0.3290673479609041)
(-0.9938875180417017 -0.4015786659424608 -0.4236595354040186)
(2.34113012244059 8.818898479265837 -9.20531426338229)
(0.06210860366425962 0.2382821464402715 -0.001562705498403393)
(-1.24655851159836 -0.162731341698766 -2.328279703773507)
(0.06918094583044064 -0.02212688472481028 -0.02298229790922071)
(0.2235023324632308 -0.3473737927901809 -0.2670962110294359)
(0.03458958612673739 -0.008029527435053932 -0.07280826762526921)
(-0.2284007510792336 0.07095466276664517 0.1287734551273085)
(0.1413316568625001 -0.01181221906635526 -0.0686280012010641)
(-0.002616542024461819 0.0265557333234754 -0.05982892050811078)
(1.100535664701898 0.3972572161082281 -0.3693010824563522)
(-0.008924023909667476 -0.02059237294229154 0.04728537236437304)
(0.2382212228938317 -0.006081359537433946 -0.1171003509941502)
(0.005461664480170022 0.006153136725697924 -0.003130689597028893)
(-0.02635503971788568 -0.1108999708585564 0.005634288366054823)
(-4.222241980465093 59.13133506838456 -9.226927367157243)
(-4.506248683957748 0.4660222273177511 -3.091977208826258)
(-0.0178181848044141 -0.03551465845902675 -0.05384806402664439)
(-0.2427585454055834 -0.0421931026319773 0.06798013112206812)
(-6.079351822508221 55.26432427151567 23.00528914916118)
(0.2022425356934974 -0.3076710791916862 -0.09079830640421407)
(0.0354627855149996 0.07321973374741425 -0.03466440173787763)
(-0.2061336008504513 0.9377249616032699 -0.3036362373268788)
(5.735859323872895e-05 0.004241624907329349 -4.988703567582577)
(-0.08164828027394777 -0.04162480168445418 -0.2650589689053098)
(-0.8358896402668272 -1.010401554888989 5.017077775369305)
(0.3639027229767252 0.07000410945000558 0.04229536212544957)
(0.8257421688809023 -7.170901728647631 -0.6960009568952099)
(0.0001253493021876259 -0.01878215383770907 -4.766418657184979)
(0.01737905595131877 -0.02056650397366866 -0.03344469054165157)
(13.45930159048546 60.2738655735856 2.978257235889703)
(1.227079938303469 43.14372126363375 -3.613552084347669)
(-0.03204841695834594 -0.0936388471001995 -4.979542488073346)
(4.233683647811942 6.34717054066759 7.721024609323956)
(-0.04707975290837304 -0.02124960846808027 -0.03968498988256258)
(-0.4905627575421396 1.669625717649429 -1.007811679050049)
(-0.434053303257572 -0.04348954050244974 -0.1864921982655334)
(0.0001284773020722919 0.002396802444240968 0.001019659959400717)
(-0.07569917052366402 -24.97598230113152 -1.185345937366041)
(1.079124438715076 -0.05281862840779909 0.1144363241183911)
(-3.970242152542972 -44.81313336695391 -2.234386867415094)
(-0.002362745636538599 -0.01642070987872639 0.09319116322328946)
(-0.530838215382165 -2.030359839148575 1.447010461756743)
(0.5221952804389182 -1.733524684858277 -1.082720750139192)
(-0.09844143462360655 -0.2731508048222765 0.3239252162389938)
(1.471955150501175 28.98028151685217 -0.01596811493595351)
(-0.6184623630457797 -2.378027201309192 1.498979425089375)
(-0.7854620116624448 4.276230263989309 1.603266026429361)
(-1.425247860039967 1.324918106316923 0.5967450357529154)
(-0.3787354268318311 -0.03204814267771883 0.4764702368490392)
(0.04226990375196166 0.001919290405339433 -0.7693408800521491)
(0.5286429050515248 -0.04332358715720815 0.2509323429864809)
(0.5328153547316201 -1.184635571744364 -23.7973549409127)
(-0.367580917804569 -0.3488896377796535 -0.1791407779749755)
(0.1169370093145075 -0.02649268513270142 -0.008853469986785078)
(-0.1429876447098385 0.02030206726512596 0.09336108370636073)
(-0.36294416801665 -0.1755430960205112 -0.4745144194445581)
(-4.147209599799609 -0.9676838791773102 -1.791938630013699)
(-0.2030258976235653 0.01819288826717679 0.02359808653999314)
(0.03534529153097683 -0.4392399550733761 0.3194906823453847)
(3.035757950983657 14.93594749926102 -7.306350806920061)
(-0.6798666587231668 8.295380244065402 -1.711071429549238)
(-0.01691304118718041 -0.005507860390748971 0.005670591676761105)
(1.204058190850964 2.037399160760246 0.543753147638379)
(-0.9205290685738403 -1.538933788807698 -2.858779546836506)
(-0.2753652609918959 -0.7600937114490229 0.3784673946313992)
(1.624863698300855 0.9587922306251723 -1.107616837903852)
(-5.008970871152539 -3.006052055996962 -6.663649908995041)
(0.4990464482303916 -2.029369687064199 -2.255312335790715)
(-0.2183079849389888 0.05172846714731281 -0.5384077421748061)
(-0.678894550506409 -1.241927462194464 0.5462518061769808)
(0.002239258878913526 0.009709709701132073 5.081862426407945e-05)
(7.729185411839448 -20.19708386535776 -53.6142154619645)
(3.578701692983294 37.16728864593709 -3.767057517802618)
(-0.4768425741731787 -0.5642260844151075 -25.01525401365411)