/*--------------------------------*- C++ -*----------------------------------*\
| =========                 |                                                 |
| \\      /  F ield         | OpenFOAM: The Open Source CFD Toolbox           |
|  \\    /   O peration     | Version:  v1906                                 |
|   \\  /    A nd           | Web:      www.OpenFOAM.com                      |
|    \\/     M anipulation  |                                                 |
\*---------------------------------------------------------------------------*/
FoamFile
{
    version     2.0;
    format      ascii;
    class       surfaceScalarField;
    location    "1.7";
    object      phi;
}
// * * * * * * * * * * * * * * * * * * * * * * * * * * * * * * * * * * * * * //

dimensions      [0 3 -1 0 0 0 0];
oriented        oriented;


internalField   nonuniform List<scalar> 
37380
(
-0.3770468984267316
0.9981019882327379
-2.774023213701567
2.152968123934349
-5.217836718802337
0.8226408196949525
52.38388277060405
-47.98868687150124
-18.28339098775341
21.92082172359718
-22.79610830068663
19.15867756488851
16.81239999230371
18.25904273545407
-18.54900402550783
-16.52243870224882
-5.080903469841374
16.72666210268953
2.816505613297822
-14.46226424613971
9.377326823368552
28.06174083986801
-20.93638729749997
-16.50268036571342
-10.21812436378066
-24.84358526228678
44.43903644944555
6.96192514567834
-2.988613767861781
7.625615793711933
-11.5989271715885
9.643159222240952
0.4337175005794061
-7.430098532957323
-2.646778189822112
-8.934929422377174
7.635854124657188
-3.182808518286367
4.481883815827997
-7.532566632094009
-7.285207074019213
14.81539136596452
44.37072407888255
-10.69071853710519
-22.3178960273374
-11.36210951442712
0.8575881274268351
4.842318487233604
6.948607058402974
-24.12040701193649
12.32948146630234
-14.94167748620191
23.74481334584847
-3.411708920417847
-5.391426939247546
-1.497424400229514
-0.9576357768921526
20.44836638726473
-17.99330620997012
4.4075400906128
-0.009097709365013751
-19.34011986745089
21.12722232698698
13.41331509233686
-10.79572407347058
-14.1561452432378
-9.918764383351691
-1.592862957953623
25.66777258456614
-17.94102426464762
2.28874103899329
0.3280227918879216
15.32426043366767
-0.08440237108916554
13.59224739739717
-6.545919880703997
7.287339488331137
2.751663293038486
2.534969335200795
-12.57397211706379
13.58035845528155
-1.543854596146772
8.27176338672059
16.64858462617077
-3.793125685876958
-8.333792435956157
15.13304207049293
11.1034923996622
-17.90274203441529
-6.218295522375073
-2.207823988679202
8.859837011533827
-9.715045415301685
5.610277988498374
-6.414374631295511
10.51914205777813
-3.223049620805217
-15.90504383883289
0.7817489438505774
18.34634451576058
-5.088063715901592
-16.72866150655206
6.421585768173343
15.39513945428967
13.99383931756321
19.53396224792978
-0.9080462460774268
-32.61975531941759
-10.15160390361465
7.737864322444003
3.936141294747541
-1.522401713569991
20.80470111816388
0.3840088150154561
-24.41175955398542
-17.59255047477846
-25.33911365806127
19.07785338297997
23.85381074994381
-14.33925984191442
15.42810790330881
19.71585305678488
8.561070161268256
-8.749816991235539
12.97422551228806
-12.78547868230269
-8.041164103351573
10.58878900285602
-12.92314967586278
10.37552477637309
-23.75502964093596
7.427718961403753
-9.023588523813732
25.35089920370327
9.288704987258109
8.766688492382862
-18.05677517480925
4.574042521923643
2.627933375071895
-10.19058966494413
9.075066071059616
-7.310025657599943
7.523664573801217
-27.40956921824968
1.952093436720133
24.24149766197408
1.215978119517394
1.46431260856619
1.303011752913685
16.37910219935477
-12.79080549551666
-3.135074985394633
-0.4532217184372307
9.136890708768611
-23.38099818547053
14.85340716257134
-0.6092996858699399
9.220516622291855
-11.83840573593886
28.12910922463001
-25.51122011096975
19.29111325552768
-8.675618282907768
-8.236173542876379
-2.379321429646165
18.89963626549644
-18.97613089170086
-0.8448546746362667
0.9213493009091558
4.829669731517005
6.963782861752358
8.366541878592471
9.413507696508342
-16.67519079741444
-1.046060456882577
8.307743557830689
-1.887689054635812
29.90289829711624
-2.924051405047675
-25.09115783740547
-15.5736825411707
-9.511896693575439
10.23862804936199
14.84695118539939
-0.1539717720276491
-12.25262734329728
12.40324141139324
27.85366806981591
3.219842194090167
-10.74917995810952
-20.32433030579288
12.31749378288811
-6.317183935680292
-4.653085489577959
-1.347224357607905
37.05559602791961
-25.52724816607447
-34.52241617699304
22.99406831522152
0.1612404564997148
-28.65188942573753
-1.036276963164687
29.52692593245065
-16.11855989115391
13.56649817208612
6.840891837798196
-4.288830118856262
13.95044423361857
0.3450609390716109
-17.24399388614919
2.948488713576175
-22.18694500027116
15.41822876553554
9.947342925013201
-3.178626690241353
22.8408942725478
-22.06639214250765
-15.38312591434376
14.60862378431296
0.3942945217209489
6.646863311745123
-23.84124042208622
16.8000825886337
6.19922040752452
-8.333163860709545
-16.82952783117155
18.96347128436606
-22.63935844268519
2.171504718741716
20.07344311619182
0.3944106077256767
-6.748329057640451
-11.48361184469197
25.64301985918506
-7.411078956846616
-29.00990930176021
-17.0207006979736
16.99260536745944
29.03800463231363
-21.78106697918413
7.07462031361812
0.598535063282011
14.10791160229116
13.88739311005336
-21.00779199841951
-20.28917032995976
-11.08025369197024
16.29794085099044
-9.217981414379464
4.000294255362715
13.55101617463761
-18.66234781448906
14.95083513082351
-9.839503490930586
-21.83940758283539
30.72488481487395
-24.89087484615428
16.00539761417214
23.17891854860295
7.007744237248951
-27.6987691895808
-2.48789359627261
-16.7930046082575
-3.734914708540983
12.19914662942426
8.328772687392389
-1.322549186204669
5.203682400487013
6.176727466842335
-7.820980467347839
-0.1058877460287082
13.08196944394398
-27.27878549387047
14.30270379604302
7.008027274173306
-16.31248866045554
18.79770639190112
-17.14601621444639
26.87501748782933
-9.730294773111634
-11.27614805366169
-10.39531301458887
21.67171336302929
24.5925438732288
-10.4708046765632
-0.2343460866248023
13.52739230974057
11.34417989947335
2.646400862140557
-27.51797307132863
-20.91189252621098
8.150969254972052
6.553867749685146
6.207055521927278
4.439041796374498
4.835096207351161
14.39583333644002
-23.66997134018172
-7.852227357269768
-12.41970336840128
2.363860573721188
17.9080701521683
10.45773102607247
0.7778490090106573
-15.83749663276856
4.601916597660925
-33.11105487535824
-1.707049199175176
8.321946836860635
26.49615723748461
-24.36697341671503
3.877027569019255
-12.62110902769634
-16.21525110297758
-1.055722203092585
30.45400193863676
-13.18302863255834
-15.45240985252823
15.94613480034767
-0.4977965629543944
-4.15090852238404
-12.61588308825658
18.4368062749053
15.51743967034101
-3.144198569203528
-1.415171290936466
-10.95806981025243
-6.598715389521727
5.855204009238551
-0.9661891468774352
-4.923093868405347
-0.7094323743241779
5.882397572328977
-0.2053690791367663
-14.55669614583018
15.03689156235712
-12.69576862747124
12.21557321095345
-0.8289026492618587
-7.664041448149773
6.246294433335597
-11.04845959119058
-19.34163829269382
-3.467408089496724
6.593795279215057
-14.2487371783736
-0.3095382475573604
-3.367665879691587
7.930960132784294
13.10724802505252
-17.67054227831561
-0.4407158150059961
18.53706360791049
-18.09745438591171
18.98421626810196
13.24013343700342
-21.83086772023661
-10.3934819848549
-38.05051911216442
0.06897912098630322
20.91391304731246
17.0676269438824
4.409430475163866
-30.7118568112304
-1.879396186318263
28.18182252240463
29.21506814961093
-25.17269698063447
0.3670593061981635
-0.1651568263404815
-14.30434485255195
-10.75086197551145
25.22036365457074
-13.36936033442796
-2.615694238147082
18.28294244916325
-2.297887876585655
-26.79066034744602
23.42957905337694
-30.65623016246066
34.01731145656829
11.85563852894524
-5.763313433219095
21.21215296815699
-18.56218567690554
-7.679250172000928
-7.46873290978918
15.14598110644215
11.26772376505618
-13.52037826812411
13.93234170804524
-11.67968720495864
-20.19016295882221
11.56635122279466
5.860447558127285
2.763364177798946
-4.967106756539202
20.56006975518683
3.257057384919584
-18.85002038359285
-17.00315175016279
12.54640258870346
-5.152734357034725
9.609483518303239
-9.915216652376017
0.8022490618589099
-3.11558155670471
1.041237712973688
1.008188149607201
-7.257039407424728
5.207613544850879
2.473856097328786
-5.910509675513087
-13.23442304571318
-17.66896767481944
29.31503853123656
-10.17664884402606
-1.469422012356851
7.060167105163347
1.208595137564927
-7.227524529826075
-19.513159955373
-12.20979623689024
16.88690890674296
14.83604728554496
-1.727002509050312
8.160061146887776
17.77234124520448
-37.31296490444442
11.38056251235985
4.983882441243274
-3.332747871047557
-9.166889134178883
0.301851059886088
6.804654396310999
15.06552567878794
-14.13154752953038
-7.738632545600474
1.583117866362073
-7.548029802514771
-15.80029586550985
6.968817886008549
15.45690826891393
-6.625430289361257
23.13393034683516
2.748548404003161
-18.85293257174361
-7.029546179079738
-6.810485695166118
-0.6037302304000863
-13.49767660042225
10.76626095408961
0.7850223316009284
-5.729700753614487
-5.821582532154731
19.01022271862884
-18.38623996045913
23.11242215290845
-23.73640491106957
-6.080615288883418
-12.15322330776192
1.548594929997073
16.68524366671429
-0.2490356256143486
-13.07625988350741
13.32261322760938
17.28446766681102
12.66678713744734
-6.992359254193592
-22.95889555045984
13.12237477741942
-1.802425490881129
21.67834538034318
-32.99829466686178
-14.53194308392768
4.269070634982489
-18.36102982553746
14.1166652034044
-0.02470601327850474
-24.70511603403303
-11.81093122673289
-3.026916119855855
16.66539628194221
-12.84542005897135
-0.7930601032340916
20.66727975901804
-16.42788889739325
8.882983915809129
-9.038163747573758
9.117470925653519
-32.44240062002074
16.84041300259037
10.60519230607915
4.996795311355701
1.708514127387297
-2.548710361971273
0.3545868127172875
0.4856094218716482
17.5680806552286
-10.62774893492462
-24.69784686096503
17.7575151406642
-6.417494695385451
9.623684626608846
-17.67101874913189
19.61372445803226
-11.56639033550612
-8.714089508207035
7.68674890295283
-27.68756890633996
28.71490951147603
-7.716153054391164
23.53918987321736
-2.685082651714899
-13.13795416708152
-9.706604987580368
5.740208165252655
-24.25291380056332
28.21931062280413
17.95029805357078
-9.185079163430572
-21.16231546589895
22.25727091832752
-18.24917283536697
6.23616373829014
-25.71853759923231
26.08517350408012
-6.602799643162312
6.52124913540119
-29.95079194560235
7.87795211482113
15.55159069537741
-0.4536009551407049
-0.3922354806150539
0.9184165774649216
-0.0725801421342008
-12.14758209765887
5.75405088982097
7.944142288534762
7.830777767924705
25.31152034973525
14.21354185259732
-19.63621990679625
-19.88884229547656
-2.093066684645649
1.368051871551811
-8.313148934544152
20.2763310104397
-0.2736547620134384
-20.00369328992809
9.239961012656549
17.99167278918241
-12.9693281496261
-14.17096542852697
9.148620788995103
-16.55857276390986
-2.219572764239931
24.43379338494978
-5.655647856786103
-8.662720131293373
12.23301442225692
-20.12886705486078
-23.46398519049386
30.50624367820987
-2.762086091986385
-4.280172395751762
-2.655142482567749
-5.056682573409782
-1.648078424004687
9.359903479974196
-1.316254125848396
26.73948327290296
-25.42374346734373
-10.65850481027441
-29.74647525381858
16.94099487361094
-10.13701590052737
-4.884845608863196
-6.269738885968197
13.81366903656437
10.3578813299805
-20.81563309126295
10.45574443472111
-8.881016254759743
20.47511252708358
0.6340221512584039
32.50283836461573
-15.5698859724569
-17.56697454340206
-9.764195330421916
19.87128057042495
-10.10812349063311
-13.1113951041417
28.19750506212279
-3.627285950041151
-10.07332523625853
11.04546870367879
14.93471338274268
-9.896519465614574
-2.393241325882446
-2.644952591074485
-6.419123899932647
-14.34489955110455
21.67095301778339
-0.9069295667441306
9.381631704390532
9.172239305198246
-5.746991882611877
28.96254541889218
6.002093605841546
-29.217647142341
-24.53393909495269
0.1369734753730831
24.39630432798261
20.10581377535878
0.7524548637847177
-1.535719965693115
-19.3225486734441
25.51794637283877
-16.9968468062051
7.12392576612355
-15.64502533270149
-4.082939977066532
13.5120162447893
-4.426616370929471
-5.002459896806321
16.71345995362907
5.947293821799872
-10.34566922821135
-12.31508454726112
-4.118392002941228
6.514482981740009
15.12199792822304
-17.5180889070171
12.44330097602151
-10.80080830530064
22.36488783744993
-24.00738050816773
0.006655448974142305
-0.03352665444110142
15.54300037403393
-15.51612916855314
3.178371652097356
5.913999953497432
1.673889348486314
0.008711855974969016
-20.12214641374547
20.08988059563168
0.02355396214171279
21.64628773761892
12.92984048988331
-22.76286897707853
-11.81325925037276
-8.414099170109472
-7.631121587480529
-2.015241031474887
18.06046178906782
-6.433507805087237
25.17032338839232
-15.68039873265749
-3.056416850590749
-11.32069583873683
30.63818074656609
-11.39947008067583
-7.9180148270936
16.19484682693964
-15.22257261988817
0.7385073196845133
-1.710781526684681
-1.921726586709563
-1.302742494172434
19.41931590785606
15.93284083610734
-22.12663822368388
-13.090735053026
19.28453244060051
19.12290229090202
7.101577049083545
-23.69656831115424
-2.527911028801523
2.975108539209312
-20.02288252568615
17.04699847053846
14.30409007451789
-16.60096399759317
10.65045491907961
-8.35358099594278
22.35934582557799
-0.636549451322197
-22.31284701184843
0.5900506375967212
-19.05436808485988
19.93021239971544
-2.797570901522844
1.581268904877218
-17.93430748184851
15.87208097481065
0.480957602139314
16.72263593679712
9.200564221456803
-8.929273188902595
-13.10324862652242
13.15848703888027
-0.05634917715210361
-18.66451660968304
5.5982377443117
15.0386560668163
-1.972377201440995
18.61341161425075
-8.45178598625515
-10.19360126626716
-9.661124217612
12.84022195101604
10.36182354782579
-27.58789203955859
-3.273133330107179
2.76166141837939
28.09936395142511
0.001213258829276168
-18.49071750146082
18.48743092366636
15.00024561266557
-26.43899619083666
16.82568563517269
-5.386935056990064
5.688489691368644
-5.464297788940765
-15.14620907555024
14.92201717316346
20.09339688759339
15.0929172995343
-14.90998317668126
5.774206451274068
1.72428999018425
8.699746499520881
-24.85153820804843
35.70823794280133
-2.827439405457311
-8.029260329232576
-14.64465321206663
35.71111649412958
-32.55243255529392
11.48596927323624
1.190098304092531
-21.71012827443059
3.003636817727285
17.51639315262106
-13.56941725852766
-9.101187102628272
30.79351053033209
-8.122906169204319
8.733608343556918
8.052879898498229
9.232323053332449
8.239324741792935
-17.4746528033244
-1.440918130034755
-27.38026262572234
29.42989239842419
-0.6087116426605944
21.77800949038458
-0.1428676852371455
-21.63535379291744
-20.02424898492566
14.2042548599555
6.505401449685753
-0.6854073249066397
21.06348866911209
-20.35466473745996
-11.68368968876798
10.97486575711629
-17.92070770266193
-15.30018365299032
20.11693640402072
13.10395495163359
-13.9236446513045
8.625459220595472
-14.83956267842616
20.13774810913401
9.96875991961136
-21.73733882556104
7.764966254611159
10.31217520043358
-12.23369706894273
-5.843444386091937
2.403794587153422
7.843815997251032
-25.61223534838679
4.936311692570144
1.194478945813272
19.48144470994277
3.837538434010593
-19.30836451348967
-5.639695242464544
21.11052132192104
-12.61940422260534
13.23669532339933
-15.15228054831524
14.53498944756406
12.27580476370492
-12.13603424541136
8.663206438659012
-8.802976956898505
-14.82586233929955
-5.602233035550311
6.249456669863006
14.1786387050264
-11.6979658788503
7.381017939723996
27.45087828597298
-1.664066392971956
-24.76075060506358
2.474051755271167
23.95076524279763
-15.48324495262406
-0.02337633564789374
15.50476159611013
-1.433369448803057
13.43616116610909
-12.00375268852545
-26.44188478833162
22.41942454698531
-1.092788415592147
5.115248656947521
-17.16410798483184
0.5070997983779673
17.42302675595629
-0.7660185694702232
-20.98469939970874
0.06855999978201448
10.77616446316668
29.24759690089581
12.45217588081809
-25.61796484767242
-16.08180793398046
10.19768645799455
9.043520017001915
-15.72788747876237
-18.37244039375072
10.79025237226903
23.31007550026822
13.43416919858562
-15.95046459947272
10.28126165551003
28.09031589261486
-22.28244063102687
-20.23011015995609
14.42223489837595
-17.59392540074019
-10.15835307090175
14.36137502517786
13.39090344638988
9.509618270825651
-22.24143630784308
-2.996069441707007
-10.32126353667367
-6.417316462026128
16.73676853337985
-12.74425733382741
14.96010140131729
15.61256905003874
-17.82841311758425
0.3793251362614062
-0.2293257697821294
18.68957955894504
-18.83957892541683
-18.76432046232495
0.1030480830827235
18.65816854222365
-1.308302107288682
-14.92889657624399
25.74681695439974
18.74148594152642
-7.349315262592471
-12.7004727861614
-14.93861541197992
11.47703662361605
30.2807161749561
-23.01626685694725
-18.35428353347737
-8.584557365169267
12.00994432242338
-8.745812999573753
1.839402809142189
-7.068948098632064
13.97535828906582
-21.38017246288149
10.7818594731796
10.59655680069353
18.55290086471185
-5.848408208129085
8.056133721693277
-20.7606263782649
7.520948198176825
34.54130963736566
-3.038006723944846
-39.02425111174504
-0.9990501589585339
-3.427036497601949
16.89766547681841
0.8497756724273827
-14.32040465162473
6.128509579870504
-2.434639295317043
15.88782796184504
-19.58169824644888
-15.74518573479923
31.9515618564805
-2.143657644323245
-14.06271847735559
0.6373190987656839
-0.8506579792739225
31.21261599434667
-30.9992771137212
9.630603383603846
-0.5614543428770457
11.36574552990452
1.713786632271336
1.751117839630885
-14.83065000177824
-3.967266774491714
3.280362789270741
6.569301557514924
-15.61263021652256
18.68362712156901
-1.355623776121162
-1.715373128787349
-20.63305526091911
22.48267139850635
-5.734950652421042
18.54157744379675
-19.5392202630888
6.732593471739317
-1.452751594153601
7.116088203054843
0.6209987074913079
31.24958441256845
-3.270496586498675
-28.60008653333829
-12.30378162611458
1.013787656051553
13.61699671583874
-1.119484387677253
15.24020092225864
-27.73771325029957
-25.19170158319569
10.81363742257928
1.962021384802428
12.41604277595986
-6.886389841984052
-0.2834155354046778
-8.698578991989546
-9.748757260175228
3.859022334890494
19.82458851059021
-4.284144802845019
-29.53738824686672
-10.95795065022727
10.85243195725168
-0.240279724222722
-17.17528234783993
38.87628931745201
-21.46072724535058
-33.26988096885606
17.80746691244581
-1.967232065925176
17.42964612232938
-0.05673546619994992
-20.26583168742965
0.08360222870866142
20.23896492492675
12.85945364948518
-34.88805427646339
12.75688744441984
9.271713182612713
-17.62629919302736
6.051594325746532
-15.27134085517235
15.2703293389215
11.46004704329811
21.97242283279989
-25.95602914343015
-7.476440732645565
0.1033374477544949
-22.62836670005474
-0.0780256055610075
22.60305485788069
-9.746716089351079
25.24299778003264
-26.13997150324028
10.64368981256343
2.869802490454392
-15.38188437390526
4.676481850613788
7.835600032908276
1.472105586192808
31.16108810257442
-21.17314664545562
11.99041511585021
-11.28260132891871
-6.575318254491467
5.867504467567275
-5.685758399476268
-4.073973527942604
24.56262028517758
-14.80288835776111
-35.54222602239459
5.728695256022888
2.525098067887523
27.28843269849488
9.371816263348229
19.34786096410584
-9.313422731997445
21.98229614930659
17.98837160846589
-25.68314014861356
-14.28752760920415
15.17022569810761
-15.49530218997671
-5.241301296724441
5.566377788594927
-11.48071842159245
21.38479146466329
-9.905007439112994
28.11448621442625
-23.00911777077705
-21.6813099183526
16.57594147505523
4.906932641088094
-18.99148745479818
12.44409044262751
1.640464371087253
-1.033877138023174
24.00964543791183
4.123992419004012
-27.09976071888669
2.137160805289209
39.71966317822874
-14.96047781798701
-26.89634616576773
-0.2714610002967849
3.025274149665915
29.0617329465403
-31.81554609572392
6.601764282510874
2.749021525971346
-14.70452712985062
5.35374132137172
-4.890357472091899
15.2583477663079
-2.192741736148324
-8.175248557726837
-15.98841003273301
-9.661994136052732
3.372702771333642
22.27770139744066
4.737814685374658
-19.71840174255654
-5.452784003630508
20.43337106081076
6.919349893227808
14.10334033774072
1.075150560228284
5.347455942387167
-8.515673187331346
8.680223321519543
10.87473021804688
-0.6762191067729786
-18.87873443275207
-0.541279435982693
5.451247577335544
-6.63697065041352
10.49693885451967
2.935846204900311
24.48379245450896
-16.04980200427798
-12.48792042410037
4.053929973860281
0.6709081663133282
-0.7349908411196828
-23.45377592634527
23.51785860122764
-2.668678884009631
11.12161807007213
-13.13118187723753
4.678242691262414
-10.25787165826298
34.52964028353254
-2.625480887615339
3.973321637389391
7.676947812394113
0.07707173663943367
-0.08265725877770079
0.5774986714538265
-0.5719131495478675
11.65505935924509
3.660191002364944
2.842133999827119
11.19332000109586
-0.1594651745321352
-1.424371308230602
19.38925832337947
4.87427414445092
0.2954506477419199
-24.55898311584323
2.834422463014264
-7.435442995815793
33.15445299948801
-28.55343246688011
-4.931098001231693
-17.15137750112018
1.080581938682223
2.722065697415548
13.34872986504875
17.03670191623147
-0.888847830509829
-16.14902539610612
3.544255081465042
-17.68226028297755
20.90530044644169
-6.767295244830369
-14.88227605257829
17.21038509328408
16.56973789614735
-18.89784693681894
-41.74177503119045
-10.33683567538373
24.44608494334189
27.63252576328465
16.49884926263129
4.599619797081965
-20.72834144430209
-0.3701276151970698
-37.28736432267656
27.8721872887716
9.641961782511698
-0.2267847490436661
20.1529268690566
-4.183375178029296
-25.05042433245242
9.080872641435164
16.99436674265267
18.87806057633488
-19.37357805593918
-12.05643709992372
4.932701214455248
-11.36701662981083
18.49075251528962
4.302973622927318
-3.669505021926903
-1.726222705540893
1.092754104084367
-34.26330907852248
37.49199529803383
1.374941000108998
-4.60362721962644
28.96544633029406
-21.61779661305404
17.28688058851786
-24.63453030573543
-15.24048824478256
7.569294044184634
24.66556094344882
9.954862681860703
-16.27992311758179
13.53363994763896
-7.208579511910758
3.422918326598932
-27.0785894543852
16.80839661992816
6.847274507817326
4.775035467607459
-3.699603106989195
-14.03512262450482
12.95969026386498
-12.25637844813687
1.615510000467894
18.93219983622275
-2.659902747401027
-24.07413311646944
7.801836027643892
-6.93670926711845
-20.23046468563812
0.07195303599979498
27.09522091676845
7.366203548912576
20.66836417585542
-9.102367888509873
-14.32742339700485
1.909622370306156
12.4161292796631
17.5916708827404
-18.51715640451455
7.406350169059017
-6.480864647263177
-24.02933823038558
15.74102371318037
13.30096178225638
-5.012647265059175
-3.668276759396049
3.057335691330251
-19.24559301849503
19.85653408658936
0.6888993892031631
-12.16095343035059
6.60030748666068
4.871746554497405
-15.67065927022432
6.516994707320673
10.52745006135554
-1.373785498452182
-14.47213444711507
23.86495932441116
9.996433446033938
-10.085541803402
28.03449734267706
-9.517898797439965
-8.431056741829741
-5.268805770044771
4.021658397223347
24.46435007821458
-23.21720270535421
-32.10051613891441
8.295577049320819
20.65749448033297
3.147444609263531
-24.35486450399386
0.1557526363560058
-10.16695542239101
34.36606729010776
27.55731837029659
14.93679424146931
-14.45680009673142
-28.03731251499564
-1.570010442759116
-7.681135764219439
21.56873906907519
-12.31759286212159
-9.504781040670327
31.50734539600726
-21.38725092830555
-0.6153134270249196
11.74601869366109
15.51081268650942
0.0464876697973969
-27.30331904990761
1.671117264954056
-23.42616221717811
-1.571931720121178
23.32697667235084
16.15559719753657
-13.28080515286474
-18.779835883513
-0.4419222549307386
14.25039986587475
-13.81044466419543
-22.14344046103214
10.99429925026103
11.14796092371303
12.12343125136103
-22.62496482256126
-7.731403253824468
18.23293682509032
-16.69957241484001
13.85339505728258
2.844600050082882
-9.071192953694986
12.4305536175766
18.07401193972516
-21.43337260352915
-15.99749462048888
-2.811445293947525
17.50619742032097
0.8045083428371511
11.91972712134415
-24.307038567071
11.58280310290485
-17.6436175402269
12.73756932036658
-11.0914464005758
-2.989057489303754
1.244067959616152
-18.42848574924065
20.17347527897949
5.790709820084245
11.84792971886361
12.99672443327385
-30.63536397218344
18.7511540129229
-2.135626169968172
-8.171640832009869
-8.443887010999926
7.497747712945849
-2.468884156749389
-21.3899549425107
16.36109138631576
8.913077883643851
-28.67636642501272
10.69209558772745
-4.78797071540506
-13.04040958567448
-2.728108494175034
20.55648879534198
-7.999988738606051
19.09437270193008
1.885771473762176
-12.98015543706846
3.022091700325646
13.84575967200676
2.051204963498216
3.927148052114005
-23.35193492569966
15.16302355236806
4.261763321233952
18.80018742525375
-15.06270240424463
1.557325111407728
-5.294810132417626
-14.46393870041097
1.140081981253379
-2.052324457110432
15.37618117594682
17.39372912522377
5.843625632189976
-19.0647648146539
-4.172589942739742
2.635420868245111
5.126312210640569
14.4756172300543
-22.23735030896964
20.67212249142434
0.1954351453343524
-25.46837524620602
4.600817608920691
29.36674137607788
-18.70579712729172
17.95548379729597
-28.61642804616664
4.622863936079426
11.37795528148192
1.78265017744132
-30.01781307767835
-3.224774578379861
20.45631796791282
12.78626968824061
-4.137750630181095
0.3547936068324625
19.23590467493338
-15.45294765157919
6.91392843218543
9.374824805681728
4.823013250791377
-21.11176648864308
12.15908641488823
-7.081352768142432
-18.08048665412946
13.00275300742958
-18.4961629633801
10.04696113995376
16.12723294309541
-7.678031119660107
-18.57798845428443
19.8896092852131
9.109625249662104
-10.42124608060061
-7.946599683909445
25.56460965184519
-0.4137937151887514
-17.2042162527782
-21.05893665560182
-3.35268100077688
22.78108861421818
1.630529042184643
-2.326925110154424
19.2952664846685
2.830468542532461
-22.373682283704
-6.845120697852214
3.60656763309039
-26.92582819900303
26.24765029979796
-13.79395654800092
0.902574037123038
-41.85424477509072
6.878084016860354
-18.67438460669648
34.57120517573059
-22.77490458588531
17.70483758153244
-41.64898496636668
-13.69719787493547
37.64134525978552
26.43771807861013
-3.629802085461381
-22.39508218488587
-0.4128338082493255
4.310650092108257
-1.438610858363309
27.707600257485
-30.57963949121335
24.21883902035567
-26.40171819437275
-1.141827568043767
3.324706742064726
15.52327214517021
-12.54596689596522
-24.35275674182174
21.37545149284838
-5.5951723010047
-12.91497220499154
14.29542037333911
4.214724132657317
33.3769530868565
-16.98601572186485
-19.76370220147908
3.372764836300441
-11.46854300096815
1.616201776509968
12.46673910871259
-2.614397884316842
8.012846292825143
9.715657233792641
0.07061494763429263
-6.282130608284453
-9.833019832034559
30.86196658790152
-14.74681614757231
9.918338079282879
-20.30887152213868
9.020191601566923
1.370341841285397
-19.44894471874421
25.252297167269
3.449766465862607
-9.253118914419913
14.29184655062019
20.46449534261592
0.8183008448642548
-35.57464273810869
-27.1994624723479
-8.578003765508235
-11.61426011842834
47.39172635643549
37.75562031471159
-11.30843376576662
2.568363721556716
-29.01555027044185
15.63458340022317
-36.03014648062736
-8.402514880893204
28.79807796132646
21.4523289532848
-12.43241272432167
6.145878522656748
-15.16579475159343
-20.28708177428122
0.08746343594507316
-3.018564645100867
23.21818298346407
-21.25861963297418
0.09262250554682736
7.46546494847334
13.70053217897267
-10.9422484651226
-20.11448399261602
18.79531117407614
12.26142128375353
14.02231926520758
0.237841993584101
-14.26136231585348
-14.45432020299926
18.78530555327845
33.42463496441356
-18.0771898243875
26.03648717158793
19.3847339066084
-27.34403125298827
18.91931062408819
-0.2216570557409745
0.2865626997587662
-10.61458337480338
-9.676746941308169
2.453421856942215
-23.02409555279538
-6.628788776445393
-21.1549161564073
10.52215026070473
-0.3094825693835173
3.484854483653694
14.95241281166473
-17.24716899120591
37.01923561416735
-17.00877559483962
-15.09920346907306
-4.911256550000012
-4.207401559682492
10.89183722794017
-26.79891966081892
14.21005714866531
3.808926602939021
1.708303378406239
-19.72728712996082
1.275287421533227
8.807567499594066
10.58167800185371
-20.66453292314181
2.25758359457433
-3.676651565217909
0.5420251622718709
0.8770428083997863
6.399895300248437
13.00785718076685
-1.27077581640554
8.746919669117398
7.953870240556784
-0.3216877103197435
-3.64947219223449
-6.719926167883021
20.16717360176907
-9.797775241698423
-42.69422051459937
9.5234536248465
15.09357706581684
1.649768827533895
-19.68658195380571
0.9329472670020709
17.10386585941023
-10.83339940478807
20.94407040031042
2.360939431317162
-12.47161042689968
27.00342629242793
11.53931407297541
11.15985349259772
-49.70259385791715
11.33989595562074
5.468703231951974
-15.81022675343258
-0.9983724341439753
-23.53348622196854
-5.927714753809163
1.338246086249336
28.12295488957347
1.210364719264204
0.5895471159635078
-25.33339805715729
-15.30374526927912
-5.590173331519349
-8.046322539445233
15.43053382770792
-15.93784190639563
2.157076906386619
16.24809134070238
2.762600067185796
0.8613514995674856
-19.87204290746905
38.53784968847884
-20.80855235458849
3.579813103088128
-21.30911043697314
20.42724602941545
-27.21880255929322
6.790797861864799
-9.097090393608115
29.68009063119389
-1.460046591684895
-19.12295364589502
-17.34528652303587
-5.429546561571033
14.93760552261551
7.837227562009841
6.843583742585016
-6.666512234971579