/*--------------------------------*- C++ -*----------------------------------*\
| =========                 |                                                 |
| \\      /  F ield         | OpenFOAM: The Open Source CFD Toolbox           |
|  \\    /   O peration     | Version:  v1906                                 |
|   \\  /    A nd           | Web:      www.OpenFOAM.com                      |
|    \\/     M anipulation  |                                                 |
\*---------------------------------------------------------------------------*/
FoamFile
{
    version     2.0;
    format      ascii;
    class       volVectorField;
    location    "1.7";
    object      U;
}
// * * * * * * * * * * * * * * * * * * * * * * * * * * * * * * * * * * * * * //

dimensions      [0 1 -1 0 0 0 0];


internalField   nonuniform List<vector> 
19632
(
(5.009867440461781 0.02736331856042761 0.01103268028160002)
(4.999651815727955 0.001167575035479774 -0.002216716469432044)
(5.000358567745637 0.0003498111657912294 7.503937579376782e-05)
(5.002046380740962 0.001992085861681162 -0.0009977778948821927)
(4.999513195033216 0.001746235520212345 -0.00133050109490903)
(4.995023349116392 -0.009492772582636245 0.008776461368067987)
(4.995226692081046 0.02396917226337412 -0.005731752731715382)
(5.004025194786748 0.003963351934190808 0.002442404283315515)
(5.004070180485003 0.005764652050937745 0.009033619223999886)
(5.01121446993996 0.008009513790034384 -0.00273309290332966)
(4.999513070301673 0.03947258280150593 0.0008576111433350902)
(4.99532925714847 0.002169951333033536 0.00370779397692254)
(5.004576169122508 0.0007942180521289909 0.002227411923778134)
(4.998439090387794 -0.0008446278527805108 -0.0002467336163078146)
(4.999952391431439 0.001815048295378973 0.0005937770570156064)
(4.999639424241404 0.001935465066631557 0.0001966895872349745)
(5.000168099245808 0.003111308775391305 0.0003058438713619958)
(5.000021755597227 0.001602557978461254 -0.0004605283566142329)
(5.000448042179213 -0.0009572399650505577 0.0002022408361714863)
(4.99940016819338 0.003684899315003841 -0.001706109384789985)
(5.003344247649551 0.005133134669007244 0.006294795289450593)
(4.99943814754087 0.009116206561773125 0.01000178408883535)
(5.013636850637412 -0.02665373316713504 0.004504284527116178)
(5.000006028905177 0.001353382174652635 -0.0006874844700209722)
(5.00037294394247 0.001905333837147544 -0.000241419381265953)
(5.009005643795462 0.005965202071244936 0.007632740765562035)
(5.005461663299309 0.008498189207170189 0.0002329227134770617)
(4.999795364076322 0.001278108133259127 0.0002353613287076754)
(5.001460468558248 0.001716652451880329 0.004654175221240718)
(5.000279238864003 0.0008645032710794929 -0.0004316777006345896)
(5.000227253959216 6.674164755457577e-05 0.0005604715821061891)
(4.999160731839437 0.00306560257842908 -0.003423163442247466)
(4.998738166026464 0.001970073623488789 -0.002231500631426444)
(4.997678491193071 0.001994085511243861 -0.000514825772848374)
(4.999954113259443 0.0007366061352730518 -0.0001129201924541917)
(5.002827969175394 -0.00109086022542524 0.001836873015490641)
(5.000514690030413 0.004000813570089196 0.001217594807514809)
(4.997566822699417 0.01726390121473757 0.001474134277584786)
(5.003420630131862 0.007346010265228468 0.007181270052872443)
(4.998875243086597 0.003081405093584801 0.000218654195244622)
(4.999895269499558 0.001039376890055688 -0.00204037219416501)
(5.006928761668711 -0.008391997833250647 0.01353175578014767)
(4.991161164278837 0.00842316099575062 0.007232980305555138)
(5.000805578637135 0.002068828043565331 0.001002112191189545)
(4.999675075968729 0.001292986414917631 -0.001364882399676222)
(4.997937126962486 0.005450170045662471 -0.003400541193551639)
(5.001305009027968 0.002570386748338244 0.007439455153281679)
(4.986500626073648 -0.001016214994291672 0.005977059635489401)
(5.006536813231554 0.003451813394471927 -0.00680570871604705)
(5.000503064631597 -0.0001869481241964925 -0.001192118689812672)
(4.982523138992779 -0.002470140987528787 -0.007616328688661503)
(4.993025766935923 0.009003132100427001 0.0354499085913071)
(4.997600943154959 0.01190116664187894 0.007191188563552421)
(5.000601563313105 0.01014094757924381 -0.003107113578505454)
(4.993501494226722 0.00491891987378578 -0.003465282683389341)
(5.013171753365754 0.007462314167366872 0.006531593044996103)
(5.005704381902458 0.00131169974172361 -0.01048299677416613)
(5.002157381588792 -0.006239748961506066 0.001927526727922253)
(4.994782980752343 -0.01472122244307118 -0.01852501040288092)
(4.999527811360833 0.001480875872870022 -0.0003720668333808485)
(5.001074274133826 0.001137313554439812 -0.001064992210146242)
(5.004131528990474 0.0006274929031120065 0.0009521060945784074)
(5.000016807279354 0.0008052459520295343 -0.0003623083066111919)
(4.997704741139272 0.001564053002731557 0.008005427652115106)
(5.002802522712208 -0.003324197653322716 0.004652528768351696)
(5.000230372585257 0.0001751767227799311 0.0005002024972847712)
(5.002615918685423 0.0005449487675360944 -0.0006124082067600438)
(4.998676356957891 -0.001182788690040209 0.004174678307842905)
(4.999899943314058 0.008646378737549107 0.00537494828159543)
(4.997497282056991 -0.009949075611916299 0.01960594234895084)
(4.999587436155895 0.000836901665381586 -6.074272245422718e-05)
(4.981392148957074 0.006180811076492656 0.000397674694303536)
(4.97069172060101 -0.001104094628153069 0.002833557545399684)
(5.004976433079681 0.007754846488476467 0.01050005569588614)
(5.000493309634772 0.0001773350031787743 -0.001043213879389316)
(5.000994673989459 0.0001117901466220629 -0.009422863868970595)
(5.000581754948207 0.001789801406028754 -0.01523251969505191)
(4.984509042955168 -0.003140713700869168 0.004453573294571095)
(5.000329249562595 0.0005714239484349712 0.0006169735824619965)
(4.999206284633073 0.005282006864428155 0.004240386191885747)
(4.995319237042198 0.01716945278673539 0.01038126603995227)
(5.008172168546244 -0.00259853997169794 -0.009906562905229937)
(5.000271304871119 0.003829152587728469 0.003978995682972489)
(4.999060574724496 -0.003226830851088566 -0.003715893544388904)
(4.996269934238085 0.003673323626824444 0.003144449292313682)
(4.993836121298305 0.002876815837400481 0.001908140884064498)
(4.998649921508775 -0.00228734804623225 0.003388668047398233)
(5.00254705067892 -0.006866110436950045 -0.04736963318330849)
(4.986585989181616 0.01052347878326004 -0.001742166103170187)
(4.999744588889326 0.002037923997375038 -0.001137541263857358)
(5.01294957315211 0.0103051660039559 0.005852393306176353)
(5.007407597072547 0.009889405371722684 0.01069240001975208)
(5.008866322664033 0.0014609086144949 0.01208330960320495)
(5.000056839030875 0.006211434883277471 -0.00222240647593342)
(5.005607186577802 0.01483245926005164 0.0198657513244158)
(5.0057298195121 0.01023553659309939 0.01049554115681297)
(4.994005393671238 -0.001400317537950459 -0.0008710315380008225)
(5.000144391467831 0.02762548780465462 -0.003485400294360683)
(5.001619072019542 0.01046261446221491 -0.009698613519025928)
(4.999609556464252 0.003211262264013366 0.02408609699033924)
(5.000152882847474 0.001119819973860571 -0.0002373165617870499)
(5.005027624750706 0.005052450969311887 0.004616645954272431)
(5.001856455872889 0.0007666035534835588 -0.002351239299388499)
(5.001211826786037 0.0001947157589143308 -0.001613523400681869)
(4.98149345853301 -0.0008716320228046197 0.01669878483224834)
(5.000021268457641 0.009154758382873614 0.007437755982186571)
(4.999940345810774 0.0009330102540422833 0.0001092092716071861)
(5.004480264292752 0.002429795626104641 0.006202317066399042)
(5.003596240940929 0.004170632464532593 0.003460367587984976)
(5.00018097135348 0.02776307714275796 0.001494826904712602)
(4.985575453152617 0.003827581141767767 0.001892112205797043)
(5.010330763961847 0.003479484269668062 0.002891643192499546)
(4.999616671266636 0.004406127535640794 -0.0004628968113599268)
(5.007519161196475 0.002869024359809479 0.001340392308504446)
(5.011686241850869 0.002993246257822282 0.004219255181395825)
(5.001143990074853 -0.01192298291182413 0.02149577560416569)
(5.007136569898116 -0.002982673316149139 0.004992616558079713)
(5.007746580355667 0.004165308169607038 0.0007291602483152013)
(4.994578800834462 0.008973849574412468 0.009954768997875096)
(5.00476065595018 0.0226848972166912 0.01523286859773078)
(4.977945508114304 -0.002180910649765366 0.0008842244582157819)
(5.005342419788352 0.01139228283436396 0.01496207604511283)
(4.999869708111451 0.0006592227283426397 -0.0002912027114986065)
(5.010313963164037 0.001682478260743071 0.001165220883851436)
(5.008616871614752 0.0003567253651301485 -0.0009130381624766298)
(4.998676650142966 0.003060142084971716 -0.0007467096294883136)
(5.001900532099843 0.004665391664572804 0.0117450078517673)
(5.000362111263693 0.0009916414521925704 -0.0002740429933619711)
(5.000006893087943 -0.002299683417022183 -0.004196268985288619)
(4.995584432426282 0.008940896682125365 -0.01904704757151233)
(4.993733150773922 0.004287432208012874 -0.005034183720075157)
(5.001586809552436 0.003647860409656363 -0.001938607566905192)
(5.000013684561468 0.002488239416460485 -0.0005063808685337357)
(4.995377928344704 0.0204325819244239 -0.002796305913344881)
(5.001933571729342 0.001369174761150109 -0.001457765862145955)
(5.004081401034791 0.0002359756591280302 -0.0001123899203998338)
(5.014500487278127 -0.00399778738066094 0.0005373525302767583)
(5.001610062499959 0.001449934945661921 -0.002286248539333006)
(5.000163646825571 0.0005403036716028096 -0.0002093703265115402)
(5.000847516648501 0.001710529186841829 -0.001677533211102468)
(5.002834189858376 -0.0008823389759252011 -0.002197603430151519)
(4.999972409523143 0.006552306741106869 0.00327377560731059)
(4.999635170393491 0.0003203680109503612 0.0001486464917681399)
(5.011721395912258 0.02331462273727883 -0.01291153845164731)
(5.001974355016005 0.006218526958668546 0.002488814622176228)
(5.000814530714604 0.004375431492519156 0.01629087928836531)
(5.000089385901921 0.0009676742926466959 -0.002138409859090857)
(4.998685090571911 0.001316161956407387 0.002581075237467855)
(4.999101735373642 -0.0002727143896906124 -0.002132951877731239)
(5.00031480512881 0.002212237143387217 -0.001616890477448975)
(4.999357826835251 0.018649130224611 -0.0005302617379440977)
(5.000803950351571 0.01442363328441662 -0.009046142401399148)
(4.998456905884039 0.001681121350943511 8.657382750751275e-05)
(5.000194565965573 0.000439005988451897 -0.0002086384470071348)
(5.022512350246283 0.03826423622070819 0.02357280268739025)
(5.00615031310483 0.006688356596057122 0.001791009796965077)
(4.97381950702036 0.03206302180906833 -0.001637051625237437)
(5.004670968262547 0.001250959680538617 0.0004573872734332104)
(4.99492003160353 0.0107686737065999 0.004947688703182233)
(5.000025695738143 0.01900010711887633 -0.003210563754480136)
(5.008163503414217 0.000116314198803436 0.01024088820169703)
(4.98924575257286 0.0002902391676348238 0.002326607953153396)
(4.994126369505533 0.005662574042599411 0.009620958353285266)
(4.987551324915357 -0.001379644713462022 0.001598054286462144)
(4.997684704960404 -0.01758813007624942 -0.001272913651709667)
(5.002751604565296 0.0207264733349476 -0.02054618860585569)
(5.001058803770069 0.006088559260220163 -0.0003028074001594905)
(4.987771150213424 0.003652864820586729 0.002643574035598635)
(5.00053993410115 2.507036363184344e-05 -0.0003112273098712493)
(4.980102170478154 -0.0006592007383012103 -9.01294976997912e-05)
(5.003149346397817 0.008566616752814737 -0.04103322346074867)
(4.985629032322275 0.001130992872670365 -0.00223428289033825)
(5.000677864354255 0.001560724264551642 -0.003010512611772368)
(4.997751247590491 0.01046706622662649 -0.0001388010929506462)
(5.001661604298969 -0.000560893435555728 -0.003499948124761344)
(5.00032405882222 0.008871598279792897 -0.01160975029841171)
(4.999295598516357 0.00732359791893764 -0.008742412620123631)
(5.000241293646717 0.0005249863779030431 0.001655836628771404)
(4.966561608353963 0.001975465311857483 -0.03383848510144894)
(5.000924465108976 0.002068127129258555 -0.001883337698178686)
(5.000151329110139 0.005142974650470244 0.0005014556891739996)
(5.000440788673061 0.0005469323330224179 0.0001940701962018511)
(4.999406885742135 0.001367641199546661 0.0007511391764541242)
(4.996218438197803 0.009988029230223747 -0.004014969862946085)
(5.000489389166614 0.002244045662210096 -0.0002047930738776113)
(5.000144462955945 0.0003358402432065244 -0.0003075924122060152)
(5.000261592912853 0.0004492121373549163 -0.000239714426324207)
(5.003034486198064 -0.001919627630947728 0.0004681105848141531)
(4.992213046194676 0.01240408683013129 -0.006720368625229373)
(5.00107519540306 -0.006724384217735218 0.002878650388495211)
(4.972538224819376 -0.01198117494603799 -0.0003437861135019295)
(4.990917760172836 0.002857252850896594 0.000168438457122845)
(4.999979427180517 0.001270183614907369 7.365031933101094e-05)
(5.000144581192254 0.0009266396450131793 -4.739301601700548e-05)
(5.000900572000865 0.000833615815176012 -0.005247941581016932)
(4.999376271348259 0.001169476820763447 -0.003265245581675543)
(5.000745565863124 0.003153972771255169 -0.0004881001165101814)
(4.999878108136747 0.001108906502949094 0.0002432720110267655)
(5.000514598031557 -0.00122697158471084 -0.001627513537914307)
(5.000515616548915 0.0006457431323510189 -0.0004511114034720135)
(4.999771636190015 -0.001878008876354852 0.001730398085857483)
(5.000069641142763 0.001272064874766488 -0.00103589501616899)
(5.000090879842212 0.0008958631434144263 -0.0005103200766368602)
(4.98742799549321 0.001567265398163325 -0.003929609212544011)
(5.00018170990959 0.005864709068487593 -0.000267741318219528)
(4.999383925601196 0.001146988566261703 0.000469736940180734)
(4.928333130318185 0.2768050662563081 0.271786448651277)
(4.991450674232366 -0.001049213077553425 -0.0007949794062633803)
(5.002834045823946 -0.0009192630826291453 -0.0145843579374113)
(4.997449465831068 0.02032906190886467 0.008342851692921758)
(4.999618782543571 0.002312683887785689 0.001148853047881538)
(5.015629134783906 -0.004701591551782338 0.02284946335109223)
(5.000504858649614 0.003510007450837234 -0.001085265945600874)
(4.991002222814983 -0.0002301157666679783 -0.0003907095481211849)
(4.999284901242502 0.0167903441011904 -0.004562509712197791)
(4.99943779610652 0.007271089803494486 0.0003864975445299053)
(4.998421748288534 0.001516692686918023 -0.002517254272206477)
(5.000383978136385 0.00121868624625365 -0.000565238884884746)
(4.979976518011739 0.02374565997671197 0.00022397262445273)
(4.996508815924338 0.009825190102513719 -0.03626744565626149)
(4.998319718528367 0.0008707391917307978 -0.001227222318645285)
(5.001154171768118 -0.002988383721378989 -0.001252097351270437)
(5.000543507955882 0.001194039933378717 -0.0009891724404590717)
(5.002503636763828 -0.0006063781009313047 0.0007406520996281655)
(4.998757016795481 0.001217725547551706 -0.007721972746748448)
(5.000146931349697 0.0005704025451149798 -0.000423615760257433)
(5.011756078654964 0.008821659287445133 -0.005112469519896056)
(4.999501337351118 0.00136371943185339 -0.002208422101493033)
(5.005956212312332 -0.001952716659149365 0.002040375267108914)
(5.0003876169173 0.002948758461218647 -0.004314962582535641)
(4.999457085257457 0.001911919003958742 0.0008027045528675975)
(5.000713236890536 0.0002943617275304936 -0.0005198456288367799)
(5.000389267092143 0.0005455381321881826 -0.0002250440504803947)
(4.999620494752436 0.001401382566177761 -0.0001263614301317589)
(4.999492061629298 0.001557624537232737 0.0007959694807569912)
(5.000358314642467 -0.002555602779594371 -0.0008514467074583895)
(5.003671358649697 0.008023958333366629 0.04207177799137116)
(4.995087725017929 0.01175960928273913 0.008826728427262839)
(4.999734692245914 0.001094867326510523 0.0003455586540017034)
(5.000172055015414 -0.004725798731913398 -0.004916772013658394)
(5.001190334708962 0.0001987060571327734 -9.847148893264438e-05)
(5.000683452988016 0.0009410751752912239 -0.00088282000938417)
(4.783774909952096 0.008729598928034819 0.2031131281167858)
(5.000238485846358 0.001583861225285461 -0.0009532147364187424)
(4.99896630261579 -0.01432290480504409 0.003287308733164232)
(5.000730734122639 0.001682971539867329 0.0005654485363935975)
(5.000113001379097 0.001341132914488145 -0.0007860160859313783)
(5.000127226303812 0.001305324443280782 -0.0008346848413730999)
(4.997423462319438 0.004541169609698767 0.03076095809653826)
(4.999457353430425 0.001846713163729267 -7.252812607277815e-05)
(5.000761909512585 -0.00248231398349721 0.002074214611570245)
(4.991201725246644 -0.01755236471853831 0.07222014229360584)
(5.00022081255702 0.001355038323256339 -0.001099216962226072)
(5.000425632312624 0.001705288760482373 -0.001058242180830363)
(4.999324281205855 0.02935413127537486 0.02927943276712903)
(5.000412939716106 0.0005310841130223239 -0.0008742410363070265)
(5.000051458735896 0.001359729804555587 -0.0006994672414243071)
(4.992753152868826 -0.001968447271187028 0.0004528713193563787)
(5.000703250358225 0.00753982079733829 0.01847502016406269)
(5.000337674367431 0.001590441713250791 -0.001163026367067981)
(5.000629582497225 0.001471945697044383 -0.0008273169592380437)
(4.998355402428893 0.01957787742678277 0.003223395865442609)
(5.000174974153553 0.001252110782495139 -0.0001682512638078292)
(5.007787072097344 -0.006183644276830055 0.01137951100337994)
(4.999274410028431 0.0003344407219136918 1.870435586855851e-05)
(5.003474261921762 0.003314323043723611 0.009315094060633576)
(5.001878938537256 0.01074547452362013 -0.01197039709938834)
(5.014573652347252 0.02171039816584226 0.01315156595177045)
(5.001073529376288 0.0004704418420235818 -0.001513063529771693)
(5.01102273168701 0.005946639216246802 0.007193211692802986)
(5.000270706861696 0.001745912864556691 -0.000143051509345117)
(4.99006577299781 -0.005077714271559252 -0.005151423643115157)
(5.001028257630783 0.005328004999581221 -9.371281175234315e-05)
(5.010937292500379 0.01393443287817881 0.007627861125278859)
(4.997046088195685 0.004855957394079852 -0.0003524935448931119)
(5.003051768542806 0.01037239322545122 0.005799421738616619)
(5.000379990968242 0.0006042819184394304 -0.0004151195488457565)
(5.000689413227293 0.0003314526333094031 -0.0003737436810609581)
(5.002653980913844 0.006683882364031075 0.00600787477492461)
(5.002647990439228 0.008159386636327851 0.006259923382158909)
(5.002738895196839 0.01919516519084847 0.0138579663901322)
(4.986157754757219 0.00177771076835897 0.001323819364280699)
(4.9997526729349 0.0006681346100543902 0.0003092920137532618)
(5.000144349776206 0.001085078228537637 -5.998174153938276e-05)
(5.000129703542724 0.0005756057733094121 -0.0003300487592151659)
(4.998087992825883 -0.01690342472435124 -0.006177577484409694)
(4.999705611770718 0.003350634246779608 -0.001961370313917153)
(5.000528801943464 0.0002823112673225642 -0.0001814731590794448)
(5.004095040252092 0.02036527233589292 0.0160008732940762)
(5.000573069362662 0.001574596710186119 0.002216512406334843)
(5.001430492794578 -0.005984447881494439 -0.0008406214835536436)
(4.999444615861524 -0.002969072077793709 0.0004809696556536142)
(5.001258387149803 0.001072547915467366 0.006068000116143667)
(5.000322241380769 0.001370864210889735 -0.0008118008817295606)
(4.998993235384297 0.005567940093726081 0.0004198282642635088)
(4.996379287486215 -0.001722930640929841 0.003529869397596822)
(5.000662600299492 -0.0002421046047907455 0.001254633193632165)
(4.96076034458135 -0.008788945515991081 -8.907100175639757e-06)
(5.000683268083206 0.001632427372343263 -0.00105803120558966)
(5.000622002873199 -0.0001974393334473524 -0.000755206747247929)
(4.999989070665884 0.004820145318670827 0.03663572472849845)
(4.983432698570352 0.003007132895051134 0.01965195118587714)
(5.000237937852973 0.001743678405173275 -0.0002783429796701184)
(5.000365748442099 0.0003867942610131784 -0.0002504961016262556)
(5.000695925435215 0.002087800999599865 -0.001326357154362634)
(4.999832186761583 0.002579399746498505 0.001433307356982465)
(5.000049038738081 0.0001918044666277017 -0.0006321531499116558)
(5.003518910796027 0.0004367737718972534 -0.0004894992725806984)
(4.998235708826054 -0.004860100870139912 0.01419888054149961)
(5.00005166750267 0.001055840788860999 0.003939582146849411)
(5.005056920505903 0.002452739483488371 0.002299043980735876)
(4.998620415864137 0.01242983029768222 0.01104424529758723)
(5.000536240747302 0.00163973782001626 -0.001197741511930537)
(5.004208183302716 0.002132793195500184 0.01101626461250484)
(4.997704057094297 0.04229894088514372 -0.01091144148252026)
(5.000235427497617 0.0004221500125992276 -0.000449570331865018)
(4.989755379727684 0.03576054945739438 -0.04595470101523949)
(5.006685716488442 0.002246217436326513 0.002504903228445707)
(4.985190297812142 0.007187696135977943 -0.007159970541940356)
(5.007470894815722 0.009101028127636811 0.007086557224475288)
(4.991038852897026 0.04684640155859944 0.02737630103519185)
(5.006632502660112 0.001646171887784392 -0.003528843514866349)
(5.008362960569333 0.007698760687249723 0.005389447544999299)
(5.00643200962799 -5.080526841691491e-05 -0.0001489643688123852)
(5.000847191549116 0.003195515677606697 -0.003699680721976764)
(4.999656455351134 0.002524929090552126 -0.002757848016617185)
(4.999750312414759 0.0007226461317417223 -0.005231303531840007)
(5.001539802337395 0.006908823647017001 0.0006369739744982445)
(5.001018899175393 -0.0004380655920236949 -0.008557590414161773)
(4.999854205712575 0.001844972423812847 4.050595138319213e-05)
(5.00020333939807 0.005973878887158056 0.0002195991253136701)
(5.00013992062186 0.0009437265393383623 -0.0001048938346915773)
(4.99982858971207 0.00429521507844775 7.941505626018477e-05)
(4.999382795069169 0.003399624258396294 -0.002812893458353003)
(5.001057520784743 0.003731197385610543 -0.0009805913083849958)
(4.99974665000538 0.003461657113994609 0.0008452284946134635)
(4.999770614238452 0.0007391323074251696 -0.0003889085044845189)
(5.004315923331268 0.02481654891938916 0.006944840997438512)
(4.999981344444192 0.0005332492328877053 4.764019822176819e-05)
(4.996462199632974 -0.002062130926837207 -0.0005703023213075158)
(4.999271673483328 0.00440802663477788 0.00145560423456663)
(5.000950987240534 0.003154105742985875 -0.003053330685858108)
(5.003038616170383 0.008008751818179973 -0.005022345634923512)
(4.988871380026172 -0.001933909839390412 -0.001134655841710248)
(4.999208803143922 0.005283400512953149 0.001761833044479417)
(4.980277761767567 0.00416272727421781 0.004756522228860821)
(5.000263327376826 0.0008989598997506408 -0.0004488906074966233)
(4.996176283787351 0.006464721506544452 0.02274929118710472)
(4.999425568884001 0.01094224210807292 0.003126026847501187)
(5.00104262015762 0.00614030798162099 -0.0005733295171440892)
(5.000688955785516 0.000869151323375757 -0.0007843968616249386)
(5.004589917259793 -0.002870103098505308 0.01448114298545953)
(5.0006162019761 0.0004583641736018125 -0.0004445906130569103)
(5.00016572332484 0.001188039274643676 -0.00103160215662705)
(5.00033285261518 0.003108686835078056 -0.002196561373141526)
(4.995740688148499 0.0009864435875751377 0.0003263918751832191)
(5.000440422311359 0.0005813959757286388 -0.0002297094916428977)
(4.99889667990662 -0.005078408286250111 0.0003227180245285004)
(5.000174352246717 0.004756474091657556 -0.001336904707175074)
(5.003345933325532 0.00337185931258513 0.002802328115612763)
(5.00069994572915 0.0008512962601321664 -0.0005165405702127597)
(4.999598049908403 0.000787082621534249 0.0003566247897615653)
(4.99922394990482 0.004634094638763952 0.002356425540092651)
(4.999275125384048 0.001644937450338454 -0.0006059423923517519)
(5.00492975647693 0.001515460433508123 0.001873086350944147)
(4.998106313608631 0.01718990506789123 -0.002370979396781432)
(4.999754973929439 0.02241835124928123 -0.001810131039822771)
(4.999853244087992 0.001071908293118882 -0.0004010469687865903)
(4.996198359576084 -0.0009009024047296427 0.02432130347131254)
(4.999931949600629 0.001444266268944692 -0.001135554173988298)
(5.000466827942517 0.001455617079488055 -0.001015150971481073)
(5.000073502589943 0.0001532549370734094 -4.734386433690187e-05)
(5.000795109224391 0.002699105982075461 -0.001674109222068473)
(5.00123209300092 0.0002078291487874109 -0.0003636026782302574)
(4.997682265234924 -0.00414538781383523 -0.00172884775699452)
(5.000159368915257 0.001487708841781401 -0.0008808515007007258)
(4.999308929093982 0.0009923219025910572 0.0009891979020981369)
(4.999483785952864 0.001648481348267447 -0.0007863190352540509)
(5.001478535658022 0.0009967164674963443 -0.001712184470537039)
(5.000141622649843 0.0006329882943538614 -0.0002897260434941929)
(4.982451137854699 9.266114999903145e-05 -0.000142603537941614)
(4.999523300275227 0.001122462646077225 1.278733623789725e-05)
(5.003778626521333 0.004880038811510745 -0.01077409630959121)
(5.000042486118654 0.001897890892861473 -0.001029558181847086)
(5.000030162952788 0.002588997396650219 -0.004038359922931637)
(5.001826489889567 0.003177716388461078 -0.001375642948085881)
(5.001446641314805 0.001899550838270662 -0.001435935462527879)
(5.007596435898218 0.01921470072860296 0.009914410627479922)
(4.955231196815453 0.003465994520344462 0.0002898819151581263)
(4.999546578121169 0.00197926532528135 0.001084000175876296)
(4.998842623787714 0.001059531714037443 0.00157538919216754)
(5.002950874669142 0.004056726494976373 -0.006626705370480858)
(5.000206809593924 0.002968624921882197 -0.0001529080682526867)
(5.00024388720735 0.004673852376890093 -0.00522136050617793)
(5.000643846338416 0.002733193743221309 0.0006371196075470722)
(5.003455020166358 0.001510579426764227 -0.002610745883292189)
(5.001774206208049 0.004212671652765832 -0.0103574066507601)
(4.969897469272652 0.002514547344733466 0.0009904643913914793)
(5.000871106465622 0.003002320091134603 -0.0037283511863242)
(4.999319991299764 0.003665251819610033 -0.001959684982181143)
(5.00097251170537 0.003959222626106823 -0.005854658867408691)
(4.998978339391363 0.0008760646755421209 0.0009527267812839685)
(4.999636679286619 0.0007049492963999397 -0.0002245884355911833)
(4.998531549741869 -0.0003782572164645911 0.001873212163542765)
(5.004511284597238 0.004620189807204324 -0.002238768968453567)
(5.00016075361049 0.0005269406589655746 -0.0006993337567607943)
(5.003867821114597 -0.006561675305788267 0.006185690985000099)
(4.999652869400225 0.0005919182540646425 -0.0002944509227678511)
(5.00040346611961 0.002358917229625267 -0.0006699241832259643)
(4.999824197110497 0.002588585122485496 0.0007530965001931672)
(4.985304142343209 0.0009011721619848659 -0.00274956293799786)
(5.002085399816508 0.001264716542407751 0.002150702296200782)
(5.000017280875895 -0.0003592582021089074 0.0001350113288484592)
(5.000030323431276 0.001792115340334827 0.0002190200711675635)
(5.001953185259667 -0.0002707662564901544 0.0003401548589966938)
(4.999954250548576 0.001632217031309907 4.666114316413962e-05)
(5.000254630566192 0.001614077797408607 0.000606827286547966)
(4.999989832096117 0.000797199460801024 -0.0002770959434965032)
(4.999289341405742 0.01833167659555086 0.03505479428247957)
(5.00556689482618 0.002654617414859852 -0.01533286745985755)
(5.003078308355486 0.001508040703114856 0.0005358654050398557)
(5.00022720102417 0.001231677565941121 -0.0001828144791085922)
(5.00026209935429 0.0101635146781223 -3.13398992207425e-05)
(5.000238589512463 0.001768988044713469 0.0002781214469539596)
(5.002974499217797 0.0008443252029274463 -0.0009652926925482222)
(5.002331190087584 -0.004715191098348632 0.00124922473843517)
(5.001136957197259 0.006690981392078379 -0.08476642821591157)
(5.000003808613947 0.001585810769277009 -0.0001280121639933759)
(5.00018120155176 0.00122350059749644 -0.0003164434650987317)
(4.998917178387399 0.001539788257729067 -0.001681375125844933)
(5.001598427668325 0.005240389357982814 0.01077305885954422)
(5.000091554464657 0.001074381046421434 -8.846574619649756e-05)
(5.001893037425732 0.0006327062969336813 0.0002900317588688157)
(4.998386660676949 0.006281461669795734 0.002376362069510812)
(5.011517397907798 0.02211478199021863 0.004518038166175025)
(4.980890262746816 0.0001096214871695334 0.002254123550238199)
(5.011288994467495 0.003549674835966603 0.003656094812985597)
(5.000128315633461 -0.0003108152725303855 0.001931337126435134)
(5.003816687104774 0.002239678668959814 -0.003054119112652116)
(5.00018416342968 0.001602504811676911 -0.0001479274987589542)
(5.00019721563761 0.0007490201062470066 -0.0002274697983265473)
(4.998715976041828 0.0006006397269328788 0.001934907763095633)
(5.000170416532929 0.0007836786895977963 -0.000477414747220634)
(5.000013242330883 0.001360812020799206 -0.0002368225752575942)
(4.999985798416892 0.001320974025925976 7.844398292699936e-05)
(5.004346276843895 0.0002419654362764287 -0.0006431191439529333)
(5.000336729016938 0.001602656757578951 -0.0002717770435377327)
(5.001428038354327 0.001664565199220349 0.00483440019374697)
(4.999655857079722 0.00060266250022168 -0.0001046292619813749)
(4.999821690783858 0.01372965750930357 0.0001225289931678955)
(5.000072930140132 0.001038306614681364 -0.0003837312252327601)
(4.999885198355031 0.001136620943136887 -0.0001374047363247393)
(4.999509655235586 0.0004438039979239513 -6.800878475425549e-05)
(5.00520807696289 0.002786477314634028 0.001324771539146149)
(5.00033155196471 0.001601118009982256 -0.0002892619794856728)
(4.999853074824481 0.01965767685071 0.001602697666962593)
(4.988652301902197 0.001292686076011666 -0.0002734389759808238)
(4.999791155344317 0.001759985469015269 -0.0007577545015253024)
(5.001002817986736 5.839297014065891e-05 -0.0005109947445451219)
(4.994758308145869 0.0005253745351840054 0.001188699779223814)
(5.000201561252753 0.04114211247960659 -0.03611352751554495)
(5.000869340221628 0.001939709252665327 -0.0008641052129871679)
(4.999780086822112 0.001019879365923919 -0.0001678782602322766)
(4.998584400350671 0.001458182539223409 0.001499751187574145)