/*--------------------------------*- C++ -*----------------------------------*\
| =========                 |                                                 |
| \\      /  F ield         | OpenFOAM: The Open Source CFD Toolbox           |
|  \\    /   O peration     | Version:  v1906                                 |
|   \\  /    A nd           | Web:      www.OpenFOAM.com                      |
|    \\/     M anipulation  |                                                 |
\*---------------------------------------------------------------------------*/
FoamFile
{
    version     2.0;
    format      ascii;
    class       volVectorField;
    location    "1.7";
    object      vorticity;
}
// * * * * * * * * * * * * * * * * * * * * * * * * * * * * * * * * * * * * * //

dimensions      [0 0 -1 0 0 0 0];


internalField   nonuniform List<vector> 
19632
(
(9.223331975491319e-05 0.002890633414920261 -0.0006099008471024159)
(-0.0008581455648458162 -0.001492626370184009 -0.0004745962530848568)
(0.0009380286177387543 -0.001096406225743418 0.001327234124656099)
(0.0006081400044162159 -0.003812560763807972 -0.004446822703279048)
(0.002466931288704584 -0.001042419090390455 -0.0006308922126499303)
(-0.003756060106800244 0.002989380746538197 -0.002789982724136423)
(-0.002872789023774699 -0.0004196250392509253 0.0005237678750757112)
(-0.009738815985171718 -0.004861963407258404 0.003513735891456576)
(-0.00415432720156559 0.003169655967071985 -0.003536975454910429)
(-0.01330443305140658 -0.0008997703611108051 -0.01461543581690529)
(0.006958535389024609 0.001847734135707583 0.0007626452468823147)
(0.001089841830978992 0.001271109231510162 -0.0004545835953099583)
(-0.02136897121804424 0.002609315878669718 0.01336680985838963)
(-0.00236853067050314 -0.0009217487144946917 -0.0009577480152087087)
(0.0008206760852147014 8.247771915908178e-05 9.873707288276617e-05)
(-0.0001768179357841006 1.232292514870578e-05 9.697783457879095e-05)
(-0.001160683467790384 -0.0006995568608541131 0.0005407328712662948)
(0.0003129270504409801 0.0005346978426926047 -0.0002461918653393424)
(2.540627053643452e-05 -4.135489571392622e-06 0.0008573744717774261)
(-0.0001253064107764423 -0.0007940380900825154 0.001810692520454014)
(-0.003089449176248992 0.005270746655587378 -0.001139400818510643)
(-0.001058203795779619 0.002238409063895666 -0.0005644825309961419)
(0.008681210871123352 -0.004781717210611292 0.01357758948637574)
(2.325558248742157e-06 0.0003190268049610765 3.940268856754769e-05)
(-0.0003999343469854313 0.0002407830699351506 -0.0001275057870520565)
(0.006256949651893589 -0.007493655459606315 -0.003144978740018626)
(-0.003698038586079826 -0.001062401223111909 -0.002453373308193352)
(-0.002246988395279441 0.0009670695453052236 0.002617870094816736)
(-0.006493982959965843 0.004740655056543066 0.00137127412187511)
(-0.0004556507897422616 -0.0004487542943620029 0.0002685554047058204)
(0.0007029865494388606 6.38841074681951e-05 0.0001925745600557602)
(-0.002022013202696897 -0.002253898394715515 -0.0005286745430962846)
(0.001341381104162912 -0.0008684654346960683 0.0003564702677321596)
(-0.001797889574333178 -0.002477406541649818 0.0003075369647132612)
(3.795035141712346e-05 4.412520949707727e-05 3.055261755844497e-05)
(0.02646878975400265 0.006997890018376003 -0.001274700527026727)
(-0.001082949444758747 0.001176730688227748 0.0002020472296040879)
(0.007305748568214249 -0.0005284383812742726 0.004303512186768547)
(-0.004754420117870146 -0.001333827514837468 0.0001367279662508518)
(0.00273232847866758 -0.0001576654901736789 0.0002406010036585869)
(0.0003723903349261461 -0.001171317310255006 0.0008626443188436065)
(0.0112698140175458 -0.00577801655265725 0.00217452881163725)
(-0.001557659800089691 0.00201309527661175 -0.001789256210200648)
(0.001627779566188591 -0.001145838714811722 1.040423546755549e-05)
(0.0002644019589997725 -0.00029376022777664 -0.0003223824941085043)
(-0.0004744042378844451 0.0002431445098832726 1.637094025720611e-06)
(-0.01448729408358776 0.002955299259665476 -0.00611504529751427)
(0.008912301623555736 0.004648968050349969 -0.002472072911784869)
(0.005586371970455039 -0.006993108536539937 -0.005997500112780675)
(-0.00224372080209226 -0.0002605168314345542 -0.0005300859737727638)
(0.006313889351630525 0.003370037313964199 0.003058244801536836)
(-0.01087773030032677 -0.01666986908174015 0.007587609617046497)
(0.005847255204354009 -5.932668792053516e-05 -0.003580814470940099)
(-0.001983968670856827 -0.0005599419089637273 -0.0001585121836832569)
(-0.004453760208226849 -0.002483346609922782 0.0005741296801029562)
(-0.003131433950056996 0.006624041536802757 -0.002402881250872409)
(-0.004604214889438797 0.009816350722145095 -0.01025881151046266)
(-0.005604837731035754 -0.001335540224692971 0.0004011137394892659)
(-0.0005493042714753312 -0.004142307900666301 0.006105644897190444)
(-0.002851783199881924 0.0001617470515670268 0.001354980942992721)
(0.0007845344324475153 -0.0002769627670630225 -9.332657828654205e-06)
(-0.001639684185839662 -0.001711004031787987 -0.002381954455308301)
(-4.260037473050659e-05 1.582539168089223e-05 -1.618921402323536e-05)
(0.0008448278236374901 0.0008494454786527817 0.0003499498724836114)
(0.0004094995616162646 -0.000965375405314439 -0.0004851962689201044)
(-0.000243146917695287 -0.0001281865434621368 0.0009462517998432495)
(0.0003497999918998202 0.0002119380976495387 0.001006675625875005)
(0.003509334480226959 0.00281157204256306 0.0003178292899354604)
(0.003270755214031566 -0.004433472671694203 -0.003477590203685255)
(-0.01038719108795216 -0.001329457153848424 0.001246013797717652)
(-0.0003618251748479283 0.0002008287434896266 -7.037259185907409e-05)
(0.002129535669397614 -0.002830107250074173 0.003270641616596485)
(-0.002085925168954233 0.001692825974811699 0.0001923152092917373)
(-9.209438034920225e-06 0.004729876834092152 -0.002984086433818733)
(-6.239937182905309e-05 -8.653461105371374e-05 0.0002512302573797803)
(0.0001145577720600343 -0.001199679925722398 0.00112072343311562)
(0.004149163638319337 -0.003083778159764292 0.001031562949302817)
(0.05000408256393635 -0.0322402644305164 -0.005427441531159831)
(0.0005130969794518224 -0.0001739679384515748 -0.0001577567452129684)
(0.001831017717652646 0.003147991682849146 0.001213533374687226)
(0.00576512939218288 -0.008839190011764019 0.001186500575693542)
(-0.001262352434235641 -0.001144433100417925 0.005101023434471014)
(0.0005070972979862405 -0.001860728192192014 -0.002575787073005474)
(-0.00253544426886763 -0.002922151082876508 0.001750743539822523)
(-0.001220593943730414 0.0009483533806102968 0.0003901961149017673)
(0.005267336990516385 0.001059808452748407 -0.0005412426670086457)
(0.002729974299160449 0.001701275200067303 0.0003909200435302387)
(-0.008851375388105837 0.001682731235201654 -0.0008029481227329622)
(0.01568618213239223 0.005617223570965958 -0.009400086619994929)
(0.0003267397115480258 0.0005010142211859587 -0.0001300931740883239)
(0.0117637868507369 -0.003897365487929888 0.01137030832799604)
(0.02298841074238433 0.006955223620260235 0.00314823838880116)
(0.003354438792374665 0.002972345146069857 0.003012233312772724)
(-0.007447876936327105 -0.004547479897892021 -0.002368906401018879)
(-0.001176554649599896 0.009281079959919629 -0.002474385426152424)
(-0.003490268306742835 0.004487230407793101 -0.01089405785720635)
(-0.0001171605206418639 -0.001424597054150902 0.002212640611477013)
(-0.005309073555491468 0.0007811445150392061 0.002575366200357998)
(0.001778082850367037 0.0003694524802515141 0.002829993518537716)
(-0.004206688548414611 0.003098016327225109 0.001207938785297828)
(-0.0002465656664613694 -0.001302385421219689 0.0004974047030070802)
(-0.002376658161355099 0.003947740385132705 -0.002528237433357171)
(0.0002968983845182977 -0.0008440173755460169 -0.0004288153243118233)
(0.0006132296938487576 -0.0002856625606038748 0.0001187393583601304)
(-0.002273394816371212 -2.403593392530986e-05 -0.001700921822428334)
(0.004781704817593646 0.001106115235958943 -0.007834449660627759)
(-4.894003676613774e-05 2.792083600034876e-05 -0.0001065245350903335)
(-0.003521932246389256 0.0004909350611465076 0.003020659131125805)
(-0.001051833173691124 -0.001502119487411646 -0.001829663687487054)
(0.003983116900847029 0.001531936842283543 -0.001717045025762013)
(0.002260229299186331 0.001790194555507833 -0.002976056350771744)
(0.00210744936674117 -0.0004145803659596052 0.0003167452495121978)
(-0.0100412010347705 -0.001443307549888306 -0.0001966383640022892)
(0.0001873274882338745 -0.001391434185465302 0.0009077663490234227)
(0.007895755476257246 0.003173841638704003 -0.003436709373616622)
(0.002193236911166128 -0.006212555268261784 -0.000882507245999344)
(0.00155403787556006 -0.009143168673107285 0.000585952355018716)
(0.00158072142993065 -0.004057555984470392 -0.0004512595117009538)
(-0.005826107038386797 0.0009404905606270011 -0.002891142232417205)
(-0.0200653714712171 -0.00721509072650173 0.01045915202159733)
(-0.003962434575550124 0.00433031907648293 0.00155852905822089)
(-0.01086369832621458 0.002819903551107659 -0.006438630392587272)
(-6.068793555438439e-05 4.625247027249603e-05 2.661406338519122e-05)
(-0.006361225914239871 0.003137577999859169 0.0001779274064568379)
(0.00258885952866378 0.00583696050590749 0.0007409872944835934)
(0.0001021420300188762 -0.0008691531251541707 0.001138362308583937)
(-0.009968231648110113 0.006934926653847473 0.008411226663120577)
(3.83143130028245e-05 -3.856308766310724e-05 -2.323571712712505e-05)
(0.003248751705864588 -0.00160632581231449 -0.000803915106217725)
(-0.002591374269896275 -0.01948065214805075 0.009584938283357731)
(-0.002650480709515838 -0.0004208041715271598 0.001711493899031939)
(-0.0008223405845917409 -0.004388217486467763 0.002433829359630836)
(7.353191630166367e-05 3.791545147042183e-05 -0.0001445668230499338)
(-0.01684028653265216 -0.0007149623974416835 0.01542384783324237)
(-0.0003537214105894865 -0.0003111440429165447 -0.0002657960777552287)
(0.001349190573895544 -0.0007594616242275245 -0.002377437831573915)
(-0.003104816419880279 0.002789315468248081 0.0002675887813802565)
(0.0005395110881020134 0.0002027319918997654 0.0001598619662392886)
(-3.769997425281382e-05 8.919726774995444e-07 -0.000133841675879844)
(-0.0001536010825804111 -9.574385367169477e-06 -7.263709568121923e-05)
(0.002854496762024326 -0.0002486865137882552 0.001919272013195074)
(0.02398215777103484 -0.00955581418715091 -0.007529450532093289)
(0.0004944945847028234 0.0006568007325563686 0.0009242020073306857)
(-0.02873624462761822 -0.004854979415180517 -0.03192509272818102)
(-0.003220893113995856 0.003746710858080681 -0.0009167092167293064)
(0.01979309947347133 -0.007787324462780967 0.001284596610368726)
(0.001818740906250716 -0.003845363168002617 -0.0001249339705689462)
(9.518704469112409e-05 0.0002703740581526232 -0.0002138601004314984)
(0.0004072198037887784 0.0005407560869921813 0.0003911439309117135)
(-1.585332383651863e-05 0.0001934061458751307 0.0001866004865978364)
(-0.005724926549268688 -0.0003494126437450803 -0.001228711652421804)
(0.003584699550624606 0.003563548476630385 0.003990166138364852)
(-0.001151978934899245 -0.0008240425172764028 0.0008474140565090554)
(8.826339614788803e-05 -0.0001027853227014114 7.815697018410363e-05)
(0.03497964087286727 0.004407888310773878 -0.0007126193438409213)
(-0.01279538107988323 -0.001145177662867722 -0.001919275382947132)
(-0.01444336298015991 0.004216907333885076 -0.001018127704203599)
(0.000189384888252432 -0.002480918063895362 -0.0004598677041875887)
(0.008022722364249129 0.004671169063492628 3.849781660924178e-05)
(-0.0001087503641944297 0.0005708406752390266 0.006060416462123496)
(0.0002338688057779092 0.002781376301988008 0.0009491006951257083)
(0.003388494914706659 0.0003738812366666842 -0.0005729902261687558)
(0.001867397498140453 0.001503390300759245 -0.001114883304804284)
(-0.006038835216979759 0.0002991875311098076 0.0006499569283618099)
(-0.01000234292176618 -0.00013623226565132 0.002477613013248715)
(-0.0006179473535547261 -0.003791708900442729 -0.00165333088144355)
(0.003720127032224053 -0.0001665571518725505 0.0002271027258512256)
(0.003729939955918695 0.000106765170069827 -0.001429733734378128)
(0.0006137434594410874 0.0004942284424946825 -5.957206337620774e-05)
(0.002548314069788169 0.0002494812685552599 -0.0002111697412332431)
(0.0003172154086314109 -0.009697221151345114 -0.00318271358720239)
(0.010531316722235 0.0005436372477948673 -0.001110602200934115)
(-0.0005171539003653716 -0.0007772828517561623 -0.0003787505690988543)
(-0.00177530251613186 -0.0005960857673684364 0.01345849538666355)
(0.004034814034699651 0.0005310232344206809 8.729203690938559e-05)
(-0.0008849889494907306 0.001643744144354657 -0.0005129074794531225)
(-0.003707379945895316 -0.0002822482762940214 -0.001141025481150932)
(0.0008591194612237852 0.001473054242080873 0.0009183536266352164)
(0.01406732350664189 0.0004042867246460032 0.005923221187887429)
(0.0002074515650573949 0.0002134579203484349 2.109918305714638e-05)
(0.0009899464993986481 0.0003164207788589495 5.266078297479032e-05)
(-0.002580426211577964 0.0002878905583479293 -0.0003251266961573019)
(-0.0005373115335321533 1.428378095968031e-05 -0.0002819268324788646)
(0.002053049062183986 7.598002854356173e-06 -0.001041608468259223)
(0.0002551392389905267 -0.0001972908452770328 -8.317663562171408e-05)
(8.087834032436093e-05 -7.438461460422291e-05 -1.51003901282665e-05)
(-7.377198633342206e-05 7.547880014019897e-05 -1.803693791729734e-05)
(0.001757610278881391 0.001594281364132623 -0.003849303223833264)
(-0.0002687473711443358 0.0008054082088123288 0.006837003058238391)
(0.005380701266959764 0.0002225263858925603 -0.002175496384360888)
(-0.000942608165718018 0.0001717450006594066 0.007275122641451897)
(0.001458673915614113 -0.0002430802553347122 -0.001750194021143155)
(-0.000141967535357501 -9.905860524201087e-05 -2.410578310568023e-05)
(-1.795837442741494e-05 3.703088066486527e-05 -6.781042331244912e-06)
(0.001030893569043806 -0.000358390237263775 0.0002428660808690335)
(-0.0002896393462185655 -0.001616150157489098 0.0007168428702653155)
(0.002335722753642048 -8.685677136958947e-06 -0.002686164788986449)
(-4.20889378316941e-05 -3.205000586563067e-05 -1.793625015728048e-05)
(-0.008558449167291324 -0.0001746863448937548 0.004622186579975428)
(-6.819608826441986e-06 1.885746857541888e-05 5.686584461853718e-05)
(-0.005770202214469044 -0.0005277131505027434 0.0004376531441185202)
(0.0005785516139945292 -7.420189955301669e-05 -1.523756833051631e-05)
(-0.001608130814059909 0.0006317940870580939 0.0009777426868975852)
(-0.002790648365515827 -0.002924721485113272 0.004860695217947851)
(0.006847286799730515 0.0006276384409067387 -0.001235857871977314)
(9.496359870246515e-05 -6.526796789505994e-05 -0.0001836660383285416)
(-0.009775032364698732 0.02347880506591431 -0.09390642866082523)
(0.0005950089394716518 -0.0005390760284764333 0.001922930726207954)
(0.02996688475437747 0.007201394362973173 -0.01130224714739907)
(0.002199722656956082 0.0009140452134584142 -0.00666837997962137)
(-1.505307525169133e-05 -0.0001105594389122928 4.232479034092652e-05)
(0.0002409496477621146 0.03275095911975221 -0.005687302377637995)
(0.002013372140824839 -0.0001079945521457788 -0.001625613885680005)
(-0.0007668453497206457 0.0001444070649017209 -0.002138785059387419)
(-0.0008419617685000343 6.000040662872933e-05 -0.0004637727305994179)
(-0.006425689708484795 0.004595809448550347 0.001760967146027948)
(-0.002675404943175529 -0.001617173332420797 0.001266901617521417)
(0.0004280662732466193 -8.260341519373646e-06 -0.0001027370515547294)
(-0.01200449505271875 0.003319544034282824 -0.0009532334025042707)
(0.01095296312897658 0.009654163702148612 0.004051491092974549)
(0.001912067395643274 -0.0002729271004197658 -0.0001525455631572736)
(0.01682951226172345 -0.0103176659933375 -0.0006847795722220921)
(0.0003539533577749912 -8.313676718903353e-06 -0.0001763149272331149)
(-0.006003073281149566 -0.003384004723676108 0.001256161798562468)
(0.002666565485658308 -0.002797739931115267 0.000253624513300165)
(1.365647335956181e-05 8.386782135774019e-05 5.681096125669194e-07)
(-0.004731726801271955 3.937741546186082e-05 -0.006256270511597587)
(-0.00667392214760252 -0.004141668976287793 -0.004585688558293033)
(-0.005593732378775149 0.002669306519070522 0.02969591565526966)
(-0.000328161680133388 0.0001534938183980833 8.859325657551803e-05)
(0.0003039298392432886 0.0004580837169488657 -0.0006542717578853813)
(-1.374071445919836e-06 -0.0002060455903604691 3.147344022493495e-05)
(1.194875858596381e-05 2.791286655188696e-05 4.0185829623252e-06)
(0.0001422712679013152 -3.841214125871743e-05 0.0001538086287146818)
(-0.004703952300297329 -0.001000562760591044 0.001662380984181266)
(0.008424397995447917 0.002577384522465311 1.330665271427915e-05)
(-0.01931777358595752 0.003389173709838189 -0.000498812546663994)
(-0.008080524534030867 -0.01143098393988796 -0.002784288883772856)
(0.0004624983003943492 -6.057658472229726e-05 -2.206413693218788e-05)
(-0.01741552214591438 0.001427170554686643 -0.001231974741468471)
(2.713603068506213e-05 0.0003831107022956946 0.0002719450737059716)
(-2.254454475969365e-05 -0.0001172282108627686 -0.0001053059732162451)
(0.104301463957377 0.006100854419791302 -0.001541452223217669)
(1.028637284814639e-05 -9.164756773160902e-05 -0.0001450521380408801)
(-0.01031221277672183 0.003993052478409054 0.005549252417376926)
(-0.0003975879146017817 0.0002596926218030498 -9.0946803207519e-05)
(8.062635669832814e-05 5.977371001057515e-05 0.0002379875370817896)
(-0.0002868864348068181 0.0001194844828640797 1.946004283520299e-05)
(0.00269839587357286 -0.01173012345901142 0.001619356981221021)
(0.0001210425334650557 9.921397784095704e-05 0.0001443111551659909)
(0.007740854122206266 -0.0002926223701236692 -0.0004200770084001926)
(0.04584853270324692 0.007572551688158383 0.003891173450166223)
(0.000384624703541484 -0.0001026587182018535 -1.318642454644839e-06)
(-0.0004635183157299748 4.325187578054716e-06 -0.000267789190438478)
(0.00158094308565835 -0.0005742055490949588 0.0007137659032383772)
(-0.0001656512679696724 0.0001843692636754485 -0.0002419340751965299)
(0.0003065809811172622 0.00013469113530235 2.297800748781483e-06)
(0.0006849302187035547 0.0001394034941490423 -1.101170344615138e-06)
(-0.01830520926681758 -0.0062784628958236 -0.001297106876879557)
(-0.0002739643673009532 -0.0001108078194076395 -0.0002528357725306368)
(3.257958100190136e-05 2.791912370189717e-05 3.848358137048747e-05)
(0.01395462358431683 -0.004200330972269866 -0.008209670640468233)
(1.710914271132877e-05 -3.47220078259594e-05 6.64028392821245e-05)
(-0.0241356071922388 -0.01545412821962528 0.01352830829828349)
(-1.62496780789818e-05 -0.0004281701734116027 7.818058850884573e-05)
(0.007164778002015968 0.01567253109754744 -0.0002251106155023285)
(-0.005451763111977196 -0.001753200439061909 -0.005157349554472169)
(-0.02176952550452549 0.004544881589140254 0.004215934480843802)
(0.001466552812957241 -0.0002099690121884724 -0.0001175911345012746)
(0.001716198447643769 0.002038631016722107 0.001921319991378573)
(-4.370966816087592e-05 -0.0001023188945708925 6.382432314414616e-05)
(0.008609030307187753 0.004172164991309802 0.009168013419541821)
(-0.00252349558754755 0.001055244668110689 -0.001674807890697438)
(-0.007551436561232941 0.005962920685869438 -0.01198813225622262)
(0.0005767251102866319 0.0002589006631262313 -0.0005812918132985724)
(-0.002307546127551946 -0.002982016276019341 -0.002965002469842086)
(4.637179137998832e-05 -7.569265520696456e-05 -4.518179711192748e-05)
(0.0003172367109190881 4.668335609424182e-05 0.0001087388249407929)
(0.01406697374973253 -0.003314354950765884 0.001001267248497025)
(0.0005348327357939282 -0.003035382386991814 -0.002025633184611475)
(0.004677612858152967 -0.004580276825002306 0.007903413776440611)
(0.0004515519975428107 -7.663113709130984e-05 0.0002136074025241904)
(2.222408284138615e-05 -1.351280909621221e-05 -3.40603071078454e-05)
(6.296137115619434e-05 -0.0001143156374732868 -4.886097087720962e-05)
(-0.0006597921820455025 -6.811915373177751e-05 0.0004860291503001389)
(0.01341849002207539 0.0009446527255378445 -0.00398304370723961)
(0.0003987470906347027 -0.0001839318144603141 -9.885623704389461e-05)
(0.0002649664943656409 -0.000159202146136038 6.779971330405994e-05)
(0.007612301240421364 -0.01405634315197147 0.01074952473048259)
(-0.0008330565856977372 0.0001469388228264532 0.0001537432049770451)
(-0.003798414855531018 -0.0004112198706975153 0.004351794462500748)
(0.003555985341784996 -0.0005583442112163761 0.0004892296508161961)
(-0.00101265343935894 -0.0003580193294569762 0.001271374508647833)
(0.003186935983103188 0.001245720153172274 0.0001988763676425806)
(-0.007430558111963845 -0.00103032441258328 -0.002003145449312004)
(0.00326628055957541 0.001834916361163477 0.0001461952778919379)
(0.0002644313091336161 0.000799504947734828 0.0002996949576880033)
(-0.004353571348731097 -0.00739020823452801 0.02113781865094891)
(-0.0003102076878861509 -0.0007130116726397542 -3.379927191831322e-05)
(0.0003598198362881054 -0.001158557277663717 0.001004655447590397)
(-0.0005099727277393393 0.01103493596399176 -0.001936907129030402)
(-0.003915774545961214 0.003083971886805016 0.02166607428887787)
(-0.003006614287480521 -1.600433162823846e-05 -0.002349523438253274)
(-7.999087516012954e-05 3.59383878423326e-05 -4.166568300937655e-05)
(1.081280565825666e-05 -2.021420981713512e-05 -0.0001248178889278007)
(-0.0001066700509361137 3.844841177240465e-05 -3.455471242712098e-05)
(-0.0001363180593449939 -6.263457723479495e-05 0.0003356425228216335)
(0.002150755604929473 -0.0001613085749225108 0.0005161297014276226)
(-0.0005751908184398816 0.006524130153855862 0.00226157806719784)
(-0.00106678831923502 0.0001839391417258762 0.001312384462607113)
(0.004186081648067207 0.0009409987100114892 0.001148870120372578)
(0.009089414837726455 0.005478958767190885 -0.01030898053505172)
(-0.0001064471061012332 6.965991411179349e-05 -2.553042731605275e-05)
(-0.006575781335810932 -0.001127734689494641 0.005296688961659534)
(0.001059818568903846 -0.0008120276275962457 0.01522195452157502)
(-2.266005404917139e-05 -0.0001396959317480028 2.508244200497126e-05)
(-0.004554389062806139 -0.0006043768298247248 -0.02236056008289973)
(0.002050442406121198 0.001908726807928344 0.001035880372357403)
(-0.004973130599311734 0.002886169360763836 0.0009371717638581465)
(-0.009965854388048435 3.816556537225005e-05 0.0009088462605784929)
(-0.1898741219500587 -0.01965698934357048 -0.02987417039059967)
(0.006833621634378456 0.002553486440194648 -0.00262534830756332)
(0.0009547661911101235 -0.007413123987314725 0.001205311020058934)
(-0.0007514744351644503 9.861372010203269e-05 0.001654928431162)
(-0.0009827088610248618 -0.0005015504894648538 -1.760941567575949e-05)
(0.001271376142418362 -0.0001639336436815699 0.0002528161727298434)
(-0.005371003042373727 -0.003110479654034771 0.00541845531204939)
(0.006017468124889526 -0.001905528507318651 -0.005436322145126226)
(-0.01049701933109231 -0.001755160179741528 -0.0004067778106583973)
(2.561395495435252e-05 -0.0001445992091482641 -0.0002140634691080016)
(-0.000796036971905867 -0.001212129721266759 -0.001881761948854713)
(-0.0001918105938665626 0.0001032829610012362 -5.739159203711023e-05)
(-0.0006284302161548584 -0.0001146456452664063 0.0005165418262677256)
(-5.884843965553408e-05 0.0002237147802130952 9.512555905386635e-05)
(0.001074962514998742 -0.000658509759715663 0.0002580704899909936)
(0.0006623176635829943 -0.0005726753353681537 -0.0002276296026021762)
(-0.0002218039702397355 -0.0003971780939981116 4.337822143953068e-06)
(0.01263779461316327 0.003838538596998806 -0.008353181646181689)
(7.131563732530846e-05 0.0001510841882706939 -1.099078188972342e-05)
(-0.0008671382006657564 -0.0004811737432138163 0.00303809285625968)
(-4.697579829958414e-05 -0.0001000424552060268 0.0001449878972330545)
(-0.01234462503147028 0.0006330600613525073 -0.004576815834211018)
(0.004381559687766259 0.0001953521224573168 0.00108229227449062)
(-0.001535430962864378 -0.001922872921523202 -0.001763075930734381)
(0.0005466704102237555 -0.0002060771719782351 6.875238466882614e-05)
(-0.006626136039077231 -0.000150691733721859 -0.0002010333965301362)
(0.0004450835193310416 -6.894457979757757e-05 -0.0002760037460257628)
(0.003887691684785758 0.003328646936109925 -0.002983430818354632)
(0.004146501700935648 0.003359816015622075 0.005933263222483031)
(0.0002299996733544543 0.0006277067234353856 -0.0006440598057034879)
(2.584638846206656e-05 -1.637788946970656e-05 -3.378572197696509e-05)
(0.0001291026063373581 0.007891853111567032 0.00578699802374332)
(-0.0006926944699108975 0.0007004988416728998 4.762470609150733e-05)
(0.0002238606656620561 -0.0005897831981953939 0.0002967233107319344)
(7.181906460845128e-05 -0.0005067396870643079 0.0001526065596689579)
(-0.0001911551572662951 3.415899123553599e-06 0.0007599485986573333)
(1.577114842315853e-05 0.0002105100170628167 -0.0001856305780349808)
(0.003450052001477849 0.0006048264473720509 0.003484980318117904)
(-7.132673874910868e-07 0.001589280456041288 -0.0006381732376417595)
(-0.001379464398823463 -0.0004642700166103968 -0.001268259567063168)
(7.072590660720595e-05 0.0001833173372784275 8.588796927206387e-05)
(-7.683867881669503e-05 2.242103678692621e-05 -9.92415633518614e-05)
(0.001088467981426094 0.00135969506326988 -0.001593018450197843)
(0.001893022755418983 -0.002069676536855343 -4.400130817469919e-05)
(-0.0008360692451070879 -7.275338109881077e-05 0.001336085324707116)
(-0.004750258298667166 -0.002330365471916706 0.01951338146967181)
(0.00249102414253692 0.0002549833388730153 -0.003375357041542644)
(0.0001399616254942687 0.0002460126007636269 -0.0007273112370912084)
(0.006222453092460385 -0.01098528823638699 -0.0008913742063795398)
(-7.130484190550205e-05 -0.0004665845579016736 0.0001969477940109693)
(-0.0008986185885816038 0.0002348033477759981 -0.0001617040542757411)
(-0.0004933994547661083 -9.040556196587013e-05 -0.0001545232717160659)
(0.0005458717687044759 -0.0003711044928679365 -0.0006478993972570222)
(-0.001460029453127247 3.080674272386405e-05 -1.661894148413787e-05)
(-0.004030600958892323 -6.8786191038932e-05 0.00717423489193839)
(0.0001988602150479156 0.0001069479769057461 3.928984665112738e-05)
(0.000644000799502839 0.000322971750972535 6.957855979321167e-05)
(0.0001753030593034253 -0.0007847513731985699 7.466100901823856e-05)
(0.0009391410809828028 -0.001178454267735304 0.0001836834542620135)
(0.0001468281699544207 -1.575071703176167e-05 5.224674629171812e-05)
(-0.0004738559020049775 -5.392044993022318e-05 -0.0001907775487857634)
(-2.405570047354324e-05 -2.063111913280224e-05 -4.668465363516909e-05)
(0.004914154923026793 -0.007841051098010574 0.0002962627455891471)
(-9.980090992617521e-05 1.483885698266523e-05 -8.765227119124114e-06)
(-0.0005777068985635923 -0.002903363832593539 0.00047232809423003)
(0.0005479845565389025 -0.0004091639949348211 0.0001855517111781539)
(-0.0002012224660026402 -0.000202427778392326 -0.0003454421662593626)
(0.0006258324673636187 0.01193842282422925 -0.0004609396790709328)
(-0.0002616977404359161 0.0007890218842242019 0.0006243922671442894)
(-0.0005887252795716304 -0.0003252751997140476 0.0002139424018152964)
(-0.0007734846801692888 0.0007353878932845215 7.732230394954636e-05)
(0.0094166083263033 0.006208985158649092 0.00636909023191568)
(0.0001903830188012377 -4.037727476938525e-05 -7.30569362553301e-05)
(-0.005992492936738206 -0.0008671348630105224 -0.004754822163086423)
(-0.004403487619072107 0.002484503149788164 -0.0007771022369222902)
(-0.0009370791721724471 -0.0004772859682361312 -7.321110504110613e-05)
(-0.005676032098834832 -0.0007060657176035985 -0.0005241004854074466)
(-0.002066948249723223 -0.001616851268799625 0.002082783005507548)
(-0.0002415516272688164 -0.0005300160645037212 0.001552239175772548)
(0.0001499144852403995 -0.0002249660989814249 -0.0004626280076112274)
(0.0002953798567658025 -0.001219449190690862 0.0006941317958732045)
(5.055788889551721e-05 0.0001058899889485836 -0.0006066754847373338)
(9.240697451860626e-05 -6.252585661055879e-05 -7.094718310737954e-06)
(0.002796331362317967 -0.001528692263681568 0.0001588602992723497)
(0.001526201587005306 -0.002628918362141125 -0.002690852307491686)
(0.0002689925557877427 3.596255371514083e-05 1.067224286964376e-05)
(-0.01638827943045503 0.006615043557494298 -0.003554334429074649)
(-5.597985545475856e-05 -0.0001474916212959281 -0.0002150475016726125)
(0.000954861366290032 0.0003141541812038524 -0.0005753805900610136)
(0.0004808605790227549 -0.0001496269372103728 -0.0001273549445667663)
(0.000306263226939401 -0.001603105007170316 0.001841042018340172)
(0.001057473384689957 -0.000103718541546003 -0.0007835427005189581)
(3.711984879294343e-05 0.0001947215629872885 0.0001082771800912898)
(0.0002432464590909475 3.198075839829827e-05 -0.0001053770065908733)
(0.0001148249975888999 -0.001359883685230419 -0.001402833302324972)
(2.67165079030084e-05 -7.700845509954882e-05 -0.0001172014705218727)
(-0.0001472343215630138 -0.0002126336013129721 7.939879724850035e-05)
(6.949786819432863e-05 -0.0001148819601125019 8.158276018953525e-05)
(-0.01383784954049328 0.006155931972060271 -0.002460133562137907)
(-0.000183010845047963 -0.02610413725915854 -0.001285178359244156)
(0.001790606869542415 -0.001195594261937847 -0.0002994886023671341)
(-6.338057308463612e-05 -5.213765340418139e-05 8.05488896932633e-05)
(0.004494334721433333 -0.0007381221059818172 -0.001434808140411042)
(0.0002566904396897705 0.0004795268514044919 -2.374780081427582e-05)
(0.001515764713030061 -0.0008518881124743137 -0.0001314056297525653)
(0.002291367997282246 0.002334644337637014 -0.001031376335703428)
(-0.03217188160457984 0.006586277726218963 -0.002428935396127127)
(-1.956937595889797e-05 -2.968995764587698e-05 3.460458458125523e-05)
(0.0001179050695619281 4.462297958456856e-05 8.99550470446643e-06)
(0.004633350074939462 0.000729064604473118 -0.0001266099422062685)