/*--------------------------------*- C++ -*----------------------------------*\
| =========                 |                                                 |
| \\      /  F ield         | OpenFOAM: The Open Source CFD Toolbox           |
|  \\    /   O peration     | Version:  v1906                                 |
|   \\  /    A nd           | Web:      www.OpenFOAM.com                      |
|    \\/     M anipulation  |                                                 |
\*---------------------------------------------------------------------------*/
FoamFile
{
    version     2.0;
    format      ascii;
    class       volScalarField;
    location    "0.4";
    object      p;
}
// * * * * * * * * * * * * * * * * * * * * * * * * * * * * * * * * * * * * * //

dimensions      [0 2 -2 0 0 0 0];


internalField   nonuniform List<scalar> 
19631
(
-0.03915510717712825
0.1401932953412412
0.1325184658241616
0.6441219096137091
0.09801309864867784
-0.3644871422520875
0.09648006631354719
-0.3604893893053854
-0.1470064100581119
-0.01535491809466865
0.4815642071783465
-0.1663259632887979
0.5273620569198342
-0.1310322162264307
0.04096688897361841
0.245993743045555
-0.1741893282398841
-0.3225358793490897
-0.6866900476621617
-0.6529198723670671
0.005486813721167541
-0.1370699929581099
1.843525923965391
0.02647725554131806
-0.12004846228204
0.07341386706466342
-0.2215635386406426
-0.8732100818150351
-0.2077299816945461
-0.01761991777152383
-0.1037627876784257
-0.1135064028366344
-0.1073992907066307
0.06157457865893816
2.041434585662805
2.953372530413954
0.02436844121656147
0.07760814878347561
-0.3584562527302885
0.1946583495836297
-0.8139120582053477
-0.002181537801893676
0.05436480307922423
0.1657856526005093
-0.3681240469300746
0.1156079175744263
0.07171696106013421
0.08033527523029013
-0.02113283826720492
-0.1125081804035883
-0.04640920219832706
-0.3062938876043612
-0.1295390107369432
-0.4172782890358669
0.3382067025455254
-0.2189495462540832
-0.196612158221061
-0.1088860774098073
-1.223677052001533
0.003716241378585422
-0.02324076951634263
-0.4344635459792492
-0.2121314139445326
0.03886894394051651
-0.1473620961530266
-0.4910684300331021
-0.132246310829631
-0.1449216488075882
0.5106797902016867
-0.02293543933092044
-0.005342266511948878
2.23722060870387
0.1162398991631652
-0.1084657997276485
-0.2245525128955618
0.4212230062736336
0.07600641884997927
-0.103968006486553
0.4336423613517456
-2.007688937554982
0.06310973107151728
0.08021362158316782
0.497350367823191
-0.995048795351393
-0.7168313011396538
0.1555603096273211
-0.1271882562963239
0.136876330447031
0.6277188550144142
0.01923255678509458
0.6142932216373678
-0.1351515385177842
-0.114846864054366
-0.1753141080409576
-0.3374104816597569
-1.949009886121479
-0.04775452262907038
-0.4736852042299329
-0.1372924989155293
-0.1516986136971935
-0.111051238545918
-0.136766709852764
-0.1345984178651087
0.02231789686478914
-0.6285669328890701
-0.1821196281972894
-1.603185694188687
-0.1005314719340048
-0.1033332377817772
-0.2106132157437892
0.2116925879818702
0.151457722680743
-0.34001876675612
0.3071160862355165
-0.1315001807364463
-0.4436684184013557
-0.8127017577638127
-0.166215600607466
-0.5295400478938351
-0.1322713482525295
-0.09557762319914576
-0.1686174603994149
-0.1779709813735976
-0.009680992368234914
-0.1642470583312958
-0.1374502598657219
0.510170867699425
-0.1632262158454143
-0.03298896495293335
-0.150759896549749
-0.1133724248973402
0.07256445682841516
-0.1710586936406708
-0.09746047027779792
0.02077912128475318
-0.9595877452152947
-0.1112052154753829
-0.3433434229093265
-0.9764561803932114
-0.103173012286679
-0.8234056261436159
-0.3899599029984777
0.3994902152977887
0.03465166869445783
-0.2481250942644057
-0.4443899475310249
-0.09784195843024635
0.00569037067469605
0.06198369918445902
0.2076709762097976
-0.1213154483007432
-0.09611118167101619
-0.1021450909245129
-0.1407044832675714
-0.101670566116586
-0.02699378027210262
0.0837296373515342
-0.02592182319908846
-0.2362648978328269
0.02235213694818717
-0.1048670907406976
0.08850705456191967
-0.109202684298809
-0.1601041137916842
0.07855230230306788
0.06519182263639774
-0.1983894097376011
-0.12921456911503
-0.8776247285249266
-0.006144722180455433
-0.2662978212703415
-0.1409644699866043
-0.1947539014296976
-0.1333820362238473
-0.09317139081087748
-0.1185672076707756
0.02970765867308676
-0.1137058453640453
-0.114420985081841
-0.4700216745589206
-0.1482539223821634
0.009377566333022331
0.0185499250458766
0.2911612768061201
-0.01346101219317299
0.04154717584437655
0.009907146595716102
-0.1608906070099711
-0.1120400715735763
-0.1167381320846309
-0.1085118954206069
0.1506556086188044
0.1663782911538186
0.07810948390446501
-0.1244884288024915
1.315491908746821
-0.1273919798759048
0.05611417477132326
0.3926744514738377
0.3327688824040136
-0.1692455507539924
-0.1588290251659469
0.1494157407166771
-0.1943101223930521
0.02582395461564116
-0.1514332619216932
-0.1333780460749402
-0.1236917377345652
0.04556706661263735
-0.1660123734291586
0.1454128343814214
-0.1946965763636958
0.03411875906388295
-0.00845138804374369
-0.08973964220576221
0.3005880840566038
-0.02205512606429733
0.005905088376508759
-0.008665132982299996
-0.9969881219292591
0.008663876483159094
0.1604973751484715
0.2912877757371886
0.04044103718369565
-0.05792384593276825
0.1505588590859776
-0.02337323091522199
-0.08650733447903891
-0.5709356299271138
-0.09531977688220017
0.1283887455774294
-1.823625655492429
-2.133777787344752
-0.3068668169008459
-0.08775533591441463
-0.05157888111441049
0.5857334868759887
-0.3227512140534942
0.1170902411226106
-0.4508765040136603
0.1547564256039853
-0.3126822630270917
0.026971378616705
0.05464365348618146
0.09959678030560856
0.3414212836273489
0.09896053888103913
0.01838748051063805
-0.2753198602972116
-0.04579764342990549
-0.1464204133749887
-0.3039213464203294
0.2298865300573228
-0.2193140287780607
0.0716873141728627
1.275336891952136
-0.4194696823290118
-0.2433623380061548
-0.7209544065982774
-0.08050193890035498
0.1293951774224508
-0.1937927543783841
-0.4415136416311708
0.2460413116807705
0.007627104369637441
0.04381586767866892
0.1506931776233294
-0.1306220727763838
0.08605138364406009
0.06810512098819582
-0.1877529241170545
0.1031136178278967
-0.1336478621164277
0.02383995363841944
-0.4445822667856656
-0.2547992916491598
0.1127263318144208
0.09404447648076417
-0.08600245129542064
0.02919470273468621
-0.3286929220437214
0.167949960123493
-0.07645250460076476
1.298127606977693
-0.2737520962464324
-1.730989056982726
-1.769212896536507
0.02251319093701783
-0.2173040392783877
-0.5534573082787231
-0.2825940183226509
0.2020446683865615
0.1903377050105878
3.126901468598544
-0.6013727548903534
0.04275270796732096
-0.167837752191941
0.01993120038836585
0.2303182073793414
0.3823133964833383
-0.6011752729741529
-0.1545086246521782
-0.2432934334540639
0.405597827058112
0.9588986971521049
-0.05146930769516223
-0.4340960970470359
-0.3341505440032562
-0.03730594187520903
0.2722777607784511
-0.07050013380359724
0.02327124650376326
0.009468008117299222
0.2109519717608514
-0.2400791635061391
-0.6174817508467094
-0.1096202888704019
-0.3975278279299304
-0.1371089825739866
0.004994695316650559
-0.2614957498412163
-0.1678435775390162
-0.3149845438836682
-0.3116688215006853
0.1414350847524909
0.0843977309744451
0.271046141256389
0.1207787796362978
0.1105529780230265
0.03299249023296413
-0.1801640037116016
-0.6925786685432858
0.2863339838430935
-0.02916212455557581
0.5005347662613178
-0.06508945616446338
-0.0293884124789708
-0.1369840412762915
0.04594916562079315
0.06738999941500191
2.002134627630275
-0.2690390439029315
0.06216679305316312
-1.03305794106775
-0.1432083484830169
0.0538229308344195
-0.5612238443565362
-0.1471941249756394
0.02154845908305286
-0.01007919127635936
-0.1846828038642973
0.06494571250195731
0.2643848902327233
-0.02564778932583101
-0.09263542170001682
0.07414472821289238
-0.02590628883214191
-0.2041751159463836
-0.2722187251669502
-0.4963371662518137
-0.4823076523987629
-0.1077581967727982
-0.7949534621985518
-1.089083135420547
-0.1580390842493874
-0.7079631594717124
0.06992292780453151
-0.1672641938797376
-0.826422332937103
0.2474482181690572
-0.09657558600675577
0.01850222711980356
0.07098389088026369
0.03536259677974155
-0.4554340944341703
0.02285046002776031
-0.09723866297224271
-0.007822152420466362
0.4651689585980712
0.4374331435771225
-0.60645030463155
-0.1669232453785594
0.03606818465661116
-0.1433736942006373
0.1592498370025178
0.2667425314026566
-0.5958905096751057
-0.01533528773062635
-0.3794581251811806
0.05244402941152602
0.1419661748109679
0.1087105253613262
0.03287083519150719
0.09353714111056179
0.06916333790420708
-0.005747671976279902
0.06091872978889987
-0.2832915322152021
0.08330875467006117
-0.235627350376643
0.161605241782781
-0.004866556577396414
1.246364210158208
-0.2421186315775962
-0.2633516471800109
-0.04379929398009286
-0.01141228437262595
-0.09328090960324087
0.1497634237138289
-0.02064354263107173
0.05796617763486484
0.5406918897236703
0.06081466439303031
0.4200796697285622
-0.01458849652044427
0.01974049176171993
-0.7677921285109935
-0.4439002664487217
0.03766472261139008
-0.147525155583973
8.89902732851337
0.02889678730162377
0.045137127994617
-0.2657598292291036
0.04414302577307914
-0.2268736568033113
-0.5434941325389243
0.05098284548501183
-0.1353379688766868
0.02324685124181473
0.0139719528069933
0.4308230315971425
0.02262612148774027
0.05461804265883898
-0.7590793129143735
0.0801820276109757
-0.1962220393537926
0.2258866328826844
0.04401888831834193
-0.06323859349000306
0.3140810998851716
-0.3467831900107837
-0.2139143554280765
-0.3551217263003048
-0.1532768909607605
0.7726687104195075
-0.2921815363847195
-0.3329630776772014
-0.4551574526206573
-0.6768664942039159
0.1074181736294585
-0.1017311545992502
0.05366600577247503
-0.06253781094635934
0.1156559115292936
0.06804212444421195
0.1128442854593645
0.3075974529412852
1.090934523817426
-0.06086837243370034
-0.2112948354544028
-0.4061036338615944
-0.2264279062684847
0.003668546368569884
-0.3130663647220451
-0.334886913225645
-0.2100762580292286
-0.2101193837611597
2.265334396846549
0.2481673458895706
0.009097528696990131
-0.3900525293606946
0.1204317787595137
-0.8821520214360862
0.3153238627174568
-0.1327550661034701
0.10715070552718
-0.3866059334433184
0.01561622993705841
-1.482986198348491
0.08705601339776885
0.6807218175533891
-0.0777575571780169
0.2049291610778861
1.057640736342421
0.0682039170927638
0.1029467545387797
-0.2918319580121209
-0.06924639192881463
0.281000082603974
0.2310387475614225
-0.03400182019387877
0.1661241833733841
-0.4397583326168827
-0.3882529562075143
-0.3775393680905894
-0.03311324200698164
-0.1778269855116113
0.2936863037240641
0.840963567999607
-0.07871121826772139
-0.06362180138178426
0.3891957556414615
0.2376860483712984
0.6730143190287747
0.01282084205037604
0.05113075495260603
-0.9998579351289889
-0.1107539579267799
-0.255294679029049
-0.2405431473487315
0.03674111648730558
-0.0312447453869735
-0.05630559894213728
-0.1039206054239421
-0.2244902734499531
-0.2611346798302126
0.2808717219279601
-0.1378485534589561
-0.6737629079757623
-0.2424167516377919
0.01642163372677273
-1.492705396200286
0.0395462810989816
-0.2893389390653289
-0.6628542703410829
-0.1598247248229454
-2.155838806878284
0.07490121499973054
-0.07952004982272307
0.009434293323331422
1.4378499040441
1.660700294398059
-0.2174721445623022
-0.8703570489249166
-0.1721420493367971
-0.6776869840933238
0.1893107601030545
0.1764831433107286
-0.9194226725523263
0.01102106095163525
0.4536637125720351
-0.5820669312754047
-0.07239264212430895
0.1031022593263558
-0.3854956950562448
-0.1117581667201105
-0.2635431303806858
-0.7149799079102862
0.2460375996718195
-0.4952877549666203
-0.1014115353467403
-0.05140989034481912
0.0367858256243168
-0.01091750185738565
-0.4099532538825441
-0.4705764376541443
-6.49787428434819
-0.03343727927032619
-0.2350829894033815
0.4591375685988569
-0.1986242707987488
-1.308274453969208
-0.2508508455086367
-0.2087497974394277
-0.9104028462789545
-0.2601864735482706
-0.1229122817857072
-1.135556401426586
-0.2249012919370695
0.1053368078051458
-0.2814777479084616
0.05529806082696473
0.07890605752623589
-0.6748638519236996
-0.02287667303864276
-0.03707634051795823
-0.3514988859605854
0.1548279232254691
1.595812237581405
0.7347581417818997
0.2054109944382209
-0.6848163481415273
0.8384497058148286
-0.1980673757835416
-0.2638106001329578
1.511870237076857
-0.6518083527167818
0.3543775173794114
-0.1828801403950144
-0.9232477351211016
-0.8351274427265408
-0.6741636318620933
-0.1553356812323056
-0.3927096126415652
-0.08577678160972387
-1.283348523675677
0.03523671126654487
-0.0245750387776538
-0.01665710814618487
-0.2194212056428501
0.04877599340356701
-0.007782383575070438
-0.02041152588529748
0.7533984267611762
-0.4144434255414766
0.2894809870707085
-0.1267340794332645
-0.7936237264798491
0.009211296781215777
-0.6810545866194609
0.2582898881270041
0.7214443000056755
-0.5188771596132957
-0.08014160749583019
-0.3314107878343524
-1.693166605688103
-0.1117224986031768
-0.577372660946221
0.6051689107916418
-0.01404941187502864
0.01344523799102235
-0.007862557744746437
1.474840872770108
0.04359055362934385
0.03478168202843267
0.186127340442831
-0.2515997562029716
0.2566039389968268
0.05336772311808625
0.04399073411147218
0.1855216878165317
0.5965010652711505
2.38478964324842
-0.1058319637565907
-0.4082633394976624
0.2303122759131484
-1.392141631179716
0.0489093211065882
0.1609168450560984
-0.1229379472322137
0.09287927566732222
0.1469570821747125
-0.2262093540251353
-1.944906833510796
-0.4401182846348805
0.4217762089934382
0.3673182316545802
0.1954222061332122
0.4476777179739722
-1.538258995902042
-0.1350970611423062
-0.4066068549424285
0.7629089009038282
-0.5300755409009368
0.02493091175315771
-0.1531459283201493
-0.1137543854447302
-1.635257619910857
-0.6466734697311424
-1.263078024118292
-0.1263027922239507
-0.6485092282088376
-0.8899414011303594
-0.4411812385339227
-0.1201886883160924
-0.3175891883272318
0.1130819080095445
-0.08041722589275568
-1.513645638400879
-0.1022521937089342
-0.14746524542931
-0.6856808547380454
-0.09243652332274985
1.268992086952637
-0.2156830537752817
-0.4480490665964857
-0.1674974400553596
0.05313177600842781
-0.4262928345655465
0.1064185667773881
-0.1577628969731384
-0.6511403124758086
-0.9689032372522434
-0.2707194731641035
-0.2974489857620509
0.08580602431208476
0.08869591632056156
0.04458822372112819
0.05590680213032121
0.06203903240870005
-0.3312780087464398
-1.049257372772042
-0.1838689272881204
0.2529829443733592
0.0120343749640118
0.1699337937552731
-0.3539452964737604
-0.2625021099978543
-0.07645651802062366
-0.1395928531739255
-0.4792819918501496
0.2462261167599342
0.1419489740691836
-0.8757055322827056
-0.07348072997641421
-0.007248288104429877
0.01587406976870124
-0.2330137332394773
-0.126386613076738
-0.6753347756751888
-0.4216905519345961
-0.03251939434929256
-0.156894331760415
-0.5339026226708833
-0.3138590543771288
-0.5802241627816944
0.2306200028512511
0.927486914338597
-0.4747709130831263
-0.07688958048236491
0.01136887713679606
-0.07060474066863476
-0.02384149482858026
-0.1519282234561448
-0.9814067313095149
0.1547350073983431
-1.400431391688682
-0.4098069936135438
-0.2186074139608163
-0.7350594989187523
-0.4916100637622953
4.792703195011919
-0.04297338611080313
-0.1463129957049044
-0.1462664470285107
0.548086385778545
0.1796052999378591
-0.04072648865259765
-0.01857603849828281
0.3422434551311018
-0.01819609883725016
0.01099285977727076
0.1483744089662601
-0.5660282685685253
-0.2964387278832424
-0.595497449982016
-0.1766873084290711
-0.4417878598184996
-0.2848320797171091
0.1023266375056994
-0.2319612099831265
-0.2724565009441902
-0.3631981406336499
-0.2831515655232634
-0.3566687813525432
-0.4650087834143307
-0.3976568544639967
-0.3234477768570428
-0.2177173207378501
-0.8689612169713828
-0.09515085513792623
-0.2821732342236601
-0.3581604498970048
-0.1889131975515899
-0.1643774566153231
0.07448035378101023
-0.1872437084009045
-0.5137133416245375
-0.744315706635058
0.8342679607984608
-0.06507849768176827
0.009196520925368993
-0.2795819439454152
-0.7133039653344753
-0.1369026432416783
-0.2584678830995455
-0.3936639503621826
-0.3238057937618073
-0.06451852641350038
0.5624225325203565
-0.8462649493077682
-0.3270761804479856
-0.3429200828748049
-0.2658143522791472
0.1933094284008881
-0.529248040957079
0.05491533837377833
-0.6636429316194219
-0.03712411094950503
-0.8524278941025173
-0.2001238843531731
-0.397448468213002
-0.0411093878205302
0.4029465590599109
0.521363327976733
0.1255047304064043
-0.3123170001708338
-0.02028244016327363
-0.693004044500487
-0.2597033160073786
-0.779420372584692
0.6362159570490219
-0.3942704796876695
-0.2936431435913906
0.2978348911095989
-0.1925589970964977
-0.02049584838332807
-0.09363000788018051
0.01213963909788722
-0.1793034980674225
0.02911252664468182
-0.3742397351974586
0.5478286565622794
-0.1303170902528832
-0.07531868087273597
-0.3251980375373736
-0.6305240507192488
-0.1604961092933744
-0.6144336123796219
0.0708118653349982
-0.5176502226404704
0.5044237289147402
-0.7232067154827443
-0.2911370840446659
-0.244728407398548
-0.3522973175376528
0.1410929271891064
-0.2649673420558993
-0.1681447261438459
0.02349640577428093
-0.4321219813850954
-0.0287348463892756
0.03149495081769947
0.03438033855427199
0.0525441973633713
-0.0228600818502856
-0.0042280030316009
-0.5428126447252746
-0.01263222253871684
2.510795281045572
-0.3452405480004292
-0.2229186871483518
-0.4443519345976841
-0.3332696359702024
0.04062804840894703
-0.2925023472097438
-0.02698902903720767
-0.303297486860805
-0.1597041406157479
0.04309155460881451
-0.1665325512381351
-0.04623916752955699
-1.145469109364821
-0.0108110023802024
0.0873993247417281
-0.2518149752311037
0.2178679263188344
-0.2305080969736747
-0.503445501486663
-0.08617690848029907
-0.03460043307844746
-0.1613761317570271
-0.3933254201106551
0.06292757297098094
-0.1342467500636897
-0.2233521178706203
-0.1893875489716645
0.2435837758067853
0.1012006734697599
-0.3009574009591699
-0.2328747909938607
0.1194837885737883
-0.2673179140826954
-0.06759227017328219
-0.1508213074211303
0.3667301735363465
0.1378015087518851
-0.2663218807416243
1.008306194823394
-0.0563335111515644
0.4087617831691739
-0.5585236782742267
-0.5632817756769917
-0.2858842706703786
0.5613259369222571
-0.07829503646798332
-0.5581305739034882
-0.4952143934236017
0.7904567493876944
-0.4565044360502832
-0.03118482950086517
-0.7722248767048728
-0.3639116706123107
-0.5018424469506252
-0.2790525939171248
-0.1201397607472721
-0.3552846197543367
-0.66652323775803
0.3655602314673573
-0.2467273244637531
-0.451711933378187
-0.008310513601129983
-0.1027814045361542
-0.07439108907225481
-0.3561098041590405
-0.04485151194555448
-0.780066079867076
0.1679645709156781
-0.2533735080545207
-0.05809187299693858
-0.2558561991891516
-0.4956245213323687
0.09571336415278729
-0.08339149837273512
-0.2774840999268605
-0.224366040701187
-0.3779121780934765
-0.9298186695756639
1.021809270160505
-0.4907064750760436
-0.2904672536630457
-0.7993301330234458
-0.01239133902133836
1.788577375093812
-0.4210499757542044
-0.5223198222807441
0.07818607177301784
-0.2781043406454463
0.1534072554277569
0.05991834424787393
-0.02594099348424257
0.09724560683503292
1.413895572325684
0.1021038035071726
-0.5571447570220912
-0.1655199118202986
0.07376439187419677
-0.06097908488766507
-0.5627343872141564
-0.2769924544679573
0.08905745153768395
0.01233495440898549
-0.2086408732973883
-0.1226080835208279
-0.1752585606419359
0.6622821927996887
0.07355350123314357
0.1150799962307312
0.3569653805249796
-0.08392418212866441
-0.227344863764627
-0.149120018975266
0.5277363038340642
-0.324037809395838
0.5960213611869533
-0.1159834693320598
0.7395123108438671
-0.1966921770826191
-0.2876518633355671
-0.1760024069083707
-0.2670449203253811
-0.1468770958991946
0.03235919898762609
0.810705720352101
-0.3554724667316064
-1.244305333252861
0.6034219677267085
-0.1331810352103228
0.3795037606142065
0.4373439551611262
0.195851895857238
-0.7273626073147343
-0.3223113088973111
-0.2522421357741065
-0.3312694987347976
0.4354216455687245
-0.6990917505208155
-0.1603834396149669
-0.09200595352122826
-2.563492590985506
-0.05557974774958808
-0.2050975370603744
-0.2384855665477187
-1.567250530486457
-1.512710748723836
-2.266543226897598
-0.2680404565365064
-0.1581824791613794
0.3557480677855073
-0.7079938224289277
-0.7473448495229668
-0.2691816282012239
-1.608681959268758
-0.1924684354467464
-0.524479395345904
-0.1820996078988757
0.2258213113216179
-0.0893884078247151
-0.3001154183546245
-0.02543948119645547
-0.03703219410208432
-0.3415571466786402
-0.604333877182647
-0.2304135048675401
-0.3175860203788948
0.05501074763823822
-0.1831475829285347
-0.1099167276338384
0.0724531654996889
-1.277368977292125
0.01044022957153222
-0.2517258046126807
0.03743492737562661
0.03803379880364869
-1.676395882605284
-1.10807286121294
0.5836272122040714
-1.356585810237644
-0.9480841540521716
0.2886266511068568
-0.1603062500624521
0.2744883670956252
0.2101830991670878
-0.3277280413437343
-0.2416537752687314
-0.5789177762059858
-0.4821525124322352
-0.07000420273204581
1.394008192701998
0.3754506822018877
-0.519250837643391
1.866751029775163
-0.4766066483640083
0.03591046017006828
0.4652873999658962
-0.4645263599262501
-0.04356469026950063
0.1321304153941072
1.22657460678041
0.1408819403509259
0.1249349177963556
0.1560174775913682
0.03684295791883193
0.9490697369420872
-0.300540079281672
0.2297265583709456
-0.1082179155327015
0.519888232995332
-0.12024921623667
0.1997067264952636
-0.07595169616659365
-0.01335743261260225
0.08397324543891679
0.06097112772540431
0.3016136677606525
-0.5187285551921325
-0.09386546442102996
-0.2563142392680816
-0.2579762262114163
0.588919452987547
-0.1183737747838433
1.377868399996252
0.1869382617710396
2.352092511164803
0.3689652812257879
1.631259224956078
1.700434750214847
-0.03512338863301773
-0.076286866553458
0.1946548722427262
3.802060174769234
2.764236777888522
-0.7796785198843043
3.130961870752765
3.204737829180895
2.312453438029014
-0.2891598136966346
-0.5889195308383951
-0.6209714397536163
-0.5524278805046542
3.051341957967986
-0.01970505561458376
3.482182674476734
-0.2396848183747889
0.03461393245282954
0.03220385885764982
0.03715160132925902
0.03972052001559049
0.06659400903691549
0.06041149113292256
0.08404341337504131
0.07913084222582016
0.09449912707820116
0.3110802522282839
0.0518593448525782
4.42737701974379
-0.6209350717479316
4.357127905481656
-0.02650073007864042
3.247729163345126
0.2749727126587671
-0.8453716874420861
0.2943903840296554
-0.7053726520127779
0.101089039215542
-2.03577229150411
0.5625784595841355
0.3926246912730876
0.007442440473926318
0.3410512716980059
0.2924352092224537
0.6635712058839691
0.07536168906528617
0.06262510531387311
-6.649221058475184
0.08255504641917261
-0.004191761050839604
0.2088814117306305
-0.07386409301773404
-1.205595918916367
-0.001835317271066985
-1.002871419635452
-0.2445491220324166
-0.7438241474335845
-0.6017383934138353
-1.24036157437728
-0.1628774795818394
0.2523659557026971
0.313771144698948
-0.04235753143504606
0.0789266196577401
0.2556606605233456
0.2923022141542173
0.1636599437622848
0.2051160614948493
-0.4276091563690251
-0.1307965826140363
0.9158608592910789
0.04792198365989437
0.05351049653692096
0.7024102477248449
0.7830089382244848
0.1054006867910911
-0.54375965784508
-0.2964811100018084
-0.01599145249997984
0.8298827186702442
-0.6749623587338874
0.03125180603009679
0.9180251119571954
0.04620496963774923
0.9972415552914133
0.02053175351576358
0.04156836533266937
0.3016376066117154
-0.08091088394820072
0.08133887684828843
-0.1284998301551537
0.3820485756690479
-0.1871286916396548
-0.6434232178609588
0.3510127345215823
0.1062848299255818
-0.08215524255165732
-0.07662607911381156
-0.8958529169965788
-0.03913396574957092
0.02138832380756734
0.1833653388544473
0.08029837562275473
-0.2846802593522095
0.05372287794413223
0.1085105252119373
0.07196160241448658
0.2855898888487476
0.09128169904486243
0.1993769924127123
-0.3021973446975212
-0.4472279325891622
-0.1244853805063021
-0.4778829471422829
-0.5895737390157707
-0.8339721001268643
-0.3849881216434956
-0.07644822300743841
0.008639868551391591
-0.5234576975257108
0.1662194210296866
-0.7253909585867604
-1.33236930105082
-1.324230976467327
-0.3086416667970058
0.02298111077994038
1.906160056115618
-0.5634271387396141
-0.1437271003480565
0.5047994464633107
-0.1136744653531483
0.02037547313662609
0.004869300198427491
-0.2239802848111291
-0.1426149405195712
-0.4821556377080593
0.2818832649937524
1.300364658470984
0.01496960478534827
-0.02088290770060429
-0.0837917043914459
-0.3432485749968756
-0.09404608798635225
0.01790341832457621
-0.01490605540037115
-0.3236060889893783
0.0800917980685104
0.3637654322635823
0.5328727177428845
-0.1652592284332805
-0.04560561418201875
-0.2567164913430837
-0.2256616354022522
0.1539466090074072
0.1718890849018873
1.566491928652228
-0.02151404222451862
0.02499758236665509
-0.05341526761057057
2.910469043477104
0.06168630606045516
-0.05396580790648507
0.1099423747305161
-0.3376033057152056
-0.05819468356795991
-0.1059532008024449
0.1162716077184741
-0.1063663761825246
0.03978692961509069
0.227167717738061
6.554206957546101
-0.04078061413214099
0.3336157701487395
1.019372318540264
3.050444919718537
0.3793861248377821
0.3870685487558124
0.6546145329114271
-0.07100207704139418
0.3000158825309653
-0.07666584379443871
-0.09730726274623573
-0.1546101149925654
0.1642415533584047
-1.884717238129993
-0.06028130061225432
5.113315348724837
0.00324433787475464
0.07104779164241436
-0.2486756357682822
-0.07672780206968147
0.2602803954573903
-0.04117351973231956
0.05301418971792048
7.095523279544309
0.9006687875835186
0.1931156445484588
0.1046102055022341
-0.2797407968225057
0.3919987904870922
0.2344476056079871
0.1610465222522706
0.9428688476780179
-0.1104439888395736
-0.0461912391786817
-0.2792439251393503
3.598042761426521
-0.1353961224646879
0.6122127654834328
-0.1572901919391981
0.0310770200749463
-1.045775868083842
-0.1322364082790298
-0.09627353745928721
0.5115755307929263
-0.2133479264260512
0.03026881820419169
-0.01323542777303131
-0.008486921758355677
0.362416029632217
-1.131707149163791
-0.1477795044741336
-0.09992171136952903
-0.004993014375997064
-1.558803481148164
0.07476841923661519
0.03682016087776769
-1.775264081306804
-0.786303578240642
0.7729829885375599
0.06074090212282141
0.3144745566798392
-0.2593464132378415
0.2983187743006936
0.06564253420206162
0.09453089671113285
0.2563838377559484
0.4923663501375201
-1.16049207494324
0.2364635776180421
2.138641194871955
-0.1778892584313134
-0.2780195654861395
0.04120677433715643
-0.5627105724828387
0.3942109030434152
0.4503005002046687
3.756052570835379
-0.8589616255164952
-0.01222307220848564
-0.03757501749588359
-0.1682839585072084
-0.07388783031709634
-0.09545688447355742
-0.2002844738235539
0.2862630523482226
-0.2157797447239468
-0.09052902727617439
-0.1669159421963971
0.8055564051539438
0.1907618607613441
-0.003694097509259199
-0.1659811340827646
-0.1175449727904136
0.1278355243111544
-0.006365069990399164
-0.1020410826537837
0.03584111976871221
0.06773977904829241
0.1818109432004127
0.0274804339839638
0.009267940470854788
0.1304566302826389
1.066164328414062
0.2253668314791166
-0.3171097871605438
-0.4054557476830077
-0.1902337339635938
-0.4417575967916077
-0.2204531167947983
-0.2429467124518586
-0.1604099860931716
-0.588132308166854
-0.1331675191164158
0.05207603862205003
-0.1927157188353285
-0.07879300084594026
-0.6413510062059126
0.04399662404845132
0.5182388705452438
-0.008739176893315442
-3.110802115621408
-0.5024582095953875
0.3421572098516953
0.02662556279171172
-0.05763952290101065
-0.1631117582993118
0.06604501745118946
0.371858784909526
-0.08648115014150352
-0.1660521360847435
-0.03790042504275554
-0.09240115126352912
-0.01744017716920832
0.1250809989125065
0.08658592435066385
-0.1322212103037362
-0.490372664186402
0.1751297983616175
0.02834858546037737
0.1421302064854733
-0.02156014008091898
0.6070947673228194
-0.2446381281274872
-0.05669229398743417
-0.1697769570653871
-0.09213410651495842
-0.1949954629795533
0.08106807484288776
0.1263791044251204
-0.2598918381898585
-0.01417724838715049
-0.1997221105950242
-0.1979396889111165
0.43509653098687
-0.1085890055041735
-0.4800594170524929
0.01718087575983464
0.1925503403580423
-0.04389431205064924
-0.1199480506642648
-0.3836691917947865
-0.2333602125085816
-0.05129930762898353
0.046891214162391
0.1394303516592273
-0.3027549416787055
1.957763542117475
-0.1455714682933665
-0.021611347123259
0.1444390214058172
-0.07462113088868004
-0.3080060034972775
0.02107254954232336
-0.4432881566438417
0.2423710332132849
0.08261010051208391
-0.1279998811174867
-0.0595318633671753
0.1030686094605578
0.05168799968709205
0.051344731360681
0.04918029189500977
-0.07544963765906836
0.1428526732432084
-2.539084814771576
-0.0547985854493566
0.4025580132900857
0.06284726632932412
-1.854955706163874
0.01586093355990862
0.01209938747797526
0.9155284845987277
0.0003581812469485807
-0.001577995039722664
-0.2353729131121042
-0.1714931242047534
-0.7097332589359242
-0.03044326961358011
0.07065701820953894
-0.1466389095705964
-0.3218708217657868
-0.3170655679374168
-0.2681812543330259
-0.04378510012137859
-0.3298898247762649
-0.01729320937427343
-0.01267019497133346
0.0763419556291514
-0.00971421518130741
-0.4090275445432341
-1.276076787283251
-0.07244094473132226
-0.5520313930053136
0.1845580261766992
-0.1069082366439035
-0.2474404737420671
0.08532302684017828
-0.5469791648607503
0.02457986649275572
0.7249505756477689
-0.4017805833241434
0.2186929121199215
-0.07560255624585407
-0.2620253606589061
0.1378600567679148
1.70039663752994
0.002809469652135646
0.0734766219789522
-0.2730436568475041
-0.05881189949716258
0.03507261864657512
-0.0253644097155635
0.008429802042749469
-0.03509850789045686
-0.08374243759610257
-0.2283040325497906