/*--------------------------------*- C++ -*----------------------------------*\
| =========                 |                                                 |
| \\      /  F ield         | OpenFOAM: The Open Source CFD Toolbox           |
|  \\    /   O peration     | Version:  v1906                                 |
|   \\  /    A nd           | Web:      www.OpenFOAM.com                      |
|    \\/     M anipulation  |                                                 |
\*---------------------------------------------------------------------------*/
FoamFile
{
    version     2.0;
    format      ascii;
    class       volVectorField;
    location    "0.4";
    object      vorticity;
}
// * * * * * * * * * * * * * * * * * * * * * * * * * * * * * * * * * * * * * //

dimensions      [0 0 -1 0 0 0 0];


internalField   nonuniform List<vector> 
19631
(
(-0.006426897134677112 -0.01650540161132116 0.00819446529092748)
(0.04129058126604972 -0.1089167876656237 -7.911083931480206)
(-0.08077815615679566 -0.03346266865159065 -0.01323195732647347)
(1.116248936670276 -1.590997445477437 -23.59375297189742)
(0.1141476350198517 0.2108376365560717 -0.1681524845918846)
(0.2102610540482486 -0.05321774757280752 0.007494810200989667)
(0.0002626072966478649 -0.002158208792669342 0.003833160237075539)
(0.6650123273960226 11.23449939751651 -3.273142627941797)
(-0.2274526113193614 -0.371563342935284 -2.371720790391901)
(0.0007296098755322632 0.001520542211390232 -0.0009971207409796856)
(0.07431109004795763 0.02443917648157772 -0.006904240375661203)
(-0.02303814940531491 0.09609338482841585 0.02646788025822984)
(-1.077042783041676 0.03495758500503598 -20.0001286189875)
(-0.1093435514422786 0.072748789365622 0.1691817980524248)
(-0.001228733599340844 0.0001797991961408967 -0.000741784019617468)
(-0.09420664354339736 0.3042850650034908 -0.09475281056285489)
(-0.1177096426641897 -0.06807309293136692 -0.118725286525422)
(-4.991017529645596 7.986812269557752 3.94850709911328)
(-1.79137789081371 5.156002512859906 1.98332832371106)
(1.039078842268541 0.3669762905558453 1.07570101606363)
(-0.1412005829559189 -0.02407589234299736 -0.02327975113291767)
(0.005802679556971856 0.004960042316877102 -0.02222732248022593)
(-0.4596427978718867 0.1541778745389583 -0.180352284698673)
(0.0008549276268697416 0.001546877710847288 0.01152132041501768)
(-0.04037798169067877 -0.01029781562884648 -0.01003309975384963)
(-0.001555177000832239 -0.00135066453750158 -5.46268242282366)
(-0.02236573108490624 0.02421404443581983 0.06369531897428427)
(-6.427915947966198 0.802283023437435 -11.5067000022109)
(0.306250327000983 0.07173073893548604 -0.2034524692715176)
(-2.565152444491713e-05 -0.0001008900395568618 -0.001610509752460306)
(0.00876487196108492 0.0002284226855244001 0.01558279596304574)
(-0.03559144402586896 0.01049958245521794 0.0238360770106135)
(-0.3065680602503303 -2.67664231411563 0.01497451148479816)
(-0.0394192157210957 0.00075771694468757 -0.004319028272363124)
(-1.006470434749287 0.180497559208752 -0.0515253747245637)
(0.1412496360546949 2.915129947805923 -4.834489884543441)
(-0.001088996748243511 -0.001197879741002352 0.0006408363280602895)
(-0.02401577835515965 0.06999613709630355 0.03728085402388749)
(0.1153472856979787 0.0165145030419291 -0.175394290442046)
(-0.04769817233275822 0.008972749885296134 0.08145601910250511)
(-3.118237289367962 -0.005309402787005979 -4.917845512949837)
(0.04064943172902875 -0.0341723817832887 0.003168119457398944)
(0.002130416199519933 0.001125183803774936 0.0009542372159042255)
(0.07494664348615065 0.0080785953763109 -0.006621764021988321)
(1.118252617603949 -2.962300615935172 -2.289708129295278)
(-0.2056554403529047 0.5716188085380036 -1.280737061727827)
(4.976467252328326e-05 -0.002706164127424201 -0.002257141881505634)
(-0.0240433664067403 0.004328176559852659 -0.0117619794527123)
(-0.01152381859372845 -0.01462811524070369 -0.02096990649354877)
(0.01703676711311194 0.0118723875424907 -0.03038583684954077)
(0.004392692829190238 0.06256578935981268 -7.22540953479422)
(0.08572257323135164 0.4538905751594187 -0.8198973228948144)
(0.01462549012805395 -0.004022522036981918 0.02795611880224597)
(-0.2560822482606636 2.430059391059029 -2.170591561852488)
(0.7130625716593872 0.1104014890392072 -0.06002938488104789)
(-0.6635947781411539 0.09116652818294234 -0.5452757538804176)
(0.05912317255283325 -0.04332253673188323 0.02608812802952989)
(-0.1152441397260288 -0.02110191551294662 0.02553539680046962)
(4.080632438933712 -7.033726461259136 -2.400862308506079)
(0.0003587070899803284 -0.001421171240865423 0.001063224592207724)
(0.0004242770789127027 -0.0004359969210421333 0.0002704108774433026)
(0.2450104683317414 -9.083595497347176 -2.55347375394034)
(4.680795589213218 -6.745307938508979 3.246034820586409)
(-0.07321113013414514 -0.001857319593521923 -0.009666842687751602)
(0.0005243875953356361 -0.03880088991077481 0.004644422793159901)
(-1.289234353840331 -11.0437056653421 5.156837833291737)
(-0.03912132729632653 0.1105098384688136 0.009784054369242842)
(0.003435932720111726 -0.01102528900183727 -0.002957310843050945)
(0.097268164257762 0.06226222832357827 0.05406255903679216)
(-0.001102977842417792 -0.0005315950215061618 -0.002450084914991813)
(-0.0002403906226950738 0.0006534059850063893 0.0001369328232568264)
(3.834199080244647 -12.81044068122315 -13.41635765808325)
(-0.0008026623251530512 0.0002894702920798404 0.001996112853778378)
(-0.0476317891887152 -0.003916567913706676 -0.002849858910786152)
(0.05575321455951612 0.007103110267694418 0.03966384632150095)
(-0.1827846623047266 -0.7149058539457188 0.03474209777040309)
(0.007713251067317771 0.001167981305702303 0.008863293716831491)
(0.07300100132307098 0.04744242222142038 -0.3001046839195016)
(-0.008529880909102627 -0.02821483570490831 -0.1411326656579673)
(1.6816041546916 -15.02159153550083 -100.0551373171601)
(-0.01152207677774803 0.0006063446053157391 -0.002690945102882809)
(-0.01790468731066553 -0.0297069291034334 -0.02006080961395445)
(-0.008745477139444064 -0.442554787188755 -0.6739496911437132)
(0.2400116535284434 -0.5150734540346066 -0.6377410869156109)
(-2.031532035967872 14.1021347727797 0.840329298497155)
(2.466687228071637 -58.65292818541172 2.685501084805526)
(0.05589368891287652 0.0001188741809708405 0.0006758976362999068)
(0.368205398350448 -0.5988944724189744 0.01842263691041831)
(4.11429830037908 11.4018334963002 37.28925919420266)
(-0.01246433032157934 0.01998831554997323 -1.854074863135813e-05)
(-4.27031259732391 -1.568491101922461 1.068259472998041)
(-0.04687868841107923 0.02269241552372095 -0.005593332819745262)
(-0.003541968926801537 0.01896947923560777 0.0164336950184752)
(0.04046468845442337 -0.0006792853512033372 -0.007662538229208999)
(-0.04024090733457325 0.2510804911365541 -0.2594720523431324)
(-3.416492902609764 25.16204054857005 -1.937261870988783)
(0.002871697678317069 0.005852641037027925 0.006355241660323309)
(-0.001951809069652588 -0.8631237137378063 -28.98063234227969)
(-0.07086122116135757 -0.04918577434758619 -0.06672946710157905)
(0.001759944787219152 -0.001720962275272596 -0.004802568566484694)
(0.01395718840178107 0.03717230289546669 0.01471816179499841)
(-0.4008493645593421 12.56517250714395 2.399198083944865)
(-0.5496951635547891 3.784479112809263 -2.00884893470103)
(-0.01258518253029641 -0.01595209482509597 0.005747753638450001)
(0.6347462195553086 -6.745264618414031 -0.9105225619098636)
(0.3830021216739582 0.5303417172845378 -1.38071070899545)
(3.112036059296269 8.410261607666419 -2.123955518451135)
(0.05322962037556224 0.02197652291951414 0.008087457204976976)
(0.03399128477489647 0.004234473520589331 0.04379094381833015)
(0.7048366102741861 -5.089361232141107 -1.222230517611495)
(0.05203524395572068 -0.06222161824145611 0.03038927491728027)
(-1.018299056485373 -4.0286536503945 1.171484196480344)
(-0.1499003386117145 -0.007643311797380911 0.08364744254272211)
(1.771843139293766 0.9380666582557906 -0.1802814288406639)
(-0.01425465581064988 0.007246158972640882 0.007669500130463781)
(-0.1977715649380448 0.4067809389295284 -0.3013136452910327)
(1.316696297814873 8.711707964923383 2.338582549670857)
(-0.0008683227549746257 -0.05753855735106825 -0.06130381884548314)
(0.1566872109916492 0.3564076887394991 -0.3364668269041354)
(0.02094886305398382 0.03035507073654402 -0.001563556283868429)
(-0.03711407863293303 0.004409957496632191 0.01647429632493562)
(-0.003858125620804455 0.002056624684205265 -0.002600834023240415)
(0.0002191640073404312 0.02820644716377826 0.01241496938402075)
(2.227024911355017 -0.6976345814158358 -5.646304482325601)
(0.1151702843033311 0.02264387105304472 -0.03241080799364085)
(-0.05481679535264589 0.0001080129980439758 -0.006869235768916818)
(-2.466482845474347 0.01273887409031205 -0.4933735092000703)
(-0.0559582964272352 -0.07396921788354208 -0.01908490412452018)
(-0.001578876766440271 0.001284049551510281 0.001376203647349613)
(5.230124951903152 -3.433736117367088 -4.349495525333622)
(0.0003699383436167663 0.0002296650661123896 0.002736137122482756)
(0.06387496046664612 0.04696522877506311 -0.03744384396852325)
(0.1692703808674959 -0.07314789919307917 -0.04864105524480813)
(0.8538108726019998 -0.5435459555444975 -0.5086640957841704)
(-0.01877499387217325 0.1544932430536192 0.002366825936212531)
(2.58724846192013 9.713152893099057 -1.313865774950956)
(-1.140329501703799 5.998335631851968 -0.3917466312064118)
(-0.0665856086792847 -0.05575906610747277 0.07720098060379137)
(2.29494860861082 4.69106551759761 -51.09390595155134)
(0.3467484734246156 -0.08205092253181834 0.1390581572567433)
(-2.002359049295733 0.7820532485682699 -2.743883265349936)
(0.0485982542606701 1.052640289232093 -4.905899193816863)
(-0.9075533285425526 -0.4050519375778995 -0.4975893854507483)
(0.002798621356485937 -0.00379014878809471 0.001997421153452536)
(0.0218166417235492 0.009503741160233409 0.03100828720872836)
(-0.2997987514641103 -0.677599270480792 -3.291131091151032)
(-0.01024810469902361 0.02278929820143575 0.03231583656413253)
(-0.0004622912541919764 0.0006579776308944317 -0.001290013403722103)
(0.00146703464020127 0.002127870365120545 -0.002210434860688919)
(1.632563683780234 3.6363224995831 -2.972618190033822)
(0.0206707171123919 0.03445705751962642 -0.0007097211175599643)
(-0.07977475163116565 -0.03544931474305055 0.00102753864669659)
(-0.03903076608688855 0.00152628760682399 -0.05618199086893565)
(0.0001487445894858604 -0.01236225104383649 -0.004458194843913099)
(-0.008770275788152544 0.02333880405389816 0.03642025678504009)
(0.0189560496405747 -0.0538429757138234 -0.01675482270583154)
(-0.001031464224435864 -0.0007338860279780695 0.003043906520084004)
(0.0926110255493816 0.14510230825697 -0.06865135814239144)
(0.2244735608001591 47.91926560632351 6.585539668186505)
(-0.002772662998964408 0.1088771768490166 -8.944423938863487)
(-0.002913813574115767 0.0185319142695482 0.04892998610674082)
(0.00211289364782313 0.000670352064329118 0.0003218378602453872)
(0.0005328266176947063 -0.002456969557793696 0.00651827705086057)
(-0.02404503812065564 -0.01162459832076704 0.01299409783133454)
(-6.532010154570306e-05 0.002619438319808197 -5.562599367373009)
(0.002557570617660818 0.003395861670801978 -4.909348882362303)
(-0.0460678066701681 0.01558594972601771 -0.01563704041054509)
(-0.0116846396772802 0.004155586116002107 -0.001427338738836376)
(3.603804449679437 -5.700472463496421 4.135983798165475)
(-0.06967402375861129 0.03687127414078708 -0.04879614212299908)
(0.06699491708721921 0.0495224940733691 -0.001629572610971318)
(0.05864533965832088 -0.1029230259189804 -0.1583047790901247)
(0.08559086497697349 0.003240907058109989 0.03020901839505715)
(0.03570392055215713 0.04495517342836935 0.04470284485155705)
(-0.03598552009821623 -0.002847381477167265 0.03123117400396302)
(-0.0407703153338251 -0.01833864002796962 0.0100276063326415)
(0.001232348684545418 0.0001826386128880455 -0.003777433430790106)
(0.01815245339110453 0.0382836581389172 -0.0442165847412112)
(0.0284309973716079 0.1005861781001499 -0.06490885544183261)
(-0.7022348136003045 0.4948871855842487 -1.675529927764425)
(-0.1335126799720766 -0.1078239753498295 -0.05287316461834364)
(-0.001849708157037064 0.0001168733641752316 0.001075516892323367)
(0.001744613270664447 0.001592118240943183 0.0003229411473607441)
(0.002047494813751049 0.02144169055861517 -5.701890173809079)
(-0.0009094852975033078 0.0008169775628231639 -0.001012945125836552)
(-0.003314422253580177 0.001613339619584578 -0.01129777062986892)
(0.006876326789706261 -0.01409462207778892 -0.03608877168263032)
(-0.03943796761029486 -0.01070339977012251 -0.02321573478942483)
(0.03642076955644195 -0.02695287310717535 -0.03554271798703523)
(0.03632636300149629 -0.01120088218255648 0.01159530152157951)
(0.01518992039109499 0.0597216167592434 0.007393064345770063)
(0.004371420080894325 0.01321690710914621 0.00682826099257147)
(-0.3773618862099137 -0.4308210065764969 0.8715312751463873)
(-0.000935052270385216 -0.003711684849645848 0.003207069845989105)
(0.08264557565909235 -0.006032747581125651 -0.04825811051341953)
(-1.218964025292467 -0.8177972876323331 -1.120276234677261)
(-0.03205380395812778 -0.01883084124613042 0.008782951052642552)
(-0.0017305885989241 -0.007720873661796124 0.002410745186390601)
(0.03263557508101821 -0.01152712102903033 0.003290722193152421)
(-0.04733965596163798 -0.01733919667813561 -0.00356654801223185)
(-0.00613340365666094 -0.0002447024318275225 0.009050100255859412)
(-0.0789379999442105 -0.01509381984557788 0.003485825514221254)
(0.01796094126775808 -0.0008244369147991045 0.0007790524400168603)
(0.03756449018425007 0.01981880872795887 -0.01131944607864199)
(0.006681013595386464 -0.002629991232519707 -0.009319050983469001)
(-0.1217368657624148 0.03038857296635131 0.07009595379126167)
(0.008306737754051875 -0.05822760554295012 -0.01700760268690595)
(0.0551972831333245 0.04070672730185941 0.1106432516800153)
(0.0001260553273615132 0.008762371968427444 -4.889718217839905)
(-0.02388473207009653 -0.002728942917010064 -0.02794511097531153)
(-0.0001044103681353365 0.002320695024426139 0.002714359240717519)
(-0.1040265487590878 0.04676472793066862 -0.01335447892419728)
(-0.184133618375301 0.1904666186812838 -5.529466630258852)
(0.0002505931195049927 -0.0002915941866451767 -6.250317160250455e-05)
(0.3327446339232537 0.035866506469954 0.06925701664854725)
(3.555693741614618 -2.78450822561117 -1.293288707202144)
(-0.0006127553080032006 0.00221198064688219 0.001509363285643049)
(-0.002308364054928975 -0.002918713563215161 0.00168178340535348)
(0.0005139107840993883 0.002161889214603256 0.003611655337867351)
(-1.219464963534381 1.720683494040501 -1.570195611086062)
(0.001369062280555317 0.001646674421302555 -0.02157487928662318)
(-0.01219193096750684 -0.04826948080405083 -0.06694424114608608)
(0.01930318226116539 0.001767961670926722 0.0102441322106591)
(-0.0009973281933150558 -5.499306398085426e-05 0.000287898866356616)
(0.00530045995438063 0.00237780276976189 -0.0007303234455845282)
(-0.06432884378745859 0.02731308771543856 -0.04525366382528621)
(-0.01461883569868057 0.002026813693798171 -0.009172635287905398)
(-0.009303105891086474 0.05024695175910098 0.02304694113936915)
(5.408776277252453 10.88948868646243 19.35131073781029)
(-0.2278412104142171 -3.479584115257658 4.969797260844534)
(-0.003028737002696687 -0.01441253192270713 -0.004822066256935135)
(-1.981217058977859 -1.10520044220509 7.249577580515821)
(-1.118641971879889 1.165524975806029 2.270220478559605)
(0.9327639382627795 8.220716543679968 -1.735106560919804)
(2.404654911565084 -1.617766158613136 -4.220405127020599)
(0.1316450175903234 0.1958582947530023 -1.402544032053744)
(0.782439278891688 8.698309571572651 -8.530700376846459)
(0.5478372455150925 0.5026831110421519 -1.303301304191367)
(-0.01440198564461455 -0.005306766693602999 -0.02255984564656519)
(-0.3215832684115028 -3.15682313891077 0.4978295683339244)
(0.001859044137575589 0.004345488772188328 0.005191477458488158)
(-0.004444527819034837 0.003610393803652585 -0.1768563842517909)
(0.002810328570098211 0.002098607504968402 -0.01786850203174374)
(0.002806966163562472 -0.001345056425660501 -0.004368624743182589)
(0.00175666752437499 0.001019634301769287 0.000430591777345946)
(-0.001605851408869515 -0.03473905758052388 -5.051739995640879)
(0.002073407565757702 -0.012806618231364 -4.877133791794333)
(-0.0008875209803498729 0.0001530503909146164 -0.001336855748723215)
(0.03181369418126598 -0.1003154974484788 -0.1320548126735911)
(0.007843585484459886 0.004082196697107908 -0.006305037352344715)
(2.443872452397028 -0.8725440808469689 0.09326570425955867)
(-1.126790544710161 4.890237563781886 0.1425025676558063)
(0.05042235258504625 -0.0149933923525785 -0.06195868008477676)
(-0.002519104499001043 -0.03040958089708262 0.1724877580474911)
(0.001235106321839042 -0.01053808128175991 -7.939754893492467)
(-0.009383180761198651 -0.7876601168101691 0.2248566571965276)
(-0.19169218211653 -0.2642981144545571 -0.2274554565980736)
(-1.418330291379892 -47.95274080375436 -0.6302640657212062)
(0.0008461920816000834 -48.55335217895708 -2.014612655832702)
(0.1834720969492702 -0.1631017420641582 0.09459281095971958)
(0.02059745512279853 -0.005371156343324988 -0.0004515171485547998)
(0.0797902785444074 -0.2235433778861832 0.1882749544419752)
(-0.9711192948197165 0.03562101458573891 -0.4517856697910368)
(-0.1725272017413761 0.09581417558924164 -0.07400967958994163)
(0.001533080917394163 -0.002654796312902165 0.009720106671041135)
(-0.0009940212399516281 0.01933745204312829 0.03706312692525967)
(-0.1077089849081599 -0.09778939143211034 0.1364867064140468)
(-0.2258757878530537 -0.1074622744425202 0.07899685922435169)
(-0.7118299351208852 -36.06862812619292 3.26366693424361)
(1.481054205592323 -0.194497631371324 -40.74330939392019)
(1.107042613645051 -6.189757532769635 -3.258259007915857)
(0.02474065736368675 0.123128763322637 0.1637211080203145)
(-0.3378446676888831 -3.218403801030384 -3.924698848367848)
(-7.026476403264336e-05 -0.002148667222311275 -0.003680965684871819)
(1.064508914688324 5.904490712954725 -0.8070702221720053)
(-5.042626631702145 -60.40986284827349 0.8080687139312088)
(-0.01380841152847106 0.0004230657093893275 -0.004611931772165126)
(0.008336988613386706 0.02403213875961537 -7.685893454852316)
(2.503476887667358 6.019468450301128 1.122410188011717)
(-0.001454670622461899 0.002157601388964332 -0.008067387115731893)
(0.597087129947083 -1.30501718541262 0.2912080261044926)
(-1.748465054444132 0.05756302403582925 0.01763815480017633)
(-0.03827903696033039 0.2558928705804328 -0.3805698577839178)
(1.193330685344566 -0.4204402637187306 -48.0684180826939)
(-0.1079971226014906 -7.900334876074785 -1.245754341075516)
(-9.353018531494687 -17.27860084598506 -5.540229600156146)
(1.681156236513474 -13.17935032769612 -59.83404837793654)
(2.499217263580402 56.67819349596165 -3.799280026458802)
(-0.05684253746818472 0.04870066498975995 0.03972165235963919)
(0.7609770622485582 3.820240623709831 -0.204326582027918)
(-0.2701683861243704 -0.07927161451385747 0.03413109848232786)
(-0.02564541784967744 -0.002063926269779066 -0.003890176540804359)
(0.1468562356042294 -0.05485412790029627 -0.02134413547661001)
(8.865007262554117 -10.90694933951918 -60.52733219337089)
(0.3698690761461947 -0.04441553141806953 -0.3729635013410558)
(0.0001511131834512985 4.741289793977393e-05 0.0001389785473477658)
(-0.4505715484628607 0.2922913411967949 -0.03644921879890373)
(-1.48695821207612 -0.3631463848558117 -31.4441367315761)
(0.082714397219161 0.0166401800608508 0.01562025275352332)
(0.06279602978092159 0.3781058715263007 -0.4869275318265917)
(0.3691370368350082 0.4327612208518919 -0.3974323937915845)
(-0.3709434637309575 -2.101151189764261 -2.971846968117565)
(-0.001608139641983246 -0.02497847737336029 0.1615076538402445)
(-0.004037647896016991 -0.01866557075327577 -5.703487398732991)
(-0.1875285914018359 -0.1401707696733117 -0.4484573455379982)
(-0.01201262932305654 -0.006861502996063696 0.01472335899876644)
(-0.0114949615286119 -2.455188469548013 0.1677155552979444)
(0.6901987069443016 -0.5285298924565009 0.1476561518971029)
(0.01557827266580856 -0.004788084402517852 -0.003470628542425665)
(-1.70947029080275 0.4722996274535898 -0.2376433235088171)
(-0.04365473156992088 -0.2517670689814415 0.05752707242414556)
(-0.0005534849710418007 0.0006380388776379383 -0.0007832219288308668)
(-0.0001744991293468591 -0.0006890650802578004 0.0001179795453008854)
(-0.01816333434934138 0.04057876219582444 0.01429203554433013)
(0.4310765948544436 0.06434760992431188 0.1359410805473048)
(2.420268346357184 -2.974627838389459 -0.1396136257459526)
(0.7118215125603841 -6.901047314042136 -0.8963059374720855)
(-0.05182125809615555 0.01497462820221867 -0.05254575405872548)
(0.1328534854917827 -0.02233218624898313 0.3401942414748182)
(-0.002336428045144852 -0.0006427462579367882 -0.00030831678657782)
(-0.06653806939620731 -0.0144969842110246 0.1004645431561566)
(0.05191177344119767 0.2026909196763826 0.1541787909797944)
(0.06512384608734725 -0.1540477841258515 -0.1249839905330342)
(0.008070917447194667 -0.0003862285041637738 0.01983336082546885)
(-0.07240658621706152 -0.02820422724713954 0.03058947648546908)
(0.0504644834165429 0.001193762851176866 0.001337189159720296)
(-0.01278398020324195 -0.5687447192813825 -19.28355630087623)
(-0.004353857258889688 0.0013513976941045 0.001213386570254864)
(0.2570439067017953 0.02232469087958391 -0.08110228833606438)
(-0.001787216944391467 -0.0005160433942547706 5.513608486896549e-05)
(-1.084813919993865 3.739827278605725 -13.031426364509)
(2.358337582588323 -2.624820993715817 -0.174522744806121)
(2.487104481102353 0.9737185032096023 1.917071903335738)
(-0.2367382144159609 0.1186666324208696 -0.07364785546334715)
(0.1067435938466699 0.01145021710959131 -0.0603677889184427)
(-0.878725420580347 -3.088392478850776 1.20597813380746)
(-0.01237957134673065 0.01358460780126828 0.01029984703817722)
(0.1919637595914079 -0.4717257936057382 -0.2281771611932161)
(1.069903032293652 0.9366295712084527 -1.143638852414769)
(0.0009982396434095541 0.0004612046314269846 -0.02108629078780551)
(2.363584196348759 0.5211521113445688 -50.04841348619306)
(-0.1333559295995433 0.01291901128311548 -0.07404208177797117)
(0.002299153678639662 0.0008932820244312389 -0.0008479103035607036)
(2.530788724801841 0.3415785932617204 1.890351061855374)
(-0.5918032310082819 -3.519982567003092 -0.1337939085053801)
(0.01428426989097843 0.01840934091950718 -0.04556493303464813)
(0.2809160361819477 4.64973905665797 3.225013203168402)
(-0.0423988555939946 0.05036965354965823 -0.006410769268122438)
(0.004220165047654919 -0.005491394185024579 -0.01049639316147675)
(-0.001234291899561619 -0.003383271309046981 -0.001439143423207713)
(-0.02129584830745867 0.009545975787266481 0.005740594005854525)
(-0.001022396348773529 -0.000418070360576957 0.0002564925539067755)
(4.40603825585158 -1.601244799480082 -6.532215140988377)
(-0.09174906466120915 -0.3273646062975673 -0.1675609924585741)
(0.0004955249253233894 -0.01472344495978025 -0.004715650180830441)
(-0.6530377530270355 1.128513217301743 3.896815893543202)
(0.007208306834057879 0.0583174287460277 0.005453336546362859)
(-0.1748539835791151 0.1676042269652274 0.05471785311314983)
(0.2519312635688692 -0.04306822739527019 -19.53495921107963)
(-0.3566881654031203 0.5277617723564839 -0.7347888115927065)
(-0.8960907734925717 10.09312441401657 -5.161398725346271)
(-3.539840516602379 -4.421913960479515 0.08762860098512783)
(-2.115744648832095 7.240462006857568 3.018238886581517)
(1.949556816476106 0.4920816967109576 -1.567890695221879)
(0.1090524011055068 -0.07866226481799025 0.105009028368135)
(4.23532800892028 -8.112021123551326 -6.28709460497979)
(0.02629820146385574 -0.02134637488070476 0.00315198064336621)
(-0.08487957309824053 0.004208372547057975 -0.03492162926847468)
(-0.3065312230546167 -6.977387154116901 0.9490879260084587)
(0.487577820775981 0.01530377749395526 -0.04670107887936618)
(0.1704158974168079 0.06275040715885528 0.1390377392517818)
(-0.180386523338292 -0.06624372579547259 0.4561812100680795)
(0.01154005792065407 0.5955413515595203 -0.2789656187383437)
(0.002092081954506742 0.0009907388018163287 0.002526660364301762)
(2.206534189814993 -1.448564004212991 -0.8878270179032405)
(-0.003885033788249294 0.001734407842062756 0.001006546790399914)
(-0.1448731108961043 0.042270487458611 0.1872544492898725)
(-0.0003265576327091828 0.001736706735384131 -0.0006792880189065422)
(-1.570574746360292 -0.8419276442690581 -16.38884636177401)
(-0.7963017068914103 -0.7801974471323632 0.4177661140548974)
(-0.7607544025796031 45.55026452874174 3.103031655861345)
(-0.05723757304128192 0.02105026206278391 0.01602032946238162)
(-1.174276174505752 -9.531372384611924 -5.463483309355952)
(0.3819205461273548 0.06375727020263769 0.2201939295732503)
(0.2689673601352044 -0.3305720249230458 0.3415401961254468)
(6.035630337417381 8.611226558037888 -6.638873484951837)
(0.4930496649377185 3.184723274039627 8.154330711052879)
(2.709953667160647 1.755623031622713 -30.93241269495672)
(0.07522310122415815 -1.273360788806914 0.7361563174514528)
(-0.0007144663031997201 0.008158417329208094 -0.003545430640869234)
(-0.03974095331785648 0.01512298642915544 -0.004539480878082372)
(-0.003650997521933624 0.008814471461325152 0.05494578796157672)
(-0.004340497825237977 -0.003439890561945187 -0.01922617448521478)
(0.007691442258718924 0.01928577607700348 0.01990699341917524)
(0.01040501089801507 -0.0210434847678886 -5.528520484862963)
(0.0002270268080532418 0.0009852335022851413 -0.001834669010279808)
(0.1055707760887138 0.03882053477871535 0.01558050661101967)
(0.3937970311542408 0.2874056338443499 -27.94846832953926)
(-0.00152143154165876 -0.00403364645676524 0.004281686588272812)
(0.319535196130866 0.08816150471043306 0.03337489140306942)
(-0.0152005056181734 -0.1653991284123395 -0.1236144961709454)
(0.01680988700078697 0.01537003633605822 0.046760213763333)
(0.4595702977471232 7.311759083640258 -1.907181645472812)
(-0.08288716078350392 0.02429868803806295 0.03679302203102922)
(-0.655302964873742 0.08839893597143623 -0.3096680126146903)
(-0.03227108465219807 -0.006682037804089734 0.001750985325384827)
(0.3002748421878568 0.09646546653406836 -0.03293333502113804)
(0.00154955254585354 -0.03532173657692937 0.01663936938927316)
(0.0833068482730266 0.1048121425913109 -0.04445536106439103)
(0.0020433525543437 -0.0005241289877832233 0.0005986220928982383)
(-0.0008185983576147333 0.0009684453011461773 -0.002671384142698048)
(0.8025078728600961 0.03114771306506416 -0.1948372750572448)
(-0.0003122553547267229 -0.0009164194530060043 0.005137718495367201)
(-0.1097653046186603 -0.003878164830532056 -0.07391299172525945)
(-0.0006594115730065481 0.0002600728481522352 -6.456992903636495e-05)
(-0.07926331326679827 0.05845820228795244 -0.03506676076195541)
(-5.477033679044446 62.16287306794489 -9.362108002983398)
(0.8043356138435019 -0.03945004307024214 -0.6402599521765882)
(0.0006231139302686978 -0.0002965592266239181 -0.0006989474357181827)
(-0.0009532813443757998 0.00291974249815983 -0.001333504223011541)
(-1.23305316123299 51.85485072818786 15.34363993168208)
(-0.002369754213907919 -0.01333202393652625 -0.09207017472623279)
(-0.006384343087973155 0.01523068935216267 -0.01394315958151886)
(0.3838745863941491 0.06745635388141591 0.1129985806758013)
(-0.003712095526011274 -0.004428044822822594 -5.001745323386317)
(0.01173014771132105 0.109377320115965 -0.08409463805217858)
(-5.087928941397822 -0.2384606647420962 10.68061256007586)
(0.09533792699210869 0.4999524035709695 -0.2660810647574918)
(-0.2240494909441655 -2.390748257426902 -0.2506186924702056)
(-0.0004989120964184494 -0.004913719189315692 -4.810387089075825)
(-0.001572367562783019 -0.005777734348721858 -0.005754714324301251)
(0.6077327297103574 80.12827029612328 2.009975729744983)
(0.1292377077583863 54.5315181019236 -3.722013888310331)
(-9.157702526819533e-05 -0.01409613039557243 -5.015899030236536)
(0.007836957269305889 7.751799794850209 4.317872392301236)
(0.002301602823171138 -0.0001278140322225761 0.003413436482477874)
(0.2199092384856944 -0.1236097770424108 -0.3029295386777673)
(-0.09801334049738185 0.1358552938198146 0.2854741758589455)
(-0.000160454547484242 -0.0001535241264835145 2.194161802910875e-05)
(0.6500587846066623 -38.20823481518654 -0.4568828863608587)
(0.4812336156611232 0.1619397989098834 0.2252431861019224)
(-4.01269404169671 -73.3368868224503 -3.59858384263432)
(0.06749094287314342 0.04007002031955742 0.03122631017829222)
(0.1209811382402871 -0.7121881930773194 0.485142376283343)
(0.504899088901362 -0.5046128721249258 0.4099805020259963)
(-0.2012142581849857 -0.06531651986966114 -0.09532644389235985)
(0.06442191165453881 35.68920865498955 0.0848934283268683)
(0.3575435561340998 -0.5963381068617478 0.0403354282672703)
(0.08816842933203736 0.3116145894779784 0.1202824862134143)
(0.1501848864854947 0.4593521215711254 -0.04431399920058599)
(-0.2725396753660761 -0.2606460078098271 -0.05689139781163319)
(0.006941080442069319 0.03110728973386405 -0.2796368663674364)
(-0.003519053351179433 0.000368342544268532 0.01104896051679905)
(-0.3726170783226743 -0.2648923669268946 -25.52057129893086)
(0.0487089542571101 0.1854446352686741 0.5245647453756066)
(0.003426216253754334 0.0002966717086865574 0.0001755824050535188)
(0.01274269620799865 -0.00180329109539812 0.001331535343812885)
(-0.07266076915948458 -0.02336245608663505 -0.05638243455539019)
(4.071851935754655 -0.1114024673442797 -4.684474291744911)
(-0.0008943907076845595 0.004828308103278028 -0.006428443525626576)
(-0.1193327918887354 0.1292653978753083 0.3998241258239861)
(1.462740590204615 18.09178905703233 -3.849591141097335)
(0.4052158737690175 4.028170907288407 0.1518449407767112)
(0.0003990283319049181 -0.001642363807458389 -0.00142367784551378)
(-0.08429136177814317 0.03775741291192511 -0.02896502903861911)
(0.06525180418799584 -0.3327569048655438 -0.4702888429713969)
(-0.05678861292216329 -0.9040506403133708 0.0742812816757879)