/*--------------------------------*- C++ -*----------------------------------*\
| =========                 |                                                 |
| \\      /  F ield         | OpenFOAM: The Open Source CFD Toolbox           |
|  \\    /   O peration     | Version:  v1906                                 |
|   \\  /    A nd           | Web:      www.OpenFOAM.com                      |
|    \\/     M anipulation  |                                                 |
\*---------------------------------------------------------------------------*/
FoamFile
{
    version     2.0;
    format      ascii;
    class       surfaceScalarField;
    location    "0.2";
    object      phi;
}
// * * * * * * * * * * * * * * * * * * * * * * * * * * * * * * * * * * * * * //

dimensions      [0 3 -1 0 0 0 0];
oriented        oriented;


internalField   nonuniform List<scalar> 
37377
(
0.01457937435123955
-0.8031101861092574
-1.448846761498101
2.237377573260072
20.61828557408232
-4.648337394529881
-15.96983712250609
-16.5605423311605
8.219979374095514
-13.28776019631291
21.62832315337724
0.2207883543820244
-0.001719180083066854
-0.04073257676859889
-0.1783365975352853
-13.91091615575487
-12.08052671026015
25.99171587013968
-15.08146592664479
-30.34641028004915
29.12966678519753
16.29820942149744
-8.937641886480353
-24.36291254617124
21.2198723467937
12.08068208586873
22.75425441464095
-22.15907302790269
0.5020229151372155
-1.097204301872652
-11.26687806072424
-5.80697034153781
17.07416048793084
0.1645429448447314
-0.48930499841845
0.3927539137021296
-0.06799186014458236
-0.6939264922108958
0.5559309619967746
-0.6274886512750396
0.7654841814747489
26.58138840436122
-24.12218657457899
9.18887750030833
-11.64807933007442
1.51296665464176
-14.62599741868236
-14.30732854470931
27.42035930875591
-10.10316303497604
3.661936345145431
-11.81333105071813
18.25455774055796
-1.425607343207123
-0.6499382396943039
2.209796683478952
-4.876087418383229
-9.48691378257713
-3.4287024903967
-17.13773121276874
14.55188524745789
-25.46238789160835
28.04823385692454
-14.87403036209388
29.44273388009401
-14.5680943766812
5.335886294370401
-18.77905031137941
-5.077813576132295
18.52097759314372
-19.60230854553409
18.71618964871617
0.8861931200036797
-0.8197270816332191
0.3069674796557534
1.12381754182714
-0.6110579398630244
-0.234299601921705
0.1606781828845149
0.2172417578144143
-0.1436203387817218
-14.00852604037037
17.82085413722726
-2.567508280958749
-1.2448198158746
-21.67278287358504
-14.97538329447358
17.04585762252483
-4.708183695336248
15.79297301127064
-23.88609671390418
12.80130739797053
14.84902893886052
-11.62229496217465
-0.3791074863790923
-2.847626490306403
-17.09329470612224
-9.020527949144906
14.69965759313953
11.41416506212874
-0.0423986764394536
0.02888742889890084
9.731018670840482
-20.24621572741452
-8.193049134955055
-8.441767669523054
32.55748626440458
-27.41302777095888
3.297309176079716
39.66443170251215
-16.63422098039497
0.7803982137584549
-23.81060893587424
23.52223144233827
-16.29809208019006
4.260571389853358
-11.48471075199801
0.1580587048131618
-0.2588269378710263
-0.4859992075208476
0.5867674405663594
-0.1187909594856414
0.108729337994467
0.007963668641889271
0.002097952845483024
-10.20548795720541
3.514894458037214
-11.98715746136791
18.67775096058226
-30.53907462883505
25.67001086062766
1.532522387288378
3.336541380923585
16.60510808473187
-19.01121440523718
-17.95804212135475
20.36414844186014
-26.56096981432717
-1.126279238056669
4.11966495149866
23.56758410088571
-3.483139821757481
4.909340826725574
18.2140431732589
-19.64024417822584
-0.939227910115772
-1.518483336857022
1.349486976677668
1.108224270294446
-11.21568855847515
2.013395489231198
24.94829410114428
-15.74600103190032
14.26836147314951
7.283033198232245
-5.881327027836118
-15.67006764351659
7.321817666065177
19.97907064828864
-43.18843677064444
15.88754845629136
2.83638034378394
-19.31940049098436
-3.903462841590692
-12.72053357133036
-10.77484061448148
-15.57515067045079
39.07052485626262
-18.93536702476108
28.59333455689159
-5.703200555925192
-3.954766976203689
27.31883150033415
-27.16828636853914
-3.799484877772287
3.648939745978599
-21.59005515250769
-16.49449674677974
10.12419226381395
27.96035963547129
18.59957530258182
14.14306852649262
2.995261465625876
-35.73790529469894
-20.21726473281204
-6.326957387314302
28.07289783474053
-1.528675714590889
11.48265475223343
-20.38651828026534
9.053227586463338
-0.1493640584318707
14.56135596152474
-17.48207397607757
2.920851644585456
-23.26546467067211
11.402102460789
10.94294635850889
0.9204158513744498
21.60249653187385
5.186762705769903
-2.037713040865586
-24.75154619678547
31.03968754120509
-9.164061304460365
-0.9276153972928838
-20.94801083944582
-2.969906084879312
17.53140667364612
11.33701838565865
6.700267171290944
-18.90899523382054
0.8717096769015845
-17.50292086128319
-3.566787901843549
21.06981839982739
10.32036537482478
-4.161859208151888
6.500081113487029
-12.65858728015835
-0.4840677356105244
0.06113857863361392
-0.8897152527027449
1.312644409662473
-14.69454552589365
-2.093429881810367
16.78810270445829
36.66753251950614
-9.098607762844578
-16.74875044947573
-10.82017430718463
0.03301573205992314
-0.1014656324178582
-0.05034105912980719
0.0614661656936611
0.1194223550602863
-0.07215918276294377
29.21579604267123
-20.03552214565475
18.46521087022034
-27.64548476723967
0.1357951426079146
-0.1252868703618571
-0.002544603607409623
0.2140278445888388
-0.08977213342455921
0.0364224717182737
-19.97134194054601
0.001334722015146253
19.97005290761374
-23.79229427835502
23.96207356023406
5.816361915543514
-5.986141197425106
-1.567269566553749
26.57843419378516
-10.6927251186226
-14.31843950857127
2.286596503281564
-2.213219591324337
-3.677425970666361
3.604049058689611
-0.1419299142959332
-17.28475797102353
2.527094646495094
14.89959323881884
5.841499903430923
-27.4131925882506
-2.277947670251754
23.84964035507203
0.02333606285799431
-19.99464268007462
35.21582837722461
-9.092935780939737
-46.46598320946099
20.34309061317795
-7.243851168009477
-4.340833669214241
32.36272705624803
-20.77804221902429
-23.05672808707228
14.84812647655775
6.139965768174392
2.068635842339212
-14.49961798120177
1.105074834923755
-5.752649121980499
-18.51424870057861
-8.587813006195747
13.84129832238228
13.26076338441108
0.8066188907717997
-0.5464019778893324
0.2067431996944182
-0.4669601125806717
-9.634557176755147
-20.21372636348486
9.216860149726205
0.07364421757393437
-0.1180315593423147
0.02880341188586935
0.0155839298779527
5.395330431186728
23.76136243882161
-7.648786102211294
0.05147413050505723
-28.53233917177883
25.78869633343758
2.692168707841677
2.399804679673015
-0.3935694873717876
12.56954784809032
-14.57578304039134
24.20773123000167
-0.2546410212066832
-5.283586789073663
-18.6695034197131
-15.87687374707174
-0.1656023992776533
-5.630306727234681
16.45264605160855
-18.38752231734663
-24.62609354858873
11.78087177395322
1.863192225364033
-15.06676779904575
1.422703799743025
-25.41554274296517
-0.5535934394673188
0.6515380091458195
25.31759817328746
0.8924348834576263
-0.9461889178182927
-0.3243022320632646
0.3780562664162076
-13.11548096160208
0.2212702424423246
12.89430290814487
-18.25132649051612
17.07377172383019
-17.07566433701762
18.25321910373303
-1.727461734074462
0.2421003813690046
1.45653519073487
0.02882616197584292
-6.39631879353428
22.84911684587195
12.99621402254019
-24.84944473629778
25.28863986694272
-13.43540915322254
15.69591844388301
-19.43571718190292
11.03909953548954
-7.29930079746851
27.80138953299407
-13.26489515549942
3.667995286905036
-18.2044896643816
17.65328450011558
21.89995200534752
-22.27301710595427
-17.28021939950697
16.75286202641466
0.900524166053572
0.1587651884755798
-0.01414901112370265
-0.08776044070530878
-0.05685573665132548
1.843586529344855
14.08756690258583
-10.87209571308542
-5.059057718844937
2.797094075232823
1.382907052026577
-1.425437684941639
-2.754563442347415
-11.65639781557478
-5.961448454247182
-2.598671194582598
20.21651746440665
0.01011458256322162
-0.1252157838576294
0.0322482700192107
0.08285293127166904
0.3482423791045164
0.06818316654026367
-0.4154255771713891
-0.0009999684787425052
0.01658557776785951
0.5863292742473309
-0.6047899682353493
0.001875116215143511
-0.764812710643667
0.6930749967822771
-0.6002034031930711
0.67194111703151
-26.03369466262874
14.37576329142319
28.41079339762193
-13.88154624521918
-3.600381751986717
-0.02829007707987402
0.1551769720089957
-0.1259345068497474
-0.000952388083091443
24.20945171556171
-23.65405227298166
-3.52530552745899
7.99775230314548
-13.58052069958381
23.7647188194939
-18.18195042300691
0.01298507500911743
-0.04109300800157013
0.2421357775786122
4.273500555352613
-21.77628753756031
-0.3103911453922172
-0.2425310016702985
0.4144543078634281
0.1384678391896041
0.0231651913199477
0.1740961169797928
0.08421209606757377
-0.1296042898604605
0.05084343147806757
-0.00545123769083838
-17.78877391786117
17.28853729863546
4.544214797682239
-4.043978178459509
-15.79014047285562
23.34296733363727
-3.566665344178785
-19.77621426896047
4.776281228680515
-19.92837472056445
1.992500503445398
13.15959298837326
-27.28502569025848
-0.7034531795787698
31.60374967871697
-3.615270808876176
-6.579686864492945
-23.8961458593758
23.80518640476132
6.670646319110391
0.1068901320626493
-0.08381571000330743
0.005116278496009538
-0.02819070056053412
0.5039683525845857
-0.7271402786303343
-0.006235683823462004
0.2294076098574729
14.92260491531844
-0.1699988783554797
7.204596531873537
-21.95720256883579
-0.4495144584710578
1.085706167598399
-9.3711609870473
8.734969277930279
-9.6382407659426
-16.7818183107947
19.61842814063725
6.801630936104971
15.56255332668242
0.1040845006124318
-15.55054866280734
-0.1160891644871997
19.76890786438533
-24.19553653215251
-8.449376709535938
12.87600537730234
13.16530178699509
18.19047865700443
-7.822975247870635
-23.53280519612841
-0.2111735075682001
-0.5404308362980286
0.3497472622527775
0.401857081609107
-7.314636286620537
11.1201042026643
11.60153298766286
0.5266476971751703
22.04098582188169
-16.0102042898801
-6.55742922917768
-0.1009619566580983
1.429332562198675
-1.321544695647938
2.413016915928942
6.053272931746739
-9.714683463656984
1.248393615968643
-24.9301891208238
14.35865248369797
32.1740331689837
19.06899966932293
-8.14936049644337
4.002965742439359
-6.792980689901687
-1.402694870922277
9.519025938917999
-1.323350378120966
0.1074256634229545
-0.113929637034726
0.006503973609145936
0.0778983943175528
-0.1530941249564557
0.09576925028718244
-0.02057351965091988
0.08103436487970156
0.1033573078656647
-0.1232807025523896
-0.06111097019563359
-0.08296983324618322
0.1297237328813598
-0.01373816757773446
0.1305908547420047
2.905147210033405
30.42738836330362
-25.16893283693319
-8.163602736404478
-5.746734067212663
2.591617196068488
-19.3962605134635
17.13931784315444
-10.07260463594613
-8.325002287940263
1.258289080734267
-1.752943463908227
1.883687862514867
4.440529483893831
-4.571273882549559
16.01454128170501
14.20156588946863
-17.08714298479919
-13.12896418637345
23.88429227904188
-8.363148380538446
-1.22247550779763
-14.2986683906912
14.39910292718985
9.373334755828083
0.111854596035888
-14.86905292908622
3.03253098783103
-4.510744467703002
16.34726640897496
-16.93577062830991
20.58702307205388
-16.37178601507408
1.809583734697217
-10.51832405175951
-9.383187032109038
15.47321393738493
-18.28068307306858
12.19065616780287
2.773751973146664
23.11940626419187
1.169713609118511
-20.46459430316533
-2.428266642368004
22.89297250827157
-16.93214474818975
-13.59230455957765
5.86114353791935
24.66330576987489
-0.001932829242830767
-0.1124762017323856
-0.01087783938872077
-0.1489630989761183
-0.003073683880478841
0.1650218578634798
-0.1455133940437722
0.07444868938412673
-0.08597348018668355
0.0139137201078732
-0.2507355202674135
0.01544999279761335
-14.49156873395956
21.83924853771307
2.993864307705944
-10.34154411145105
10.48725325064601
9.268421354228821
-8.604577418073898
-11.15109718680076
-12.72517263925158
15.29654340161035
-19.07151367105072
16.50014290869252
22.33169677433134
-22.34775398424494
-0.2598752906615036
0.2759325005807327
-0.1365320996735913
-0.01084611272966405
-27.09100276567237
16.41574269934461
1.940674548098952
8.734585518246428
2.336294925734591
-26.29649184230083
3.141205102525563
20.81899181404091
6.157438395123733
-0.9940605400421584
0.3457723272234671
-5.50915018234529
13.83600763147321
18.06916148121072
-17.32899593923847
-14.5761731734453
35.42108948549695
-13.28547708734244
3.236885565981013
-25.3724979641327
2.395806233029721
19.63799105026808
3.50328485474864
-25.53708213804353
-15.14901578894945
-2.793954110504359
-1.941360911316484
5.729257866856909
-3.10733260194564
24.146132341218
0.5060392329428233
2.395286293990351
0.2286839068264047
-3.130009433799539
-20.69894765150483
23.99579470724883
2.432410811113555
-0.990774296353484
-20.03988654543834
-0.1391325172767952
21.16979335906805
2.424749606567675
-13.06720746564664
6.667638758344099
3.974819100735759
-28.4856479513642
28.52542002972465
-1.030546374714968
2.504144899511085
-30.35663586685167
7.81260442190186
-16.61891660677904
1.095316109886072
15.52368818867782
-2.324528825976443
-19.2807838173044
21.60541889212315
8.102592732150695
-7.836643496355854
22.0391606616917
-22.30510989748478
6.125162140233424
-12.12082100397956
-17.19972118933467
-11.5677301032496
12.0793075595911
-5.427058180600399
4.915480724259619
15.57878575020378
25.16583418621829
-44.83834490389054
4.093724967471378
-21.62913524063185
22.70123611244673
-29.557748823181
-5.539409099651121
5.517153654801462
32.48132167459662
-32.45906622974373
-0.7085272962794514
-1.128773812857485
0.02195995770749862
1.815341151419956
0.3782779026633206
0.5847325224181471
-0.7150904020357393
-11.81019351004733
-11.07820820764934
22.88920244397956
-2.733287667075022
8.185001663672152
6.683194893279968
-17.07318462214745
10.62575349295
28.41557384907208
-21.96814271987985
0.5681234280763676
6.664565795393574
-7.682203681905556
-0.264963330823284
-0.1665748886799288
0.1866457135340139
0.2448925059607439
15.22825136044957
-8.463197454121815
-14.80295799603608
8.03790408971118
18.83595026168561
-26.92843530487637
-19.1775735347364
27.27005857793655
-4.195068985670972
18.68060478988054
-14.48540463932025
-1.885893939602604
1.667784811966468
-1.295789270465289
1.513898398085024
0.4985503030037209
-20.2610594636588
1.312250075063266
18.4502590855935
-3.987801766517312
-20.29178394621744
24.0488137068967
0.2307720058369676
8.222713058719242
13.84049982949405
-10.05505685990088
-12.00815602831225
-22.87262363427764
11.06316659731737
6.782188553845366
-21.17969328286785
14.22750585066735
1.695228190626226
21.99711945130097
2.46979015205561
-26.1621377939809
13.05426467522394
-33.60749077826586
18.088196312906
2.465029790136729
-34.72885593677475
-2.037702623215138
22.58294317003979
14.18361538994626
13.45343289218039
-12.66661495475369
5.302854172253382
-6.089672109720939
23.74097153996504
-20.54111056910245
-7.213755224355602
4.013894253497348
30.25946936402674
3.414035199333015
-8.733495433820279
-24.94000912953765
-35.13455538747009
24.89834979014866
18.43576657432285
-8.199560977024351
-16.17696877233484
24.54465717837915
-8.367456964562145
20.76971985465636
5.9467879408535
-19.51191126363608
1.168797962444381
-7.144588793800397
-4.77820308465303
10.75399391594189
14.72983160585816
3.196119936661199
-15.52250084380583
-2.403450698712718
26.10520665391922
-3.60769203276424
-29.07492593719368
6.577411316039601
-28.80532207071535
20.07906503890964
3.845408131902529
4.880848899914759
-3.228002039273314
-20.36364215214668
3.204730609288123
12.51615895402235
-8.378497538893269
9.745363775605156
-13.88302519073183
-12.19713419748339
12.15523977907121
1.546734625450763
-1.504840207034707
21.44770893352548
-4.274606360533521
-18.39248077764704
1.219378204655946
-0.5361444420260574
-2.602357225132342
-16.31167758834462
15.07778816170369
4.733495127750272
1.346378664494327
-21.15766195394752
-17.54904813417705
11.35330990447286
6.667608446061803
-0.4718702163578207
15.1143322154207
-21.10370923512489
-10.6652401332915
16.65461715300214
29.35992857907337
-8.922179956554544
1.364080234941467
-21.80182885743679
-22.11726879900669
-15.08425634669877
10.77461920196568
26.42690594374706
20.24953522196513
-5.432244488771691
0.2604974285106654
7.584149842631859
16.42569391235632
-30.27875254838835
5.929675993461526
13.87177568249842
10.47730087242915
-11.13651327725112
26.50617141250656
-0.4812214241937278
-14.88843671104294
12.58414288538522
0.7511220952675077
-17.7763296987988
4.441064718096219
30.73829139992373
-7.232764687445955
-21.05642498413081
-2.449101728346699
12.68470625122491
8.437635876086386
-0.5636637970331831
-20.5586783302785
-2.958771896211211
-1.180029272832199
-17.05951574554567
0.8208020461050611
-5.154751364488021
-1.4343627635837
5.768312081886757
-1.277758721050243
-22.13141971554151
22.88900524273213
0.5201731938646276
-21.64317556221356
-3.429136800266157
3.682848469233805
21.38946389324652
0.4872453887636862
-2.21947899687908
-17.45585532843091
-2.440000557580512
0.05002075372813335
0.03472898554109304
2.355250818242455
-15.53752158839911
12.0466389671277
-11.71763571226607
15.20851833353871
20.11207110199846
-18.43046043836253
22.66101057152315
-24.34262123515266
32.62237832641394
-12.85354055332227
11.27084976811663
0.008933879449771566
17.56074145379395
-17.56957758801557
1.920431252849675
1.715234179042362
-1.802538749518172
-1.833126682411748
4.264487727565816
-3.538277610914827
26.01641116423968
-26.74262128088862
22.59473790360715
-23.33220179859444
-4.796940076462341
5.53440397145194
20.5966367129399
5.668427343990709
-7.041581756246931
-19.22348230068074
-14.01147463308608
9.11991922837432
14.10706935608323
-9.215513951370863
18.67036315358503
-10.99431251612877
15.03244349028523
-22.70849412774027
4.261679012050628
1.236203035964724
0.6595563470633362
6.538682034533967
4.673034906404247
6.194352558796225
-17.40606949973745
-2.214414206248966
-10.23220421964136
-6.633842571376838
-20.47038845382854
-15.29834045892299
50.14449220417629
0.02228202209718863
0.2779949882092777
0.3011449560183762
-0.6014219663448446
0.6259777820658682
-1.345315196125049
0.4424406974936113
0.2768967165546614
22.52433100020125
-28.63860570189167
-8.856802739023141
14.97107744071737
6.680997935305396
-4.880069342941011
2.518576112365515
-4.319504704708796
12.74817113526443
4.633816289828399
6.545003195097234
-23.92699062019562
15.01654480545569
15.67560573959668
-15.76328626559659
-12.94520179983101
12.26562452673386
12.79828427339776
-12.11870700030052
-22.89550194924564
10.6666861678979
12.22922956844093
-21.95647817492907
10.01581448152147
-1.004538106424017
-8.967986373200663
-2.583067665452738
23.81667856539287
-23.65771436327661
-0.4308146465393337
-0.5737432254514152
24.66227223528542
24.44052312483677
-5.404447742931635
6.992374653378525
-26.02845003528183
5.881358211694588
15.25441223835617
-21.29512232466319
0.1593518746135963
-11.28520934295631
13.18926216255898
-19.94582545391891
18.04177263431722
15.72539542649211
29.44093407195808
-46.36848859442205
1.202159095972901
20.45411363647169
19.47521625727435
-32.60751222768035
-16.7311432350456
-0.3306919956502554
21.32632295826293
-11.16222900768822
-21.08171473095053
25.65183065315497
6.592113085490093
19.94578090729031
-1.336345278669921
-18.60932194236668
15.76086943402681
-0.6527770140517748
1.605739832863456
-16.71383225286725
-6.114701826989295
32.34711367757137
-22.51749565399424
26.46052079676846
-15.57370201162565
4.613569858794536
-15.50038864393355
30.08961846621249
10.77481827419454
-38.79983700096115
-2.06459973942188
6.040815435723245
9.473139653816101
8.446202935033641
-23.96015802457197
22.61542353083714
-20.83542287811268
-1.779791914265936
14.83548890923357
8.907080086158253
-10.35364436817118
-13.38892462721159
20.44271145667896
1.920564302081397
-22.31383204666437
-0.04944371209685188
-0.03287158218231804
0.06780390334739309
0.1390978235229796
-0.1740301446943429
-15.84396948060827
10.31776925816624
5.526684332585067
26.72876942078994
-10.60857701987887
-2.097148537094911
-14.02304386381583
-9.61537737920901
-9.914422263966033
19.53074763461642
1.601416653799054
12.2137711223152
-16.9221598537105
3.106972077601887
-23.34213943332857
19.70986188938796
-14.86018094388076
18.4924584878467
-0.2546250688158491
-31.54211684341497
7.777086917651273
24.01965499458575
-16.26164348204301
-12.82685005984555
-8.146775545170046
37.23526908705681
-9.154106652361799
-32.40476729634428
10.62916392094929
30.92971002775801
-2.932134411310464
19.60514964598691
-17.64423455943499
0.9712193247581296
11.99915669372639
-13.86065620812199
12.40230565940372
-10.54080614500754
19.60540035954362
0.1967591006116355
-19.80211263550873
6.022257690020735
-6.239353679478712
-4.634269033599089
4.851365023057434
-4.090818553043468
-19.45425915817673
4.537491781387449
-8.499556079659728
10.46535449280201
17.41760333030536
-19.38340174344926
-1.727041047143591
19.57613653844426
-28.32218608060053
10.47309058930007
0.0622024022139203
0.8522717283364711
-0.2884963484960545
8.101706620176017
-7.714207670171266
-12.21268617981842
11.82518722981376
17.82527907641201
-5.819015869647259
16.94865999868949
-28.95492320545458
-1.65366412466685
14.42201191926182
6.66364171210816
-19.43198950670124
-0.0224544088359638
-0.1564763672791538
-17.68749802732109
30.38858993391406
-8.797728768152179
-21.78971298563178
12.19939830114928
18.38804345263934
-26.86771033468361
-2.857062129525769
12.99362922916466
5.700520006059483
5.807320964402899
-20.47140981462947
8.96356884416757
-24.19844142766857
-12.8113167711384
10.14204786412456
0.09560159910438096
-0.06671417020679951
0.1032651212721972
-0.007663522169377532
-0.06867841724120388
-0.2326471191840618
0.1283952910443995
0.17293024536917
-7.159252244700301
6.517470945139311
-0.09571611282509283
0.7374974123516674
-0.01864407074139522
0.1947928205519674
-0.09763168358285815
-0.01823078269595532
0.08462105053029768
-21.61315309133023
-16.43210717287339
42.17684582694163
-4.131585562737519
0.1555915681299058
-0.1100860036157827
-0.03900159090746663
0.09269556640539983
-11.43761934309744
15.46283798501016
13.41569497049442
-17.44091361240578
10.07932693908204
-10.3098082170507
11.79589050038091
-11.56540922241192
0.9164282940135774
-3.795785109613703
-0.005085010068025471
-0.08088847012111298
25.00098157360222
-22.57613244461706
-6.239898201232183
3.815049072248257
15.58774532168548
-13.197769084402
-5.664053699381129
3.274077462025935
9.624293052389394
15.54117476285069
-40.70298940363833
-0.1508201214575281
0.02030001543542008
-0.02435392922764585
-0.09741171862882164
-5.571155944259282
0.9226221633282145
-15.57999039310755
4.554861296238689
-16.80161571674762
12.70575784565844
-0.45900342515475
-8.671906253430397
1.511848058367725
-10.37910504815986
17.53916324322258
-8.240498959280576
-12.75727899644601
-16.46202971440461
37.45980767013326
3.564840961952209
-6.687759767930672
16.46221962314635
-13.33930081719177
-22.57627829942817
29.80770223542117
-7.231312704246691
-11.14778338651975
14.20567641981402
31.40982458317636
-34.4677176164587
24.12019984672371
-17.51136263140175
-9.777780863336741
3.168943648019343
0.004936117177458321
-0.09711230347594782
-11.98128169730309
-5.302041988224724
-5.174003048167371
-14.20452501037904
24.19949654068917
-17.38977508762172
7.394803557304427
-0.04055605884402077
-0.04241377440373999
-0.06490998807253005
-6.054272087310731
-0.07785012119823417
5.398217301154933
0.7339049073479467
0.005665772245794115
-0.0287213139761853
0.1424778967880281
8.470429062861163
-12.8437641014943
7.847381921254406
-3.474046882627345
-1.038940477911831
-14.68980205131824
-3.668703739781229
10.66770318572118
-4.296032651916727
-13.60678706616631
7.235116532335149
2.638373995852768
-2.70182082061761
20.82038886983134
-20.75694204506459
0.05756455011670487
1.119047166412445
25.55014640390251
-22.14377360782066
-4.525419962468089
-24.54541238068574
6.481896889945622
0.2272658734093912
17.83624961733194
0.7124223001012376
24.01357300574323
-24.72533558081076
0.1166935464180825
0.1694888764516477
-8.415205113127337
11.52878797617968
20.22938447058528
-0.6563027454960481
13.27073403715119
-24.56876864315683
11.95433735150348
10.32631709099215
-0.73935399660543
-2.046958591259283
-7.540004503126648
-20.45812069497522
7.656300340198098
4.302264275115685
-2.735526660991059
-0.9984382148050136
20.99001854727383
-17.25605367147226
11.80298742358331
6.332412053432778
-18.13508758144727
-0.4665239065633325
0.006268752243674626
0.5121202530386877
-0.05186509873021725
15.22687312044192
-9.334341411341521
9.67002161758232
0.9722983253252219
0.1435029702186139
-0.004275629107934107
-1.111525666507638
1.221023371825367
27.40261792926674
0.7362872780089652
4.151824546923275
-1.260817466511486
9.416256138783831
-12.30726321918619
-3.897427198959821
-9.033713127530582
-0.413643669530493
0.8922558224803903
5.199033170693493
14.21155687239362
-20.30284586556407
-0.4329917951511373
1.449528032228356
0.9415992289495401
-1.958135466064078
17.5741626040676
4.741202969955726
7.591015810733063
15.52555319734359
-19.72895692346341
-3.38761208461368
-3.688221831727351
-0.3701032341573578
3.308946418983719
0.7493786468992818
-1.378723425642495
-15.05972143000388
16.4385712083186
1.132759387860805
-11.14259494833325
-7.184960011117124
-0.5879299013527493
-7.859240706992282
12.50523707714627
-4.058066468796389
14.47999413332806
-9.863648385669308
-5.204275649007799
4.980562687452224
0.1898165545084539
-7.482663024405841
2.312283782438612
-0.06876247812813728
0.0003441184458355886
0.01764772375101344
0.05077063592914421
-15.88183709023101
-3.02749291082007
18.17646577523928
0.7328642258137196
21.17410589665735
-22.24179142967846
2.320057842821158
-1.252372309797493
10.95511135357178
-6.639726772559985
10.16460955231616
-0.4722731769428574
0.376028995563823
0.0954950026409522
0.0007491787102904983
24.16314191083691
-5.666997708939014
-0.9866726982763411
-17.50947150361774
5.016358752908442
19.149636943032
-0.9980713710083505
-23.16792432491239
21.93005779185416
-12.22585947593478
-0.9448258588490122
-8.759372457066773
1.250119746108459
-0.201036746032873
-0.9760194424394213
-0.07306355764941762
20.95623355547233
-13.35984946168708
4.157631819034798
-11.75401591281563
22.85166714650371
4.231412924502796
-9.349540973537769
-17.73353909746709
-16.9282077415126
-15.4845969745035
30.70798361410935
1.704821101900658
0.3242242175750958
-1.006498819996687
0.5466101666347259
0.1356644357717217
13.69252063389372
31.42685483241799
21.79449810991773
-3.36596904945614
-12.99569467125008
-5.432834389207112
0.3690843808509033
16.5399336071581
-18.41228964145229
1.50327165345796
-31.34079708246916
15.48229658347726
8.204716163733041
7.653784335271333
-20.23185135584633
-25.09487572674345
25.91292252723042
19.41380455535917
-2.355626134362994
-8.116403974446781
19.45461832141945
-8.98258821260915
25.16562866692314
-12.38470146808433
-15.13655333319905
17.53531643880212
-0.5780595916279357
8.2083718197525
-2.616328634530593
6.625536456198766
13.52610861713903
30.49329719722959
-39.18510699633321
-14.36491828796939
-26.31988430341782
-7.583067071723859
29.69190619534625
4.211045179798517
-13.49634172283321
16.64251438139226
21.4733931439162
-24.61956580245947
29.01047129010808
-34.68015658387249
20.27801740444161
-14.60833211066335
-18.54751778813384
-8.348944050094717
22.98871128174526
3.907750556529407
11.47922308976189
-29.62684274406152
4.651277931500638
6.444533844720095
-10.84615650409354
6.994878186178219
-2.593255526874496
32.94863665822692
9.608420961540874
-1.660178912405093
36.35114490970805
-13.2425482486124
-21.44841774868431
23.20901385480684
-11.89783115754273
-11.31067216261255
-16.3878193633518
19.11464812086473
-3.057659235948031
-16.0569191903868
-1.064390647549991
0.5602812362518249
-0.2594567289210193
0.763566140228053
-10.95013921681865
-18.67370419260777
6.14059896050356
23.48324444891239
0.1594982638294496
-0.1707631244679057
26.07361471467193
-8.892054968956094
-3.896835682628458
-13.2847240630917
12.45597648771116
9.717829274888933
-10.69115101036702
-11.2865193769894
15.807341479459
-21.38371932656276
16.86289722412048
5.426110103307935
2.846873919750664
19.0253760731378
-27.29836009619049
0.2919452126375815
-0.4057840482862986
0.3154395676575498
-0.2016007320287356
22.18914600047221
8.883512856440166
-25.64654875358384
22.4052240922623
-18.15790193549363
12.01074542136237
-16.25806757812883
32.31760036070123
1.083223891334299
-9.529325168343204
-23.87149908369833
2.435592965862054
-27.77785512343669
26.5112577698196
-1.168995612234619
-12.24271137922307
24.39794070421006
-18.87909434578195
6.723865020792728
-17.17922100952383
11.93341402346341
-4.826797649877974
12.70170854915237
-30.63777596099522
22.49905508886371
-4.562987677023111
4.41034974508399
-5.172976147464795
-21.19457616645463
-32.78500666273083
26.64962813105859
-3.607611135758907
9.742989667433609
-4.55913818298115
-22.27193244817341
13.57393861073012
13.25713202042509
14.21392383488039
-11.92318349485022
-5.805959548990603
3.515219208960834
-0.2886021200278436
-0.7224216679324968
0.5678834655076298
-23.80037384446361
26.12120980874743
-35.10584262701097
21.70747573156912
-2.198744340683426
7.140896740175032
-2.900143623085786
27.9946794583276
-2.616690404045855
-22.47784543119283
-21.9575384547805
24.56194111324189
5.385314459270879
-7.989717117727944
17.11179281132438
22.29919441872853
-28.95598190508537
-10.45500532497181
32.32682438371928
-30.13587201466683
3.545312447713972
-5.736264816772672
24.2915996860964
-14.48906674207707
-13.9949062556746
4.192373311658052
-34.38674662443813
12.1891845422884
32.90530255292411
-10.70774047076709
-24.2332607197596
12.35035194439964
-22.5038378490728
26.85677685581047
-13.15462565887796
0.3077341070392583
20.15316811123548
1.584782550686204
-22.04568476896173
-5.879911103284635
-19.7755929032392