/*--------------------------------*- C++ -*----------------------------------*\
| =========                 |                                                 |
| \\      /  F ield         | OpenFOAM: The Open Source CFD Toolbox           |
|  \\    /   O peration     | Version:  v1906                                 |
|   \\  /    A nd           | Web:      www.OpenFOAM.com                      |
|    \\/     M anipulation  |                                                 |
\*---------------------------------------------------------------------------*/
FoamFile
{
    version     2.0;
    format      ascii;
    class       volVectorField;
    location    "0.2";
    object      vorticity;
}
// * * * * * * * * * * * * * * * * * * * * * * * * * * * * * * * * * * * * * //

dimensions      [0 0 -1 0 0 0 0];


internalField   nonuniform List<vector> 
19632
(
(0.004831677244062157 -0.001140273292100771 0.002916095563908651)
(-0.0002027088071180834 2.060774830654525e-06 0.0001244526456226442)
(1.985956740485276e-05 1.249108921594821e-05 3.756177807364311e-05)
(3.897611176843492 -2.138271302751653 -7.519654098543963)
(-3.528062702662968e-05 0.0008253667644588664 5.962559927535653e-05)
(4.309483777137948e-05 6.87170898108528e-06 -2.191258724656594e-06)
(-9.932481729882527e-05 -0.001030611700539934 -0.0001302195214571067)
(-4.236424777443785e-06 2.286180304587204e-06 -2.670330381315526e-06)
(-0.0003108388152151646 0.0002382836296993662 -1.006998793916509e-05)
(-0.05211471737398006 0.04243354907476854 -0.04283772951644838)
(0.0003305417688899024 -0.005668195618929346 0.003153973662679246)
(4.211969449572085e-05 3.564947587247592e-07 -2.011523121920512e-05)
(-4.230253601478796e-05 -2.443286558438501e-05 -2.191208774723573e-05)
(-2.420546863398733e-06 -8.544264508860024e-06 -1.416488883919668e-05)
(-0.004618012706610758 0.0001404697877989947 -0.001163228807677154)
(-8.384374267945725e-06 0.0001260291831932411 0.0001295856214655455)
(4.092307309974438e-05 -5.286654583570069e-05 -2.244279968131246e-05)
(0.0005381481852300867 -0.001047881272787509 -8.942839470781036e-07)
(1.381790591402527e-05 -1.997821464283795e-05 -1.861232101187399e-05)
(0.0001211884614194049 -6.982626261145816e-06 1.636847608523471e-05)
(0.002433154401833614 0.003193532227697628 0.007149400652164345)
(-0.7146346395280345 -0.6267057471276108 3.890732568423015)
(-0.0003488971916042666 -0.0003611219735603007 -0.01230502769549286)
(-1.34024469005493e-05 5.823682578703366e-06 4.016238494508921e-05)
(2.542503327553981e-05 1.099200093814284e-06 -0.0001025906282811807)
(-7.308150738964786e-06 -8.327066927873764e-06 -1.780827594897998e-05)
(1.852651154128712e-05 6.330051176715738e-06 -5.529869606743149e-05)
(0.9004993570026747 -4.946686076272496 -7.636002161295112)
(1.080341117882873e-05 -0.001493749911411574 0.002623772486437379)
(-2.379733200353677e-05 1.930075986507243e-05 -1.885911942011828e-05)
(1.217025942922752e-06 -7.761864577344439e-06 4.625860379613329e-07)
(0.0001723395821982952 3.17375733897067e-05 0.000304325574541203)
(-0.02084674866324741 0.01137831419876446 0.03873534570003882)
(-0.8770196266401709 2.592022418890182 0.09588230493854621)
(-0.0001154574549091127 -0.0001919783142698874 -6.19500436593336e-06)
(-2.726803162666455e-05 -3.264722295813335e-06 -3.484180629503691e-05)
(6.656661681595981e-06 -2.426192377495758e-05 -3.362330146055442e-06)
(-1.659127880638949e-06 -9.510879243409153e-07 -7.005486599956694e-06)
(5.116805351675871e-06 -3.237190757538262e-06 1.35032264407714e-05)
(0.004338541300225728 0.001936262256456088 0.00131736849999994)
(-1.192700393513604e-05 6.489066954366212e-07 1.193899456998299e-05)
(0.0002038939477858497 0.0001021711089517386 0.0002005606594349931)
(2.484589642719018e-05 8.174040429332218e-06 -9.977101848913878e-06)
(-0.0009792453448539942 0.002075844777703534 -0.01067495717009313)
(-4.434029396248204e-05 4.787232677031496e-06 7.393148615566617e-05)
(2.878529336347285e-06 1.006970665036818e-05 -9.743784901018388e-06)
(-7.587068359691972e-06 -9.14002826161347e-06 3.793260061684398e-06)
(3.994274098370301e-06 -1.968179576973908e-05 1.961199213814769e-05)
(5.732165670604674e-06 -3.518347256659567e-05 -4.552164764221023e-05)
(-7.285740629528635e-05 9.626566417107663e-05 0.0001753295875893545)
(-1.335982814934423e-05 -2.588202266160188e-05 -5.501536858476824e-05)
(0.0002930254132740341 6.351609449961998e-06 4.768852500951653e-06)
(-1.158531802574234e-05 -1.136672240282811e-05 -7.552981817456523e-07)
(-6.859617353327075e-05 3.93384768307251e-06 4.273620771588698e-05)
(6.783882351839365e-07 -7.04686811656761e-05 3.669345933430498e-05)
(-0.0002708028700893753 -6.514199814859067e-06 0.0002258452786612605)
(0.000241413400130082 -0.0003780334078717263 6.333241419343672e-05)
(-7.244233682936984e-05 -1.15936244585268e-05 -5.499757253002442e-05)
(-1.890093471694691e-06 -0.0001097925079939567 -8.307901134357692e-05)
(0.01028154324430671 -0.01020051647092091 0.004059771444340132)
(0.0001855068685544052 -2.263678267619476e-06 5.386391522639274e-05)
(1.598372040701769e-05 -6.562206328367246e-07 6.576234715310972e-06)
(0.60833402287352 3.397032223792399 -5.648611193662171)
(-2.210723358100857 0.7577312276538117 -9.48441180304005)
(-1.359158041444057e-05 -1.715535616177995e-05 1.1992164824415e-06)
(2.723277802500705 2.829196431474915 -0.6026770023174671)
(-1.860047200306226 -0.0737696208458376 0.3031585796234981)
(5.707156919662137e-05 5.667485476928189e-06 -1.751200876093424e-05)
(6.787817446302924e-05 -6.490947089248403e-05 4.978543493181322e-05)
(4.40687335851919e-05 0.0001747196684083356 -2.143724128210879e-05)
(0.0008879270414737246 -0.0005849915514981173 0.0008795201051462289)
(4.85621690420347e-06 3.12737298216254e-06 -2.197092629266469e-05)
(1.073279543251574e-06 3.135195735454866e-06 1.91592578907798e-06)
(-1.11814291839754e-05 -2.424234427247455e-06 -2.763042041047727e-06)
(-1.14020223082109e-05 -4.242045767914272e-06 1.746977037208598e-05)
(1.576666476211996e-05 1.544961952306445e-05 -3.811680883993221e-06)
(3.004615717467944e-06 4.750941743869704e-06 -1.471448234591569e-06)
(-0.001157668424985254 0.01018778921873371 0.00995763041559271)
(-0.0004549339129915307 0.001899009992011042 -0.002275186529704772)
(-0.02194918717031016 0.01906955650236881 0.01728489686650919)
(-0.001448907198023133 -0.001110469527458892 0.004892198176796547)
(-1.03252135069742 -0.1738019332619597 -0.12362633395719)
(-0.0001011349754502947 -3.351399452857375e-05 5.081471976586406e-05)
(-2.048185121978468e-05 2.698225934598187e-05 -1.432145060208091e-05)
(1.924716204202577e-05 -3.149763523064725e-06 -1.578155163524165e-05)
(9.187411434930729e-05 7.429452724138859e-05 -0.0001913477938784776)
(-1.146880834146351e-05 -1.939137109226325e-06 6.555725476439566e-06)
(2.494163491378216e-05 -1.917890100572636e-06 3.461191199209022e-05)
(-9.868625459775752e-05 3.130667717849563e-05 8.166176266302079e-05)
(-0.0001604436115737173 7.638290583982925e-05 0.0002238873346538859)
(0.02534767684763414 -0.01411874564903754 0.003112256518204809)
(0.0001794793748995313 1.385417703211503e-05 -0.0002080521700004546)
(-3.013444721232688e-05 1.88748524692034e-05 -4.338234088946792e-05)
(-0.01695651474448505 -0.005896279156477951 -0.004651187664154614)
(-0.0002637119453473532 2.021044827203094e-06 2.75199714705211e-05)
(0.0001805301623054743 -0.0001920086515856803 -0.0003490401309051597)
(-5.383289622323133e-05 4.330037041707998e-05 -2.818732506036798e-05)
(2.982982191937289e-05 -2.888564542651915e-06 8.875030471679249e-06)
(-5.862137155515376e-06 -1.02351714176035e-06 2.017595161047318e-05)
(0.0001965051344829327 4.804972996589424e-07 6.556785274556789e-06)
(4.112430019115384 3.720895157762961 1.171776958225598)
(1.315899937137689e-05 -1.119772754406408e-06 1.610610295493254e-05)
(0.000508130566127841 -0.0007946269974871138 0.0001488183271923307)
(-1.653502052517991e-05 1.016867985509164e-05 -2.230806937801839e-06)
(-0.5490691820015947 0.2606899866264577 -0.3291130427333224)
(0.0325332158216554 0.002153210073401329 0.0449888434294106)
(0.03602848980897035 -0.008494595653669716 -0.06353846438145241)
(-0.01910091846538482 0.0007386049964556874 -0.008873836289967608)
(0.0001168539121467673 -6.16544364493144e-06 0.0001787509503106881)
(-0.0002939212614299344 -2.162000049753797e-05 -6.127550195362421e-05)
(-3.36403515637273 1.002716338375693 -1.463647090941274)
(-1.663621657591553e-05 2.261812702679355e-05 -1.705416467618011e-05)
(-6.501306855204877e-05 0.0002330837327397558 0.0001286457858483137)
(2.107851492137174 -0.5920153188770458 -0.4439654007696406)
(0.0001821644541236847 1.061288605378027e-05 -0.00025307708979351)
(-0.05227394570170105 0.03127754770282545 -0.008658755317865405)
(-9.869236003815757 16.46453802352196 -5.118229776722215)
(0.1506966330227318 -0.005862164666041718 -0.1859484039020859)
(0.0001255635299911771 -0.0001635447786408651 7.256206997017687e-05)
(1.130462830556915e-05 2.411095839212161e-05 -8.835502843081646e-06)
(-0.0001520417918289512 -7.305014087724579e-06 8.971815893962123e-05)
(0.0002770572999093778 8.371840556668919e-05 -0.0002213328458420723)
(2.125121923022804e-05 2.079813712769816e-05 5.672755426737337e-05)
(5.147425057076227e-05 3.059785633386916e-05 2.189223802204353e-05)
(-0.5568916555914004 0.866150092294606 -0.471885115771525)
(-0.104297599125076 0.06040113777107452 0.001492576776959714)
(4.156143031145298e-05 5.907240866328999e-06 7.573237861928395e-06)
(0.0005593336720412302 -7.362119699587834e-05 0.0004201883496674306)
(-1.010225488482468e-05 0.0002443271626034138 -0.0004394625590980147)
(-3.579382506618901e-06 1.938379302358319e-06 2.124897580490584e-07)
(-2.114098143922902e-06 -3.001405688823434e-05 -2.869819523774743e-05)
(2.601438113811059e-06 2.647759214852194e-06 -7.721083479877676e-06)
(-0.01806947733185768 -0.01068562330581131 0.01019878950260292)
(-2.99384888302897e-05 -1.985157398807312e-05 -5.010413014697429e-06)
(3.541883450963818e-05 -0.0007008564690522797 -0.001299709552139341)
(-0.009383927141058707 0.001575254141364816 -0.00285232844471101)
(-0.0004793775852199965 -0.0001753269603495469 -9.926859948155409e-06)
(-1.014338799685222e-05 3.391606796224865e-05 5.035961847268062e-05)
(-1.758733618404638e-06 -5.66814430760597e-06 9.411659868271752e-06)
(0.0001811727281210015 -0.000184561867891855 -0.001455369790495636)
(17.09551030451176 -18.01421714330903 -51.56692306511329)
(0.8483545585305787 -2.54099379340573 -9.309925521604894)
(-3.84051838595526 -6.12777433648939 6.686925665916608)
(3.298251313148727 10.58670223084923 -2.453288328802678)
(0.5536156368188143 15.12297321877279 -46.38521156080279)
(9.912329954563323e-06 9.516742223425299e-06 1.149813106737359e-06)
(6.924471355400606e-06 0.0002814131511582176 0.0001836049286073736)
(-0.0001063845404828333 0.0005447036635900659 -0.002513188356568859)
(-0.0002258644646364347 0.001230362898717075 -0.001019969436827835)
(8.637982421167807e-07 8.759591686963814e-06 2.079191455665671e-05)
(-0.0001796023975986605 0.0001140475912924337 -1.351509511538797e-05)
(-8.663185863679577e-05 3.688031145495307e-05 7.284690479976517e-05)
(-0.0004181275200445607 -8.240128599003383e-05 -4.807493464918511e-06)
(3.774659492995282e-05 -7.818992804563244e-06 0.0001224663718720311)
(-1.313254068069956e-05 -0.001042744654575965 -0.0001964568096008121)
(9.123417038922529e-05 8.692400018709316e-05 -0.0001066200287636428)
(-5.579047128876721e-06 -1.502413363195719e-05 6.735602690210254e-06)
(-6.123379007906943e-05 -1.022378256225428e-06 -0.0001537445779305553)
(-0.0001399980804014314 -6.125789148532669e-05 -0.0001877242812138077)
(4.176167072346158 8.45518918032271 -3.280776459824701)
(0.7967749611811641 -2.78367966036808 -1.151751405255825)
(-5.055837000226613 -3.003526029486389 -5.696711471336904)
(0.2933299280809614 -1.617524290729582 -1.996734918263265)
(-1.172558003429552 -1.286929793071637 0.9268876825256644)
(-0.0001109115168683189 2.793753040846326e-07 -4.374931898702258e-05)
(-3.515596930244678e-05 -1.362778237559467e-05 -4.640443904694856e-05)
(-4.432260628975078e-07 1.800048009781473e-05 -4.006572596941936e-06)
(0.0001712470213615416 6.465831065524022e-05 0.0001456537771678916)
(3.926437927586918 -1.121159259479884 3.940113089638996)
(-5.031653485522289e-05 -0.0001004163162037977 7.211675202788515e-05)
(3.482323559331325e-05 -2.356536372980183e-05 -1.025926849615862e-05)
(0.0008738007453772269 7.379394073164802e-05 -0.0002622307461788993)
(9.298551819593913e-06 -7.673011390730828e-06 -2.00136728529933e-06)
(5.448356195434615e-05 3.493081758358329e-05 6.654508748119635e-06)
(-2.060235688574952e-05 -1.740927049010326e-05 -1.716975696624956e-05)
(-1.303082146556905e-05 0.0003891396840408893 -0.0006417430689097053)
(5.213388857987813e-05 7.314562018073344e-06 9.044273536776751e-06)
(0.0003955487726763876 0.0002586004242467283 0.002300191452332763)
(1.061819756445511e-05 -7.391421134959266e-06 1.07676602446302e-05)
(-1.96825953957199e-05 4.762211429249135e-06 2.030783262111284e-05)
(-1.627261503912136e-05 -5.572473912634353e-06 -4.297398530772601e-06)
(7.386537908499583e-06 1.945959052400846e-05 4.787996980275233e-06)
(-9.888406549448058e-06 -3.006822061902179e-05 -5.382946433206783e-06)
(4.064783908647368e-05 0.000140308100372515 1.868148281597229e-06)
(-9.253657495494547e-05 8.924742194062998e-08 -0.0001162265359641529)
(-1.762818554099598e-06 -4.85994692024294e-06 1.441629990331608e-06)
(3.226587659973679e-05 -0.0008705951684576103 -0.0002435183676728309)
(-7.219076070909405e-06 2.031715916573443e-06 7.514677958338379e-06)
(-4.461356540612122e-06 6.828988656360042e-06 1.482649120426423e-05)
(-8.130990836042986e-06 -2.744344017710151e-05 -5.253823400054229e-06)
(1.361598790800733e-05 5.712366598673671e-06 1.160810125011639e-05)
(0.0007381324694615173 -0.0007644914568969725 -0.0007851932998388621)
(-0.009742186300636104 -0.003792050519753675 -0.001421742390128136)
(0.001670798088803066 0.001099944152285061 -9.91598224769249e-05)
(-1.482932748713211e-06 -1.145669955673989e-06 -1.041652715245713e-06)
(-1.041942452435631e-06 6.377823861684728e-06 -3.786779433757128e-06)
(0.000217752725033772 -0.001336450926190503 -0.001894265865346394)
(-0.8748624031366802 -0.07421107917461683 -0.08130485547722731)
(-3.872175820871463e-05 2.516615746485968e-05 -1.569556840768441e-05)
(0.0004038087598932096 0.0002829751162537078 6.015624542730935e-05)
(0.0003147532714585692 -9.435390273555252e-06 0.0001477899789986627)
(-7.747315920032089e-05 -0.002578746253318065 -0.001000694708037255)
(-7.238190172543131e-06 -5.277203657046524e-06 -1.21555456590925e-05)
(-7.83863236239527e-05 2.402892713328902e-05 4.97877609143491e-05)
(-0.0001035570545356274 -2.375019453628659e-05 -4.366106700810255e-05)
(-0.001710719137530614 -0.0009883680561183646 -3.617308593972554e-05)
(2.851658442510113e-06 -1.263747145455397e-06 -3.159587647726064e-06)
(1.801703094408126e-05 -4.200964346709213e-05 1.683279687534293e-05)
(-1.041496804823208e-05 3.728497361147287e-07 -1.676780056788834e-06)
(-1.176197359821568e-05 1.48751453046789e-05 1.198303259209276e-05)
(-8.932674289393092e-05 -0.0004007178218785449 0.000594972498167261)
(-4.442191206584218e-05 4.63807600300099e-05 -6.915515288791084e-06)
(-9.126582514358963e-07 6.38736872825228e-06 -5.561237087154537e-06)
(-0.0001013780305065572 -0.0001196894206527848 -0.0001344471953634536)
(0.0002236351861909654 0.0001759667241563118 6.99951570158793e-06)
(-5.917601246613343e-06 7.103104078475068e-05 6.369395335079512e-07)
(0.000181846904138849 7.24438582242169e-05 1.263080154618776e-05)
(-0.0001316981503832729 1.225732321571027e-05 -3.136809942668389e-05)
(3.628412448125621e-06 6.012224712877523e-06 1.11933562006541e-05)
(-4.485259175882694e-06 2.362756742565385e-05 -0.0001164719879852984)
(-0.000114734354693368 0.0004275672319756836 0.0001519312206761582)
(-0.0001618933841445191 -0.0001263430061087946 -2.667630268237235e-05)
(-1.438909465390835e-05 1.667676578123444e-05 -1.379576212470583e-05)
(-4.812362298106563e-06 -2.560834175505409e-06 7.470665954561087e-07)
(8.159635881457701e-06 -0.0003252370145801753 0.0006735744081918048)
(-1.110433617306494e-05 3.017428797751636e-05 -1.395072377603123e-05)
(-8.599390625732698e-05 3.103168787865862e-05 -0.0001053316855370949)
(-5.484007813739164e-05 0.0002307951082443021 -4.237875550196189e-05)
(-5.267703434823657e-06 -0.0001080691186952964 6.010919258953956e-05)
(2.793217780017878e-05 1.354802638671228e-05 7.270603072611975e-05)
(-2.444021013374287e-06 -8.403225045768757e-07 -3.126329747543846e-05)
(-0.0001335421534251765 -8.156437298891525e-05 6.176644134663783e-06)
(-1.941675085590933e-06 -1.10518448870521e-06 1.769568325497145e-06)
(-4.166817507540955e-06 -7.086381129437751e-05 -1.727607257280535e-05)
(-0.0002928743116275332 -0.0002074657002886065 0.0004300913088827351)
(2.167185145944771e-05 -1.245202361024931e-05 -9.615829817446964e-06)
(-1.925384295847757e-05 -1.393757565837692e-05 1.398172375216178e-05)
(-1.899530128538214e-05 -0.0002836645160742661 -0.0001704593025703549)
(0.002637910492460336 -0.00107133040299936 -0.0009230149630893458)
(-0.0001210941852982272 -4.453863308624381e-05 -3.013397937449128e-06)
(-6.999243498361869e-06 -9.668243418424356e-06 3.074585183254932e-05)
(0.0008869917371689723 0.0006683333042741298 -0.002991016848310692)
(-0.004455156743323809 -0.002715324663695249 -0.0004143713127219433)
(8.077751775308249e-06 4.217966754322153e-05 3.324484959141447e-05)
(3.533807779554415e-05 4.234715091533222e-05 -7.374878775261545e-06)
(0.0002180445431884906 0.0001005539169048968 -6.792902306148669e-05)
(-3.376037915661706e-05 7.192693666815914e-06 0.0001632997163887041)
(0.005177178340797185 0.003967346127076571 6.534937787089747e-05)
(5.416611182363339e-06 7.963280247411984e-06 -1.056644178225716e-05)
(-2.467385042267323e-05 -8.807453273482834e-06 3.795532412211887e-06)
(2.571032971041574e-05 5.51485511768997e-06 -4.481928018845413e-06)
(-6.1519183311896e-06 1.095241845956714e-05 -1.715553044667137e-05)
(2.970894620547263e-05 4.091460682675565e-05 -2.50909067694529e-05)
(-0.0004232662763338356 0.001053485879410882 2.423256555668119e-05)
(-0.0003196494550426486 1.879316056993573e-05 -0.0001879082254319895)
(-5.179364215372014e-05 8.92439002143738e-05 0.0004294897430178351)
(-2.076954515614101e-06 2.810165913308071e-06 4.522494788533563e-06)
(0.03213497926162561 0.002426092710323654 -0.008902358214127208)
(0.01477832647869815 -0.007179011661696337 -7.119806628499677e-05)
(0.0001338114405204509 -2.266598120691045e-06 8.680060758563616e-05)
(-0.001138318777516001 0.0005954457333127287 -0.0004085252013878622)
(0.000317304646045291 -2.410720522653975e-05 2.385489410011757e-05)
(-2.481768816433163e-06 2.326541111396581e-05 -2.568952007170801e-05)
(6.213084452103374e-06 5.327717506782028e-07 1.642289468027722e-05)
(0.000412906684976255 0.0006400277811150342 -4.89325601361008e-05)
(3.713913443250629e-05 -2.200014833830212e-05 -2.131826615222005e-05)
(9.617841711657719e-06 -1.10754161406109e-07 3.527036285629866e-05)
(-2.240084061928459e-05 6.74648307012037e-05 -7.557292400869326e-05)
(-3.129507185452673e-06 5.447548814653606e-05 2.11441645173851e-05)
(-1.568350473220601e-05 7.380773619268552e-06 -7.169118241948882e-06)
(-3.204879335948155e-05 -1.557943616508212e-05 -1.3646211644782e-05)
(-1.402644685641578e-05 -4.528515428121171e-07 1.068952152882619e-05)
(1.437893596932701e-05 -1.777857103007206e-05 1.015863054697471e-05)
(-5.061165676297096e-06 -4.589441327417046e-06 -2.787050423506708e-06)
(-9.674931379825507e-06 0.0002704188024425349 -7.05788858172245e-05)
(0.0001277705429871937 -5.27639999581641e-05 -0.0001593518362798241)
(-0.0003337794425722994 0.0004525227391013752 2.581942008395072e-05)
(0.0001793581539598018 -8.682544958930927e-05 1.806579331015978e-05)
(-7.741700759625287e-06 2.170904700019799e-07 5.769418843154073e-06)
(1.44751835663313e-05 -2.471453058318365e-05 6.293213488985367e-05)
(6.855692728514813e-06 -1.142301819728644e-05 -5.958683058309833e-06)
(-0.0001927502563374545 -0.0005111087143774035 -3.994360504133289e-05)
(2.414200446807452e-06 5.883701757469858e-05 5.145933156209958e-05)
(6.642195207749916e-05 -1.263805789416341e-06 -4.151410400921815e-05)
(7.782556161779458 2.966434194719849 5.027640387371489)
(0.0002479750160591112 0.001225695228996107 -2.763239213242036e-06)
(0.0002891016495756423 -9.630712722300459e-05 -0.0002302445844086175)
(-0.001828519834011901 0.001165908238779821 -8.507539634051619e-05)
(0.0005145813372372267 -0.0001409648393932809 -4.69051692283196e-05)
(-4.248655943940055e-05 0.0001445256951141533 0.0003376952309513615)
(-8.087015544042665e-05 1.858484165836307e-06 -4.008570199412079e-05)
(1.679753922755614e-05 -7.572432607271849e-05 -0.000127980714361763)
(3.158912285797927e-05 1.664322684793332e-05 -5.995154046737918e-06)
(2.75566160916291e-05 -1.271007559095404e-05 8.228943699371377e-06)
(-2.498930842011438e-05 -1.281478615718555e-05 1.284033274957578e-06)
(9.579480176526191e-05 4.051997640288057e-05 2.491206037422272e-06)
(-1.27640885690028e-07 -4.321591204062476e-05 -5.395208062706449e-05)
(-0.0001507857945307683 0.001660536390137134 -0.002002348557485826)
(3.315921111185514e-05 -6.27960614388872e-06 -1.447967801502026e-05)
(1.035669276450685e-05 2.693614285020856e-05 1.047203742211206e-05)
(-0.02593801227148605 -0.006098853213166625 0.001226138780909523)
(-2.670388671767521e-05 -0.0001130848126980226 5.175031720139572e-05)
(-1.272185506237395e-05 1.898624202319918e-05 2.095269858302924e-05)
(9.199411690500238e-06 3.271995060937057e-06 2.316855537705495e-07)
(0.6328078243937421 2.031208128195764 -2.609806847988515)
(0.0002318742956919236 0.0001910870017826824 0.0002872592696035574)
(8.892000012899685e-05 -3.42117316162037e-05 -5.151070412691788e-05)
(9.8223718287041e-06 -8.408179656862837e-06 4.859407701350835e-06)
(9.211183024994851e-06 -2.907424707488425e-06 -9.611460113424285e-07)
(-1.081286070273156e-06 3.376343132097243e-05 1.683612787509565e-06)
(-2.834097201765064 -59.48700515844551 -4.032059318548776)
(-0.2761229368947659 -57.13943736087147 -1.361259133566305)
(0.2541933538117609 -0.06738246598462473 0.1252585392990016)
(0.001449953930813989 0.0004158510803230581 -0.0006165258714010229)
(4.1884742473316 0.2858719851514837 0.02178842828469918)
(-1.005580797807039 -5.920936255078196 -0.0677195652521343)
(3.148235277070915 -64.28829213435974 -4.946475630130325)
(7.843338797303684e-06 8.946372092043614e-06 5.796997259578764e-07)
(-5.928521598256443 -9.297419087733358 -6.848443587989079)
(0.3085382293030343 -8.93089703451029 -77.18348594706558)
(-2.94062543801047e-06 3.090475134938674e-06 -1.122332683821513e-06)
(-5.173080324642415e-05 7.611803878479078e-06 -4.878368438804039e-05)
(0.0003626805666707725 0.002658632110098734 0.01098075671163632)
(-19.11884069868457 -5.226546336039068 -61.9830109242183)
(-1.049459696649728e-05 2.003148333223963e-05 1.35246479682758e-05)
(6.95507903402708e-05 0.0002937817191048694 -0.0004376528776310559)
(4.605067779587878e-06 -2.463794217869504e-06 -1.039543439277492e-05)
(-9.540322743095716 -4.971046021372626 -26.68867422359485)
(-3.030848257838134 4.40144652544455 -8.009378519403075)
(3.202617849366879e-05 0.0001333158217697951 -0.0004561250195878543)
(-9.291391696665077e-05 -3.587537376440027e-05 0.0001031062299229627)
(1.549320436879871e-05 -9.10942502516368e-06 -9.166665131982569e-06)
(-1.028351491431775e-05 -1.200944773034489e-05 1.75521738073695e-05)
(-0.0001770020137583443 0.0006175096838648121 -0.0005264697266804614)
(-0.000223813180379755 0.0001018561054133107 9.657759237898372e-06)
(-0.0004822424761459848 0.0001907953529886288 2.786049929048409e-05)
(-3.668420567619002e-05 7.254872000614314e-05 0.0002105737160489646)
(-0.3682328042931082 7.72611829902264 -2.001295309472479)
(-2.34296641786338e-05 0.0006068732862150488 0.0004202830703729044)
(-1.373153219979203 1.656747738516086 -59.07071627559647)
(3.706653229255801e-05 0.0001428798025005929 1.221273744758502e-05)
(-2.38739084013755 66.6164794233115 2.067157742620117)
(-2.91257404358063 79.00488887400054 -10.60937656125132)
(-0.0007042489275612459 0.0002652546102649368 -5.705152964497552e-05)
(1.254210812503404 3.307424742857443 -2.380617014009809)
(0.0001169577086086815 -0.0004183556681736506 -0.0005573110079263462)
(-8.384763289101475e-05 0.001402360062568245 9.144379815092212e-05)
(0.0001372932092541112 0.0007383402324810178 -0.0008763810567347781)
(4.648703056686305e-05 -0.002442381891661936 0.003831301767188976)
(-4.076400698755063 51.82696527416594 1.072619834888735)
(-0.0002428090872498787 0.0002341087948863146 0.0001780920840674706)
(-6.975175971977399e-06 2.031838600981395e-05 1.324358195726294e-05)
(0.0009991858321689601 0.0002987521579061406 -5.246744990531186e-05)
(8.07570682691181 -4.546633683951507 -4.312671075139336)
(4.602168830749297e-06 -1.442931610850015e-05 0.000125543522919946)
(-9.579343782333224e-06 -5.339124000736272e-06 -5.247007834876967e-06)
(9.85792661876902e-06 1.021493534178399e-05 2.340550647750531e-05)
(-3.685353998515114e-05 8.430713740098549e-06 2.408688351210061e-05)
(0.0001088337280223911 -1.72463064744519e-05 -1.55067516016852e-05)
(-0.000460625546118877 -7.518784194701032e-05 3.405971958502181e-05)
(-0.0210026480929947 0.009090306521803234 -0.01701429864193593)
(-1.372681375176583e-06 2.545681436918101e-06 5.223917130895051e-06)
(-0.004426121381024438 0.004328431775761166 0.00791498508087903)
(3.70289212319372e-05 -0.0001456719007238028 8.418184245978155e-05)
(0.0003997608755747677 -6.469002608054939e-05 0.001383080034131886)
(0.0001859898694645959 -0.0001324770002043735 0.003461551651978245)
(-1.155128169608799e-05 -4.143673586871941e-05 -2.606247145026327e-05)
(-0.002306653752853719 -0.001638159855051031 0.01259479392799779)
(-8.123499100392124e-06 4.880614548803387e-05 -1.224175532559477e-05)
(0.0003615443111876864 0.001066643637637959 -0.002742573695776269)
(5.270141793989368e-05 -0.002095520625259751 -0.003809462034770417)
(-7.786653515106578e-05 0.0002380269386576853 -8.560348077499901e-06)
(0.0002733678058105249 -0.002558676821895077 0.00218608903696245)
(-5.321969622400762e-05 -5.1373928212746e-05 -0.0001150774555479201)
(-3.059564605716428e-05 3.356001671196391e-06 -3.165923701799218e-05)
(-6.779571324164095e-08 -0.000533638555542637 0.0004831859573726933)
(-3.348620159378515 23.50386742400683 5.568993439618572)
(1.029253728392957e-05 4.563225687978101e-06 1.963592821873041e-05)
(-1.656391409293816e-06 -5.551756362647953e-06 -3.230838106786199e-06)
(6.394062132784257e-05 -0.0001259202298798409 4.243159840718474e-05)
(-0.1206137100718637 0.03428024650009122 0.02816251175854891)
(2.555048763061008e-06 4.246974684062622e-05 -6.819424785922555e-05)
(6.76241605056794e-05 1.917246835527992e-05 -4.481375813119562e-05)
(-9.677371106113286e-06 2.13031249702443e-06 6.222029845914444e-06)
(-0.01260504675194462 0.008346386680852415 0.00783949886438905)
(4.564139205948186e-05 3.646744690687349e-06 2.528514537895265e-05)
(-5.134456170358471e-06 1.337021997250043e-05 1.768882863949293e-06)
(8.064541512399421e-05 3.77819423729184e-05 -2.543949134111513e-05)
(0.01586995965266053 0.06662113429597033 -0.03544496092822472)
(-4.346484236454785e-05 -4.25071186603078e-05 6.021121257755029e-06)
(2.761902745215325e-05 -7.37880376693106e-06 3.061863767090722e-05)
(1.49437501273146e-05 2.90898552767387e-05 8.637189573590711e-06)
(2.149673752283566e-05 3.886456174248723e-05 6.876545989091082e-05)
(-1.620876104032405e-06 1.295412355362005e-05 2.045511209464429e-06)
(-1.687838838302316e-05 2.072652010321415e-07 -1.087879132893073e-05)
(1.606665084539597e-05 -4.384103081570772e-05 2.179720401263255e-06)
(3.807577530523712e-05 3.63730863789508e-05 -7.104820975113019e-05)
(-3.793369694932163e-05 -1.25427734780732e-05 5.354882711790912e-05)
(5.484357012153005e-06 1.828037330183034e-05 -3.176764504366455e-06)
(1.444752325541419e-05 -9.70893471922706e-07 1.750619436335369e-05)
(2.030689986587248e-05 -9.349035984653028e-06 -9.156115750328467e-05)
(-0.0001642790884893767 0.0001137190521847893 0.0001614596911625005)
(0.0003557760136587715 0.001079937367874837 -0.001096871925053905)
(-0.0002327099281441076 -5.998105049740185e-06 -7.979752331717624e-05)
(0.0006184858634723743 -0.0003368346928178123 0.000683820791497575)
(0.0001108008991799133 4.334804185189132e-05 0.0001045603192603754)
(-3.321323247890002e-05 -1.386769566315697e-05 1.275874022070109e-05)
(0.0005055186210370802 -0.0004395741833475558 6.182818724628939e-05)
(-0.0001129344146958565 -0.009381463253610448 0.002542893614449438)
(1.227752252919875e-05 0.0001120287245549516 5.474020964859754e-06)
(0.03088894304596762 -0.003206781318710413 0.01111472209416514)
(3.524732912848285e-05 -2.794785659939869e-05 1.058968540665757e-05)
(-0.003442960473807607 -0.06799374678893058 -0.003775290781224277)
(1.859349085123216e-05 -9.194997230529149e-05 -1.106438925815505e-05)
(-0.0006837301665645045 0.0003716214722436393 -7.383579783937837e-06)
(8.424384767657731e-05 -2.206612903149221e-05 5.022057099561822e-05)
(6.51301351415512e-05 -7.010218445767237e-06 2.351546523524887e-05)
(0.08630706969523456 0.01319870081712558 0.06373562573953472)
(-7.010330164521403e-06 -7.941033638043527e-06 -1.38871919064889e-05)
(6.567777248159596e-05 8.705001895570268e-06 -7.070493147154868e-05)
(-6.353536848391166e-05 3.341992804508394e-05 1.398005271676901e-05)
(-1.000172864470354e-05 5.509511542572789e-05 -3.407756026488676e-05)
(-3.135929912942979e-05 -2.157948877068295e-05 8.246280324240935e-06)
(-0.0005396735895387483 0.0004917937126447967 -0.0001799631322988001)
(-1.552198395587465e-05 1.389212374154373e-05 7.017646972028123e-05)
(-0.0001230121620839185 3.195321839229383e-05 1.033492265321424e-05)
(1.104915757660814e-05 -4.849592812300453e-06 -1.300585004603755e-05)
(4.896968217280258e-05 2.824485009740234e-05 2.651785594696631e-07)
(2.191942143496597e-06 -2.675326037094665e-05 -1.489921304033844e-05)
(0.1561714737653082 0.1202634654005877 0.01377649762859631)
(8.073739949675883e-06 -3.000659456744185e-05 1.125530777444107e-06)