/*--------------------------------*- C++ -*----------------------------------*\
| =========                 |                                                 |
| \\      /  F ield         | OpenFOAM: The Open Source CFD Toolbox           |
|  \\    /   O peration     | Version:  v1906                                 |
|   \\  /    A nd           | Web:      www.OpenFOAM.com                      |
|    \\/     M anipulation  |                                                 |
\*---------------------------------------------------------------------------*/
FoamFile
{
    version     2.0;
    format      ascii;
    class       volScalarField;
    location    "1.2";
    object      p;
}
// * * * * * * * * * * * * * * * * * * * * * * * * * * * * * * * * * * * * * //

dimensions      [0 2 -2 0 0 0 0];


internalField   nonuniform List<scalar> 
78526
(
0.02535062268173574
0.002412395518590565
0.09718187992076012
0.1211982664543236
0.02338099213645241
0.0184866528733319
-1.138102918606858
0.09762718597261491
0.01426454121903832
0.004288571698002243
0.4945173184178758
0.3827759972257132
0.1092352340598651
1.511232567184178
0.08890920512021513
0.01308655475639166
0.0497961295093336
0.04692195686730382
0.07022933461864714
-0.256188901957103
-0.6781725317282
-0.878786759396278
0.05360330335666156
0.03444074068337672
0.137055490665295
0.156494918853442
0.1533056975061096
0.02459494985648698
0.05487270311220747
-0.02301724864153641
-0.01392389852622639
0.1687926198617944
1.47144179555855
0.01123879592667556
0.01914037325376515
0.2117641268148564
-0.2715040823723158
0.01754383935713012
-0.01980806966891488
0.03269763916082612
-0.0225658212425539
0.01385106483710069
0.03783153315251712
0.04799498035656959
0.0179737360746473
0.01947372944466365
0.4420631597188215
0.01621866323211205
0.007195266773202914
0.08733940044880789
0.2195723539401146
0.136149363819663
-0.5986457904389015
0.1364225655498987
-0.01607711630061499
-0.6244427421570334
0.01158123317049633
-1.518767201925703
-0.1365360464919149
-0.3272977590485149
0.1393554098426953
0.01927224454366283
0.1605980407681147
0.05607526264709701
-0.005579443936662853
0.002214077634530227
-0.003189578825817133
-0.05941944875036712
0.01735504280167974
-1.523911364043156
0.105150210118006
0.2647829387480331
-0.2591354797946024
-0.1722461125593885
0.03272972023006208
-0.2087053529137233
0.01909014852026743
0.1767161895160453
0.1521401489192353
0.108395348047517
0.04567500733716361
0.0165936329108517
0.02182107799623452
0.9358265319213827
-0.02760126215044389
0.01555392263517942
-0.1315635121539543
-1.048694230019721
0.009626607042822364
0.1751919525558646
-0.000125541656546546
-0.3086454026002823
0.01815317368604452
0.0156270342509195
0.02752895350412569
-0.01107488758255451
0.02783996563214024
0.02110934411777434
-0.04470140448146271
0.02050360060798955
0.02391340646074777
0.01803349587827252
0.01710239002169272
-1.192449549840173
0.006007402235557503
0.02670646084285087
-0.6981302171591814
0.09544506483611107
0.01529388067779797
-0.5872411938002999
0.008754335423327793
0.1420525027016414
0.0689908996157447
-0.1809708003248849
-0.04662742350565649
-1.301316538890373
0.01800611007790366
0.04553299899964656
0.05672508124502119
0.1693309212429972
-0.01283616399830412
0.2034457711712473
2.563530878594216
0.0560466750483701
0.2022364156140556
0.03812328377946139
0.009076258614401641
0.01260558988096907
0.08638385713249752
0.07602202282109241
-0.1919550061722685
0.03010063260183509
-0.1982657797824543
0.1352592229120213
0.0706394976496853
0.02019492998781247
-0.4909500583765177
0.01479462274352829
0.01777914988913063
0.02413211958537626
0.05187796151731856
0.06744991411129943
-0.3349684344700025
0.03155666188490357
0.02471301220527719
-0.8102321793676448
0.1357902343817135
0.4470360263577161
0.08916097399953472
0.05622507936517004
0.04104800239652513
0.01421599650309526
0.2476604120808205
0.03340442696350518
-0.02020360162120504
0.1402193897327417
-0.002339874271826463
0.02496718927479896
0.01982000085031819
-0.1684245661234472
0.05852336403621395
0.3707526894655383
0.06716789415308919
0.01751906593552723
0.01518469095140158
0.01323128025727811
0.02023858220499178
0.02788693645663987
0.006575853118588613
0.09044328318168604
0.007312519238072465
0.04052491076353684
-0.03323025393877535
-0.188729304801116
-0.7603256178254769
0.01490163781207027
0.04133888328055122
0.0601994087075754
0.02262514062374912
0.009444049603642111
0.2656965538877501
0.04002609821446184
-0.2712210196225056
0.08764468958212547
0.08218918362221382
0.1251399626755223
0.1232202713507749
-0.1246949494609776
-0.03203109085670137
1.739844634134015
0.3396102852848843
-0.05376351789140429
-0.01926230830115275
3.349688840080719
0.00429801364135587
0.1160898095477954
-0.04242153428600381
0.3529420596380387
-0.2643914747668976
0.147549359906496
-0.05318743161439352
0.01941374486589743
0.05497236903185019
0.01567670165462999
0.02244628240128163
0.006375056595405749
-0.009303473016926805
-0.2837131450886484
-0.9866030578259564
0.05473058755774791
0.04619210366571831
0.04483356924342677
-0.7444878895785095
-1.711619154372137
-0.7334707184601087
0.09700439203817855
0.02847137287799638
0.01064953048854506
-1.396049145963366
-0.02361099891204966
-0.5503782674410496
-2.144473060854769
0.1246261977580341
0.02080258637715014
0.1570275943673491
0.01296570938696859
0.001566319740005286
9.317114618610713
0.129042536467269
0.02233294066647355
0.03574031638426971
0.04430413050705676
0.01919725038185844
0.2150007646231791
0.01842671447395006
0.03020271257338124
0.0292271028324464
0.004921109479136158
-0.1943954030906105
1.591331812686468
-0.2929363101229836
0.05725057517430253
-0.1627607526536506
0.01990297231992544
0.0268827363608445
-0.2133815353022985
0.07376781247846205
0.116300028684529
-0.004701954428543932
0.05929752701176395
0.06541239524958832
0.07143053852397749
-0.2450929366693239
0.1378046403009164
-0.06094237851235417
-0.219968267529764
-0.2416511646177456
0.01677324774938918
2.855185601996177
0.02175599411286695
0.03097596141837989
-0.4243938454682297
-0.1627037749652126
0.6592291278394543
-0.2695129307252238
0.02445510461857365
-0.242842972491694
0.01745654616200372
-0.2650827625522494
-0.8841547429321105
0.1520889550016637
-0.7381231455183164
0.007263501772639232
0.7429517232599524
0.02582378859634502
0.007088922362329509
-0.2927742730950796
-2.028659138912622
0.1853849719143499
0.1532297384965936
0.1546165785887571
0.02082058474639368
0.1691555058685174
-0.5342570458713006
0.400120016897319
-0.3231894388612341
-0.7911153746551493
0.1385600696919686
0.3294772008054495
-0.03620420063171129
-0.009013054513799884
0.008224769881695846
-0.8103781074454963
0.1413933775457986
-0.4393814274676875
0.09474979633150507
0.09478221527310872
-0.7439508226215191
0.03641110230192108
0.03280990613701169
0.1441976014350924
0.0154544346172698
0.196700402784935
0.03170300219520567
-0.130118372082245
-0.5079272955964811
-0.1885144038389634
0.01229019637993249
0.1961089016839745
0.0576806987171312
-0.2708095732268757
0.02682985399800658
0.01471340921372446
0.01017442817617269
0.01009889672673024
-0.007041216659770469
-0.2151381373521696
0.06406715472940551
0.3210590013552822
0.01214274766107908
-0.04840036860345091
0.02643755484308661
0.5437054193155534
-0.2163064029759494
0.1112160678336193
0.02172124998771339
-0.1388146165672435
0.01579519594029315
1.191528347453344
0.151256828662682
0.1660037168105652
0.02443796812852958
0.02056562944084635
0.04512986152433471
0.14021762123368
0.0816882861884027
-0.002555625731781476
2.217291573246842
0.06984461091805756
0.01793993979976414
0.02583066915677948
0.1288957720752978
0.06887722475619774
-0.1032137327620075
0.1321345931694594
-0.2274105859150553
0.02895068105345854
0.03242988528686472
-0.7722735723755765
0.1298006569603599
-0.2586146159961948
0.1276845331894541
0.1782979441854485
-0.1143624601352369
0.1311388187423362
-0.3768325725896459
-0.1990529370475819
0.1381933033987615
-0.08650739577124376
-0.329500594949845
0.04317805771530467
0.02652796693656377
-0.01645690851232889
0.1537195650132183
0.0934878715326614
0.1479483884221322
-0.06733473763247158
0.01585006271350778
0.124274257142457
-1.172554439997248
0.7685810177241167
0.02271536878424877
-0.4658670032321217
-0.1605415441690667
-1.187837250448569
0.125546271433393
0.1230683766403472
-0.01311071500758417
0.4484529982778887
-0.0006008594972289059
-0.521623555076033
0.2180145737901556
-0.262507515395794
0.1965001799117928
-1.704356564024868
-2.308971980634765
0.5121874332347616
0.03247332260508356
0.1683480424934241
-1.052446521653712
-0.3675553568739874
-0.1146446722658321
0.03721914853108232
-0.1407912814800585
-0.01638532561624289
-0.2066842784578325
0.2753216768584415
0.01110855969243944
-0.0003071825755227271
-0.004941958415221428
-0.1258668941592985
-0.7060819251039464
0.1011872995592403
0.1472843914914955
0.1329964779877312
-0.6862730263745505
-0.5380804753229549
0.06475527874785821
-0.1966596778536001
-0.225851701277115
-0.0257206596546859
0.1084607020293968
-2.029501473095127
0.0138435079964313
0.03130700827462748
0.5388530333040891
-0.1596009127090582
-0.1783000906992722
0.01992301569034401
-0.1269638452696965
0.01557780013910021
-0.1658396459440551
0.03377007844463436
-0.0120540268143857
-1.03276971073175
-1.56232692761795
0.01211071161279703
0.005658130814312951
-0.9765857703252863
-1.338036126982669
0.1277514822336503
0.05822697959238837
0.03382516354276086
0.03199760567666136
-0.700750855446486
-1.333807257538597
-0.1443691301496612
0.04057225948433436
-0.4925625206273114
-0.1686849607312739
-0.1432569361466846
-0.1548950227366262
-0.9392835852337282
-0.1428222657990006
0.06328170191046031
0.03605177239111591
-0.2784178588482952
-0.1996932118403839
-0.3903891372175114
-0.1354066276149685
-0.1950389392896836
0.02274442869637468
-0.172845559214921
-0.469173986025563
-0.4153589129592445
-0.01196881751173001
0.2878052275186618
-0.5738574587276769
0.02542738264211776
0.07417217527902881
-0.342876147081129
0.03870734188263483
1.27408613701271
-0.02836861554468523
-0.3616183568760946
0.008764323168412557
-0.545588968524483
0.1918156143510629
-0.7036964953992677
-0.9313084777102362
-0.7204787726352186
-0.5271703368376692
0.01046050527368969
-0.04214211839200251
0.008131773060930179
0.01509438867548162
0.05169452057663599
0.08379261206244999
0.1847753966195963
-1.01617986822494
-1.532536615482279
-0.1989052659676081
-0.7087173876830613
0.006829555875680645
-0.1619926457863327
-0.6685461061208653
-0.2137750457911356
-0.1349608791008016
-0.1932571995556785
-0.1939327615862136
0.0639234055933252
0.08777753718607735
-0.2383945917825616
-0.06190713196223852
-0.0273443790710675
-0.8247242548462373
0.005449126108967899
0.1114196405551935
-0.7825005758921908
0.5010637168435391
0.02098629574983355
-0.2233124783451891
0.08170664179088326
0.00432642908339557
0.04409017465866495
0.1058055275462942
0.665765953128707
0.004151886477078516
-0.02273287253392907
0.01729603142573159
-0.5489726124846585
0.008707628773755464
0.007564707860224794
-0.1167069832615708
0.002413693612209531
0.02787588886592478
-0.01446939887772644
-0.266419008962086
0.05017818060253475
-0.2685200474080281
0.0473547796103099
0.008719011028624702
0.07705622864644379
-1.018651088832107
-0.04472187221426827
0.09296396569275234
0.0520421702558985
-1.523998448807974
-0.7230306229852074
-0.793205082815108
-0.03746805261182742
0.1436484779215224
-1.067583367438791
0.087548071563175
-0.3146294115460911
-0.511083093349304
-0.1799472291100685
0.1235286254104842
0.07401901240215575
-0.2987072893504821
0.1378782963704024
-0.09104727516010445
0.1793459861518539
0.009576858491105808
-0.9101959881683883
-0.01203274618764864
-0.1388218866024396
0.1315198007991997
0.04809756973403306
-0.4097600426027065
0.2751619732370968
-0.8703318571326838
-0.318334421573767
0.05065333812627116
0.002005856720488092
-1.028380121191299
0.1131745760088893
0.07023243034871902
0.0395549583751078
-0.06841573448938776
-0.07920577014742793
-2.713583766265911
-0.1718495126039227
0.5302430025865064
0.0545681818595665
-0.3439129800645449
-0.1829904612021528
0.09177584290345671
-0.367144464759605
-3.754603763407222
0.00892001619617974
0.06441790242136039
-1.550289263925728
-1.406610581201754
-0.07864853611790085
0.01839531336877055
-2.837725515338294
-0.1478881774756344
-1.572979768942708
0.008959740043063987
0.08382521790756349
0.1099881028793489
0.01679389518377642
0.07076853830876038
0.04400604384936811
0.01485279478167366
0.04242921121643868
0.1777554653094336
0.08371862437569548
0.07938533643251969
0.00691103253614173
0.02960346538203166
0.1093523448493524
-0.3810233025989517
0.02417086202528603
-0.205637786791666
0.04243117852188901
-0.121934110136355
0.1560139952348784
0.02893810383075185
0.005885675533935701
0.004374645463644195
0.003538142323016889
0.0284827396189327
0.1023121359615514
0.02636976127444999
0.02788087558992864
-0.1969317577025152
0.0652232664372354
-0.08239590923575787
-0.2137344292680554
0.02730505243396193
0.004595644944781717
-0.005709379322334133
0.1224908801181543
0.02520419440459651
0.006316194977745174
0.0363106031972705
0.01278560553690397
0.01519195708894834
0.1064949990936384
0.0147223676208272
-0.05380953509447658
0.1341095830624853
0.03233143623200703
-1.577684222758514
0.011271927087103
-3.116821936713395
-2.193848186338105
0.8401855447096949
0.0343228172258189
-2.648751923080804
-1.585182383514781
0.01788427547912158
0.03007921877487971
0.02780667987122731
0.003847786428483745
0.01638221369251481
0.01299281572222455
0.1737023411382672
-1.327737520834298
0.0197844655111352
0.1953881594524386
0.007142064020920033
0.001325248165028145
0.03093846245872084
0.02008583112181333
0.01062450687391189
0.01550018430278296
0.004893835391427664
0.0194870323440729
0.004794574578561215
0.18552095755103
0.02126261823908491
0.01482210254249101
0.1283654448313179
0.01286180497829093
0.04982739732094212
-0.08335566259010704
0.01159110263207319
0.03315151099434388
0.01224800637657033
0.01089946706536573
0.0003495031017170273
-0.1711468349208683
0.008445036644575884
-0.5432999703005572
0.04182575363471924
0.01227836680092983
0.009886923386453653
-0.008159502790788871
0.01225065826310972
-15.24597300632214
0.08833634319042882
0.03680299086768783
0.2869712113406024
0.03483974725064971
-0.2374389438211141
0.001728599242253066
0.003448746734954395
0.01258067559928706
0.007508603643902431
0.03443018572804685
0.08487139516552915
0.01339104376483533
0.06780164006625125
-0.005971273447523543
0.6354172943125389
-0.05605713632049195
-0.01036351033086566
0.02657420944275458
-0.0005744770946633496
0.08131582932502439
0.1161351180056631
0.006663206864834771
0.06161738047713149
-0.04989574877441346
0.06534293465504896
0.0290074376876453
0.02652896300569015
1.3371666646678
0.01713202872496349
0.007590946129471107
-0.1035460009365104
0.008788810891912462
0.05065710793379718
0.69910248605593
-0.4503297735081878
0.0233281685269598
0.0199207628191947
0.02109881333111163
0.02330921821408969
0.002232694807541628
-0.8390175443482812
0.01498648483116899
-0.01416673503950397
0.005128791352351927
0.2291127283713345
0.02262067923279509
0.01750044856105286
0.01442455454012581
-0.1067858880543076
0.02332938295226738
0.02225188900490354
-0.1651740940802741
-0.5454837958464478
0.1092391682263993
0.06110055455159127
0.03356086371078769
0.0136149768372674
0.03132408589622113
0.04370357295917635
0.02992790948890081
0.05566022137779867
0.03904218213952641
0.2334485866264286
-0.2513233673061498
-0.003614759909611272
0.003954098064039111
-0.2085909329454812
0.01377848120855516
0.00603882110319718
0.1719556790668503
0.0188244591467287
-0.001637726266548014
0.009889845932022513
0.135239205397931
0.00426524237648716
0.02273724697271948
0.02015479457487812
0.1530452683047276
0.1201608849760036
0.02958872223840206
0.03513200172003987
-0.3518845233165268
0.01391317608811522
0.02335055195456627
0.01084132640174777
-0.04211446211088269
0.02353028647185469
0.02330547834124374
0.01388753974603456
0.08766138257988655
-0.1584407747422441
0.04477316540956554
-0.08416831207634831
-0.02192586414974796
0.04064297875372083
0.01477860547528838
0.1080968563536953
0.02432376707902305
-0.03191110652720432
0.07799388525826378
0.01664116328785888
0.0290971502805527
-0.2621578752815667
0.01478664313802368
0.03203969038345181
0.01965759163104391
0.03590914084872104
-0.1350744062597436
0.03342950647449071
0.01645205293214193
0.06857532480435173
0.01681329070815788
0.02649968038925188
0.02527250807487282
0.02728121103003908
-0.1607513855677333
0.03984497975944951
0.7746387300155279
-0.2850915653907543
-0.1027273045517994
0.02761761185724572
-0.1677332991671822
0.01203331844136623
0.0191955489178427
-0.0253860092843268
0.01994697419899538
-0.01639423164404643
-0.2067370751426452
0.005281992102818266
-0.01066287345466941
1.059129636493576
0.0396809172370013
0.07007405214757319
0.02220660830180124
0.07387941060078143
0.0302568588292003
0.02579238079563978
0.04255271176112797
-0.1903457462681693
0.1263372115319007
-0.04932439482662129
0.03795045815769998
0.009849774518041594
0.1600922785665578
0.02488950109232038
-0.7045234094682773
0.02328679020591239
0.01862999687948489
0.02179107792035923
0.11935398483897
-0.2124065076111853
0.009335827433474187
0.02393478876964919
5.127395059380378
0.02374535471242786
0.05824798534133847
0.03669387688270447
0.1061628367139116
0.1848986392226997
0.0319445843499651
0.1771102988545304
0.0323388991737683
0.2150608789208427
0.06949939546830346
0.1693693720295972
0.02794518757907024
0.5160403848619566
0.03526045947611503
0.04431680781751814
0.2161512866542483
0.04280758329214215
0.04576468775636573
0.1151795491807798
-0.03083052589044981
0.0229403694830308
0.05036157862279592
0.1266035943147661
0.05759199950129108
0.03996861639352057
0.1185290611980805
0.01692218627023634
0.1277308814339963
0.1723613001029609
0.1567671743878761
0.02305846854109702
0.01822184035119416
0.0006891696299304279
0.01865007489877207
0.03065035740656416
0.1453534383973645
0.1603693174330377
0.05173115253369518
0.1488329598272033
0.02176799759472604
0.1495789048681882
-0.4419113507288696
0.08534398040283588
-0.1478711896917527
-0.1202862635065937
-0.1229296253518036
0.04672699409756191
0.02454488023963503
-0.1457497762001762
-0.07538009494655561
-0.06414184739798351
0.1272206665347758
0.3902672975595122
0.03170232701155312
0.006099721838008688
0.1126040691710185
-0.0162734411482434
-0.2622830945404706
0.009327082673301889
0.11429629818611
0.05794838106678139
0.2301315615482303
1.263527994732775
0.01806765095584283
-0.2660722658560614
0.1106056701176643
0.3222251032274491
0.004745415603707682
0.3434589987011251
0.01883589187580386
-0.1474362944864666
0.02076499307347988
-0.1421669708674564
-0.1708192628672583
0.01698665074409118
0.2316591319079615
0.01219359396041271
0.1362732650544991
0.01524642997403846
-0.1832694235826225
0.03920470771689109
0.02760417939804478
-0.2222544380193366
-0.02910157909193541
0.007875047665360501
0.0404613964846842
-0.1743113086195543
0.02641782264764201
0.02517822078118618
0.005849436382814146
0.3559063709164342
-0.1472979440724748
0.1496612532839905
0.01925387150510078
0.1782657942274496
0.09747447969196106
0.001797880133101497
0.005197356153454689
-0.3267274104645963
0.1658021696405861
0.02669881918658843
-0.3468664093000838
0.02326435616182264
0.04778188858708245
-0.0412777413686203
0.0680582921529683
0.246703445470273
0.004441140483028542
-0.7946049053382249
-0.05180472054224993
-0.6386538547969269
0.02585138774629893
0.09535273207351182
0.004873174168159567
0.1250017279598133
0.1302246750578686
-0.0401480984206561
0.008732454291038076
-0.76707060264816
0.01109894794520831
0.263806676266759
0.03991333376328134
0.04820107944556483
0.08011264636773544
-0.0222861979324344
0.1409420995179167
1.66807750311437
0.002915319574412903
0.0238981949798328
0.16571848626644
0.08032664387570029
-3.531367180854793
0.02761106038710832
0.157645950363929
0.04676984058089706
0.05734094611205052
0.1413506927386486
0.06037006248818548
0.1609451618518071
0.03310287846863271
0.1468079497248597
0.1389297213560712
-0.03656328130259401
0.02134885228506024
-3.256001270903848
-0.2041140809323719
-0.3370711664532312
0.02640998761818623
-1.116453799331534
0.2469740188318895
0.01183547595590343
0.2681607793011539
0.232386761020482
0.1356889111524383
-0.7932287371789419
0.1397170139854394
0.1274275697130954
0.1762580249492407
0.1145032455717677
0.1189263530067842
0.1146850080999542
-0.2561335611467553
0.08864987939144209
0.05638135240049078
0.1371143297068134
-0.004437910593108031
0.1451663609015713
0.1316957417516339
0.1064426062274369
0.2847100384822438
0.05095283519294539
0.02396388958399349
0.03082806267069961
0.04429972332246887
0.03718970310977587
0.06496393971194221
0.2801476251496098
0.04148620591879444
0.1285216990512938
0.1285426424236183
0.0008753104371120093
0.05269621023570512
0.008163286925302517
0.004281850230916481
-0.00512429835476528
0.04856186178564054
0.003784673907352641
-0.2773756672567368
0.1467193242472864
0.04102368997254231
-0.4948879229789961
0.007789209538355003
-0.4938901133158083
-0.06849468593288566
-0.5978849022493847
0.05598530027908911
0.06285177695100219
-0.6101325407499015
0.06786393873158758
0.01060788289439657
0.008231487389247089
0.2705405039683213
0.01543545914281332
-0.06508437935955134
0.01311497714743931
0.04387137153073694
0.009271094486045758
-0.4499075089640613
0.009035437775903033
-1.51751470673995
0.09627571530464539
-0.002111025854340125
0.01820889045097423
-0.8967075242043582
0.02399184830538465
-0.1267975417392249
0.02854536644121782
-0.1931182537481845
0.02558384122189544
-1.135814693621318
-0.7295778292597082
-0.1408422785448534
0.1222287067403132
-0.2057377097072032
-2.122559600703255
-1.913894480750826
0.04834115059724623
-1.084171144325486
0.02422481960280192
-1.517534038086549
-4.633773520588385
0.02374993433845053
0.007729076967253319
0.6929094051725087
-1.171201393829002
0.01501117996111042
0.09525652494357982
0.07850968288692974
0.08220628960341424
0.0815013110456957
-0.5741811687406603
-1.796893548723901
0.01056297269648485
0.05995843668899554
0.1595253224900154
0.02791986068561623
0.03607963360598711
0.1911435836698266
0.009164062395930518
0.400523368811685
0.1558220286114994
0.246387113669751
0.002887234757104582
-0.0117619594899372
0.08455360647971605
0.01318109425419917
-2.481743859110404
0.03347265689422743
0.1479229581666131
-3.875119888900133
-0.02477419902166282
0.06266354587183177
0.01125335498767608
0.03118730204888167
-0.582448354490008
-0.7552535786072949
-1.025853838048655
0.08127364079643325
-0.03156906826507516
-0.5144621716809175
-1.394547269336306
0.02337613724489338
0.04377032913143499
0.09272167189398435
0.03150706928183153
1.326424117947099
-1.80751941934721
-0.4971082922823218
0.1779816312990508
0.1060142416219107
0.01042839020629176
0.2621979778611568
-1.238482397908368
0.08469026616337372
0.0006261793698309505
0.01535213338026451
0.01364510602335106
-1.168015002487325
-1.199751150447683
0.007488440632675866
-1.065340349531456
0.02264250636007675
0.05060627359462604
0.06082204098027434
0.08068293379786724
-0.3125151792640767
0.0190036291217675
-0.02853290304623259
0.0844301231369835
-0.08614349700297071
0.004800710105235804
0.01363657492180567
-0.1153868607671673
-0.05809303961249587
0.1088780601973671
0.04833182877298563
0.01126415982501057
0.01233092976021576
0.09412110628421053
0.02827841145701166
-0.1928230665259155
0.0234069176769306
-0.03787019015872874
0.03856318159231947
-0.008621902417410987
-0.4640632565894883
0.1214168367230892
0.02404244630611403
0.006112178629012347
0.009291443287881111
-0.08140390991919806
0.01199137262412042
-0.00436191755459755
0.05246096177707833
0.01627157732091406
0.01047365647796398
0.02049050246923766
-0.09241267105896736
0.1028291933093168
-0.3568151910718749
0.06891166338234517
0.005173236750455421
0.02627575161534437
0.01341359228756655
0.02598896842361014
-0.2816135921096885
0.02707417639888469
-0.3746060782852237
0.02988908087537635
0.007110130670740402
0.0119610381167103
0.03082789919205875
-1.832535362911998
0.01449868198175985
0.03653384826692577
-0.3504640751814328
0.02891981813412254
0.074295493337024
0.01991013598391419
0.2060636902461812
0.02037659375962969
0.0137488638906475
-2.03456198792185
-0.4376646592980525
0.01956762195765673
0.3118794590647626
0.01558989015783695
0.3153748777200088
0.01334698867088505
0.02834325612844919
0.0098469372989217
0.01904130841276997
0.01421406666639356
0.009591954890975855
0.02769640976656507
0.05264829708114342
0.01983222230017909
-0.3962479248409457
0.01491872962788462
0.0238585404263258
0.03782364678721373
0.007963135092895441
0.02220555362716598
-0.2597874985840428
0.06264320880562661
0.1779553146400222
0.04394620278713243
0.293155792255876
0.02832382907509164
0.03106662908249207
0.1624536331604892
0.1112507773290259
0.01400271858617404
0.01886976512339997
0.1576461600177853
0.07167702666355449
0.1410812545245309
0.01602058316129936
0.01630240045813177
0.02579012164740411
0.1340559588284805
0.02562608909634483
0.03841555291154942
-0.6773633513301212
0.02367740710583969
0.1407423905756407
0.02789912894624072
0.1164594928568744
0.01132126534302341
0.03031809975677998
-0.378314035646414
-0.008102108341783135
0.05124269679790774
0.02566310417576057
0.03123254917284326
0.009423116893024512
0.01200325900483551
0.01300965949591962
0.01571848312779739
0.0126671408605729
0.01311516706870334
0.03936643218345262
0.01502176616188864
0.04165805744295464
0.03312205141438141
-0.03889706546802678
0.02627552224310258
-0.6548149640568695
0.06077599739130701
0.04721819000043134
0.0103995167711813
0.0156445155957587
0.02848111097049128
-0.7615132369421898
0.03869197771476847
0.008936379668497096
-0.6917944358971081
0.04549299200176637
0.03434366154116214
0.04852399154844679
0.01629255814826341
0.0497669825847231
0.03067524550685103
0.0140447048932861
0.008889242634055329
0.1627518807979282
0.08813310885138839
0.04031297342875422
0.009427068918355711
0.0325843679031686
0.00876342590852771
0.03106126688870939
0.02923886575102685
0.05134603035623513
0.02906879898677283
0.03874799208806622
0.01349362884823094
0.09137097503531301
1.24909033669652
0.02568877862495932
-0.1728298388651826
-0.3689889767930027
-0.02797024397453177
0.06757512324174761
0.008542345341098911
-0.7184377210993507
0.1389521118079876
0.04265189882118783
0.1050610756891346
0.08986708154965564
0.1272778242797618
-0.8592061858724456
0.08053224863624098
0.03822432052051571
0.01878254537511876
0.04655244588680705
0.02072313030055995
-0.6437750740119436
0.07516061080083004
-0.615390070428453
0.06539833145086395
0.2610160761198937
0.04657843530780066
0.04151062764177047
0.2219154211017532
0.002218223984486142
-0.05539339740449624
0.07006210598509034
-0.506080416964492
-0.1274059947041151
0.03278085115296854
0.06600999192807598
0.5462572334314983
0.08892702430622165
0.09678753604824038
0.0571605118173419
-0.001447463361584391
0.03947357202980557
0.03892582694284399
-0.002280209089789037
0.03987199276696156
0.08639944583592596
0.1010494724884869
0.1086320581497044
-0.3887056219014264
0.1003367652377075
0.05159079030455614
0.02113296084663533
0.0310346876516909
0.08685869832759172
0.01611576004535933
0.01926698579717489
0.03456621303711484
0.03392041567167306
-2.712002534086732
0.02534286899411713
0.1230350569040504
0.00677148938656388
0.003291810167048931
0.04042910283875503
0.324962422047061
0.01399463130543075
0.04192818537823253
0.01208723834031557
0.01412378606785559
0.4614855004885707
0.02761923238404896
0.01413437111771459
0.01527618050828321
0.00750926569204061
0.02855687501935628
-0.1919157657350953
0.03516577134928631
0.01280433232674496
0.04286486613736942
0.02301008068185041
0.06451917991362076
0.04272931210698185
0.01544431592505033
0.007289239354100471
0.009129871450420563
0.01326935763135098
0.2528866207379948
-0.6489129785317546
0.01497940279940118
0.01612662703042225
0.015971093253599
0.079864224691384
0.0538630144276141
-0.2520585163604849
0.0643783486762162
0.01526128773887882
0.0273938238722495
0.03613656403633519
0.01800772655859713
0.01789682319590661
0.03736360619421939
-0.2681643474551185
-0.4350505793581774
0.05718854421045465
0.01613049656366481
0.04321582230712945
0.4843074971227087
-0.333574986823909
0.02517885936391681
-0.6932555544730017
-0.0523608891643276
0.05795195745052399
0.03765356106070591
0.03356462011241509
0.2476280028344078
0.002746005318236923
-0.001303780346705989
0.01570442423931142
0.03137431172677425
0.04570418371618298
0.01891977088556241
0.02043910050105336
0.02870751986723841
0.04520955300816958
0.02181774673464763
0.04317532149623304
0.0220169475000078
0.1044733980401484
0.02139391755916122
0.07186628654365665
0.03706937868164496
0.06278802363011297
0.07892755292108294
-0.244768721702891
0.04261486304157713
0.09074871478543692
0.03524387059442423
0.04361091773782767
0.03841909980622363
0.0773072770321102
0.02884965341389064
0.1467132175843161
0.006986048575590347
0.1576860083632988
0.0656845405835442
0.01682094423498055
0.03394330310637394
0.1119220505222682
0.09407761798218336
-0.7907719312736223
0.04711068749679127
0.02394770869199765
-0.2515718554928838
0.174728406676596
0.0261848329469793
0.1200404378527061
0.03654897878280211
0.08668699580563108
0.01492069966603108
0.01809999619473399
0.1358099792843517
0.1022404741394441
0.4502152514147689
0.006765834321891212
0.1004261650925272
0.02613451228284208
0.06491015393771639
0.05349904629145978
-0.0186606744416674
0.04581777012604165
0.03910937653014925
0.01559908125059971
-0.002292391491597012
0.03780566734206795
0.1261493704430731
0.1181296850656515
0.01297338251196952
-0.1356223750972021
-0.01853522354383021
0.1241785026995891
-0.2696672548533613
0.02349682087369248
0.02604378337014316
0.01630116174781485
0.08990909843708589
0.03085731182911772
0.03149064715848196
0.01911399876543439
0.01092272423395091
0.12019876637024
0.04815845354285641
0.01560413836196676
0.1119390220851734
0.05605941190279613
0.04803409449165304
-0.1391032693796179
0.03811155059579366
-0.0220534648670076