/*--------------------------------*- C++ -*----------------------------------*\
| =========                 |                                                 |
| \\      /  F ield         | OpenFOAM: The Open Source CFD Toolbox           |
|  \\    /   O peration     | Version:  v1906                                 |
|   \\  /    A nd           | Web:      www.OpenFOAM.com                      |
|    \\/     M anipulation  |                                                 |
\*---------------------------------------------------------------------------*/
FoamFile
{
    version     2.0;
    format      ascii;
    class       surfaceScalarField;
    location    "1.2";
    object      phi;
}
// * * * * * * * * * * * * * * * * * * * * * * * * * * * * * * * * * * * * * //

dimensions      [0 3 -1 0 0 0 0];
oriented        oriented;


internalField   nonuniform List<scalar> 
153371
(
0.01622280342940662
-0.8086681316901823
-1.44865744481233
2.241102773093574
20.62020418932143
-4.650458502569054
-15.96979604652052
-16.56485114993
8.225814110563279
-13.2891539421549
21.62819098151685
-0.376532109365739
0.9989708224995641
-2.775481638047097
2.153042924935046
-5.161135512020612
0.8038007744248187
52.3699120309828
-48.01257729338974
-18.28088843395369
21.92314191133912
-22.79800531061472
19.15575183325843
0.2265137544999924
-0.01000422401042596
-0.03893696794505945
-0.1775725625706938
-13.90721099788434
-12.08629189505522
25.99143118406966
-0.108473888219886
0.4229016683242524
-0.4552747046018943
0.1408469245089122
16.79807647611514
18.26490103663638
-18.54420308279434
-16.51877442995647
-7.329701964109045
-10.98716323337055
26.07136220554273
-7.754497007784813
10.65046608297563
4.817001056691256
-15.46746713952793
1.594919222686779
2.83918809748966
-1.502129279351906
-2.931978040872187
0.6123587868555349
-1.029787976019558
0.4174291890157519
0.1167728566984787
-0.1661962176603393
0.03064510800814975
0.0187782529293369
-5.077280104237218
16.72654086159834
2.81910160166349
-14.46836235902061
9.381764958330292
28.05625987304859
-20.94257153960146
-16.49545329176254
-10.20058199842869
-24.85643419056665
44.43878114733181
-15.07704854743867
-30.35359453662564
29.13160476039033
16.29903832368069
-11.22867246292104
4.606348751515517
17.04817226009427
-10.42584854855088
0.03781617171933631
-0.6296399943961566
0.8233089104815257
-0.231485087807942
-0.1037347884350555
0.1243164106756859
0.007725952032174477
-0.02830757428990136
-8.937576549054532
-24.34725762628965
21.31473767671553
11.97009649869931
22.75706568401961
-22.15968758313909
0.5014433479480418
-1.098821448809902
6.968275623261278
-2.983168566498395
7.608359510306006
-11.59346656710792
9.649114467934856
0.4399121504444812
-7.42807463063564
-2.660951987717993
-8.922378061336111
7.608942875294004
-3.175431542150406
4.48886672807659
-7.538341482887769
-7.29558244948371
14.83297137657069
44.36530015140509
-10.66545381297539
-22.33345123625077
-11.3663951021705
-11.27700708744122
-5.812728692803772
17.09068097211453
0.1638768452734595
-0.4952553202719481
0.3917578601203902
-0.06037938522003442
-0.1235316533164031
0.8502680597827944
-0.6937604906595451
0.5122431432865789
-0.6090044035475868
0.790521750833818
4.851718448798681
6.943813438248155
-24.12659675229249
12.33106486524719
-14.94165317994508
23.74665501711711
-3.41355427783151
-5.391447559352032
26.58748021380245
-24.15152745733225
9.188317749012358
-11.62427050537697
0.04853378437843542
0.1451321722863108
0.3032922584222553
-0.4969582151810133
1.512360385877716
-14.62438929156158
-14.3130545572259
27.42508346294872
-2.270623940132998
12.37231783776631
7.204382015521417
-17.3060759129313
-10.10394324371296
3.663671428865766
-11.81928806018026
18.25955987508694
-1.432932746447712
-0.1269491507897183
-0.6504238203401428
2.21030571740428
-4.869565331510251
-9.486634267403954
-3.435867686107361
-17.13893633646301
14.56157091822475
-25.46218853807101
28.03955395634494
-1.497959588253734
-0.9600070748794396
20.45185173510961
-17.99388507186679
4.408463622226989
-0.01369896798344044
-19.33641783418933
21.12680774584945
13.41289408951302
-10.79304681824215
-14.9460146615039
29.47766293955339
-14.53982862332595
-14.16212197874133
-9.922105412601496
-1.578670896124256
25.66289828748153
5.336815571403259
-18.78037952928224
-5.077004915973621
18.52056887386815
-17.94827097685887
2.304738395881277
0.3230123806028045
15.3205202003132
9.15420404266807
-4.65095460072123
-10.83980650718657
6.336557065236478
-0.08236942862514163
13.59691118161009
-6.546266129771568
-0.0477197611436003
0.05095252408477571
-0.009456307126826758
0.006223544140016276
7.281047301836964
2.75847855200254
2.525174475869233
-12.56470033001735
-19.60474277192556
18.72188519709368
0.8831931537747416
-0.1347883016822399
-0.02991092915363202
0.346038480753962
-0.181339249955808
-0.8267990520859538
0.3110238702691522
1.130243908143487
-0.6144687264093286
-0.2412446006794253
0.1647209264375379
0.2080884154964902
-0.1315647412761079
-14.13739544666792
17.96387900698641
-2.554403482910935
-1.272080077255783
0.6035400137348843
-0.02417421151159522
-0.08336346633973084
-0.4960023359077057
-4.468750407569078
13.59971604356544
-1.522022760938911
8.274293651247739
16.64861415479566
-3.796100060176576
8.629273176710681
-9.406581042855542
0.653776212900809
-8.332680134916091
15.13499876608926
11.10171605454938
-17.90403468585961
-21.68142430260485
-14.97578923320899
17.05247076389015
-4.710657316167731
15.79375123462329
-23.8896685779746
12.80657465952398
14.85283639094519
-11.62561759824219
-0.3804053393763445
-2.846813453324269
0.08318866626601451
-1.615009622180749
1.578919069897922
-0.04709811407317257
-17.09512440794111
-9.025043569205813
14.7070355676522
11.41313240950212
-0.02926266597235008
0.01453181978882029
9.709404000207192
-20.24418041806819
-8.176333832790307
-0.4860406288291059
-1.406422337693944
0.4287176877709607
1.463745278709012
0.2983020114739745
-0.5487620436309344
0.7682633420434307
-0.5178033100461197
-1.027993672809227
1.347500607021916
-0.3195069342708611
-8.443183961935267
32.56024972595455
-27.42094760851679
3.303881844512742
-0.4601864779025581
0.4925674165641485
0.6084130156958273
-0.6407939544935832
39.66893409564535
-16.63513742521208
0.7795464052255283
-23.81334307564971
23.53763175402052
-16.27740928218334
4.240233057298225
-11.50045552911712
-6.2133222294257
-2.209261869787273
8.862496249592617
-9.715028687640322
5.607296778855742
-6.410053199471334
10.51778510805505
-17.19600586011132
-16.30146887418301
24.55370465938393
8.94377007502869
-3.228023316380992
-15.90781622125621
0.7835520296101828
18.35228750801024
-0.06107187272480157
0.007432032490525889
-0.1233594654492586
0.1769993056506358
-0.5257439492661083
14.45709017656323
-13.93134622723518
-7.761705186933677
-5.755730546487441
-7.813833924629667
21.33126965826256
-5.089629901029322
-16.73131453085827
6.424693972001267
15.39625045989224
0.1598671130896446
-0.2644144881297971
-0.4842688322508933
0.5888162072031229
-0.1207288918016531
0.09702009321101059
0.01727717402512613
0.006431624541739378
13.99460096301883
19.53488020385218
-0.9054723845218214
-32.62400878235042
-10.20189866787069
3.519238153397986
-11.99699856041993
18.6796590751889
-10.15219689649952
7.73714220378264
3.936627455949474
-1.521572763228212
-0.4722644870072584
0.8164732443454388
-0.04590674593910362
-30.54340012446007
25.67702223578538
1.531072956429484
3.335304932275599
20.81115558496466
0.3793863426216678
-24.4185652439678
-17.59130619848355
-25.34297467933931
19.08128949818454
23.85299137969186
16.61739457733677
-19.01149394824712
-17.95618931837331
20.35028868928422
-14.33567362056887
15.42666321667218
19.72016598887116
-26.56216961193399
-1.132258215745658
4.119796849312026
23.57463097837109
1.80023870652023
-3.13275526908122
1.48293679376859
-0.1504202312851285
-3.483633855733492
4.907788788565501
18.21485559289897
-19.63901052572345
1.490391695071146
0.1861330353554174
0.396672212638267
-2.073196943021732
-0.9406972599687681
-1.522487912366798
1.353149828280279
1.110035344050269
8.561815868857042
-8.749053294030505
12.97409087623147
-12.78685345104659
0.2056055767768049
0.04095040789574116
-0.1779821008463742
-0.06857388388504437
-11.22045206978195
2.013651248728662
24.95512938591788
-15.74832856486455
-8.052900726101942
10.60170207744228
-12.91721606337501
10.36841471204402
0.1096617466291023
0.02237969106489773
-0.01408709803371226
-0.1179543397007136
-23.75661390571851
7.421661020095945
-9.018057167174543
25.35301005302372
9.293309504094577
8.776129565536568
-18.06991362649986
-0.01402265706926159
0.05987290885737154
0.0256011844841725
-0.07145143630766111
14.27528556934632
7.291784413743251
-5.893600565649333
-15.67346941724948
4.577170862668951
2.628386197860148
-10.18872562708346
-0.2212261810815749
0.3803629349851442
-0.4221790074018838
0.2630422534651737
0.4079139976336271
0.6839506899744519
-0.2753656036260531
-0.8164990841083253
1.711867541186544
2.122130552806131
-2.720779922893361
-1.113218170940407
-0.02195954399380762
0.002467112225862509
-0.02641181823181519
0.04590424997444937
9.078018452646955
-7.305959854288299
7.521250905737676
-27.40576172702733
1.955062717508949
24.24193288809313
1.208766121400893
1.078695667060946
-3.566905370684502
-1.019126047187773
3.507335751088861
1.467203181686509
6.95893023094037
1.297168905800051
-9.723302317867752
7.35144930868332
19.97986064486084
-43.20662373560585
15.87531378206642
3.200583574709913
-19.43122578930278
-4.166166641518045
-0.1090697762424355
0.1260681536788413
-0.1097801192569185
0.09278174178266294
16.38122748563516
-12.79584173584818
-3.133377035259701
-0.4520087145233291
14.72286813100841
-17.59673905027908
-6.345339317387777
9.219210236978377
9.119138953847516
-23.36971934934605
14.85695899380673
-0.6063785983081424
-12.71795122326101
-10.77134405325362
-15.57477191442294
39.06406719093757
9.214707543880817
-11.83691289200647
28.13016611725659
-25.50796076912248
19.29808689629931
-8.679852038636596
-8.238902493139237
-2.379332364459729
-0.8902944191181359
1.973753171677505
-2.781489220278438
1.698030467890082
0.5944959418500992
-0.07523532544527299
0.09672330875228284
-0.6159839251722496
18.88989889003952
-18.96776687127234
-0.8284135018533134
0.9062814831298611
-20.35624546119276
9.280155481904911
11.07608997930682
4.299029354047513
10.52863902209356
4.57695430851716
-19.40462268478371
4.820648889963792
6.967516115893342
8.371963094232173
-18.93542635812912
28.5947536797609
-5.703149008899703
-3.956178312721281
-0.01014354274825681
-0.1621844792640482
0.1385767022526708
0.03375131971087186
9.431845203018582
-16.67430060713734
-1.057625305374161
8.300080709519339
-1.891564493169238
29.90359756377285
-2.920509497965156
-25.09152357262128
27.32152035112533
-27.16976007089061
-3.799587064977858
3.647826784751791
2.093264634659861
-4.63135556237648
-1.992331396055849
4.530422324008121
-15.57415200260632
-9.507629001550793
10.23879347837026
14.84298752579644
-0.1813260989286118
0.1324304272841224
-0.4233688154307262
-0.1412790198306058
-12.27803867858137
12.4184155677856
27.85654740161856
3.222024580525622
-10.75480446186011
-20.32376752028176
0.07764391203914758
-0.07583161998550769
-0.1653940371200134
0.1635817450345281
0.1678879836251263
0.01160695892763014
-0.1802359582145853
0.0007410156031091495
-31.88127222372758
-0.3377701073203053
33.51473719581792
-1.295694864504402
12.32118660170893
-6.316028357643683
-4.655470721192183
-1.349687522857453
37.07921351512571
-25.53872632805031
-34.5239759317462
22.98348874471742
-4.250094597829883
-22.44945357020933
2.74282162178696
23.95672654672007
0.1640711340286834
-28.60534831962044
-1.044933416079908
29.48621060170239
-17.01338156607853
12.90034449083633
-14.10339658909245
18.21643366436416
-21.5925550574592
-16.49677707618367
10.12672134263835
27.96261079098991
-20.78802325865895
-6.608612446826627
14.14877680457005
13.24785890097239
-16.11947721874116
13.55575737518639
6.848906525520998
-4.28518668204656
18.5947793173336
14.13206835311458
3.010742882110904
-35.73759055255008
13.9358310937547
0.3551796943989971
-17.24351549667697
2.952504708596511
-20.22584730836365
-6.316216243763821
28.08153440018778
-1.539470847910131
0.213988936086123
0.4021037632834279
-0.1597559231277649
-0.456336776299841
-22.19030946777535
15.41435694771728
9.943634858608588
-3.167682338527662
-8.107860438500728
6.903033655276733
-8.02449363665526
9.229320419974638
20.097053206273
-25.67815288834312
12.0345527019622
-6.453453019577047
22.83534380739809
-22.06731522186285
-15.38094935477112
14.61292076924173
0.3914634383020857
6.646755211745174
-23.83957508651481
16.80135643647609
6.19902125531096
-8.32202853080957
-16.82212434304883
18.94513161855338
-22.64044878285486
2.170798030372635
20.07374195237458
0.395908800091717
-6.756734410134786
-11.48843374193461
25.64240303055288
-7.397234878479678
11.48930830084273
-20.38047681622952
9.052207483293399
-0.1610389679094778
-29.00009827588824
-16.9638041795426
16.95197221929227
29.01193023616332
-21.77882044033631
7.073627580958581
0.5961646188852999
14.10902824049689
13.88238280835266
-21.00726205581557
-20.28088247961252
14.58512836321618
-17.50087019042762
2.916590251045222
-0.0881756028853057
0.7100785365797564
-0.05832814455656944
0.4570513402976292
0.03300690268539683
-0.4317300984466605
-11.08491169147917
16.29856544822304
-9.215367289944338
4.001713533202657
13.57830309035119
-18.67465018196279
14.91364800079343
-9.817300909155819
-21.85011649878338
30.72987872241861
-24.91591586395878
16.03615364035915
23.17861930612975
7.009367225103125
-27.70103222740252
-2.486954303831297
-23.26487744231734
11.40027416200682
10.94020722417002
0.9243960561419997
21.60668362934777
5.178679913219851
-2.016782533808145
-24.76858100880658
-0.4563879281971452
-2.190837505149209
3.725921100570525
-0.02076253003840522
0.1079732854593267
-0.09666677262610467
0.009456017165062005
-16.79620575768616
-3.726055552014663
12.20559478958115
8.31666652013117
1.399059501921957
-2.674665432199504
0.3853115112816912
31.04481659430907
-9.170155461662317
-0.9227051109510317
-20.95195602165662
-1.325093141525525
5.204657300309251
0.05857716589796545
-0.6399140753224856
0.3464002195801237
0.2349366897520303
-2.96671774850366
17.55270597371842
-0.01698955418437679
0.05522641524827521
0.09279811152029047
-0.1310349726568826
11.36522746071991
6.660605304724823
-18.89658920124345
0.8707564359950015
-1.440051294841776
1.922174146288632
2.210213743649299
-2.692336594884524
-17.51237573289619
-3.568889201884767
21.0816762803804
-0.02825503539055893
0.009383756840453523
0.1143762772921811
-0.09550499877348177
10.3209464721062
-4.160095274637281
6.499598208273096
-12.66044940573184
0.2196487110142711
21.46826869325884
-19.31700571420277
-2.37091169004594
-0.4963812435500274
0.07527983240559985
-0.8978710538523323
1.318972464891989
-9.689289501173867
-9.552706773472979
1.004857564133595
-10.10663720165438
9.081548934408469
0.0202307033821432
6.178722994461564
-7.814874361251992
0.2434527918123561
-0.2776097186272796
-0.03403645734766802
0.06819338410172246
-0.1015867920160592
13.08303809839629
-27.28281056901954
14.30135926269559
6.989962684778661
-16.30723576814219
-9.497164923811813
18.81443800736776
-14.69514235801101
-2.095048842392252
16.78969588013254
-17.15347035773114
26.89391541958463
-9.740957481350291
36.6680971701081
-9.096785569152807
-16.74927894024752
-10.82203266069993
-2.319831412049199
0.464793582632635
-0.02435072083226546
-0.04532848729254458
-0.1018767024182854
0.1715559105015064
0.02134989454147674
-0.09577685441776757
-0.04630193193706271
-11.30062332640559
-10.41518127374251
21.7143961173361
24.59210103874249
-10.46832292382587
-0.2413953065720653
13.54068315769444
11.3488063739754
2.627447275914023
-27.51693680756764
1.754702219358864
-5.795634574009373
2.277927683454406
1.763004670977634
0.05795071651453497
0.1131540193126029
-0.07408464263939907
-0.1364829915802745
0.01384046485284415
0.1398844504280778
-0.01724192372756867
-20.93807770215621
8.142126406515377
6.583222898177858
6.212728397702829
29.21841856190428
-20.03790239448854
18.46865438986956
-27.64917055730401
4.427011935796728
4.837861044546365
14.40734315842301
-23.67221613877627
0.1386833612454235
-0.1206262223838785
-0.0007799648569592773
13.1128891101492
-16.19476740352211
-23.76965291613575
26.8515312092822
-0.1479781332510882
0.1265421911058217
0.07707722120964444
-0.0556412790992157
0.2190336003448458
-0.08835780121354599
0.03404512729488873
0.5523258499448581
-0.6991215383884318
0.1914533245021624
-0.04465763609377068
-19.97764058342594
0.001452414168808913
19.97569055450911
-23.79877115592095
23.96268490243992
5.825616254652697
-5.989530001188179
-21.0262651281498
3.671849208434186
7.164225882167392
10.19019003771081
-1.553978666254578
26.58315960216795
-10.70527071066353
-14.32391022500269
-1.80104865836409
12.29721067961904
8.296633814003307
-18.79279583520079
-7.840268399337755
-12.41898905378338
2.357946236385374
17.90131121687812
-1.553971047834439
-0.9980172549343805
2.09560037478371
2.289774505055548
-2.216856556316342
-3.682931265603089
3.610013316743899
-0.1415137896736467
-17.28737820663941
2.525627116919544
14.9032648793571
5.844499718137498
-27.41842019351129
-2.277258963456849
23.85117943883452
-0.2195843681852379
-0.9223366234160407
0.9982043530120074
0.1437166384122621
0.01982863012240068
-19.99791522906798
10.46054759704292
0.7847403118794566
-15.84511826677983
4.599830357841981
35.21975379185535
-9.094948202412903
-46.46873824816233
20.34393265873194
-7.246098905997134
-4.339920264299195
32.36485698555462
-20.77883781525815
0.4097406011083529
0.002561424256805296
-0.5021097092303205
0.08980768387327671
-0.0120943512768196
0.6601612301686669
-0.09149366016058763
-0.5565732188548558
0.2404447748240321
-0.01255149425429029
0.1993413641648695
-0.4272346447896159
1.330352549623682
-1.174686216008525
0.513651673074683
-2.063914874673282
2.724949417781212
21.4359329901905
5.084466232390834
-4.452584872036315
-22.06781435030048
-23.05727252656207
14.84943149335602
6.139059904072017
2.068781129127917
0.05891214883548073
-0.3133845578929516
0.1130019793659252
0.1414704296401068
-3.593753167328309
-21.72316056703588
22.59813397355578
2.718779760842792
-0.9484292586506906
-0.6522411848006334
0.1724674492091657
1.428202994233787
0.5186268743842126
0.2453597313617093
-0.5234231794719477
-0.240563426311921
-33.11923949497244
-1.709875733332705
8.331411990082943
26.49770323810234
-24.37446977424192
3.869978642012176
-12.61474836276427
-14.31003783406693
0.8936222206990839
-5.736097989586239
0.4273798963954396
-0.1790525768475796
0.370218001930078
-0.6185453215350064
-18.44992500436792
-8.671285906542289
14.00093006854592
13.12028084248771
-1.203298422357544
-9.614266839615439
10.81756526228016
-0.6793734435502347
-2.720580303623198
1.115242509245395
2.284711237291735
-0.2543196628976854
0.5935239563927786
0.8088203207216207
-0.5485571839119018
0.2057794867570719
-0.46604262359099
-10.0939067274451
-20.38809150662426
9.769605659169509
-16.21002104153308
-1.054658785011614
30.44751059266735
-13.18283076611745
-15.44606640823808
15.93854288138221
-0.4936734053241559
0.03833793911681745
0.1629764130220929
0.04557354892917625
-0.2468879011341944
-0.1311123017190147
0.04291094916152252
0.108460847201361
-0.02025949467940358
0.06764498569611811
-0.1199000935536649
0.03410408411035892
0.01815102371470712
-0.495191482043719
-0.09837330507455894
0.10001914037589
0.4935456465753408
5.398042489946568
23.76912059940009
-21.51447710499765
-7.652685984279837
-0.08562474209342621
0.592920901670525
-0.8754952668746382
0.3681991072264962
0.05107318048371692
-28.53434871721006
25.79230293205746
2.690972604704696
0.2974496297099701
-0.6145162781314036
-2.150144003469452
2.467210651781512
-0.03609456982274312
-0.2277728472530048
0.3789232527188713
-0.1150558356843896
-4.15622524905823
-12.63528186262271
-1.654868296849417
18.44637540866313
-0.05497864978570782
-0.05103764239329392
-0.007213571937461007
0.1132298640931979
2.399245549765523
-0.3946937674187165
12.56705875368197
-14.57161053602741
24.21230008704918
-0.1884684085845554
-5.30334956839874
-18.72048211001209
15.51875265243049
-3.141756720351696
-1.415122623792354
-10.96187330831859
-15.87260801020255
-0.1812580934720044
-5.627558198923982
0.2706620243323127
-0.06814776090905919
-0.03422711183386826
0.0184297277861351
0.08394514493007925
-6.977394005221574
-3.224978122712749
10.77036412504835
-0.5679919966979821
-6.595320104222118
5.853261416013524
-0.9640602556998649
-4.92135321845739
-0.7099066301173602
16.45618879351405
-18.38721591014886
-24.63114249529684
-3.052848401413542
7.213371170490908
0.03281234366532102
0.03568594310585279
-0.02783520354461826
-0.04066308325266972
11.79160919200432
1.860885217968778
-15.05769296204176
1.405198552163345
-0.4975351887618312
0.4491602033713982
0.2994008936317569
-0.2510259082928292
-0.01473665809600755
-0.07304942656942151
-0.0004245568281545066
0.08821064147369562
5.889562331300279
-0.2024976238953546
-25.41019172684312
-0.5858710610336096
0.6775089310422611
25.31855385683994
0.8962860750885296
-0.9467524199663336
-0.326417854125364
0.3768841989564584
-13.11682344769399
0.221451256435017
12.89558998357487
-14.55427612847838
15.03564597215414
-12.70043781783033
12.21906797416038
-0.02828629628348957
-0.3685593255763934
0.5579191104881639
-0.1610734887222376
-0.8124771863104777
-7.698640522105803
3.730170923523154
-2.53692175021893
2.544055351421911
-3.737304524732021
0.3934220247362695
-0.3776820891909288
-0.1353483354904784
0.1196083998664267
-18.25877874323995
17.09536817844313
-17.05972262788512
18.22313319287158
-0.1273170618650604
0.03072203431989825
0.01719051088586233
0.07940451662838598
-1.728474507876408
0.2444573648157237
1.458229853677061
0.02578728941349866
-0.03520862476324495
-0.08427412875130154
0.02477524820788077
0.0947075052643767
6.237591382656987
-11.03727981541273
-6.396661891835305
22.85236052304242
-0.02059651457740964
0.1122205500441998
-0.1418334802007662
0.05020944470664176
-19.34344356334435
-3.465099912969685
6.598522434782263
-0.321043602677675
-0.1497201642194528
1.154714456749726
0.03312309224218669
-0.1029518220208326
0.01335060349633759
0.05647812623040378
0.111092167481895
-0.29795623482645
-0.1564834532984954
0.343347520603189
-14.24880488283392
-0.3058568989968114
13.00318955097851
-24.87189252967411
25.29493283203516
-13.42622985357809
-3.372756424573002
7.962470878935224
13.09596197759006
-17.6856764320534
1.962015188188833
-0.9871880179933713
-0.2429438155099079
-0.7318833547185849
-0.4346274027306753
18.54245091283101
-18.10838955134382
18.95668247870218
13.24561957076487
-21.8276913730384
-10.37461067641982
-38.06221296298062
0.06987528630455192
20.92196981976328
17.07036785692346
4.405929085809319
-30.7176004580762
-1.871098107921669
28.18276948020112
15.70145870960912
-19.45151166928516
11.04778194757498
-7.29772898789159
0.3370887670892145
-0.7915069476364254
-0.6605163611098566
0.1796827388537168
0.3271164101201157
0.1537172120181639
8.742936442485041
21.03385211238396
-27.24682683969969
-2.529961715151404
29.21142465630681
-25.17440434829645
0.3689087778057609
-1.262639835184522
-0.08444057410422552
-1.373699513528734
27.80581705923192
-13.26474831028381
3.66774077754585
-18.20880952637561
0.2208048911281577
0.3532066395309089
-1.135731958456302
0.5617204277139768
0.4412269508750851
-0.1233703356054296
0.0961438384296978
-0.4140004537243541
-0.1246006992767155
-14.35569724609415
-10.75017681703367
25.23047476250936
17.65463350222415
21.90141438868781
-22.27511110554851
-17.28093678535105
0.8221622454187252
-2.176108578572377
-0.9658850787812024
16.75367945175165
0.9005279825942178
0.1501802160473453
-0.006657981152431966
-0.08316029954719346
-0.06036193537889904
-8.545170946766049
3.958806189891736
1.533516355557228
3.205594302143799
-4.791835018334345
-13.38463353121501
-2.605959072839503
18.28487068079298
-2.294278076736861
-26.79318621748276
23.42914863975318
-30.65586286846714
34.01990044622107
-0.2109745909968312
1.515133030155053
-2.094692383698582
0.7905339444430232
11.85690996128357
-5.760556395465397
21.20438972791095
-18.58192577238769
-29.64651359390569
27.02404963834628
1.844103505458237
14.08679790029464
-10.87007770804079
-5.060823697709909
0.08429398851151201
-0.05259836520236058
0.01267803112606047
-0.04437365448942662
2.798594831454633
1.388134603387135
-1.424988741419729
-2.761740693615555
-7.690945424286101
-7.461704440130354
15.15198652429346
-11.66007509445834
-5.957072955159722
-2.601944457184394
20.21909250681615
-2.385371854341683
1.021100994624092
1.114921584771473
0.2493492748441184
11.25218392807041
-13.51570900528175
13.94460528074854
-11.68108020352548
-0.5371081120037372
0.5337371811246149
0.09603623851765282
-0.0926653077328108
-20.18684493862424
11.56725621101396
5.857659481898686
2.761929245646884
0.0215462517528094
-0.2902835861614281
-0.3603714186811857
0.6291087530746335
0.007918187629800844
-0.1236473770816355
0.03368609052102899
0.08204309890990127
-4.962728527394321
20.56455687976536
3.254154677257542
-18.85598302964488
-0.1494671405167061
0.2157656132004456
-0.009728747629017667
-0.05656972509136125
-17.01432172470648
12.54641155277353
-5.144635604672414
9.612545776481522
-0.2345218150775941
0.1229807906152653
0.1675221716894351
-0.05598114726882059
-9.906589448778643
0.7893361408840208
12.23016955998559
-3.112916252146786
1.046798969767934
0.9981659558671373
-7.253903587737672
5.208938662111966
0.3492018582116291
0.07183312494704289
-0.4162827577994098
-0.004752225394076746
2.460551150375879
-5.919115499965341
0.01651421605139906
0.5529609652060886
-0.494451512112719
-0.07502366917975524
0.1160036342250276
0.08181497953850064
-0.1540985995408713
-0.04372001427155992
-13.23742706020316
1.665237883301796
3.01827281149226
-0.9795076000107438
-3.704003095128698
0.009832251766511837
-0.3917528292818946
0.7150843237817351
-0.3331637464486199
-17.67207078806335
29.31879093829684
-10.17405225901679
-1.472667891195123
-0.9015112964731054
-0.5268970993961607
3.163692266598776
-1.735283871090773
-0.7675647735968295
0.6938303773811365
-0.6027033094375579
0.6764377055129495
7.062953831038197
1.20528239085351
-7.22143725216791
-19.5210898855721
-12.21604375856859
16.89256694548523
14.84456669867098
-1.71598078590592
-0.05051096282737554
0.3270925439252907
-0.3179573396101864
0.04137575845020667
8.158294744631766
17.77429311621527
-37.31399254795812
11.38140468711602
4.989125935063291
-3.328459172970755
-0.003686701497524948
-0.1088251776090347
-0.01334768560216863
0.1258595646641243
0.6259695076145601
-1.989314454845281
0.4212376676578714
0.9421072794489674
-26.03639647029796
14.3783006150505
28.41177530701057
-0.01460091618691649
0.061992614208434
-0.07901566788885844
0.03162396984283188
0.006991593604628498
-0.1344472466930625
0.1193197374139009
0.00813591563927679
-0.01988038911964037
0.009158039322179524
0.01072234977281824
-9.166353593261064
0.3076734461839408
13.84780608221336
13.77405443708478
-0.9993986999351875
4.730339448357624
-17.50499518531829
-13.88288965284657
-3.61755296522133
-0.03236365056403495
0.1568345483451971
-0.1184266861920319
-0.006044211614580331
24.20733207827617
-23.65584717454045
-3.518202652236877
-0.07251652049640715
0.07229424843111264
-0.03320266425125125
0.03342493630240419
8.009087347392576
-13.57734859871335
23.76361355059288
-18.19535229896014
-0.2384290525159995
-0.2310471298957291
0.4586503465581107
0.01082583578487398
0.7395669935104926
0.07358369383378316
-0.03774386945994511
-0.7754068179417386
-0.1577271763852017
0.07397059168305092
0.08021404191519241
0.003542542755297811
0.0204353655823604
-0.04148064873872684
0.2400788834832239
-0.1872156487616096
-0.5280199056869218
0.03294497732637781
0.6822905770624705
6.806286713096156
15.06481656338636
-14.13349749433728
-7.737605782164948
1.575851381260691
-7.55507943053529
0.3057219604600115
-0.154113511099241
0.1167474270595831
-0.2683558764874519
0.003606349304565331
0.07088163351440754
-0.06634702544580814
-0.008140957419266926
0.04135880315755658
0.02552915513514885
-0.06688795831687884
-15.80043874403004
6.970480745184081
15.45717902724513
-6.627221028367437
-0.1105753680661964
-0.002017609232693555
0.09659360439462225
0.01599937287244192
4.270623001648765
-21.7825707048437
-0.08092724331158944
-0.5339459448322942
0.3605535252432065
0.06668979023409168
-0.04323101019909355
-0.1107675286041839
0.08730874853015716
23.13507650812817
2.759338043104128
-18.85857737578635
-7.035837175436464
-0.06049681926455048
0.06335946417966665
-0.002862644942336461
-1.936300212531534
-1.159133095960873
0.06613883556902563
3.029294473167485
-20.04031380459871
19.33852323794737
0.7017905666889821
-0.1627612768367992
0.03904666285981043
0.09395242141913025
0.02976219252558
-6.839133980165141
-0.5859106673249053
-13.51303305452608
17.89437228975363
-14.7382135044251
-15.20414884013671
12.04799005503723
0.06110962044607841
0.4306767642812553
-0.05900991656349903
-0.4327764682222567
0.08465928034619312
0.02255563934661314
-0.07503085487056878
-0.03218406487208995
-0.1531930613972246
-0.4907763777377638
0.4368790496366868
0.2070903894470228
0.0573026651679756
-0.02959921150293762
0.07646041956653928
-0.1041638732635368
-0.1163649683503206
-0.2341086956858829
0.4615658314948761
0.1258241031962156
-0.5823276968945751
0.4848810140902108
-0.02837742051627488
-0.3073108297839799
-0.2392857807011523
0.4000134776542909
0.1465831327738287
10.77362621569262
0.7820523142170387
-5.738006636056223
-5.817671893906907
0.02577214849586544
0.1708619292525805
19.0059926505859
-18.388215257242
23.11408707131424
-23.73186446465274
-6.079639243169715
-12.15595114915872
1.550550710901136
16.68503968146915
0.1601387081512516
-0.09322587989799504
-0.09014294243030505
0.02323011413302517
0.2956561561018221
-0.009917361208917477
-0.03175894513614236
-0.462597748868634
0.538273906768989
-0.0439172128229128
-0.2498622691930698
-13.09574042571637
13.3449030568932
0.1974427955326321
-0.2228957971941586
-0.1538396689650795