/*--------------------------------*- C++ -*----------------------------------*\
| =========                 |                                                 |
| \\      /  F ield         | OpenFOAM: The Open Source CFD Toolbox           |
|  \\    /   O peration     | Version:  v1906                                 |
|   \\  /    A nd           | Web:      www.OpenFOAM.com                      |
|    \\/     M anipulation  |                                                 |
\*---------------------------------------------------------------------------*/
FoamFile
{
    version     2.0;
    format      ascii;
    class       volScalarField;
    location    "1.5";
    object      p;
}
// * * * * * * * * * * * * * * * * * * * * * * * * * * * * * * * * * * * * * //

dimensions      [0 2 -2 0 0 0 0];


internalField   nonuniform List<scalar> 
19631
(
0.05008985944113165
0.02992639491317781
0.3097071704466934
0.760838005696611
0.2196379298200919
-0.3711098235649288
0.1786351403559462
-0.7326931244703565
-0.5330647495064192
0.07570781570295308
0.3951849551289758
-0.1369656065473928
0.6379737318997143
-0.1216704601865617
0.04547658466048997
-0.7896457037234195
-0.2472851634510863
-0.3988566520585365
-0.5201241332758685
-0.7198545158924574
0.1618687122945235
-0.0777008537904688
2.364748327608228
0.1421620031554258
-0.1310245539573794
-0.3806316246117276
-0.1122168042590386
-0.6302939474991288
0.1539800165505597
0.04292954150626129
-0.07081711243927312
-0.09518191962609202
-0.06157225382555198
0.1587814395552631
1.746630167444694
3.750424645506412
0.05841427468211458
0.2822718367537953
-0.2847927779435818
-0.8701350522018393
-1.177255576209278
0.1873121662145543
0.009516388361670803
0.1885658335244033
-0.2588064156508529
-0.1109061262174799
0.07421022779196916
0.1742350011979209
0.04524103527837823
-0.1642950749647491
0.06460535591788648
0.004923752783911146
-0.1520502999787847
0.09683533338054467
0.1295117338258951
-0.0191091532171313
-0.2850793904998949
-0.263286595142027
-0.8989611603300677
0.1664136901927827
0.02411531447030574
-0.4646345811290979
0.3606916467742214
0.07323463926699877
0.0420808354685031
-0.373481577295721
-0.06541173365397063
-0.1044505534494911
0.676294420634839
0.09493268775823134
0.1105123877040981
1.411563614842754
0.3317587630371811
-0.1188041545662248
-0.173722862712611
0.3965613790965019
0.2202050927193717
0.246284342934881
1.671823410529601
1.705660746789649
0.1964161530474382
0.1401167363581963
0.6484430433372822
-0.1286469563594031
-0.2270982026303814
0.5138533707939681
-0.1880550915094975
0.3355705863135009
-0.2367116304256693
0.111691884467147
-0.2787410627771346
-0.02394915592693995
-0.07823550989019067
-0.165512109822164
-0.4291823418473819
-1.36954236311843
0.9157479728590612
-0.05127696201531069
0.01987664770837916
-0.1033038196343657
-0.128363193537101
-0.2337810284778659
-0.3076620432990979
0.1022744528369355
-0.1509768153874174
-0.01199928658081776
-0.8351790545112227
-0.1830355487640444
-0.1886057105591365
0.07579654739743782
0.2924257748785702
-0.2687056657954333
-0.1919380826966577
0.8300378064555998
0.01462202449348499
-0.2880899025861097
-0.4874499519342463
-0.1051015782667246
-0.7114268028817325
-0.1425397438933426
-0.1311717950137157
-0.1209979093347621
-0.1276160416237296
-0.5723789659110952
-0.08310042051530706
0.002089690745367254
0.540110375766258
-0.1577679117441365
0.08939796902217721
0.6637214813218656
0.08945518864947288
0.1745548532503049
-0.1268469672917424
-0.5212933612476739
0.251340409292422
-1.50525231756617
-0.5292532538346395
-0.4933458196905434
-0.7933831956801232
-0.01383029437473702
-0.6424079977093603
-8.514682255839674
0.6606131262247055
0.06534280542167391
-0.1066288727529753
-1.399701792174034
0.05329663771421911
0.02213500802632663
0.1853777127136895
-0.04812574904439031
-0.1707735237255466
-0.07147156743301443
-0.1382772423296485
-0.1095468280670294
-0.08638949065670674
0.01106195521430508
0.1867227364689726
0.2372242125480515
-0.2700072948326178
0.3546399088212121
-0.08007058088936184
-0.2035693088624295
-0.0838056570444259
-0.1589222595995073
0.001149958661386678
-0.4104950656498335
-0.1737841361373904
0.04534443081469882
-0.7175782455082057
0.06351589654557907
-0.2036107000725111
-0.06890484702648639
-0.2077260782677992
-0.1313778146572612
-0.09224199195282441
-0.2844775230964407
0.00786874926423285
-0.1549513436696784
0.09516124556130098
-0.5750624000587846
-0.1507379137941786
0.1796210327648363
0.2084392032645243
0.5956346970604329
0.08013221115143095
-0.05642240428058331
-0.1138873831741536
-0.1720481355514241
-0.05810713274750669
-0.04817036783735875
-0.118191697371351
0.485753168368422
0.3641053570191131
0.08784224465436602
-0.1878220968280528
1.123814148906692
-0.160114224266784
0.2373271567628919
0.6151522622834442
0.5578419330406665
-0.1371737462885364
-0.1385783439424386
0.1823392833980339
-0.09877050786451221
-0.02915543033111099
-0.0974804962361716
-0.1465626291861348
-0.1165665963073245
-0.1290153730143481
-0.1533577608489658
0.4016522034281638
-0.1231632719249122
-1.651259967863783
0.1682539822214
0.06398095853487104
-0.4350469997853678
0.07769338196901263
0.111842859425586
0.102419957386223
-0.7347736736479381
0.1165892431965159
0.126873119802901
0.585373520911732
0.08477386358531433
0.09160756470249443
0.3694218685214019
0.1132389825746709
0.07654402086504554
-0.4802608447853213
-0.02232262419385119
0.4079044732606478
-0.2096970932223652
-0.4497064902726193
0.003952545319041286
-0.4230760345311909
-0.2114365058481755
0.8666691386820288
-0.5174047742662726
0.7081635319894429
-0.5025456549282215
0.3905725827952329
-0.4461250168962467
-0.03523695564168768
-0.5219349676885113
0.1941076756667107
1.058960482091231
0.1484048266279876
0.133336219693311
-0.5296523923191692
0.1263708991686261
-0.2426979811853148
-0.2757861326056101
0.39254177855439
-0.243584982694948
0.08986890429153221
1.437301461765994
-0.3824859143081994
-0.2817005937313333
-0.6106696136236373
0.08157983352715285
0.356611345281152
-0.5738378996036053
-0.2332578557046655
0.6229384685641148
0.2281852760394417
0.2206259227220483
0.3319954122051529
-0.156120661029844
0.04034085184727566
-1.453494905398867
-0.7044723787372307
0.2457812280484899
-0.1010442996214921
0.1102428726644244
-0.6474309184276243
-0.1052336444390743
0.3638210236180101
0.1889422122754325
-0.8364808817667101
0.08413288277635858
0.1100371684417658
0.17055621177862
0.4591973207411186
0.7958328086567337
-0.003108048295278064
-0.4103484822036149
0.973841192317346
0.02212987555549181
-0.03571295002092331
-0.5396275549565256
-0.3057483697239815
0.3831437155928392
0.2615972701017588
1.973486460775934
-0.164886899733162
0.06965902902646173
-0.2225057632975689
0.2872754428499076
0.4390591853731231
0.5619372539144025
-0.3781419438767027
-0.3937883691736243
-0.04989571653321088
1.524736265317875
0.464415780201037
0.07158877550960679
-0.1904168677353822
-0.2136997218646726
0.1038149047406829
0.9672416969494044
1.764559172130016
0.05568404324299105
0.1520354572593544
0.401602551101431
0.06720167574430032
-0.5150264346442155
-0.4076762108292942
-0.1996952161934213
-0.2344182330953031
0.1694721998097915
-0.3825035912460196
-0.2321939769775129
0.3587984841631132
-0.3190097557275799
0.37185170024616
0.1135605616711678
0.3317948782782354
0.2474214333284742
0.166271103771189
0.04887927289068686
-0.314486463280638
-1.465329298346593
-0.03315975932985867
-0.2280433869370138
0.7577972347052333
-0.07066319978648422
0.04704121662994488
-0.2120954451104271
-0.940275452031137
0.05520644135350053
1.647486952786976
-0.07306540158389117
0.1467518911107905
-0.6873838528318656
-0.08400304031962272
0.148487544438169
-0.3809459853564289
-0.1054793323811623
0.1656530937322325
0.2872269451838954
-0.07820920338773994
0.07035993807744068
-0.9563059590792297
-0.2811152543728615
0.03162480524806754
-0.111694207647478
0.06291070976839074
-0.3301620407967281
0.4203646211526414
-0.28924017841936
-0.2511637604769982
0.3724261217527263
-0.5835504794215554
-0.7333316052704154
0.1880081306751194
-0.7726082479445245
0.2313745741976173
-0.2218279958374248
-0.6097967974617292
0.5476083206152527
-0.07192754509071496
-0.04099813824932436
0.389290278921068
0.178975263717616
-0.601343736076329
-2.613275456169343
0.01756092322326725
-0.01349648659972382
0.8305523691074779
0.3565266867121636
-1.049983721117764
-0.1172897246444568
-0.402394525505604
0.003425548997041204
0.3552996605410548
-0.3514900437576409
-0.8309418974730395
-0.822294434226324
0.04675610321192714
0.1217430648511934
0.2466740960865933
0.2568858286347799
0.1487702170904905
0.4699796149822211
0.15385305187072
0.2049985788398889
0.07535366101292304
-0.3033278838803952
0.05921913922122173
-0.439858331384924
0.6122660592761654
-0.09222591437649501
0.66482434157723
-0.1175314984385515
-0.2516988561915722
0.07150031891587491
0.2966856535430917
0.0894857123224502
0.3199796778906099
0.2363967124643586
0.1325250680387172
0.8403551287837998
0.204363111883252
0.5906771985895196
0.03230455163879532
0.145139565434032
-0.6357033814736368
-0.2092086234680442
0.1163234249263996
-0.09197643726357793
9.205776975642546
0.1068468260260624
0.06484931877293246
-0.8379759240024038
-0.05283334553115428
-0.3406758690499652
-0.8821838585255927
0.4040574781965108
-0.2294209440513514
0.05190116992386584
0.07241277884432483
-0.3814890244287499
0.4365451858652489
-0.0009091048270819769
-1.027300214306507
0.2251170599818972
-0.2912382784337134
0.4248432961370976
0.03522357032560579
-0.1902465491709389
0.4735407444274591
-0.563582303886795
-0.1265186377309484
-0.5540529666524415
-0.6569072524625384
0.9819649376065779
-0.6226359207311449
-0.6118502883963611
-0.4918988254062474
-0.2798190773244148
0.2518266675182991
0.2292648256532283
0.7233827360502845
-0.1827601126178771
0.1422344060461139
0.3047455944844937
0.7362992459828458
0.3134339590988655
1.409491929604322
0.006032149760782429
-0.1076711622935425
-0.2892993896705599
-0.8150922944842545
0.07171426396075288
-0.4991794084433546
-0.3612094115462874
-0.1428424570724565
-0.7416783470595028
1.093143229589649
1.020619452933246
0.09183632527717921
-0.253955787968338
0.2947264192952823
0.8318548184123578
0.4096639563672221
0.1205113264325793
0.2627511224142425
-0.6323207129616335
-0.005996217752761741
-0.3970983987741357
-0.6853031464408588
0.8380806362276513
0.155169572180675
-0.3706284368826621
2.026163776332529
0.3107260064945956
0.316873245797839
-0.2002387384998458
-0.03825605926682393
-0.8565353961086812
0.2460363630212885
0.1593035787319354
0.4333689414754763
-0.2183653044010044
-0.69625725274596
-0.3823447349641179
0.1925962672233991
0.1134101875153251
0.4850697995558318
-0.8080377767986053
0.03217680497855684
-0.130710163137949
0.918820266863101
0.319077801245882
0.7991848651181681
-0.06557251694402813
0.1941236876498253
-2.088156532391553
0.05502881542499011
0.08831448899350185
-0.2120903857944002
0.5456155730047265
0.1431296566525565
0.07039181097586668
0.07571601422550818
0.2082871446615117
0.1057886868832622
0.0432379703780881
-0.4863553893600244
-0.5127326223000597
-0.03983443049657422
0.1272128600317389
-1.376185911815305
0.1848306637303079
-0.4844740130336108
-0.602874322333539
-0.119542464458016
-0.4312063404801144
0.1309762984795183
0.5824911534545527
-2.87229270675468
1.351758557733157
2.68481400865539
-0.1334977521452622
-0.2887903148328217
-0.2390240227988286
-0.1031548724895394
0.4104038567367554
-0.2228353668908232
-0.30741094076463
0.1664462473814233
0.5034052058835512
-0.1917871744476727
0.1509084505870152
0.2799959706362834
-0.1693525721333059
-0.1905399756401088
-0.2574466023956589
-0.2471403217870209
0.3700581128709055
-2.142995287790552
0.01778254728198398
0.0733413218820692
-0.2793521468626896
0.1607604781858966
-0.1415646997277303
-0.2045273157428164
-4.768597281043667
0.08724837434186168
-0.1540657745508487
-0.5837686942512402
-0.3482511860587323
-0.9936716784392338
-0.1633561110992428
-0.5656494461276114
-0.7550717872868508
-0.4169115234840904
0.3278096860494289
-0.3030221981683125
-0.1293384043452553
0.2980825192970017
-0.05884241317605807
0.1969486050071562
0.3534541069096696
-0.5853883755524466
0.1015784545341744
0.08713375272800188
-0.6647401033543733
0.3142204578530361
1.557250507011178
0.9557695195554833
-0.1653407485736186
-0.4322876256380966
1.688312896805502
0.046988909351718
-0.4824044087609585
1.779795104007728
-0.4018600214103153
0.2835336334680275
0.07470139021636713
-0.9125941115471016
-0.7367259781522119
-0.07068683136454032
-0.0450733294957548
-0.2074015591047214
-0.7886582870461113
-0.6967126514298224
0.04076419083997345
0.1590979751342826
0.01916478116509832
-0.06889326018226852
0.068368694992126
0.32912301978995
0.135292586527054
0.8563577398867568
-0.2157105485967761
-0.2783894009409041
-0.4923560310638957
-0.8609267476446316
-0.2120944198684643
0.06490893683215208
0.07411950943917492
0.4870717521668265
-1.340512533589895
0.0672215907462034
-0.7397748492418551
-0.3188642378999869
0.02307173576590258
-0.1987918393635199
0.7605354410831627
0.07024136756140874
0.1048689166874562
-0.05029579701309243
2.15534231587287
0.1387608422550752
0.1280270296228231
0.3083133419862274
-0.1527259057051629
-0.9930233321973289
0.02654640535820979
0.2458630852046847
0.3438830215689679
0.06733475518825825
2.639475475365292
-0.1696013773482707
0.3718618161550942
0.3282109293000458
0.03452735035064293
0.205378128483446
0.7992689150332779
0.5540307796262742
0.3211449443960338
0.2824855937590405
-0.2561404480098303
0.7537347977704472
-0.7792019965314692
0.4272141323266932
0.6678072117405455
0.7894385958867942
0.5749540810198692
-0.9323953050410532
0.03430127495219188
-0.4495401967269202
1.013016770801501
-0.4020237207911045
-0.06483413671704572
0.03089681269802228
-0.8568170768441642
-0.8693416549340104
-0.5315942356578575
-0.8042109227774454
-0.008028766455054744
-1.057485855635403
-1.4793906686507
-0.718347048066917
0.02513973629441409
-0.2199527673962056
0.2306541044978228
0.03974430952025019
-0.5201258978925751
-0.3045229338348256
-0.05309709538001396
-0.7207488614686263
-0.3997836602105127
0.9430358230795222
-0.1282141923448179
-0.3704317843554629
-0.1612559586353269
-0.5359426827742768
-0.3542025333571187
0.1505334107660869
0.01609013859016173
-0.6479455820832291
-0.839515386498258
0.0602747518942053
-0.4205657324350238
0.1198636708968644
0.1074564702187568
0.08006383473298044
0.1230585455304743
0.02757444708697333
-0.6554404691283856
-0.6908470110835698
-0.08099369378369593
0.2756532775456461
0.08940702962860381
0.385911732377721
-0.3128794284647768
-0.1922183183248919
0.003454027246002736
0.06355068728956541
-0.9211181600182565
0.3795434858365964
0.08450961793194241
0.2162891164822519
-0.0560704502926269
0.06693177454166556
-0.3952968587024901
-0.3009194328563027
0.06518254256711289
-0.4449756607697051
-0.5744705282047911
-0.7225795825275088
-0.09220487315059135
-0.3884861237502862
-0.4739785294360735
0.02222193423025727
0.2692984991936135
0.7766097794397854
-0.4784246130474412
-0.4875891173266266
0.02953563026279073
-0.304475878357972
0.1157960137266868
-0.03296338266707061
-0.50881042048022
-0.2896865486620283
-1.497275851050446
-0.2826061294188359
-0.4456331565883539
-1.301789076013785
-0.0853883267291779
-0.3457006052311194
-0.2895553898842262
-0.08151669958298563
-0.02742559958800179
0.7696363280375227
-0.1331461028610732
-0.1918985304261306
0.09887061110623994
0.005962677135293045
-0.06867364128951743
0.08363713378149414
0.04988060111702926
-0.628110794468633
-0.6730232686048027
-0.7554952486610969
-0.4441208766769235
-0.3151751538030221
-0.618881217735899
0.4936785657267619
-0.3488756211941095
-0.3062076718846102
-0.02467249099771389
-0.7384195948443655
-0.3944112831164155
-0.6392275036274214
-0.2606195664087154
-0.4964207860518783
-0.7184700358378755
-0.3406753178528218
-0.432634435095859
-0.2744780037508029
-0.5313893981296456
-0.6639162365168338
-0.4521091350654728
-0.05806080232090539
-0.1149027110524542
0.1035193247556006
-0.3512216060655157
1.110224338884747
0.09828498254895802
0.02179925472617634
-0.3561751819990958
-0.4641120586153161
0.1463988995487057
0.1112428636526214
0.0734527483391009
-0.185380531705659
-0.08015352292417503
0.1984589769325664
-0.4609435311009336
-0.6279688610717072
-0.4251016972186472
0.3709298108550546
-0.3285753647060134
-0.037001245588836
0.1554288638876423
-0.1336236851119059
0.1225270629034992
-0.5607688154903069
-0.02948464691187083
-0.2762504735961288
-0.3296104208053889
-0.3475113282630141
-0.5712020668631365
-1.134466565903678
-0.4320075561965652
-0.7691503116073077
-0.5988445710111734
-0.1922400379803458
-0.1856265760398799
-0.2621247323970645
-0.432273573482638
-0.4036468984841996
1.241828316348408
0.07705817236764144
0.03364571667411264
-0.0976235941723527
0.1520291778881631
0.1439361699934705
0.1548540389317167
-0.3027141714998168
0.6787817137588672
-0.04290187197875721
0.03682573813484259
-0.3842075964208317
-0.4397506823108497
-0.2266569883851541
-0.08332508066186788
0.06758548823804114
-0.3442749015185499
0.6313653692193287
-0.6287054765105834
-0.2117944524746475
-0.3079174993831572
-0.4300809306882027
0.2734922411210075
-0.1933957139093143
-0.07698913611393247
0.1236970439689929
-0.3361542743242065
0.06365134582815572
0.1759730094980663
0.2785969268372782
0.2324015493548815
-0.252382523409437
0.6220371312413187
-0.1180380460902859
0.261125514040771
1.81502298379914
-0.1898482867104155
-0.413222640460349
-0.3997122805945836
-0.1704872416521781
-0.02155362651744246
-0.3090046834430673
-0.7347013326132369
-0.5202651299514343
-0.2365343577984717
-0.1110977082767691
-0.1193468108000517
0.0919102678613945
-0.5919307537834689
-0.4080473458637763
0.2064640385533014
-0.4456677691537486
0.4964607218770419
-0.271455264148089
-0.1426732054398712
-0.0115451066198418
0.01512194659781152
-0.003066682131627335
-0.2167009825398945
0.0998420110438813
-0.8302248371843542
-0.2232032439911798
-0.2468635639219291
0.4561061795190703
0.2262875738425439
-0.03566908328437619
-0.5637015944268005
0.3019728668670671
-0.01701128541996271
-0.7733124365424263
-0.6378815972242464
-0.360662963462954
0.3042694048643304
-0.3649098315908879
1.066564798800864
0.1741463138236536
0.4014953091425877
-0.2884080616138704
-0.4078116857322492
-0.3544036310577182
0.6372207417436337
0.06082588266285657
-0.3994327625241881
-0.2484331100800337
0.7292308056195805
-0.706677994310377
0.09039545436097017
-0.2404705434943286
-0.09328874236900765
-0.2486425045901477
-0.2011663434180601
0.06015783796764546
-0.3105246121669009
-1.020569189329714
0.4250989034589844
-0.1634202430119983
-0.5394903669272071
0.09020313853841611
-0.0964425141011428
0.1296950372458081
0.01201049635393398
0.0298491303343128
-0.8153518281029657
-0.419999095108058
-0.1274002245558118
0.314117536609009
-0.0821839073338016
-0.3288778249575335
0.3144144467067271
-0.06547997954785323
-0.2212056234835244
-1.101404716457195
-0.08131528658193206
-0.06941451934930364
1.37872423564213
-0.4711816450945557
-0.6160138056703428
-0.808557753734668
0.05432284110333019
1.705935561716898
-0.4031916830317537
0.2578091310977526
0.114024076165769
-0.01790291545833367
-0.5061594225672932
0.07472761848685627
-0.01156391399415909
0.2272752256336822
1.545802521311589
0.5100860585504982
-0.04486994336478004
0.4321272433349027
0.06175919338977287
0.1175202873095074
0.277559775795106
-0.1594573355464044
0.04753489756042321
0.006073706264456325
-0.4359656034542412
-0.004787613399202767
-0.01647928733956272
0.9172959511593939
-0.6120328186527328
0.1391998410154789
-0.3081075793978696
12.86397719598894
-0.05445347132140176
0.00416719772719161
0.6109933692063861
-0.6568018460384063
0.7410745880732698
-0.1034079629783296
0.849993267056923
-0.1944943025297516
-0.2353993837453545
-0.2283700790953271
-0.972547411877791
-0.04055116195778562
0.1204522161288872
0.8704738203084421
-0.3847009609839809
-0.3822019276493731
0.8779961727894393
-0.1777427172837285
0.4112379290986383
0.4327486477312745
0.3450387892556835
0.3099995208219089
-0.2817331777779162
-0.1720616511186267
0.3183087307755346
0.6345010854294579
-0.83689871888095
-0.09578118218863141
-0.5369933580978209
-2.043598035966081
0.4228163242308336
0.1196529684425965
-0.1210007775246371
-1.80011898127726
-1.62421504022749
-1.811639105937418
0.04754543443146698
-0.03410965972115693
0.5608644247218324
-0.2149196292250118
0.02427225225087429
-0.143322121104135
-0.7126769453094812
0.04241103454411272
-0.3296552455732844
0.002523503382387705
0.287742647255126
-0.6450099074074866
-0.02792865428712637
0.3576759434154117
0.3702176440561117
-0.2351196787723412
-0.6282726468122749
-0.1636917191137003
-0.2344383984533959
0.09459111277260672
0.06822012976780369
-0.02754554756219222
0.2280851227016331
-2.047611915114219
-0.03168991665410058
-0.3237003676444289
0.1652236928402322
0.05643937945195459
-0.8492075413987341
0.3208485335724003
0.5510121305658183
0.3362410577716406
-0.1434621379465694
0.2508976564871924
-0.02294387036901594
0.177460826944651
0.2467784350888685
0.1013559259034565
-0.1882742606060128
-0.1445688941731106
-0.2063012643158192
-0.1295895090877694
1.995945196331667
-0.2066691853434222
-0.2607783029766005
2.302185055721786
-0.6089908877513566
0.152663793348759
1.023442807141242
-0.26889976816254
0.1342403463088399
0.3753545179267369
1.016125300651665
-0.006568032853509011
0.07683522590355837
0.1983980755673553
-0.4341109430717925
0.0419171857458517
-0.4696004662119693
-0.3036451367562675
-0.3116260281472391
0.2364082779375915
0.05102811604072346
0.3922731216349917
0.05677569918473848
0.1327091569367762
0.385798207629356
1.175185886428816
0.2995327308734217
-0.7339274462652964
-0.2584701009536671
-0.2342621183553218
-0.0855879737716157
0.4014330867940523
0.1230783218126257
0.8057667660404975
-0.4928931169704523
1.439085553121248
1.014547476548652
0.8294463648551881
1.352983292418809
0.06251752094436831
0.1106761919529432
0.332406469011018
3.467424890242593
1.997088010340578
-1.267082778292727
3.346817449765244
3.09321347432642
3.295219025931238
-0.4335249355183941
-0.06194041721534375
-0.4619619422874168
-0.6378689487370851
2.435548621929425
-0.02613803906707486
2.710241149240246
0.01390287904283294
0.04778518435009018
0.06710832553006323
0.06548226606495861
0.07663499431298806
0.02923209558794787
0.02652636976358186
0.04471167383929425
0.08677702332579022
0.1173453892182391
0.4609935237651649
-0.04042862751367288
2.912332392570748
-0.4394484989525309
2.627455324802429
0.1223648026545822
2.405924114831986
0.5300539750448526
0.1687226348389324
0.6483837702864009
1.239149725850826
0.6970394464809366
-1.294357429085435
-0.2454901909764265
0.1810344491522344
-0.1205943554353658
0.6853640545880022
0.3164738456662635
-0.1026752756320574
0.1671314502427077
-0.1747377334544303
-6.856442639031099
-0.7221364807563576
-0.4128467602882894
0.461667265674271
0.4058235252980482
0.08460153298666809
0.1532863981567243
-0.3639404092329179
0.04394707233856989
-0.5012756335285592
-0.5634975900308753
-0.6527891992375052
-0.155597691337739
0.3896229259094402
0.4018946525505084
0.2845484996015802
-0.06545037924929589
0.3658617153480086
-0.6718462761130717
0.2866399923591655
0.3062007796722636
-0.8928549906727987
-0.01613317171711021
1.240278031134328
0.105183911781105
0.07882713270129907
0.913836796989502
1.057595307526279
0.2753722428119517
-0.6160955860373998
-0.3127087664466685
0.07867959158498489
0.8527495773734942
-0.6251630131675091
0.05145179220370037
0.9023079021475295
0.04102181018278763
0.789044012260674
0.05459328423291838
0.03901474748500118
0.6294132606131316
0.01853393219231948
0.2539754460497563
-0.03911808744938118
0.5980055222997924
-0.7552914295877088
-0.9170455265626325
0.6302001327887805
0.2506937972031317
0.03729650413887861
0.08561175302289811
-0.9668438828812586
0.1231184682487659
0.1671250024887997
0.268558709458238
0.1187180417739391
-0.1829196578819776
0.3493580001211637
0.2992300838294984
0.1939407288099199
0.06806906899768723
0.2477418247518243
0.6537497551288469
-0.6301940262490391
-0.4916393925385237
-0.04536420625608746
-0.09522394027209367
-0.1964727531295979
-0.3502195122076889
-0.09540614346704152
-0.6107223117601576
0.1377830704661857
-0.2188451900500133
0.2514767856553694
-0.1895711826678939
-0.28954309444308
-0.6106652575028202
-0.4430085754897257
0.1963444257380348
2.121039887841245
-0.7772828085219859
-0.2771170781817357
-0.3286172418400866
0.05401598055956657
0.09746072318964472
0.2197498237651779
-0.1862354631338094
-0.1471716666100553
-0.6941974586351732
0.2992194229521891
0.6057195610798852
0.1144640419241897
-0.0876375726120435
-0.03796209003739748
-0.4456938958473688
0.04080032139972301
0.14913783953731
0.0958544762515989
-0.1242686895863255
0.3107953076858792
0.5116238549690671
0.3959032732042879
-0.04984977340699614
0.1593062320210949
-0.002903635485536593
-0.2329216075374559
-0.1565758317451538
0.3429998439340905
1.809718849224353
0.05531189038334279
0.05303293720260816
0.1455641915720563
2.970889391802979
-0.1657588261000361
-0.2182890503458013
0.3165936972210179
-0.695493314397956
0.1936316688987624
-0.02183099071636239
-0.8477249883239065
0.1151562519197298
0.2295082264479885
0.3070359042714432
3.994133402225056
0.8122675665280139
0.3942700303222176
1.538856972206493
3.494029251282459
0.2563527418434028
0.5616193264256679
0.792579758854119
0.08799352343818956
0.2504478829296776
0.09903010158858652
0.05481777082197094
0.03611863745781453
-1.597239430404256
-0.9236572385983532
0.07411601731074427
5.41468553111366
0.1899264752797038
0.328883608600834
-0.2529042518267836
-0.3031932697724771
0.3497545808583452
0.01524833018110761
0.1850536926343188
7.390469279706302
1.169074671987885
0.2355436498834662
0.01667794342845861
-0.2512267655630411
0.4229816371169016
0.3098989605017071
0.2160152672607199
0.9451377247185737
-0.0407336522791041
-0.07807103501005008
-0.3043662205269269
3.327484746752154
0.8204252966917687
1.342311506109295
-0.09187168854868405
0.2422196462831572
0.001964704070804043
-0.02140041173486561
-0.01992701904876542
0.5204909865786256
-0.09429822064487775
0.241483287572328
0.1453389176603495
0.139191167175423
0.3549458372662336
-0.6282043001744729
0.04470553107207625
-0.003808377280663499
0.09995875040703502
-1.504217692298085
0.2579294779673062
0.04176064126598354
0.001204939944086897
-0.4285670438899208
0.9734754598629767
0.3269464360263282
0.3269829491426661
-0.2081987392943747
0.3114134317724854
0.2793077542651148
0.0323342357018433
0.3096601762746425
0.4536926420265619
0.3799741923612429
0.3467285986494784
1.731171664117627
-0.08366944368100676
-0.1190812771675111
-0.5984454355126565
-0.3334716642521472
0.3771794536802079
-0.263607040344557
1.657301928587044
-0.5502597650319164
0.1223536651291468
0.07876267913676323
7.261895731742957e-06
-0.002459363250342384
0.1570702230865247
0.007147421175309128
0.8001874684014468
-0.177569350294454
-0.1051992165054454
-0.06024030049495083
0.8084679778243921
0.1099773105355349
0.0945969122876332
-0.03900750647439537
-0.007452119193855639
0.2510968670699719
0.1444688005303934
-0.04755943268086113
0.1330185181659275
0.2294223864917922
0.4262412740294642
0.1190095531301859
0.1553689278978395
0.2053874424586312
1.098257880220919
0.3308758588563948
-0.3788122335539715
-0.03933059545720072
-0.08444731894119743
-0.4340230882922388
-0.1162905034814097
0.01767446277962026
-0.05142341224058197
-0.5185297042968201
0.006656220425534343
0.2619857838728753
0.127352877573731
0.01156887454955088
0.006745009081263283
0.228692443145076
0.3089163125614851
0.1285549879424516
-2.766705522102147
-0.5964547405291049
-0.08129933374172052
-0.01236396267904929
0.09215987455176462
0.03603645092289321
-0.03133176388570171
0.3770150158794174
-0.08008002560951252
1.167124902893309
0.02603089303363064
-0.05642135978275988
-0.02806372554032252
0.2088900482910173
0.228994694541023
-0.3523897119855173
0.04544738625586341
-0.0975444556743678
0.1299916548286971
0.2610505440992978
0.03531095411026184
-0.3545201451033597
0.1226956246040442
0.1596033597321583
-0.3528912242681322
-0.1042116492981431
-0.3058630434198395
0.247936010219046
-0.02593513500106082
-0.2361464575844236
0.1222938281638394
-0.1603940232393269
-0.1316674127549453
0.359715419205992
0.6153010624501414
-0.5058256094113701
0.1120031717647653
0.03307486888016711
0.1375039363428534
0.01190652292613989
-0.2357296309444478
-0.2154869315654899
0.148884057248935
0.2125355355011032
0.2149202560685516
-0.06164467811816218
-0.2387256334291437
-0.06822333283899594
0.2368263799435215
0.2288806081313499
0.1519636950205962
-0.4037521784709512
0.1579348902169213
-0.02390607468534122
0.4246901692011962
0.08662903246803939
-0.04461760495939133
0.08280209967860692
0.173268395470081
0.08719926813678407
0.05613600379119087
0.1786606197237361
0.08016865184472083
0.2369775909125573
-0.8658529564435143
-0.1186866797545246
0.4187183798703779
-0.01782203611323449
-2.256197896299727
0.01714861341233144
0.008576976677428641
0.01562256472581316
0.06570304962318627
0.1046480307586621
-0.3696770518081716
-0.1198472391498321
-0.4823421406112184
0.1545014997385375
0.763359757190766
-0.07727624828774499
-0.4218822334792012
-0.6513858354539726
-0.4238401974379374
-0.4732931637171157
-0.5539892880157875
0.08694646477332234
0.1695791611773498
0.2082468055308888
0.1359028120950761
-0.396393624766582
-0.5291952887674966
0.01308837553918877
-0.07419036947793749
0.07087775907516369
-0.03069175720736117
-0.1720388260118122
0.2714131294414668
-0.3522596841060439
0.2114174400223461
0.7700197910924004
-0.2662110166060531
0.1110024291182906
0.06272605033594206
-0.03032549490893214
0.3003326537753849
1.321451542473265
0.06054208587024838
0.06310728893554574
-0.1724011590211182
0.03407473623432591
0.3218543658425319
0.006255568335164084
0.1069469831936873
0.1488687306079347
0.2174922165150472
0.006480595324938249
1.413751490366529
-0.2500387704688075
0.03648239169424607
0.2675416305476653
-1.069862097177408
-0.1618998617368571
0.01390023010083584
0.07360723318521313
-0.5368911333221338
0.05611599101413801
0.5840266439344722
-1.103178457089823
0.2875615968508187
-0.310563053981239