/*--------------------------------*- C++ -*----------------------------------*\
| =========                 |                                                 |
| \\      /  F ield         | OpenFOAM: The Open Source CFD Toolbox           |
|  \\    /   O peration     | Version:  v1906                                 |
|   \\  /    A nd           | Web:      www.OpenFOAM.com                      |
|    \\/     M anipulation  |                                                 |
\*---------------------------------------------------------------------------*/
FoamFile
{
    version     2.0;
    format      ascii;
    class       surfaceScalarField;
    location    "1.5";
    object      phi;
}
// * * * * * * * * * * * * * * * * * * * * * * * * * * * * * * * * * * * * * //

dimensions      [0 3 -1 0 0 0 0];
oriented        oriented;


internalField   nonuniform List<scalar> 
37423
(
-0.1095554843401166
0.4218483512352359
-0.4549090099605752
0.1426161430505981
10.37613547252049
5.476967365771688
-15.85310283851845
1.604383498138717
2.838681824664389
-1.496669801412849
-2.94639552135175
0.6189128141410024
-1.092848252458135
0.4739354385775868
0.1138956329901215
-0.1657724438781052
0.03012194019282894
0.02175487074506133
0.04595855628160671
0.1455062298321805
0.3072766583005495
-0.4987414442573164
9.175730072113295
-4.673918578715754
-10.84718235792777
6.34537086451241
-0.03971190168510416
0.04242733226598065
-0.006236652729782383
0.003521222222391317
-0.1647118503149526
-0.008732346393905036
0.3572128741525021
-0.1837686773823355
8.636835887706223
0.6544628129120373
-0.4344690905473426
-1.425255171538506
0.4566700847946758
1.403054177355067
0.2853025442586521
-0.5318032991133247
0.7659541479263451
-0.5194533928069131
-1.147696968784475
1.301442793573669
-0.1537458246966053
-0.4606612243520191
0.4934509818785378
0.6050060018938117
-0.6377957592166278
-16.28129732964564
8.872389952832004
-0.06455743662647356
0.006676110979169862
-0.1202511218157934
0.1781324475105717
-0.4569565816627498
0.8050548096748913
-0.06279568363507362
0.1817035854423222
0.04060334522202375
-0.1715871331145499
-0.05071979743616151
0.107361604586242
0.02081462481608258
-0.001094528738131041
-0.1270817006022176
-0.01464263813570477
0.06025667089778705
0.02491999387902386
-0.07053402658237649
-0.2212018410421401
0.3792926543277195
-0.4227555821280267
0.2646647688741804
0.4122257920205068
0.6826095829171523
-0.2829817512176186
-0.8118536235215442
-0.1168638000115549
0.123664939485742
-0.1102452572117518
0.1034441178181967
14.67409316210462
-17.55688440762397
-6.286063986564564
9.168855231639206
0.5932556138843703
-0.0792130605445763
0.09715754970803196
-0.6112001030315227
-20.29602657410106
9.220403039775807
11.07562353429875
-0.1635862735231982
0.1317795065609159
-0.4251498145934438
0.06848376847216676
-0.07824283076132145
-0.1634067472117161
0.17316580954852
0.1666038426520089
0.009255025710115942
-0.1776494106622248
0.00179054240562659
-4.260471398804134
-22.39322826990719
2.701285057485164
23.95241461061857
0.211873065836709
0.4023105527726966
-0.1595456799953742
-0.4546379385254544
-0.08543592978979769
0.7095347876888723
-0.0189029901010627
0.1087303829847023
-0.1016687345954159
0.01184134177013888
0.06268215039465766
-0.6377570085939578
0.3285132372735123
0.2465616210586099
-0.01844271762324156
0.05602208500959768
0.08802362397698985
-0.1256029912455634
-0.03553980626355648
0.01320904059863626
0.1178668178768246
-0.09553605215184247
0.2775831333721444
21.40727377845767
-19.32999713077539
-2.354859781088555
0.009925296949306092
-8.925052305486791
10.18341551599089
-1.268288507886582
-0.02782632147886848
-0.04378454956731866
-0.09829974470092444
0.169910615808748
1.94491263313194
-5.907214778336394
2.221978949396757
1.740323196119119
-0.1282150172348725
0.0122600877479816
0.1372723129191274
-0.02131738338679579
0.5558111888674464
-0.6987525928560406
0.190348087212732
-0.0474066831686529
-21.02529094603949
3.70071041829241
7.149297578909674
10.17528294861797
-0.2212295915087913
-0.9193623946153947
0.9921945675153565
0.1483974188930465
0.3271957907174414
0.02943334485060469
-0.466329668370875
0.1097005327780809
0.04206584773073395
0.6215375222713047
-0.08508270693067846
-0.5785206629017232
-3.589894847022634
-21.67605099987443
22.57258492652381
2.693360920328017
-0.9302840800848819
-0.6778124074742092
0.1572057649897363
1.450890722577533
0.5195970290507219
0.2448791450172782
-0.5238864635749959
-0.2405897104472932
0.4228490012432894
-0.175447527503987
0.3732314288790589
-0.6206329025335622
-1.325308753193752
-9.431242003814788
10.75655075654297
-0.7331064862357471
-2.716036128362737
1.17727986305098
2.271862752552378
-0.2551715642528652
0.5925846357263603
0.02938332091421213
0.1655819392964653
0.03781538812653023
-0.2327806482199923
-0.1257448243917191
0.03469279620279229
0.1087199559035876
-0.01766792766520521
-0.5157190426146312
-0.0472860369348482
0.05036091528822109
0.5126441645697958
-0.08732918715475918
0.5964780020048185
-0.8676944444452817
0.3585456296909261
0.2570643981935699
-0.07346373826228704
-0.02804825013031407
0.01648518687757133
0.08502680155256066
-3.218607002249106
-0.5788187249823454
-3.047251089373375
7.233145973837964
0.03224212806897862
0.03363339839798339
-0.02784426556086892
-0.03803126087130744
-0.01314595178546172
-0.07073441650693338
-0.002076445601166019
0.08595681392498387
0.3970824563749963
-0.3775198067438321
-0.1344729035366339
0.1149102540326461
-0.3280095800880885
-0.1456778721015569
1.156297035282335
0.0212076109575313
-0.09905101230255335
0.02243634604582664
0.05540705538203261
0.1102039633840034
-0.29779412069195
-0.1551098109053217
0.3426999682757003
0.3286616309526688
-0.787090909560395
0.2220669722048442
0.3485509809288773
-1.14763207260812
0.5770141195970251
-8.539412106741946
3.961708130748181
-4.825954568663723
0.07460248712360505
-0.03829531417918568
0.01732355490492413
-0.05363072775811639
-2.380247384017107
1.013567773507207
1.120803834821206
0.2458757758199211
-0.5360381781050284
0.5302223151946118
0.09541862958116365
-0.08960276652132024
0.02730173338473476
-0.2921687547357444
-0.3605178128112865
0.6253848341903542
0.1149048021289856
0.07752116022357242
-0.1539463586170435
-0.0384796036538969
1.641657864278032
2.867169008897003
-0.8723906566770722
-3.636436216034023
-0.12819234647281
-0.3656974606234456
0.6796076782850871
-0.1857178708881083
0.665690073054737
-2.01208084515203
0.3839240893172717
0.9624666829875151
-0.0191526867620389
0.01306544093108576
0.006087245873191948
13.78677543342055
-1.125315551643591
4.815429519182326
-17.47688940125794
0.7436354773891877
0.05723428737030826
0.01951391346401136
-0.8203836781387602
-0.1803959700979839
-0.5354216016688939
0.03514529500961315
0.6806722768545974
0.3285976892412082
-0.1391891553927199
0.066617811003529
-0.2560263447379882
0.005008082595827441
0.0737729042022193
-0.06800040017702273
-0.01078058654752385
0.04202720353473954
0.02119211711596544
-0.06321932061552149
-0.0755689442473904
-0.5387558910910147
0.3591532710870269
0.06350822585231489
-0.03952281136261682
-0.1084927683785971
0.08450735396387578
-0.04694435343533603
0.04866853876998611
-0.001724185290916937
0.06056224346617833
0.4325182456054248
-0.0598904044505929
-0.4331900845423232
0.04120549128359805
-0.02105442730240124
0.08065912881461922
-0.1008101927484758
-0.1143276302932434
-0.2371424972967449
0.4616740910149066
0.2969522670647274
-0.008969344520627736
-0.03218038934067903
-0.4626807266570312
0.5354352554493487
-0.04057413933881748
0.1681619995251332
-0.02683639808485457
-0.1771491230451588
0.0358235217015313
0.009595285239579537
0.05279666638168377
-0.0180211436599861
-0.04437080789968709
-0.07851237928039806
0.5368870041662248
-1.956676583508821
1.498301958757375
-0.6255370346244978
0.7757162939498267
-0.1305890421869084
-0.1516762697340853
0.1926388468847259
0.4193702558654539
-1.175812723197715
0.5638036205594447
0.4704488766689275
0.02087776169585451
0.06582587107520663
-0.05330111008114483
-0.03340252263839349
0.03921782369399713
0.05058063749346261
-0.1843351034929243
0.09453664237430975
-0.6194150870702319
0.5896339566152661
0.2313213065940736
-0.2015401760994066
0.08627800510438217
-0.04101763886441948
-0.1046153423009974
0.05935497613145704
0.1112008779683033
-0.07093699536332529
0.3960326461606824
-0.4362965287152816
0.06799949772418755
-0.08221293678080242
0.1101503702429859
-0.09593693110350847
-0.1047087282614653
-0.1464729278858844
0.3817087079296929
-0.1305270517849878
-0.3235046500977643
0.4767595227270965
-0.2579636009027539
-0.04526289732145598
-0.03431986478253548
0.1368399762795458
-0.05725721411965209
0.1202986046262753
-0.04626043086512244
0.08681865070553346
-0.1608568243766097
0.1021098795357403
-0.006955661673521649
0.002785535473980466
-0.0979397532900787
-0.0678190581183353
0.03847539381263132
0.1322778029517681
-0.1029341385214476
0.4122786393830788
-0.5343079643947072
0.08964534529371418
0.03238397976063982
-0.4340651103199787
0.6579350525181878
-0.218885190247398
-0.004984751865549427
0.05957748613100339
-0.2225590106103531
-0.1910935737306075
0.3540750982684502
0.04525671689509472
-0.02768413256368883
0.06398752642528913
-0.08156011071135813
0.6181578469718252
-0.364504452428687
0.2961280738292985
-0.5497814681951081
0.09417411148829417
-0.0820948473037915
-0.02195969505790028
0.009880430931779838
0.1207454094488992
0.3170160181822857
0.0326874491343062
0.4587355326563377
0.1922321920470294
0.6955346302372983
-0.1095571724841928
0.2164224553034755
0.7877407431934266
-0.3086285681439385
-0.2027147040290808
0.1329365714383324
0.169541911661629
-0.09976377899731428
-0.5311512481806033
1.310571701228066
-0.5600757031600033
-0.8961738700807611
-0.03240861564503674
0.0875964150170976
-0.02030870366560229
-0.03487909566982552
-0.1394807765550016
-0.5213731540598426
0.3678495016160163
0.2930044292982569
-3.172722274740468
-3.006819803107534
3.807880782950909
2.371661294648449
0.3252333361872271
-0.2709158899338632
-0.5833208230345395
0.5290033769808652
1.821111445957634
-0.4012391549047137
0.4774257123359951
-1.897298003380733
0.3516310587164864
-0.5304456032971219
0.2414966950704529
-0.05939384945906857
0.3319161467785408
-0.5335442843140089
0.2610219870490659
0.1254866811536741
-0.1376123174879698
0.07131608482190077
-0.05919044840324175
-0.1235823755576943
0.03438263974335239
0.3192743353201485
-0.2300745994190387
-0.07131157758039225
0.01571741033026347
0.06192215402116706
-0.006327986711107585
-0.203492439067486
-0.002154755736054899
-0.01722057571308404
0.2228677706122535
-0.08700704950045145
-0.5032836874744272
-0.01105473235881157
0.6013454694561945
-0.1480032454835931
0.09408791219447321
0.05391533331750024
0.2263146879492961
0.02157728118494474
-0.1668995574314857
-0.08099241159523193
-0.02267735040702732
-0.08599752962458627
0.1261802779180104
-0.01750539782593638
0.1535754344053903
0.0001265765265970852
0.004315886988202121
-0.1580178978375016
0.3235736625176636
0.2331825446729232
-0.6895972430022244
0.1328410359513527
13.66507902336423
-9.155937790600067
-22.47193807462399
17.96279684163469
-0.5839431524701156
0.02075996674324401
0.6144408190006623
-0.05125763312595982
0.1150027968672783
0.04121704604226401
-0.0215951480339245
-0.1346246947831779
-0.07107133643064238
-0.5350783000222888
0.6112713152254642
-0.005121678750864607
-7.002447623436574
-5.463180309934534
-17.39423836110554
29.85986629386697
-7.700339904195172
10.94159762611501
4.22051598848758
-7.461773710223995
0.088993667251258
-0.07965754232923472
0.04677516083714866
-0.05611128570287948
-0.4689071210112517
0.2337924967615957
0.07614460830801457
0.5338987226618767
-0.09180864762038232
-0.5182346832505816
0.2357964712944321
-0.1199972059725651
-0.2622721931805773
-0.285175335592336
0.5056333692228858
0.4257590553442097
-0.6462170888267217
0.01414695891765149
-0.1612160239475587
-0.440529864241075
0.759039070278855
-0.1572931819611758
-13.61534290494442
6.185674831209758
1.017406142268617
6.412261931174464
0.08907041543357599
-0.01113700545575063
0.168274984668032
-0.2462083945631099
0.07860664120267731
-0.06937764107278027
-0.009229000091963325
-0.1941716147105362
-7.125151335581278
7.319322949897321
0.3940727919921679
-0.3698195672359273
0.4792691237328256
-0.5035223484098039
-11.04050732934621
10.50868669715923
10.70065098751332
-0.03924741589269155
0.5287388374825269
-0.0956515716448762
0.0917063776769996
17.96809146465404
-17.87813085786386
-0.08996060692885738
11.77185720025212
-22.86165351686767
11.0897963166117
0.8949900909487637
-0.143132380152769
-1.563703973413613
-0.06961952195263495
0.1203307504597673
0.0103671170672591
-0.06107834551757121
-0.1143637689640604
0.1782655815400667
0.2295340491562183
-0.2934358617242351
0.4691901452904452
-0.4423129714569209
-0.2017269729303606
0.1748497991524196
-0.1320419679581323
0.5432538095764408
0.4384336248107824
0.09325554413092668
0.06478883312408977
0.4881383183349871
-0.6035366444050834
0.02579555964554726
-0.3068867550103568
0.1011975643618589
0.0856919846921457
-0.5572586991886147
0.9266367257404307
20.79365593493369
4.740789679436113
-26.4610823399754
-0.5847730235093643
-0.2076387475895277
0.4951126731609869
-0.4011651022214788
-0.1368055200571402
0.04285794918236293
-0.03931418305573657
0.1994620326612465
0.01358689449344395
-0.1737347440678675
0.3334832574445903
-2.624099185753015
-9.536410321243855
8.941902504391782
-10.42033994200412
6.286793886451981
1.50944686954558
19.34124069322798
-9.06072272933938
-10.28051796393131
1.082989351934438
12.37823070228344
-12.80675724153891
-13.69781221138613
5.896050689112983
21.10479515451713
-13.30303363222385
12.51753644366815
-11.71275432102071
8.468662545681365
-9.273444668250139
1.158942306040417
-0.6094768473639397
-0.2533373846504605
-0.4827490287502861
0.5818452356017886
-0.138343622712189
-27.54132604108302
10.27958027822965
17.24595647398131
-0.01786271607879407
-0.1350714616506033
0.1903943186400956
-0.03746014083390852
15.86882000680606
6.703585265060442
-38.23415449587753
15.66174922407888
-0.06389094862026698
-0.6043819374510953
0.04763998356332634
0.03503476239061747
-0.1450245407445535
0.04194259934732181
0.06804717909656569
-0.0093912258300302
-1.641628889323711
-1.968538556049859
3.922634302951532
-0.3124668572782291
1.851309091133071
-1.182183855231663
-0.1262755897570041
-0.5428496459838185
1.375320149132428
0.1185927227363771
0.4749913353129909
-1.96890420696017
-1.142898665570865
0.1320807270582888
0.1738307055425172
0.8369872332797148
-0.09351353196363793
-4.760610490552965
-5.306223502795143
7.41651234551807
2.650321647964109
0.7386076886252503
0.1812137817203559
19.37089786682129
-20.81879586714595
-12.24991421087574
-0.1709205210754584
0.4576778761961156
-0.5161040712451344
-0.2801274476255952
0.2748583649893829
-0.3879456824958671
-9.739025853373034
21.03601476731127
-11.29698891407571
0.7499169073618916
-0.5791262769668577
-0.7019418784002803
3.845915357098662
-0.04069867998585661
-8.565827167571854
0.06687724106517896
-0.01241290774946357
0.05044699313520291
-0.06993592957539849
0.03190184420795487
-13.81929834467592
14.84039244937787
-0.1924710015169385
-0.01616711445196785
-0.04124471580811806
0.2498828318755235
-0.2139061753357474
0.01422373003763331
0.2780119795067536
-0.07832953413699761
-2.774504983031594
3.563490838933476
7.182472255642649
-8.749207177632094
-3.259219646818368
3.928252341819553
-10.12527270018323
3.422515375099239
-0.03796594184093843
0.03531241820418583
-0.07292116841721627
-25.34007920975348
-0.05489209243500984
0.2767451707842242
25.1182261311473
1.797718773066026
-7.933935265816912
1.94961820117202
4.186598292311674
1.876141752893576
-0.3977505915229061
-2.932321262410411
1.453930101279051
-8.739170965133724
3.921145474945493
36.29356220884402
-2.97287289996551
-8.482680630700871
8.182720914499907
-0.7802304576479425
0.04458928665719851
-0.04947972303694738
0.7851208940981778
-0.06112667994517489
-0.2666401899735402
-0.1393903012751406
0.4671571713590347
-0.3561500515034325
0.1684600701606592
0.04987254300583488
0.1378174384368208
0.02414059392574452
-0.01913251127766116
0.04221298509127384
-0.04084745807690439
0.1491762519803334
-0.150541778910671
-6.523589805407093
6.56499935025833
-2.943317824307483
2.901908279748624
0.000413066653596565
-0.0003624262879276855
-5.064035914217191e-05
0.0004130666571399397
0.01372208055833803
-0.007819161832646616
-0.1197917775495761
0.07065107330300996
-0.004335121005294647
0.06093843006846605
-0.1272543822979637
-0.1652721820269357
-0.2628470489272639
0.4087478536547041
0.01937137740269732
0.329977997473669
-0.4965337177044126
0.07325585508784199
0.09329986517811706
0.1657027760764709
-0.2579459263438276
-0.08282337428065363
0.1750665246204894
-19.44052278639228
-8.129793768817887
-0.0482805866253784
0.1157845168523917
0.01487643851426033
-0.0823803686614141
13.04346977313323
3.792999662912979
3.25566693878642
0.02192052423191548
-0.3627353459747186
0.04542443786079436
0.2953903839776691
15.26689928231202
-14.02869413588411
-9.64890317495146
8.410698028510794
37.50946104251406
-19.81227101926236
8.092325245733331
-25.7895152690175
5.286237022072222
14.79790240812032
-1.437016039849558
-18.64712339042399
19.47266775189959
2.962912775026485
10.88543675765988
-22.84668046328519
11.96124370570806
35.09236237348554
4.845866626984035
0.6629819893855999
-40.60121099035473
-0.07463916598286194
0.1302728276764674
-0.2465152470850664
0.190881585505694
0.188391645236388
-0.1383617691453245
-0.6204616041483836
0.570431728071272
-0.142772989148869
0.2764716049856342
0.07286815547171312
-0.2065667712020379
-0.05769678480367033
-0.01364158555430702
0.09133293368879944
-0.01999456331070655
-0.133120547810609
2.013120216727096
-0.394908664346695
-1.485091004443653
0.2888487589130545
-0.5274848530547295
0.2143566294788257
0.02427946468148508
12.15809779256958
-5.693121831777454
-6.464975960931483
-0.2340887790676016
0.1137313436591272
-0.03733136886729106
0.1576888043392815
-0.3465244918274054
0.5004660968082051
-0.2089177232541666
0.05497611836266173
0.1237033861090099
-0.08149040099027002
-0.05703474298336367
0.01158495758057053
0.04544978543009951
0.6617801996901674
0.4741081497724623
-0.5043898106893241
-0.6314985384724261
1.932064063058089
0.3760163204879718
-1.072653246048206
-1.235427137213046
-0.1381812464440172
0.1070659233612877
-0.1019255046532683
0.1330408278007053
-0.05410737873766573
-0.1295491240865673
0.08703546588092832
0.09662103702352813
-0.8022755511573241
-0.7722550455125273
1.748808660346327
-0.1742780635542715
0.3800231899372487
-4.003925049621197
3.32528825350442
0.2986136065609514
-0.8474264764475784
3.425378034800133
-2.60352563997288
0.02557408177094904
-0.4749955227852856
0.2362505754562975
0.3026696347858501
-0.06392468736238541
0.185455570042534
-0.3222786508654123
0.5204504937730888
-0.3836274128636596
-0.0623160288194695
0.07415476175671509
-0.01183873288503104
0.1011593844988545
0.1368747277981119
-0.2380341122880482
-0.06704797367508318
0.006614167393444004
0.07103188833131863
-0.01059808198606316
-0.05725372681468668
-0.09886750358116281
-0.1035939958947497
0.2597152263891194
-0.0659977568956549
0.09273970662643859
0.1571477095336887
-0.1838896592166513
21.17017669287996
-13.61336260775022
-13.99178312417657
6.434969038851563
-0.02012874341470916
-0.04251605425015086
0.003429939017126879
0.05921485870283304
-0.02735450345026444
0.03714805419735157
-0.009793550726782639
1.98334852241418
-2.576463440498825
13.91507200238176
-6.654140882714403
-7.260931119844571
0.04429605308900248
-0.0913242188952276
-0.00502079464273957
0.05204896049541486
-0.04998863541537123
-30.29708082949025
-0.06917276152802235
30.41624222626801
0.102839208440353
-0.05682696063256101
0.2038494792692509
-0.249861727018262
-0.04857643597479567
-0.02742601078648068
0.06766198455164435
0.008340462249428563
0.07634642098519658
0.5930065492348698
-0.25468732208975
-0.4146656479451575
-0.05908496836060646
0.001111082466028855
0.05797388594548084
0.02620794849577332
-0.02736055053354947
0.07330618450164805
-0.07215358242073029
-0.003124360509032377
0.02918616226738308
-0.01655081832064589
-0.00951098337462547
0.03589259314435956
-0.02576232986113925
-0.0101302632414737
0.002802904770948867
0.0592941121481942
-0.06209701688354735
-0.1393171039183476
0.5700318829654997
-0.4079500228924614
-0.0227647560705655
-0.007356343924883783
0.0769082803548244
-0.0813199545024922
0.01176801814006079
0.07313070975273972
-0.4334435523283218
0.4023692848112835
-0.04205644208736554
1.253524260409947
0.525559581383731
4.20212131722169
-5.981205158836049
-0.2838267039689238
0.1410826692092061
0.0435955003029128
0.0991485345177113
0.08856575390885517
0.005611856741258553
-0.09417761057731433
-0.0269803086609252
0.1145515638399566
-0.6067911360176553
0.5192198809616984
16.43190545173193
-21.09086250002889
-0.07228233244904569
0.1447957646853637
0.001826789017875266
-0.07434022120995593
-0.490722271283793
-0.01770064779460321
0.5084229193049209
1.534729642540824
0.6239577021090071
-2.277167283136589
0.118479938422426
0.7796388315484195
-0.03826816765652775
-0.6688009039333102
-0.07256975987837201
-0.2658594410479833
0.2517769514654303
0.1434634394657895
-0.1293809497932394
-0.03461443424153773
0.3514187435008762
-0.3645963985605701
0.04779208941385274
0.1083857768448691
-0.2598181145460062
0.155750140681544
-0.004317802915653745
9.630365089835063
10.1379283903748
0.03994437663088649
-0.4377128379859385
0.08092155371045946
0.3168469077086619
-0.2248407847731954
-0.4383849308833398
0.5895820057402076
0.07364370993634696
0.006773326703645901
-0.12727929266554
-0.02004458471793097
0.1405505507525291
-0.2736010008307259
0.007555626389933127
-0.01233422984754684
0.2783796043861849
1.44153014079738
-0.5659876129757305
-1.676619610842899
0.8010770832301145
-0.0274836180930767
0.1232989237518859
-0.1055183600545763
0.009703054477780132
-0.007466421434401995
0.03163198588011739
-0.1094793522567415
0.08531378784829854
16.11589868288729
-23.65839167283684
-3.140588874337682
6.276915326607992
22.94486765350075
-1.384493545424406
-0.173736310959493
2.154706861928978
-0.5964770054347807
0.1616812856086401
-0.2647992615321836
-0.2438866454426072
0.3470046214287462
-0.08273591346382422
0.01411830684998003
0.02663040133215127
0.04198720534963832
-0.09853683605461189
0.007387956336303795
0.08350565877431913
0.007643220992168186
-0.1413358501899899
0.1765973870404371
-0.06308785826333232
0.4764474195711291
-0.1921943546635277
-0.3833402761659775
0.09908721134502869
3.185338467599763
24.58101462363566
0.08618602895334662
-0.03920341982203
-0.2465251878118278
0.1995425787596343
0.005107682175380416
0.3875428819302087
0.07037821989512365
-0.4630287839181513
-0.4729614622830047
0.08715175389787524
0.04315956198346348
0.342650146511578
-0.5207213575760951
0.05032450546164007
0.257454002604587
-0.6090976812577874
-0.04914752075739741
0.7036610768306423
-0.04541587450742225
-0.01563080520081372
-0.2336008370384443
0.7185152872887517
-0.4692836448504721
-1.599818549597862
0.0622022106761476
1.537616338921452
18.59034291013367
-7.385626264756451
1.838753127794022
0.1569086545850306
-0.2722989335591631
0.04988179799006038
0.06550848108758268
8.987730405672115
-32.50132911957112
32.23929601542243
0.03239942209901476
0.06413870755062052
-0.05732030591588929
-0.04080180432369458
0.1476453192441624
0.000174483304712536
-0.1070179981464693
0.06984133001204615
0.02719534208995505
0.04637724071870954
-0.1434139127685321
0.03655871822863489
0.2641235860697995
-0.07829727194921191
-0.2223850322753749
0.4225247113303717
-0.2960092728726832
-0.5148894248616294
0.3883739865078281
0.07654647913169862
-0.0233589131474017
-0.07629430509529458
0.02310673915079166
0.536484301647866
-1.158077859345166
0.1328427797483948
0.4887507781574596
-0.1007097524325456
0.05962312418617949
-0.0311957041709075
-0.07330609467257887
0.06274443184524932
-0.119935542726734
0.1304972055853294
24.17710101217804
-12.97292659865061
-20.67750301188525
9.473328598304249
0.1994265875424745
-0.1615163120423788
-0.03791027544943555
-0.3167786376998361
-0.03594050245367494
0.4605738093423125
-0.1078546691657594
-11.59099428549226
14.83143917765233
-2.147983667822538
-1.092461224053764
-0.02109685982623951
0.116163238155862
0.01302834036306426
-0.1080947186408577
0.0642950527884721
-0.1660658610527753
0.1022047610778201
-0.0004339527512233131
-1.284077582832807
0.9578098460145487
0.4440566473202952
-0.1177889104185338
-0.01691320092211211
-0.192801047973226
0.1941232847438693
0.01559096422569413
-0.8443044670881305
-0.6285894397060169
0.8634170595128253
-0.9956470882719408
0.1957432436153204
2.55975280679816
-1.759848962236998
7.052760437330146
-17.42562209881197
12.31458611577367
-1.941724455017457
-0.1034990467664035
-0.5410695161535052
0.7514580125802187
-0.1068894496828996
1.577047989311614
18.29038305265806
-23.45732588890069
-0.03870820062292401
0.07841925883501867
-0.02746705165793533
-0.01224400651426503
-0.5008321231936996
0.2893720331529556
0.2437855223358965
-0.03232543219954478
0.4893623791769202
-2.145777727952421
0.6840176453806124
0.1629662235745342
0.05358046932129899
-0.1470202395446951
-0.06952645328306173
0.4931614895101205
-0.04270285287213971
-0.4834395818460114
0.03298094518184802
-0.09912469118380951
-0.4114643479448645
0.3322818067192708
0.1783072324983946
-1.584749326024252
1.467011356611145
0.1177379694824934
0.1091312408896351
-0.1165807215197074
0.02513911565700265
-0.01768963494873853
0.007260847586762757
0.09329107257072154
-0.08570156943533734
-0.01485035067396674
0.008724213032339936
0.01932474495577098
0.1138398640578143
-0.1418888219843604
-0.01528074062516302
-0.06297069996731523
-0.03706093134725567
0.009199726807629059
-0.3050318232518272
0.07021605124758573
0.2256160452452016
-0.1447955904480433
0.07413575008881675
0.1147231521860397
-0.0440633117808267
-0.135120536199056
0.06828061100479726
0.1306764668032317
-0.06383654149736977
-0.5980671628758029
0.718198399140383
-0.04806388052164449
-0.07206735533899483
-0.005395450728996215
-0.5157315647654664
0.1064619169694468
0.4146650985257248
0.01009464664276903
0.001289920942819877
0.1475868488829649
-0.1589714164330025
-0.3215411317155256
-0.1995938452282843
0.4279206458353779
0.09321433126976129
0.002807506830723428
0.1789662625909786
-0.161213893219908
-0.02055987610297069
0.008529573939172143
-0.1428019282517176
-0.02649410404249805
0.1607664584127748
0.7349383340724966
3.811671681223065
-3.694174701383381
-0.8524353129773028
-3.899573912403408
-41.25466574388437
36.3696714292835
8.784568226972292
0.06089960841356505
-0.1516096608806313
0.08111945608283536
0.009590596442975474
22.10538573812979
0.2121474983170659
-24.11960592418608
1.802072687652768
0.1494174176091415
-0.200814868868769
0.04398930650325898
0.007408144869992767
8.144011443015422
-9.814311133130269
1.949216282065577
-2.614056739768097
0.8424497822300483
1.771606957617489
-0.1075020983588523
-0.05181374612058823
0.03256754366591343
0.1267483008781763
-0.03924686544994249
0.03545367124152928
0.003793194258329664
0.1272449942762493
-0.06798034536036755
-0.2381276989442397
0.1788630500953379
-0.003808557841578054
-0.001262659635649405
-0.06043872766542063
0.06550994518334527
-0.01721126331853858
0.09334427714185151
0.009669347146224623
-0.0858023609071949
-0.06970727190594929
0.009932505175436772
0.1642029872736344
-0.104428220476291
0.02040336140645747
-0.08048340419605154
0.03415559396673882
0.02592444887718446
-0.06606786324857598
0.003151410905191609
-0.001207825387217887
0.06412427777439814
-0.5067763166554348
0.0863475232901257
0.4204287934100097
0.1145419599463073
0.08348116468814999
-0.162600477488925
-0.03542264709224434
12.48291683215305
0.7354522376014728
-12.66950332559933
-0.5488657443944479
0.1881140676751887
-0.1143740626098635
-2.259179960906159
2.185439955988782
0.3167630957885256
-0.3606918874143416
0.5145192973652684
-0.4705905056484725
0.6497810120687383
-0.4439982807572049
0.05989774886055451
-0.2656804801114311
0.269149715238718
2.312767178932651
-3.73894511056085
1.157028216707627
12.93569775482113
-13.11594407228423
0.1802463174086043
-13.65563991696718
-10.3469911060874
10.1833326780593
-0.2195420952817793
-0.2076324744889639
0.3795335165708926
0.04764105332201825
0.3865379507356583
0.18253281679372
-0.5690707672940244
13.72016436728696
-19.40680407386083
-0.176224569466108
-0.02862594329714636
-0.1881280643823202
0.3929785771977705
3.309639157208204
-1.240084360524004
1.830225078152417
-3.89977987522596
0.3890888885415882
-0.9929721590730307
0.5016373099285339
0.1022459607970776
-0.01356689339982915
-0.01324397078357821
-0.04946034496954473
0.07627120921575749
0.3714867556100962
-0.4953700766902983
-0.0702724614618318
0.1941557825872851
-0.265058320772336
-0.09074571371720912
0.2521189371753198
0.1036850974128678
1.301205040593093
-0.5262249102220179
0.6665500105806895
0.1317546050974583
0.0785754034403978
-0.1107661966524291
-0.09956381182009688
0.2287256238357055
0.3167459245508042
0.01424340809961268
-0.5597149564274124
-0.246225989523617
0.2212154705968082
-0.006054887123115962
0.03106540615554575
-9.520763378019218
-0.5369125210644362
-2.839817576689717
12.89749347580594
27.92464567378173
-0.7312380084473949
-3.615586935608926
-23.57782072967511
-0.001368823006535465
0.1424316501156671
-0.05906954864450396
-0.08199327834550023
8.284484847021169
-2.336497018695538
-1.358663790197318
0.7080147818305358
-0.4192384566479381
0.2504836665933443
-0.5392599915834504
-1.225815138638176
-0.2330882524571137
0.08320711535573126
-0.3511319497343036
0.5010130869604589
-0.09276112995536705
0.0256054431443297
0.06715568682489215
0.2703729799480166
0.1682926720410999
-0.4294659251237801
-32.08311512430548
7.004658836301926
-3.34569269300325
28.42414898094339
4.34351359413541
-0.6498095304420588
-1.802620072837458
-1.891083990895751
0.01400488039177201
0.01852737449425081
-0.03253225484115572
-0.1964402145743124
-0.005282823525345227
0.6209723775125779
23.4204044687222
0.0805379313261283
-0.08327450732215942
-23.41766789305493
0.2000013353590127