/*--------------------------------*- C++ -*----------------------------------*\
| =========                 |                                                 |
| \\      /  F ield         | OpenFOAM: The Open Source CFD Toolbox           |
|  \\    /   O peration     | Version:  v1906                                 |
|   \\  /    A nd           | Web:      www.OpenFOAM.com                      |
|    \\/     M anipulation  |                                                 |
\*---------------------------------------------------------------------------*/
FoamFile
{
    version     2.0;
    format      ascii;
    class       volVectorField;
    location    "1.5";
    object      U;
}
// * * * * * * * * * * * * * * * * * * * * * * * * * * * * * * * * * * * * * //

dimensions      [0 1 -1 0 0 0 0];


internalField   nonuniform List<vector> 
19631
(
(5.037089164791276 0.04263333928559794 0.04584834531158262)
(5.082029257646235 0.1953602299612668 -0.263250694087288)
(4.997733748341837 0.04835431370379026 -0.05281331282459425)
(3.691089973918892 -0.7960244143399355 0.4074362392222515)
(5.002022478105927 0.1645378107879825 -0.1079788447477303)
(5.087820459299764 -0.08419268674749006 -0.06065963361926989)
(4.990924682557677 0.007553179875326766 0.005367686955784795)
(1.785984124361773 -0.1008105876704813 0.07719344275319016)
(3.788619692513833 0.1245250967058957 0.0588142425146358)
(5.011586938840057 0.02410077015025755 0.007714394504503529)
(4.962877017148654 -0.1062441477006944 -0.08607993606924971)
(5.041192999584917 0.0101711972425744 0.03696227401594045)
(4.399826624947942 0.195233198109543 0.6934227758982494)
(5.060604304135651 0.01040553848128197 0.01446060940666833)
(5.001252325910541 0.002806850787590519 0.004033561713669813)
(5.075348753240486 0.1416405565151706 0.1431193815974659)
(5.055960134719593 -0.02217178264086933 0.1188596168367937)
(4.270926261494133 -0.6858027983006637 -0.5170543949014517)
(4.627369596723817 0.1682873439670758 0.02290955646243445)
(4.318771107292725 -0.1726149258083757 -0.2471962386158811)
(5.02398491757141 0.08192426481071455 0.02844976361769016)
(5.070982118665406 0.08759886887688551 0.08803059398954084)
(4.474956118646874 0.1458320805877878 0.5427256345162691)
(4.964007205405188 -0.0009879001278685409 0.0006906596336204323)
(5.073425626584539 0.02497015597639178 0.1023368446828107)
(4.985128972240977 0.08627665340279429 -0.02659806257151876)
(5.023553505619082 -0.02550952237240619 0.1434064700415811)
(3.820696511056141 0.1470516161127297 0.1850092236507505)
(5.006121564141678 0.2136517964799014 0.1589860663088229)
(4.999076937533867 0.0008046597917932643 -0.009482861622699103)
(5.073630509173624 0.01539990434801759 0.07919476036910804)
(5.086908405915707 -0.03902057277784771 -0.0408508192033464)
(4.927438062299665 0.1026036410518869 -0.1634612312994635)
(5.030185274306364 0.07310773359147385 0.005649892792650291)
(4.177062618190645 0.09207039789623209 -0.04931863540307595)
(4.317432820592527 0.08898322068567235 -0.3165314964764112)
(4.923686974897856 -0.0117272472339069 0.0100300962162039)
(4.622327932931474 -2.20081162756655 0.8016528691189211)
(5.063512219918629 -0.03713078958088679 0.0695918375975999)
(5.202929803998081 0.1977461808924335 -0.3654377881310205)
(4.570085396167729 0.1332521410135506 0.1151193485652222)
(5.001844658357835 0.04855558315181865 0.05671977310925528)
(4.999089283038521 0.0004446690578092199 0.008574141143760552)
(5.009023348951883 -0.01488424965241989 0.0148461281908617)
(4.06054355731994 0.2997078192381996 0.1883246987652383)
(4.516249600340291 -0.1672943731749848 0.01741789403532473)
(4.995001043800625 0.00638529509286134 0.001930646516116933)
(4.995695451140691 -0.07817673377068667 0.1140311612864037)
(5.043763451196021 0.05541733419303814 0.04044876076675292)
(5.080357952835853 -0.009742994057806712 0.07095319304950966)
(4.71211824447481 0.226850948309715 -0.2300844765959946)
(4.794010327603636 -0.04739358227364115 -0.161465616469682)
(5.086497826536854 0.007768197187044542 0.06810583120748333)
(4.073455323144183 0.1657512044555253 -0.2769572655303312)
(4.816263188111998 -0.2912855310241706 0.208805866285972)
(4.848609276292397 -0.0463198596786823 0.611043062730418)
(5.082972045738407 0.02987622385109424 0.08297776413545331)
(5.069981808391205 0.07499222148044386 0.006466158313831566)
(3.860657727110768 0.07448097056087191 0.07884496964986837)
(4.998995001939515 0.01444283923299236 0.004214232874579518)
(5.015269916221976 -0.01873341965483023 -0.005598049633036156)
(2.27306094892747 -0.1433571773769973 -0.0500068647682325)
(3.145760673978326 -0.2348143369046891 -0.1338713939874556)
(5.026019433720493 0.07448021058356866 -0.06715867650442459)
(5.060952785360846 -0.01085276758796842 0.05262822348246717)
(3.305974271824944 0.5481545227549395 -0.6384223712186435)
(5.07483581785013 -0.0006388892453217986 0.06563472046664619)
(5.072699914852619 0.0342313677351318 0.05237567299666319)
(4.957257164379453 0.126049602089829 -0.0252665392648672)
(5.017057153638783 0.002604552492630749 -0.004045718864287497)
(5.013080208239565 0.02498343516711803 0.0121512872540451)
(4.195953146751444 0.388900623148684 -0.4276014427949852)
(4.988642785706379 0.02735670380878431 -0.076101352975371)
(5.079796153772636 -0.02408698550384857 0.05068381488790261)
(5.084000213240428 -0.01841933267607496 0.199333674568364)
(4.951231091314256 0.005880665026797055 -0.06496923835202445)
(4.902900017531593 0.06657847123157122 -0.04161203438544277)
(4.827274308842234 0.1617831810761727 0.711213748637041)
(4.772385917924344 -0.1567603691223471 0.03900970189061641)
(1.185732169813329 -0.2571514525879229 0.3266334524778314)
(4.993734527519088 0.05362084331560484 0.007448688467137424)
(5.036376509659983 -0.06806406680559619 0.1328845489255222)
(4.933034073786031 0.1731274758332305 0.05146154172379105)
(4.822592690976543 0.04341817267621466 0.007870296501564757)
(1.805594780210299 -0.3865136529622901 -0.1965385733998506)
(2.142541266596891 0.1553279907352834 -0.1470062452549761)
(5.087127724744633 0.02151838009291463 0.07615465107980826)
(4.858246695109644 0.04622453218985786 -0.2439368076025905)
(1.830989123896495 -0.1477834602057908 -0.06651881822217598)
(5.033869043262749 0.05996814562499094 0.03993634897596854)
(2.463135684223442 0.1771109072539489 0.111438015218614)
(5.077697441242637 -0.00672102662571685 0.06048590451767765)
(5.079262566089429 0.00524063249214938 0.08038612162808673)
(5.090561770874369 -0.01743722831015019 0.04538879255374353)
(5.123954863832959 0.08041333086228573 0.2045645232269103)
(3.121088238792146 -0.1507692716553305 0.3378129626197706)
(4.745719631989733 -0.3762696871781258 -0.4200655557492491)
(2.588089870816805 0.1317097031951804 -0.2342154050531023)
(5.070230292953501 -0.0008952721033629749 0.02660071814337606)
(5.055884832107473 0.02366640990821496 0.01987007131052736)
(5.091958935808129 -0.02927892787690869 0.02918724904970135)
(3.402035546450499 -0.5681974849465943 0.06884340466303028)
(3.489179332831951 -0.1208263990776198 -0.05389507642394043)
(5.030654036327709 0.05363493021416713 0.03552870429589813)
(3.800767178217471 0.09347828400809396 0.00642208588754719)
(4.126795090938732 0.1198464179127276 -0.5641689348298505)
(3.231638723589747 0.3409022742601398 0.3394127791965223)
(5.095483300271652 -0.007184949095257273 0.08838536623490469)
(5.109337025430253 0.01063160286866613 0.1057373719309961)
(3.572960652498539 0.1079544993875744 0.3816322604212751)
(4.986267943664422 0.2725116957458211 0.1437233138701781)
(5.018662384687953 0.4693904887561542 -0.07192307728944466)
(5.13584171079826 0.01561936370470079 0.007289494336314054)
(4.726901060897118 0.1357612127083301 -0.09132599239534638)
(5.075759863578903 0.03150971900786507 -0.07396366732594604)
(4.851133200224196 0.06442003796678551 0.1206638321260201)
(2.711815838134137 -0.1904746326736792 0.1034578612319863)
(5.080439438917882 -0.006519651916198373 0.06955293405679788)
(4.928317891747695 0.01681087629593336 0.05324883275919365)
(5.07940342967645 -0.02595352295289362 0.03985712639808431)
(5.071605768876041 0.01323230523147341 0.06321512232965153)
(5.089760639495744 -0.003516781542514464 0.03652172486406432)
(5.086944952519477 -0.006912489540304413 0.03666316431261504)
(3.680356748770282 0.1092492518192788 -0.06146167483086762)
(5.049716997805912 0.05841400607515374 0.09197975626148137)
(5.063306208304462 0.02307354652018715 0.04031629262404407)
(4.954143060096484 0.2181827313690783 -0.0946088609992604)
(5.048699658995095 -0.009750704235054634 0.0197920953708022)
(5.025565798713787 0.01051200234004653 0.01750627913459063)
(4.537647833445111 -0.1764973300032324 0.03633308417134885)
(5.040624800104709 -0.001419075645639786 0.01912345467031088)
(5.02595031686379 0.04347621043673688 0.007041385908216706)
(5.087438558230911 0.1001008995264912 -0.1453975541483484)
(2.737281301583188 0.1393086967786376 0.08066456332215952)
(5.048195287820265 0.1286838762467526 -0.1015349515293501)
(4.060691638623368 -0.07238014223297945 -0.06150365728061528)
(3.516370897048069 0.638554106597099 0.5163618589922024)
(5.109590351816813 -0.03584281390127984 0.003711424790799891)
(2.167383247504587 -0.4824690786987932 -0.9918243658569369)
(5.067555286509285 -0.01269106648833751 0.1208442314591235)
(2.552499896253043 0.00800304313093218 -0.1015527958402217)
(4.349865517462746 1.066604321938685 1.00178992552203)
(4.313576932834705 0.2209019787257213 0.4443751990651335)
(4.979286175091383 0.005462547018509571 -0.002130333727978757)
(5.104481348828143 -0.0316038112667112 -0.02082278561850515)
(4.319729225902658 0.6594995914450537 0.03771295540737332)
(5.051232740689358 0.01033447350652491 0.03524892812108042)
(5.021840947670838 0.04760631466509668 0.01064850301678602)
(4.987968022857649 0.02403027038206949 -0.008067785174072572)
(3.094016319990114 0.1044075266124979 0.07294875768002214)
(5.08178411924416 0.03204901438038786 0.06370284873663691)
(5.075802189207912 0.01799131969829498 0.09593338773296302)
(5.081082821349247 0.02053097989291548 0.06575236517916022)
(5.082297777464477 -0.003407700355090316 0.04120554565843384)
(5.077332921057995 0.001841810227911794 0.06890967609723882)
(5.060984641776684 0.0775900086079525 0.07609619381849574)
(4.988586839981371 0.03222471928273118 0.001988534339876977)
(5.132955076525151 -0.04551860635715532 0.2644609317141716)
(2.578377797184548 0.1528706057752633 0.1045147120230084)
(4.621193081877877 -0.0341242590914777 -0.007045471788817276)
(5.077648190707249 -0.004036770350142185 0.04693962542441853)
(5.007196759274676 -0.0272216937279442 0.0158965761940306)
(5.068467740367466 0.004908359730459297 0.03463592195310895)
(5.085964931636876 0.007767994640697527 0.05406238549584376)
(4.98032208794532 0.004171452397560614 0.007949239630203919)
(4.973246406330231 0.100636059384995 -0.05114562088379947)
(5.092352647326956 0.005244185695792358 0.02921177123677228)
(5.043094473520203 0.01979491492346131 0.01275219153659518)
(3.526393276515825 -0.05775330641716613 -0.08363351811317112)
(5.034618655903529 0.0641238629998938 0.06068086143404914)
(5.082990357995104 -0.0939613967438421 0.02389347804155558)
(5.077685532160636 0.004891528094824709 0.03401913335795829)
(5.088690391052139 -0.02739471689718619 0.04267181816815471)
(5.076212099196419 -0.04075029530299222 0.03773013628357069)
(5.081091876389922 0.0158849599813055 0.09816396452811305)
(5.086109433740744 -0.02290761149058756 0.0869854826914974)
(4.996951832415403 0.01465434834857981 -0.01276425880029975)
(5.068731543200927 0.03839658570501178 0.1139059125733117)
(5.059961730835321 -0.09171514619214541 0.1121365118945435)
(4.253417650155437 -0.1923547327406617 0.06346335153432409)
(5.068460731652002 -0.01716188786635895 0.01484723660601246)
(4.992647763855418 -0.0003378904513611899 0.002698935051903821)
(4.980311095969435 -0.01292763604259917 0.01099082765906629)
(4.625079755454862 0.1135842045821711 0.1410076403885355)
(5.005650226515129 -0.01352363323270107 -0.008551219612801411)
(4.96680631057278 -0.01322741391748446 0.01948510613192988)
(4.99477050122823 -0.02596295271525984 0.02923290223241488)
(5.076140129878928 -0.007108471030375802 0.04529106267677542)
(5.069614942097656 -0.0117587030270649 0.04577037091785901)
(5.063804601483611 -0.001468118023168494 0.04428484579340213)
(5.082746530293361 -0.008391956925377276 0.05187337598872833)
(5.008902336215406 0.02164607277078246 0.1125979372106276)
(5.016084214613512 0.07484957703443737 0.2054977770613814)
(4.991025979835125 0.009745944076017109 0.004401790439406735)
(5.077437814631521 -0.002758252121385329 0.0915699640130322)
(4.714157462593803 0.234733102238842 -0.3129844417462438)
(5.086791396224625 0.01639887608007072 0.09429590878408539)
(4.986511872922465 0.04469191146814127 0.01782549348419546)
(4.947123573845314 0.01714828631935816 -0.02625147222905594)
(4.959529246992647 0.08112043375821312 -0.08482415440476461)
(5.069925613361958 -0.007409697867335411 0.02092526764828835)
(5.06946583379727 -0.007417662226201479 0.02755305018494889)
(5.027925740721479 0.03811371652808978 -0.04258657811276803)
(5.085872638344372 -0.01349490411533942 -0.01204386952815991)
(5.006808659249337 0.001722445755306878 0.008874783408561019)
(5.095766699252708 -0.01081471068770069 0.02948264522152927)
(5.043338027530937 -0.05549237629087389 -0.01570472082790354)
(5.062281123749895 -0.03142427441972468 0.03852879553577489)
(4.77301279964714 0.2741212097363455 -0.04556053993453835)
(5.031503612201551 0.03590070431212369 0.05731148234833196)
(4.999143919082446 -0.05388368672280075 -0.04449407286716898)
(5.034217824266833 0.05295925962752818 0.1023795714771445)
(4.573421276254283 1.124387929469251 -1.994469796814687)
(5.002058833991049 0.03111542119177249 -0.001082319115830078)
(5.051067722559694 -0.02005782268419574 0.09540481826116029)
(4.222676650196016 0.007034446623018938 0.3746956963956269)
(5.018618381362221 0.005978629171532166 0.02922272647577135)
(5.012337780716521 0.006097512719548338 0.0107662246756448)
(5.008619218814684 0.008477427849021533 -0.01124665675402955)
(3.629340429399219 -0.2794479658657973 -0.2751488964125248)
(5.007939998391273 -0.02941832015582832 -0.0208568258908822)
(4.974446222309488 -0.07359355315802944 -0.01343131860317356)
(4.960447712341415 0.05523033435471568 -0.01907131169982772)
(4.998337800727684 0.0027408716090005 -0.001385600420416249)
(5.026275975343979 -0.00558518756731227 0.001700000447031208)
(4.978391178137667 0.1145156039571415 0.03080731991077617)
(4.996260457744096 0.07616156971895344 -0.08531405911545308)
(5.024023518811262 0.06442566435333044 -0.05841244683770647)
(0.7306067725125136 -0.0288891711851545 -0.3131855412393875)
(3.620947866010058 -0.1264017792187259 -0.3256429371034269)
(4.969737000587011 0.008899656099873343 -0.03213303580364204)
(0.01223213518241528 -0.006667597818607671 0.025789103026685)
(0.006332091575010843 -0.04107837947837202 0.01803144857948182)
(3.250267824828028 -0.1218819486695092 0.2680249667429545)
(3.669371349587641 0.2120759209990025 -0.0147732994990364)
(4.300447713610047 0.1211353264368432 -0.07734405471020814)
(4.368218819738461 0.5851278267057648 0.3022584068614072)
(5.009001921497711 0.01186879954783193 0.1089498716150084)
(5.001915775791582 0.06717205585845856 0.192312099886328)
(2.988854695655242 0.04916130775269002 -0.2425496804678726)
(4.941207373187871 0.002555685822515407 0.007041802588992825)
(5.171273369144296 -0.07268129663824503 -0.03235983455166518)
(4.993837033776167 0.002323518283074972 0.02462983034258765)
(5.055296429641892 0.02836197856298611 -0.009787329106169397)
(4.982300941809934 0.01403374288319435 -0.01876850335836723)
(4.944305024898659 -0.1597502002730034 -0.2721063292997424)
(4.937276845377647 0.0393064120558609 0.07401385156438092)
(4.975712077052084 -0.01849771749994022 0.002516691435456798)
(5.040534750525965 0.005718142897427081 0.07995291146406518)
(5.031107357953649 0.03403921654920971 0.04438635884674556)
(4.657200990677346 -0.005154122551613498 -0.1156282291097828)
(4.521918537831541 -0.2557017835930263 0.1946142482391149)
(4.981491644876518 0.101497230463903 -0.09364629703903571)
(5.115173257881669 0.06018595759751982 -0.08431564879338393)
(4.926477881495897 0.009688074692383758 -0.02513635026691882)
(4.75191265194931 -0.1340090959842633 0.2648923743549096)
(5.051406283801964 -0.05316606657244822 -0.1210814748242917)
(3.404476739065339 -0.2608334129203958 -0.1777569731832486)
(1.910123314854772 -0.04868084979715403 -0.1198408872983394)
(5.040593602205858 0.1301720656808034 -0.07310448393819879)
(4.992955088223706 0.05677482154162663 -0.07992650810774897)
(5.074715454563205 -0.0506326520219376 0.02022315580559539)
(4.602884811889149 -0.006831560346279724 -0.07901947596115855)
(4.961462686684784 0.1204950615723553 0.1802543428040771)
(5.065585509504517 0.1629791235726109 0.09316643103887622)
(4.997959315774803 0.02851294179595956 -0.05665078154878966)
(4.982958225965453 0.1339039757272107 0.09402735470852727)
(5.11664762941764 -0.02257437611039988 -0.0006133804789402225)
(1.855589654805719 -0.1762685080440841 -0.119182870587922)
(3.856430670369777 0.436157543050064 0.1818328100282141)
(2.436846979575152 0.001475923487942576 -0.1342413279260924)
(4.994604700317034 0.1224033024657101 -0.04642883300192682)
(3.26092192432152 -0.07841967823530102 -0.09842552000884584)
(4.995506750910602 0.002347087365828142 -0.01348161644174412)
(2.751850026513515 0.1695657798595932 0.1501978097264552)
(2.207515739803855 -0.2413436072766058 -0.2584175098136155)
(4.990384539573155 0.01038770533372135 -0.01409090211029414)
(4.372087680389168 0.05019936852481671 0.05628607049604029)
(2.798780246950014 0.1109814673894124 0.5162397139446931)
(4.989114231156759 0.002636808485278085 -0.01209156176762484)
(4.887187531506804 0.01460231655683383 -0.2165847533592609)
(5.026665134459551 0.039147718264301 -0.07191888816627069)
(4.868292661728601 0.04286506502690399 -0.1526866745265839)
(2.667811738737973 0.3842329474211868 -0.1097306413611547)
(3.392876563292682 0.2406328528282974 -0.07026266340666514)
(1.052710695328843 0.004295083919984047 0.3096502134961481)
(1.495642018955453 -0.07124443959149943 0.1744674704310342)
(2.44292090146104 -0.03099170051461157 0.1159731034634133)
(5.072186938760661 0.02826571218637781 -0.04741161450314193)
(3.599755216102986 -0.1632771305082512 0.03849586149945358)
(5.087656790207046 0.08449445911876603 -0.1761125144059707)
(4.97186150218054 0.06337566724568942 -0.003141944345481291)
(4.987890306276382 0.07436758944500095 -0.10283627936867)
(2.837986163927733 0.01333391621179273 0.2161096999590427)
(5.110569741875641 0.07442221667994832 0.3654945576353735)
(4.998166978583208 0.006386342478314603 0.009065594588697753)
(4.995606991410705 0.104757976147629 0.3463833565721873)
(3.55470600171261 0.1722104586255163 -0.2992288974052736)
(4.967909992179654 0.07497993894691593 -0.06391276485485332)
(4.637759519296075 0.3371626427839818 -0.2405435424461045)
(4.826961674549929 0.37740730810575 -0.3465962129357394)
(4.235952139137222 0.001283095738902326 -0.3336631758077312)
(4.629153161803623 0.02897332934828673 -0.07564450599098864)
(4.706960205402462 0.0506805634043525 -0.08333996285191046)
(4.810402314770647 0.1263310264911071 0.204397277838362)
(5.038217143002312 0.03187909191519794 0.02533913713180614)
(2.878735515812575 -0.04714788920399793 -0.1539718629814158)
(4.999219688540732 0.1267392403614106 0.02845496120562897)
(5.039036488513706 0.04993393397003956 0.02125273269816011)
(4.912046593639849 0.3180582056594957 -0.1481751546005562)
(5.236273117970097 0.2935012624209655 -0.5598304541488733)
(4.997940901371068 0.004648427476759453 0.003628288322139077)
(4.983661933061477 -0.003297096567594656 0.0086254576313904)
(4.991698638023041 0.03989698362763835 -0.05422112501929025)
(5.048547564822911 0.145248969052984 -0.2025389586297432)
(3.290101836657601 0.0814950622867915 0.1349868577984281)
(3.898277675493035 0.01590894169217798 -0.1177583873768428)
(4.935041396072267 -0.3276149265505992 -0.01621463211070876)
(4.981066054262359 -0.0326918458116643 -0.03541567684225332)
(4.985544620130407 -0.006040722945279266 0.02760419490458972)
(5.099007580955904 -0.03482168685088239 0.07283217886400384)
(4.949562630534363 -0.008499095314369532 0.05701967874219777)
(3.982581489646389 -0.03182381684099863 -0.2723488386578839)
(5.110253801351797 -0.03550935330182876 0.008362066321817239)
(4.98682011783963 0.06911526497554894 0.007810073549588389)
(4.943067551389199 0.1340208596426953 0.09455272777640518)
(4.619289420195132 0.0253659545496237 0.3993288190135144)
(4.974269250106471 -0.00393810312913884 0.004718366508381094)
(4.998158322810753 0.08272505303895919 -0.08387657345001656)
(5.000806197674977 0.01401450613394517 -0.02415492688955607)
(2.42645521936975 -0.1823979984822562 -0.1194527251488653)
(4.601056505579068 -0.0769917433178674 -0.0003164198661781015)
(5.047314821849085 0.2541651530421151 0.6071996356739249)
(5.101583106863816 -0.03949516178534997 0.1116427930222861)
(4.934841193936506 0.0780525324865418 0.0233089367946265)
(3.241480106852179 0.2664009160178806 -0.1775373485087002)
(5.226642201689632 0.3397598898764102 -0.6436513083609657)
(5.031035141738136 0.1652519365694214 0.04847907840495533)
(4.665768314525949 0.06462867718504205 0.02422994037100123)
(4.963980753990413 0.0045159650794296 -0.006524235931392368)
(3.964895892102373 0.1856094622012917 0.383401386997357)
(5.094231227958663 -0.06538362305417944 0.0771821940152897)
(4.990062762768064 0.0004677122650644026 -0.004327707758897162)
(5.045575555513147 -0.01951413940405285 -0.351793618015635)
(4.469972553983727 -0.05173485571523136 -0.7263154457344875)
(5.039937561846522 0.06628501475663355 0.05576983561507122)
(4.318150568545632 0.1196341772893756 0.08145180794277521)
(5.075097953131142 0.01142232636788829 0.0441527602497536)
(5.017987797215968 0.09761975731394419 -0.05938500995374211)
(5.040480077110958 -0.08448307853967194 0.1127759497815944)
(5.080385580623341 0.04051019950440479 -0.009117984281463268)
(4.998416873508621 0.001961963158502577 0.002050816880689058)
(3.44587734917277 -0.2100633520110887 -0.2729837155407818)
(4.962684934994538 -0.1649854060389978 -0.3447302683090466)
(5.028817146233838 0.03415748168106963 0.006844591278243386)
(3.431016862775365 -0.04795371334130654 0.06432497423081354)
(5.034182434421693 0.06072576217659697 0.05106844020143122)
(5.083340736190483 -0.04042797588144224 -0.02471603108405796)
(4.70017670219105 0.56126341488769 0.1494725755438661)
(4.580606372221783 0.1793706791445658 -0.2259567222106417)
(4.072528282656253 -0.1706360062824663 -0.100578845319408)
(4.93156941701614 0.01723168417650158 -0.2212922792643541)
(3.188234179944438 -0.06016252623472394 -0.0557243456635324)
(4.710208417297455 -0.004915173296265574 -0.08340349933033871)
(5.067565939973591 0.1024043100851002 -0.1396605702387385)
(2.727988681466759 -0.1260101331398639 -0.004259156405198483)
(5.013227178449551 0.05909244584398236 0.03387382444774469)
(5.078702293120396 0.0419374253145073 0.07340217535748446)
(4.194667219707962 0.06455437703789028 0.08512636265596982)
(4.952752926886655 0.1314798875530349 0.03361839696452056)
(5.079514754815442 0.03909775837249915 0.06867655215616741)
(5.087905572050686 0.195293405085596 0.03857174632021043)
(4.768349242414772 0.2670658745361126 -0.05212645335296415)
(5.003935662345867 0.09297243543999484 -0.1523335665359986)
(4.414001785617211 -0.2508138014728287 0.00897353512860077)
(5.090447715163492 0.2476273364241313 -0.3202969052798092)
(5.040985386228694 0.1135048910049596 0.07887730668607228)
(5.018192373656987 -0.02415712567247478 -0.006251901646680726)
(4.68502122224901 0.1939626885839012 0.06626026989777198)
(4.944191458884374 0.1635287649229339 0.2203235638301495)
(1.140136969628727 -0.2328501076259388 0.08288961606108375)
(5.086423271154343 0.04845366912591755 -0.09039230403512194)
(2.788766568333486 -0.05759929156934891 -0.2841292639526993)
(5.043670714914391 0.2126142445536912 -0.03546257817103532)
(4.912308005501709 0.1133381955286679 0.1877285074557474)
(3.022289149041404 0.2534147540824759 0.1959802589725372)
(3.248981876505113 -0.05491169794342696 -0.1032228664694729)
(3.191792266532224 0.5699566030344668 0.3494424992841034)
(4.40589135142102 0.1148553530131721 -0.05471273691957124)
(4.990533842428849 0.009763676312515015 0.02496140134222164)
(5.01155256506798 0.006625306802197802 -0.05269566281363428)
(5.000534442225751 0.1023287008952116 0.1056747777660428)
(5.029237579121685 0.04599580015532881 0.03012472676407031)
(5.04594019932112 0.03857153588278733 0.1665395724964415)
(4.934811945662565 0.05543139382420666 -0.002548951916302889)
(4.997079960183973 0.02425179464793018 -0.000334671563299498)
(5.010637648475648 0.1077601752702976 -0.1303894939390934)
(3.406461549857818 0.2850078696482998 -0.1772829766203126)
(5.001655170140023 -0.02640799518677299 -0.03875085536511833)
(4.905425575136867 -0.08349335270758179 0.0892140661353122)
(4.939966890123385 0.04502407705522003 -0.1277402810897429)
(5.071024972280826 0.07844425963869944 0.05233068848576029)
(3.9911448280688 0.4114389807686523 0.6516629226627707)
(5.094523044823878 0.0247731109281648 -0.09136107882070311)
(4.820671864591566 0.06413140444989118 0.06067204734916755)
(5.047160633717985 0.04276344600850439 0.02313539355025502)
(5.012012860049457 0.07751894666090738 -0.07727651078793989)
(5.025609395516294 0.04979721257161628 0.06524550097279554)
(5.003999089591382 0.09596170884201007 -0.03153738590952632)
(5.01949571589545 0.0009357364923143145 0.009837381139644809)
(4.983485936281521 -0.004096933174413796 0.0192014118770131)
(4.904162890510195 0.2626778322647393 -0.1253431319310948)
(4.983604738890815 0.009803900039488183 0.006060322536587503)
(4.967247995856205 0.065378618936794 -0.08257891733484679)
(5.006283944333783 0.00129067645652002 0.0002395586475710492)
(5.071276821680229 0.123698831725344 -0.02005275558888767)
(3.828956988484861 0.2023538035473226 0.2579026008130443)
(4.882269298416721 0.5497125858985872 0.7557252693426828)
(5.015987611850923 0.001621185732611323 0.01162856954334627)
(5.083482203913616 0.01500325476681529 -0.02658135186994685)
(1.662756578757111 0.9553378100276266 1.983787270851151)
(5.068396445663798 0.05319102995909444 0.004030430476155533)
(4.951066038092244 -0.01799623622756238 0.002929135467005046)
(5.122606946648279 -0.1622636473091741 0.02963679655189133)
(4.958632141473061 0.02649049429549325 0.0009230135443053452)
(4.992336873204814 -0.1120158241163778 0.0006709315484871572)
(1.683445358083534 -0.04796516786244737 -0.03160294107227724)
(4.943519644737603 0.1580626072738533 0.02218418508764459)
(4.710212384426465 -0.1636689494027635 -0.043184296888919)
(4.939903478345094 0.009363499139678851 0.01107649733769782)
(4.980982228456323 0.008396997798701331 -0.0003158344649013802)
(2.338125724646572 -0.1128781056532716 0.1557192099463273)
(2.625632691151007 -0.2834945008603904 0.1036506726195703)
(4.965436259982224 0.01516424753276556 0.002404697020746281)
(1.965284952123963 -0.0007903470255281961 0.1011143172927631)
(4.991565944769495 0.01388802279266975 0.03159861338274992)
(5.059580843423673 0.1584600900962511 0.4767313387373781)
(4.973027475577633 0.1341440270800915 0.1122197946482548)
(5.00056549047625 0.000839076439748891 -0.0003128193849771274)
(2.277018666986163 0.1067955325234573 -0.04481791454126735)
(4.966865565641005 0.1274566390759687 0.1073644784065301)
(2.155039264432355 -0.2472261131810008 -0.176316037062891)
(5.076108197707383 -0.07748881235994774 0.07329665194503232)
(4.974958546445977 -0.05300642683748095 0.02079921081216483)
(4.488680307597402 -0.1375816392101537 0.0968688874589652)
(4.749034668038655 0.2178722650932985 0.1258285434836231)
(2.226269144023192 -0.4037535842358643 0.5667745975473799)
(4.458418510038926 -0.0009023807528018065 -0.02747832092066466)
(4.845597283586389 0.01269606179082057 0.04830948242104481)
(4.841054809450837 0.1367262056502913 -0.1336243048196818)
(4.990640917385271 0.2055832344163933 0.111763341343143)
(4.864635528172364 0.05843627451030541 0.06727477773162553)
(4.98876917955611 0.0006034213896261803 0.07176183738535259)
(4.018780884097525 -0.05886970186557246 0.171982841097011)
(5.002253539306602 0.27446837555761 0.02927933747276365)
(4.99871758878745 -0.004709463212086479 -0.01211685700265532)
(4.905739739920219 -0.03907152560684637 0.009074561553235131)
(5.085631212828992 -0.1800309970835158 -0.01980758222601078)
(4.61781358747585 0.116592391899616 -0.04064833061311401)
(5.029049794210137 0.04781335178735251 -0.02514533316108175)
(5.068599034080721 0.1368094257144834 0.09060576242191107)
(2.176647331249882 -0.2182566854085449 0.1332977457405891)
(4.171728695163346 0.2172287966862309 -0.1509104146331593)
(5.019420168192813 0.005223981394202071 -0.008668119430356407)
(5.003834256230053 -0.02474330844602409 -0.03517914517792468)
(5.059058207222531 0.05051803102306005 -0.04332957532860732)
(5.072973857603452 -0.08333152946319278 -0.1976047262745496)
(4.707859109975119 -0.2717530161583834 0.03502019413239289)
(3.977415052229399 0.01398305105213174 -0.00732600865248789)
(4.56321706401027 0.2238412486764271 -0.05933820163570636)
(4.91062989483009 -0.01470973898774627 -0.145172034825916)
(5.226571343669479 0.1726589100154074 0.1007446402319725)
(4.99348457918714 0.0679705491281956 0.02181096039285493)
(2.192582379949931 0.1207213401030093 0.07810845657029591)
(2.460213450569726 -0.02133320451952502 0.0876729343070079)
(4.47935959973907 -0.1364991350076741 -0.1013574585904727)
(4.993934412447457 0.05133339501872697 0.05165711250672884)
(4.426395226580031 0.5846766859412688 0.6571689872464277)
(5.002147374360628 -0.00437724506894701 -0.007027917445129113)
(3.491921053771995 0.2591909143725044 -0.1154618923710826)
(5.032257025417175 -0.1770764574208969 0.09262195430584819)
(4.863882228550007 0.1120368013225348 0.006065714461515765)
(5.054438050713778 -0.0006813354042537962 0.04510994794719963)
(4.876097475477816 -0.2450292676538712 -0.1085037475998905)