/*--------------------------------*- C++ -*----------------------------------*\
| =========                 |                                                 |
| \\      /  F ield         | OpenFOAM: The Open Source CFD Toolbox           |
|  \\    /   O peration     | Version:  v1906                                 |
|   \\  /    A nd           | Web:      www.OpenFOAM.com                      |
|    \\/     M anipulation  |                                                 |
\*---------------------------------------------------------------------------*/
FoamFile
{
    version     2.0;
    format      ascii;
    class       volVectorField;
    location    "1.5";
    object      vorticity;
}
// * * * * * * * * * * * * * * * * * * * * * * * * * * * * * * * * * * * * * //

dimensions      [0 0 -1 0 0 0 0];


internalField   nonuniform List<vector> 
19631
(
(0.01050802662693761 0.03275884089734774 0.03429521149660171)
(-0.8709891452958642 -0.03639478608103819 -6.890090978995772)
(-0.01754037110831026 0.05806107326543408 -0.01526134938523052)
(2.760374855382552 -2.432815422286305 -21.32027105127217)
(-0.1066431765070284 -0.3141396730862194 0.3915062638593512)
(-0.06495422004376915 -0.7186033543316674 0.08199410275821095)
(-0.07228087072995183 0.02871682390826649 -0.0159385060088791)
(1.396352487204602 8.801023256292455 -6.80780893864258)
(-0.7929029519254892 -0.6203974074731045 -4.204714453659756)
(0.002981179897248195 0.01120221496416459 -0.005181054646890748)
(0.123914065474198 0.1961501067839303 -0.02729887608493865)
(-0.2346927211814192 0.1028308156222322 -0.3513067388362013)
(1.018378841721996 0.4107337953620821 -19.42485448423309)
(0.2717418232731836 0.0149097204855922 -0.1127926809019754)
(-0.001755197818831012 0.001463265765452892 -0.01236933284335515)
(-2.643891712271957 3.599758558629629 -1.363910699806359)
(-0.08062905376159141 0.1333527729898719 0.2206510817528486)
(-0.345849968831079 9.207678346354145 5.027103243270687)
(-0.5414277464905162 3.503239124692499 0.1235089459774955)
(-2.044907864489218 5.162508705141452 -1.994119993344282)
(-0.09814676687924349 -0.03942119949450099 -0.02426691804061022)
(-0.1565200605074773 0.0329278296974852 -0.07973906931026428)
(-0.4261677887855022 -0.5144732600370814 -0.8609437596491474)
(-0.01091835423798884 -0.0228009155233346 -0.00823666587608075)
(-0.01835436911621774 -0.06837092259906405 -0.004058026489748151)
(-0.03911058539820594 -0.01931751695046465 -5.497761918213473)
(-0.005732275444427004 0.05381785120382158 -0.2793437133192658)
(4.33454480779767 -2.440932694412823 -2.221849620270109)
(-0.07251762265809598 0.1550462843977281 0.03748548095831905)
(0.001623282051790515 -0.0007101541371313724 -0.01089145825979799)
(0.5880337402635709 0.06458470661898551 -0.05666926209293522)
(0.004140744095989107 0.07323176642149178 -0.14738267726817)
(-3.730852615478847 -7.029815653165847 0.1020849565465771)
(0.02241719820233605 -0.02243617829681438 -0.06801767215555608)
(-0.008227611466658288 -3.004382922050777 -1.422307343376765)
(3.295921391078337 3.664798092012825 -0.8339080174138431)
(-0.0009283280935857324 0.01450010894303109 -0.1077816322225166)
(0.3732621045770837 -0.1753100980056456 -1.11512057943134)
(-1.743311526242406 0.2359419025615554 0.612993063137992)
(-1.707941987952435 -0.4999040178337834 -1.639475103390094)
(-1.638446607843752 -2.994901345942258 -3.595852772240525)
(-0.006700741767123266 -0.04864385594055463 0.0659000858421447)
(0.03050839828779409 0.01208648034075461 -2.925315477537429e-05)
(0.3994782738345116 0.1230734502687455 -0.3214713763741261)
(0.6549334320767137 -2.939766802002122 -5.429436774888867)
(1.287177071683212 -0.3861389603294782 0.00245724943862391)
(0.02323695449154238 -0.01577559751222015 -0.01872611667828452)
(0.01606828675471777 0.1505859194331365 0.219935732232324)
(-0.04834795802192239 0.02770430381691018 -0.003591485589424882)
(-0.1457264843477188 0.01244375554465039 -0.03700544792388016)
(-0.2263724394520036 0.2421200016441562 -7.197837091550488)
(-0.09641845410525629 0.8174283160674465 -1.237047586325148)
(-0.1079137850075176 0.08355546693909464 -0.004888778444050283)
(1.192380313390357 0.3601818305738695 -4.773009107157449)
(0.04271146888290772 0.8848491448561545 0.1610494295438844)
(-1.505421186450685 2.479694694319774 -3.812018120563452)
(-0.1857456404091396 0.0535350607896147 -0.01539409579842767)
(0.2543494203585029 0.2393708588931696 -0.04411068168420582)
(2.619364525965387 -2.746815382036227 -3.359335209546072)
(0.01808400537060973 -0.0112074328343428 -0.0170297138938508)
(-0.02366046182039667 -0.007665067069640315 0.01819816763529001)
(1.342990331674135 -7.19318311401459 -3.805582580321458)
(3.170218570931326 -9.689881615477127 3.67328782056711)
(0.1575521529644885 -0.09423034598056787 0.1447540032069111)
(0.1512479189910798 0.1056680515540569 -0.3964820760104565)
(10.53250977402234 -10.801762856565 9.820606966067116)
(-0.0009094718354473365 0.05520830323885723 -0.04844715485028975)
(-0.208077914658036 -0.1450604770317024 0.07940454415070908)
(0.05455142314450318 0.2587176137816801 -0.2718643310867461)
(-0.01110453644631347 -0.0008500384253003071 -0.01470645176833604)
(0.01253498462808487 0.01336093618878314 0.006881868486233751)
(-2.080753710163921 -14.75442314680975 -14.95824694328097)
(0.01681099954577295 -0.03683639455075329 0.002968605696691815)
(0.01907101403699245 -0.1291940408060891 0.1279609778363906)
(0.02012786750684373 -0.01370140896839493 -0.07314771081800173)
(-0.3998098320325691 -0.1680290851834484 0.009768111187508498)
(0.0996529432271861 -0.05943538918029901 0.02094724292132163)
(1.059047534946063 -0.3164784814718932 0.5156922297866594)
(-0.2823653507817943 1.063170126780328 0.05179986119985613)
(10.86454344245975 -9.487660932007948 -52.90811789016048)
(0.07393250548673377 0.000670861180956113 -0.09735770936241023)
(-0.07658462611192536 -0.03280464836352315 -0.2977648152699876)
(0.9866441091283886 0.01903496656760551 1.022524368545991)
(-1.671005429725005 2.967668853147706 -0.5543908727714042)
(2.209551570232283 10.82253532416579 2.082933289518687)
(2.409285560373424 -44.11154638494815 4.427753657354737)
(-0.1345832359532994 -0.06425279812835337 -0.0876455681264631)
(-3.165297591829952 -1.297480988902819 -0.1889547840754713)
(3.943660989982181 10.87102449496405 19.64257969898616)
(-0.1726322376905144 0.2239520319045619 -0.1136337236936804)
(-0.06223953524592432 -4.393789589109944 0.7418233086429351)
(-0.1762084620589535 0.1208386609836134 -0.01569968002697294)
(0.05821445407257768 0.1387281694027797 -0.07954673900692401)
(0.1230367894104298 0.06497393054322609 0.01231705797847416)
(0.06157035460176763 0.9539816686370787 -1.360734827049519)
(-2.678778972768874 16.46592768413317 0.3505423082492657)
(-0.3010028645268372 0.5541617170875115 -0.8150039965231779)
(-1.48511908279252 -0.2139209916014915 -22.79539699110142)
(0.02115843808478139 -0.1331739969042313 -0.004617613511629535)
(-0.1008662108707984 0.02331280934169854 0.0255244047691266)
(0.2340547298725059 -0.1928145640786 -0.0002119545401431285)
(3.563042199655791 7.682141069115829 -1.455331356713252)
(-0.1456647523679507 8.002731243768311 -3.615899383176838)
(-0.02089799201138605 -0.001231995143404339 -0.0639922456975285)
(-0.3082281548091413 -9.582197906135963 -0.730340838681691)
(0.5552440814838902 6.000815146148198 -3.103370002251471)
(-4.176039991517173 11.70157287746013 -2.181658752461146)
(-0.2645783863020511 -0.2303878004056815 -0.01554175395555052)
(0.01479664262517928 0.01462772842322482 -0.2074475156959313)
(-2.62448586909296 -9.221090662808303 -3.710899168733022)
(0.3794515677945262 0.06960332771813474 -0.04359572281723439)
(1.531912687644951 -3.91951415687667 3.472826007254183)
(0.4403684618943905 -0.4011471000555348 -1.278208487236384)
(3.954374999361511 0.9943268019325184 -1.182151415872933)
(0.07878999426941281 -0.02024148829761255 -0.04200447411448334)
(0.01779779391112131 2.039081964106917 -1.669477005595897)
(-3.784915278224041 9.286488401158142 3.724292922312491)
(0.02806563617369674 -0.005077702740811053 0.002818802789169012)
(-0.6911022321859991 0.8245784666109867 1.906720255453774)
(-0.05688889915972799 -0.1488698065981593 0.131126062698177)
(-0.006924735613796956 -0.03775529957905042 0.04536502926272781)
(-0.04012375848057317 0.0394063509096977 -0.01396106030393228)
(0.04808028133324649 0.1477003497177742 0.0009319004762553575)
(1.456314719339431 0.1841266044487995 -6.403533408471746)
(0.09439951825725384 -0.0001780756626918456 -0.2381229732309481)
(-0.1119909560320749 -0.08483954851608046 -0.02564369827207862)
(-0.938423806156957 0.1816197854895606 -0.2587932196186839)
(0.1236244145602608 -0.250876981848678 0.07541447414153407)
(0.009113853259617461 0.009062258375368223 -0.0010772620712298)
(3.930888159658148 -4.442153459444018 -3.125485827678891)
(0.01528256487337883 0.003034538670038748 0.01021196151392168)
(0.001044023262665655 -0.02964517877609195 -0.01636342238409734)
(0.116607905511144 -0.5405479330985054 -0.1067020767958506)
(-1.296225771231609 2.912739297469589 -3.436553893166935)
(-0.5908530206894446 0.101558186176427 0.1576883454046921)
(3.113047969804004 14.95190993992296 -8.662449250118236)
(-0.3219177702662268 3.738335345847857 0.7657499370006081)
(-0.3807687592005577 -0.8584280553195627 -0.3652172531391106)
(-5.858879958254334 8.435209771640773 -35.42412420312932)
(0.09898517549590714 -0.02954026868719889 -0.05630809754228729)
(1.384339740227401 3.785847920396466 -2.068091086433436)
(34.37368504357607 -8.363796281830052 -11.31733535334224)
(1.596156821240944 -0.07820781814850369 -2.273413192341782)
(-0.00472641489454619 0.003845269580113133 0.01426600676406923)
(-0.2069076858645985 -0.1065165298761747 0.2339792006162895)
(3.034163263273263 1.969413451270462 -9.357987388943865)
(0.05066632388403905 -0.04351604985303825 -0.03140194421422987)
(-0.008464711988147425 0.0149439096606419 -0.03049564577194475)
(0.01056867941488682 0.002597965190413539 -0.02049979742962811)
(0.5362044428400256 6.620533948831023 -1.524020399422151)
(0.1306811398872194 0.03739333465549025 -0.09127862625550268)
(-0.04182971620133117 -0.07014993717598172 -0.1196606962377767)
(-0.003396881154069255 -0.07779001401077261 -0.0930708042826259)
(0.02338332281362897 0.00793590575811863 -0.08066652246980115)
(0.0304677622844843 0.02653148162696413 -0.01050094274620689)
(-0.3927520708425393 -0.04776787590513221 0.09591922949943993)
(-0.01316696151177781 0.006516682193007911 -0.004776943177641236)
(-1.032714067223007 0.3496811102611007 0.670947122398694)
(-2.671648451984112 36.07515529955224 5.337904970910144)
(0.1914244345876717 0.2267631461111042 -8.530578939960421)
(-0.005651417266693055 0.02216848784132162 -0.04466888424234226)
(-0.03363293493171583 -0.0002074155990589646 0.02139012475388932)
(-0.04095914880153428 0.01128901788144702 0.126508096294179)
(-0.0270595171967798 0.03397060675914707 -0.07110019542041271)
(-0.0364932936333696 0.0001630619163013741 -5.467230177904849)
(-0.001595382421410885 -0.02064711592329842 -4.944774360356202)
(0.1167218897264527 0.01228614127425288 0.001055028898744618)
(-0.0287297726838876 0.01318462753170981 0.02472201452373069)
(-1.313449038434936 -10.07252335071165 6.837782440533925)
(-0.01277997645038885 -0.06126285322071107 -0.0001162762507163385)
(0.0005424918465951611 0.1554991209484406 -0.002760706329378328)
(0.1051532994892056 -0.1575794093565804 -0.09741653803003453)
(-0.01403120078897373 0.1133812913118893 -0.1213697313643654)
(-0.04294929118990391 -0.01183734634673746 0.08346861597306229)
(-0.0350605321621498 0.008260532143759103 0.05688380870062493)
(-0.03976259749778635 0.00525238639576929 0.06277775392776005)
(0.006446638903174259 -0.02182388723731433 -0.0008003934310522199)
(-0.01567889779205128 -0.03030592913538458 0.05612384127592663)
(-0.3592125801836207 0.2588787969199259 0.1308672214162204)
(1.66665653302627 1.407409311096885 -3.186384802602907)
(0.1057732947134913 -0.09499944565758839 -0.039009322190577)
(-0.01528489537786699 -0.0003348739213194316 0.009653732026538948)
(0.006947779186085904 0.001202636090728018 0.03102488250002163)
(0.02235925394950523 0.02606555673619621 -5.421024260226146)
(0.00424377317108692 -0.02404037351678895 0.02765605138177209)
(-0.004891097561676831 0.0003903066333365926 -0.05349205457387193)
(0.02277140312855051 -0.1838993811692428 -0.1972827366776545)
(-0.0587196689858251 0.05229103958693242 -0.06960204067192235)
(0.1676933801945839 -0.04719643860634543 0.06348527391780717)
(-0.0817653258969375 0.005786314070096723 0.02201164857538886)
(0.002715662525220736 0.1488015287352357 -0.05649873762158215)
(0.03752743719451086 0.137113376147924 0.0003155281131195856)
(-0.04487614455432437 0.737745199699769 -0.3121540572292247)
(-0.02044202143018822 0.0003452195279763791 -0.01630015225581461)
(-0.02755905125675634 0.02183387716019689 -0.06299452095532224)
(-0.9475663998928308 0.2208049857082013 -0.5854494454313866)
(-0.05649650414746932 -0.04664511261265818 0.01392469273722136)
(0.06618952754465129 0.005713846675845718 0.05295924958936225)
(0.1035865813919037 -0.01702190881254534 -0.03460953285251869)
(0.06082900880296296 0.08835872458045871 0.007067294113504619)
(0.003812247675078963 -0.05148374406151371 -0.07360340950656545)
(0.003256672846877522 0.01034501461354755 0.01973120828894051)
(-0.001538097576457509 -0.1178659143414979 0.004357643724367491)
(0.1424971531347134 -0.00424349429220356 0.05799259131730224)
(-0.005646910691667074 -0.01973162457090974 -0.03250426501071575)
(-0.06310780843717993 -0.0263323372732784 0.05527863743827423)
(0.2473617842264582 -0.07089212749138231 -0.06556541800566854)
(0.2883504520993016 0.2075869729802454 -0.1102476304544681)
(-0.05159956123728361 0.0920783626969208 -4.844505940471987)
(0.1128704617592576 -0.1206433220956361 -0.06601553600091621)
(-0.02562621416745524 -0.00057564837882439 0.07256785647440056)
(-0.2847970244954537 -0.003666550868233417 -0.1089343893624643)
(-2.464642263005865 -21.02236945231307 -13.64034013613317)
(-0.0242132612478882 -0.007950662581642277 0.004942151702356693)
(-0.1689510788125078 0.02791446962278008 -0.006360779522093763)
(-4.864100976526765 1.497079209143149 -0.1627328604495804)
(0.01794453508902699 -0.01376944966191587 -0.003831390488840234)
(0.1130099340166449 0.02058613053051954 0.005687726122603372)
(0.03360890443317903 -0.04550363194981126 -0.0100348108175363)
(1.135755186338917 7.486090949877895 -3.279423531333533)
(0.01220423157300094 -0.09749757844322897 0.01073020446456727)
(0.1250111533440896 0.01419019122361778 -0.06738271514704468)
(0.02935266547787415 -0.006213590096250908 0.08013377929939834)
(0.001252322119629386 0.002663868664267712 -0.003670998165159906)
(-0.002728598268623143 -0.006488898571143498 -0.01822833204657002)
(-0.1915387076850886 -0.05732071285006787 -0.02330901026015732)
(0.5326544550181666 -0.2218971298029203 -0.3575922206452443)
(-0.0312545239988641 0.0461592959668389 -0.04011149313893735)
(5.896890678823382 7.829314368482638 9.815260500716789)
(3.285713318818027 -4.711383286985406 5.127847753202462)
(0.01117030475527916 -0.0176191013639351 -0.03218718019455917)
(-1.568973642606389 -0.36128775375762 2.004758783549524)
(-0.1002389041661976 0.6487758851997897 1.373660517970745)
(5.873495559267907 10.96660687020613 -5.105655848676841)
(1.260538433389381 -1.245834505759996 -6.669226240538658)
(-0.09018062741141719 0.7525534284051141 -0.7108699033149976)
(-0.2248766727315064 -5.663144370341712 -2.657596241223812)
(1.410114058431517 -0.9510518010503376 -1.366273903659308)
(-0.466532597796297 0.2794900381267976 -0.3331067442494974)
(-1.677541202780044 -5.527818078458601 1.504105145315886)
(0.05860860880030029 0.01359263055268151 0.03946586671958185)
(-0.03774445441366679 0.0305807402836068 -0.07567223485757762)
(-0.06764367669057041 -0.03131683374560564 -0.05507778315253605)
(0.1466349496954549 -0.02640677655759257 0.08959148036381624)
(0.0282650937400317 0.0008162528797977346 0.02239438659620658)
(-0.3276682256013604 -0.468386355043268 -4.936802040026254)
(0.01338504074790479 -0.04980474841193784 -4.838721361211014)
(0.05267148889756721 -0.01180262354967599 0.0005414260252071743)
(-0.860322408499524 -0.3807683833665222 -0.6010245761390508)
(-0.04744281927406248 0.01495715506867912 0.0282237758085923)
(-0.8293466432115706 -3.61149031918071 0.9010077927460611)
(1.01871477459287 8.199781268710135 0.6411613181988447)
(-0.006371275435665663 -0.07827842853605001 -0.06852332353617707)
(0.2352138920616827 -0.07666042536440243 0.1471195474619898)
(-0.01767838925725665 -0.03318372501713394 -7.865478210473469)
(0.6816739563218326 -0.6942059851228632 -0.7807629409337795)
(-0.2387631751897053 -1.559099089872913 -0.8931481468553127)
(-3.607634480530718 -36.11844624251998 -0.4105844364126024)
(-1.638676656201367 -31.6368153051573 -2.2895258476822)
(0.005309170652268214 0.129212483013387 -0.0563284826624183)
(0.0219892766620907 0.005362229325203266 -0.1274417187687879)
(0.835899543046519 -0.3465730811057399 -0.8009866750324872)
(-0.2545366600421244 -0.009492675035976936 -0.7069636107225112)
(-0.3194523953082568 0.2206649132212747 0.1309463516028135)
(-0.06551533850439499 0.1762856142329518 -0.01801041133965811)
(-0.06563993299393316 0.02912116237192528 0.004571421976859232)
(0.1655952063854442 0.2094030429581847 -0.06878016622037079)
(-0.117871596043809 -0.1705111777176472 0.2607349407073432)
(-1.484180572401036 -22.64896895326333 -0.3823930629759595)
(1.20620528852471 -0.6500497602119909 -37.82124069621888)
(3.011610471097274 -4.967128801291636 -5.390998552459142)
(0.1990336907114869 0.1513404505449613 -0.1621902661957715)
(-0.5541367957425374 -4.425996642392837 -3.299540360216289)
(0.0002114734547790618 -0.01657580813390615 -0.004339985758343415)
(6.636933997295881 4.443800907630436 1.940365455427527)
(-4.133689910442786 -38.15114310017829 -0.03608046342480688)
(-0.07689895961415873 0.008411977638369372 -0.05652291221395253)
(0.05315526186001936 0.05110565530947548 -7.257036208342693)
(-3.044431146034145 0.5638666241570869 2.392775984507743)
(-0.01146659936871255 -0.0010605961338182 -0.01445848218548424)
(0.7178613550726313 -3.312090233989967 0.9069533014296031)
(-1.593014962708875 -0.2163599658916841 -0.5004094781098726)
(-2.061342336595274 -0.08969376989237859 0.3458474702648794)
(1.791518237150745 2.11993948136913 -44.20409635609448)
(-0.2049541453878314 -7.623584457213139 -1.75333477854078)
(-2.500821334239677 -15.58544818932498 -0.9220374305488892)
(1.374180309824131 -11.39904364026618 -33.07463920859163)
(4.790882323114579 37.77865007604039 -2.834119043859773)
(-0.02540533571677617 0.01888572709072918 0.06991792123332827)
(0.7853966520475952 8.362235306331328 -0.7322237473217956)
(-0.4615589687436001 0.2022726841228237 0.02189296572106425)
(0.01514084800860017 0.01323909047031372 0.01854013191952894)
(-0.2731052339957865 -0.2651462147906326 0.09235131652549802)
(2.703397160240434 -2.788245553614871 -45.30390683056252)
(0.6504024719266475 0.5456716596674693 0.1160009060991849)
(0.0009907836360485973 0.0008681608223287175 0.0007518781710260732)
(-1.350699030205562 -0.3101295686006634 -1.431316313136553)
(-1.29116956640975 0.261795772957367 -28.72986551437801)
(-0.06211871994500199 -0.05727455189473937 0.04222400069969856)
(1.509347693394295 -0.06968609674886289 -1.414621619987422)
(-2.038194763730503 0.2150759211444544 -0.493433641396096)
(0.2812340432641598 -4.158656225678804 -3.649411138570785)
(-0.3301012978619428 -0.5639561028539291 -0.2204851007273081)
(0.0556664034844226 -0.1538553821946707 -5.462735072532597)
(-0.4585014319584689 -0.3087198731867218 -0.3083714535145424)
(0.07915874671339311 0.02371079627160243 0.01364470766584063)
(0.2726366962834255 -3.380527192462309 -0.2260121433068297)
(-0.5307188007646426 -2.870345095832962 0.09916389746949136)
(-0.001120272465217155 -0.01297154904149941 -0.03964660994666101)
(-1.938404305608454 -0.2286437839643183 -0.3243897115482859)
(-6.77658091412698 1.611565623482327 1.720602754094426)
(0.001660732811043725 -0.00446532749153437 -0.001149443137162249)
(0.01656028737374576 0.004735426383559204 -0.008675811390886396)
(-0.2701429326695719 -0.05566157747961592 -0.1000001148370581)
(0.2050687582755253 -0.06328273076732846 -0.9128755798665926)
(0.7771565422143127 -4.667700057747474 -6.629068721723934)
(-0.1750374148228396 -12.46921872379694 -1.671275662660799)
(-1.177045788552204 1.612516835052819 -0.6584120602165116)
(-1.150963074240156 0.4903089898668226 -2.112551389074039)
(0.0283314030681994 -0.007151054339517158 0.009683703241459606)
(0.01329275835890151 0.1859663797317966 -0.2476343572209359)
(-0.6150792508644715 1.209273935690058 -0.3372899067340963)
(0.3290538902982963 -0.5044375827681022 -2.109447217097661)
(0.02210977716597913 0.05489498207133739 -0.1052713795968801)
(0.03710988464411893 0.02502816888199989 -0.03977480126585202)
(0.1059659265164861 -0.1278015860979813 0.4181974948755798)
(1.558520102445214 -0.596079766437575 -18.91308018574139)
(-0.04501220984762003 0.003634697756198424 0.02403173807023882)
(-0.08581003421386013 -0.04360928588833388 0.04376404432233739)
(-0.01007872907756748 -0.0005467850547526251 -0.001705855399307788)
(-0.7719408664502185 4.172596934463265 -8.585991783618775)
(1.662482428874856 -10.85576505317529 2.904754160640239)
(-1.96265837245702 -1.379588672369097 0.216167712851153)
(-0.9267875851902556 0.2045051310679222 -0.3364763546704562)
(0.1406048372199354 -0.1470946691176666 -0.1741343428655117)
(-0.9835903102220701 -4.296685542061525 -0.5393089985490802)
(1.186220216418105 1.703076950892 -2.071609635881911)
(-2.057432282273752 -1.319123718046894 -1.347380888750301)
(-2.961024553427319 2.535434839692394 -2.989589392978758)
(-0.01261591845884326 -0.02359832472397597 -0.1019450023883207)
(3.576161976115115 0.97360023964371 -46.30058192659985)
(0.001302154719248244 0.2176226821441921 0.09771206122274413)
(0.01186431867858487 -0.002825118398313607 -0.01283305959418591)
(0.9257954398797608 -5.695575231563224 -3.93901287623399)
(-3.422796840711322 -6.085973165009124 -3.584608619626688)
(-0.1991915853688845 -0.2809734088171304 0.07832279369375145)
(-0.4164437996909096 3.845255364863151 3.127577093097192)
(-0.004218474817960637 0.07452637899690126 -0.04988979348496458)
(0.2751267056232026 -0.02419373236200714 -0.02661045740806704)
(0.003542271426169252 0.08188741739593583 0.1344729205092136)
(-0.01302342094628602 0.1004403160556078 -0.1545490147350649)
(-0.006084199677242344 0.003686910097629439 -0.003537221725957088)
(-1.365599203988165 13.71171143680487 -0.1019366757204825)
(-0.9199296073137988 -0.6731762090836451 -0.05516439928684592)
(0.09544902658792731 0.1217274326969444 -0.01265125130751938)
(-2.158090357423646 4.193863752556127 3.222738920861588)
(-0.009188211472837007 0.005720891075169304 0.002051100854799745)
(0.1975968649007192 0.0988075514766783 -0.6550172132012316)
(-0.07077477878035421 -1.132429000522067 -18.82111107761402)
(0.3702056145460401 2.946685392174475 1.130097945428922)
(0.2267801153554415 2.175454604595161 0.353047398534413)
(-3.190632942616229 -4.93426454612393 0.3913871979585313)
(1.275101146613881 10.50377078639543 2.153871362406216)
(4.566030250918406 -0.5370538211003172 -2.040331820601329)
(0.38109429570196 0.6531489524198101 0.2933289774350643)
(0.5235630681599655 -1.899938359957912 -4.864677510345384)
(-0.05647572820841114 -0.004993956912988808 0.001886185928972332)
(-0.05565950533846339 -0.0235219157450224 0.01677651623002065)
(-2.233862795020622 -6.168251254383351 2.083564240877219)
(0.1428922745443323 -0.03049067177304207 0.007496884656899044)
(-0.1802561419000272 -0.5707606205149871 -0.07104440643388094)
(0.2222457811511594 0.2841084237318089 0.8928585355349501)
(0.09565278674805985 0.8365736281981342 -0.6155229020886707)
(-0.08734423872159275 -0.04344090748440383 -0.04178404980403368)
(-3.566480514420836 -4.902962443597565 -1.059328319097212)
(-0.6874287633794059 -0.004017705838395919 -0.08280694247154616)
(-0.3467435727065522 0.03607834202534264 0.006860117450857267)
(-0.0184241443009056 -0.005397487990820715 0.03801232953668864)
(1.372835168847474 -0.7611036412667895 -17.91031433938702)
(0.6477047538312445 -0.8250626808149164 0.7015356032588066)
(5.282142476436956 26.38659280382361 6.262684749119067)
(0.2218224108298977 0.1563890602944927 0.007855010966022001)
(3.737932632140406 -7.865607855405139 -5.639988070967837)
(1.008880592510636 1.059176204436625 -0.2458183476501974)
(0.7927920975619892 0.1596067479625387 0.310749107082339)
(2.768360945499228 3.837330589222399 -3.061142240642586)
(1.266628639217955 4.603084966997711 8.141749129815841)
(4.250790475034577 1.888306724356102 -24.93849296564498)
(-0.4298163991351731 -4.122999385525603 -2.124936416906152)
(0.01354756461451321 0.05433795067300813 -0.05358961982652313)
(-0.006370916744638517 -0.004783535886663344 -0.001998340632773134)
(-0.04719102391287115 0.07052892351102709 -0.06058933356621021)
(0.02100028035810233 0.02489628147016374 -0.01245947180938518)
(-0.2132552161825641 -0.08579367540470585 0.1835313477644878)
(0.003000811295580847 -0.03313003393833484 -5.472204252949995)
(0.005396937798599132 0.01581107479285938 0.02278806825098561)
(-0.1236601909527571 -0.1375295371925872 0.4159651127345608)
(0.4941580744952519 -0.2027991342891513 -25.05780328170836)
(-0.01680685295773491 -0.02279312201972194 0.02211909935212817)
(-0.7793286609782452 0.6356054443285553 -1.125578538013942)
(0.421699212147468 -0.3940156846464494 0.4182993212433997)
(0.03367604840056938 0.1044441743361978 0.03122281052016312)
(2.208486702579854 9.297044361609094 -7.181730118837612)
(-0.4025190298848509 0.02839963268949243 0.1178322184953123)
(-0.1294148444393867 -0.2165512989582679 -1.761811434453306)
(0.101449381535435 -0.0755470009591121 -0.03191653319505428)
(-0.281712400466704 0.804206481932651 0.8054765306811799)
(0.01824915806600863 -0.1079837210852765 0.05717248639598035)
(-0.001993144325849683 -0.07036327397775849 -0.01379636482985291)
(0.1012455561240816 -0.005291895958495708 -0.0892220403361056)
(-0.03139356021997278 0.03947064026506839 -0.03370981605713174)
(0.5814656478758069 -0.230556457013381 -0.4533556052362178)
(-0.01603547873815236 0.002424593977732619 0.01597613697351973)
(0.09754146144179476 0.06806032090994257 0.09136686737146683)
(0.002598380383131297 0.003811846218572637 -0.00247067124031552)
(0.7215577890886069 0.4615778345600585 -0.4624169669280445)
(-6.278417473838614 59.23963792946628 -8.484616845769427)
(6.139832961861314 1.7267046428219 -2.218407592144653)
(0.04719462739643134 -0.04427757912192437 -0.03867085178750256)
(-0.4486922912745982 0.05401023384446785 0.06459458557646924)
(2.07119543033145 41.51157847303897 14.95147962808888)
(0.007964268422283524 -0.2314313190193477 0.01329933675112894)
(0.01354736206231757 0.08111633621400841 -0.02514051697288732)
(-0.6084457145348098 0.8934313725375619 -1.577618974820789)
(0.001376042123484485 -0.002352936653639073 -4.988239667062295)
(0.7368556606033061 -0.3017177673445895 0.3539176953764039)
(-0.1148938290715788 -0.4977462223256231 5.762200595618143)
(0.4599342189911265 0.01490121911130562 0.4348525915268064)
(-2.013111644579665 -5.853541675152374 -0.4757950779469389)
(-0.01406923819332315 -0.01760727232471679 -4.769425091785071)
(0.0154799199826819 -0.01852037108389369 -0.02840161087707672)
(8.851461853934607 50.93482109312319 2.458223167472274)
(3.175458528063416 41.64951909661529 -2.646424660226702)
(-0.02493193813891032 -0.06675704869031152 -4.975534993267882)
(7.744609308083223 7.049082021927624 11.5717180663832)
(-0.02084070950575995 0.007801163141063468 0.008171296619491675)
(1.529585353224934 -1.70959245754161 -1.802259128306423)
(-0.2020648125550057 -0.07384142671089378 0.1290959823871779)
(-0.0006022096893702294 0.001173755398503579 0.0001552623670988588)
(0.403223677409986 -25.95032550841685 -0.868535917843734)
(0.412088667133906 0.03388927183393056 -0.001677247297412365)
(-4.10153747438609 -45.71396687979107 -3.575361206882748)
(0.141126224634039 -0.01840419395080713 0.08883318080469726)
(-0.3631208322378962 -3.040899950142219 2.137232875295399)
(-0.5668388175428828 -2.879839238208113 -2.52846768077109)
(0.4503818283693115 0.2972989356240248 -0.08893766340372583)
(2.395314648860177 27.81942116071702 2.275021636289875)
(-0.5237098561317945 -2.422007092352044 1.191199450562003)
(0.5367886631632814 3.627208511975715 0.9959231946257601)
(0.37082230026709 -0.06384034866669321 -1.710358893048891)
(-0.4333084101200395 0.09232016240481639 0.2535748831701866)
(-0.01489014224022697 -0.09144950666288407 -0.5720793504326833)
(0.4734666179669685 0.03556681065697438 0.1840647798845596)
(0.4344828484593501 -1.349558285473418 -24.08572980289667)
(-0.2261852986175387 -0.3260451836383387 0.07313290135986507)
(0.1565965296756325 0.003022573811589695 -0.0134471455203983)
(-0.01645585704444318 0.06032518292026287 0.1938969900502497)
(-0.182323298726212 -0.1315812825666247 -0.397299741548749)
(-6.019530024737239 -4.152664487277867 1.537293618941623)
(-0.02573097082576783 -0.01695681253301019 -0.008904820293930311)
(-0.1766106770034778 0.06067340466254895 -0.01354052649357362)
(3.024805013126654 15.61199975607266 -8.686403730028843)
(3.814391685077071 6.025678508955742 -1.691857493877116)
(0.0005141750682040244 -0.005179596996130353 0.01051192909252751)
(-0.9094433864270161 1.077639666115316 0.1545715127088428)
(0.1602033620107815 -1.005778602844881 -1.068631284356378)
(0.9772515567245792 -1.658002739169781 -0.7592987432002312)
(3.47724041803695 -1.224013608176836 -3.176077542083276)
(0.4856538177349299 -4.320829685637118 -1.230693027280817)
(-1.489233806276328 0.7754550444851916 -0.7204601180087924)
(-0.2280499433075507 -0.3694121270535436 0.3606446165791877)
(0.1250469579660855 -2.121608601726848 -0.5637166482508997)
(-0.002400815381988448 0.005621205048973281 -0.00257367932949861)
(3.904120600320895 -5.053354781271918 -39.94348009918596)
(1.704145061397134 34.6462891048367 -2.045238143691658)
(-1.652829003415824 -1.795855878410424 -24.01715314857194)