/*--------------------------------*- C++ -*----------------------------------*\
| =========                 |                                                 |
| \\      /  F ield         | OpenFOAM: The Open Source CFD Toolbox           |
|  \\    /   O peration     | Version:  v1906                                 |
|   \\  /    A nd           | Web:      www.OpenFOAM.com                      |
|    \\/     M anipulation  |                                                 |
\*---------------------------------------------------------------------------*/
FoamFile
{
    version     2.0;
    format      ascii;
    class       surfaceScalarField;
    location    "1.4";
    object      phi;
}
// * * * * * * * * * * * * * * * * * * * * * * * * * * * * * * * * * * * * * //

dimensions      [0 3 -1 0 0 0 0];
oriented        oriented;


internalField   nonuniform List<scalar> 
37377
(
0.01724740878000327
-0.808359742342444
-1.451864375558162
2.242976709136641
20.62105952296458
-4.65041672767223
-15.97119571683187
-16.56427661061762
8.228774457739496
-13.28944559084588
21.62494774372166
0.2227843070409911
-0.01635668528414951
-0.03056607381696603
-0.1758615479583206
-13.89825894512675
-12.08603195530907
25.98316759484202
-15.07316267262547
-30.35196776823881
29.13009209002292
16.2950383508453
-8.929601144169224
-24.360764096947
21.4757352078008
11.81463003335774
22.75512988372428
-22.16172361222983
0.5024830570138304
-1.095889328497508
-11.27732792323245
-5.815721178088046
17.09282130226489
0.1612198097819103
-0.4899309891921569
0.3938689667941068
-0.0651577874441962
-0.6944131219324926
0.5599987782841348
-0.6302764217345997
0.7646907653280306
26.60427222064376
-24.19551492853406
9.198805494329509
-11.60756278637711
1.513111595099235
-14.62596190225996
-14.31197170005654
27.42482200724021
-10.10367715699924
3.663394287357469
-11.81933511778984
18.25961798746673
-1.432690686561739
-0.6535029207559695
2.212967071047689
-4.856092086119436
-9.494290602466496
-3.442021383658999
-17.12494856464557
14.56638416425606
-25.45756706704536
28.01613146745585
-14.94243264378079
29.47156821925669
-14.52866639571743
5.336425816846842
-18.7798980331995
-5.076191281896945
18.51966349825881
-19.60732297164135
18.72332822257719
0.8838092067497164
-0.8201969655480434
0.3053920784009925
1.127566581310389
-0.6127616942169152
-0.2381529090834447
0.1622938056061477
0.2115787569941893
-0.1357196535342678
-14.29240417339036
18.16304624009882
-2.57699475793792
-1.293647308678818
-21.68443818938196
-14.97306915966492
17.05018437740664
-4.70980136267883
15.79408028722605
-23.89039438542906
12.80611546088465
14.85059393748628
-11.62886195014256
-0.3783640662775267
-2.843367921064801
-17.0948688410496
-9.023236827071722
14.70323494029919
11.41487072782643
-0.03229711238313483
0.01692851033784606
9.7064198150471
-20.23012742306824
-8.185805682274996
-8.441851106977104
32.56105500836844
-27.42259229633342
3.303388394951283
39.66165023842953
-16.63512489487217
0.7943801106179821
-23.82090545416998
23.53803885029857
-16.27721619378533
4.237678666691041
-11.49850132319225
0.1601616367844236
-0.2639445120386791
-0.4854176694133115
0.5892005446181774
-0.1171165160954681
0.1008743338789549
0.0102094556227878
0.006032726579228183
-10.20069275704183
3.517469405659128
-12.00041925896899
18.68364261052784
-30.54422322342252
25.67706879935018
1.531935423690918
3.335219000399423
16.61937781392701
-19.012084452097
-17.95526852310214
20.34797516127247
-26.5635247813036
-1.130498748654958
4.118868462201437
23.57515506775917
-3.484126910739524
4.907791198541624
18.21428578777806
-19.63795007557574
-0.9421575614050587
-1.523413529267233
1.354510957740278
1.111060132932802
-11.22036892491986
2.010468876618762
24.95888173931013
-15.74898169100901
14.27921394896716
7.302596870142393
-5.902908646896477
-15.67890217209919
7.392576080847456
19.9724996741993
-43.22215071461456
15.8570749595706
3.113525629133485
-19.34237579767041
-4.18381369518784
-12.71673195190213
-10.77375158491176
-15.57536899955353
39.0658525363674
-18.93490982777889
28.59521953727943
-5.70376712617421
-3.956542583319953
27.32075727518854
-27.17099227219004
-3.79856655349055
3.648801550497182
-21.59329119265183
-16.49660229010864
10.12803704361078
27.96185643914129
18.60509069701003
14.12532598698778
3.010675948017678
-35.74109263201014
-20.22795368803181
-6.280118516381458
28.06701951804336
-1.558947313538975
11.48979733410242
-20.38116110119974
9.053593511228396
-0.1622297441327145
14.58103864815345
-17.49894304140128
2.917974662536206
-23.26502956059701
11.40134525257758
10.9378244736218
0.9258598343985019
21.62743691586664
5.157351444832397
-2.018409903982793
-24.76637845674427
31.04464138089411
-9.182032648790397
-0.9198081287392318
-20.94280060334165
-2.969167144720711
17.55029829295394
11.3741580236169
6.655326100633122
-18.89367475974893
0.8641906356155413
-17.50924011392694
-3.571405704330763
21.08071045404092
10.31872511103847
-4.147680739266711
6.494574124909488
-12.66561849667521
-0.4894756615719953
0.0642852296746174
-0.8957077104261565
1.320898142258784
-14.69548217172521
-2.094438283031165
16.78900727574832
36.66542791731288
-9.095753420611747
-16.74926054811749
-10.82041394857903
0.02931081803059242
-0.09586634850423782
-0.0505609856300842
0.04827443340563608
0.1202157665851162
-0.06761586612514135
29.21761248617227
-20.03833788718985
18.47033255058524
-27.6496071495786
0.1304180067314733
-0.1192512298163174
-0.0009573213042592691
0.2109257755114124
-0.08974554325740462
0.04111357334474225
-19.9716740023019
-0.004448460242242615
19.97516050254032
-23.80089332907549
23.96068937188802
5.828668870728917
-5.988464913551097
-1.543287229480559
26.58420449477081
-10.71254438384055
-14.32837288130188
2.291740728130922
-2.216702861079435
-3.684560215638436
3.60952234851161
-0.1406926985936526
-17.28738265232891
2.523993256785725
14.9040820941156
5.843996186119181
-27.41480751071191
-2.280536065874667
23.85134739046963
0.02393104807474822
-19.99643036598095
35.22132653749245
-9.096572382370125
-46.46803332561202
20.34327917049674
-7.245296893838623
-4.340038535325579
32.36569079960229
-20.78035537043797
-23.05601050055361
14.85025356839824
6.13715781646862
2.068599115683208
-14.31841539423838
0.841667582542485
-5.673336039739278
-18.45727445315881
-8.669803273831478
14.3084635178408
12.81861420922414
0.8107031084183564
-0.5506573278604535
0.2054346225954928
-0.4654804031658678
-11.32878865802972
-18.95676597707206
9.744198476744078
0.06987224711764796
-0.1187828238869633
0.0312819680778153
0.01762860867260512
5.398875450753734
23.76860429504093
-7.652426455216495
0.05144303930735747
-28.53546468541028
25.79259723110934
2.691424415014626
2.399682561164175
-0.3946690010669099
12.56505574475821
-14.57006930485468
24.19471969309476
-0.195384748305975
-5.260311089542056
-18.73902385521491
-15.87486137967717
-0.1806090703732911
-5.628967739327814
16.4534907600978
-18.38776604777846
-24.62924949362154
11.79841956055285
1.848352350748532
-15.05792659801974
1.411154686774594
-25.39657461962403
-0.6049814988522949
0.7058037323068325
25.29575238617242
0.8968751148404429
-0.9454552287533088
-0.3273938184430986
0.3759739323258761
-13.11790209920385
0.2226503246021977
12.89500010565246
-18.25367240160234
17.09751743855815
-17.05522527252277
18.2113802356823
-1.727147872954668
0.245518114929049
1.45762232719186
0.02400743085156782
-6.398264682616847
22.85062509136847
13.00416286716391
-24.87831860769504
25.30008003368271
-13.42592429329506
15.70139337391653
-19.4533181847789
11.04810769364316
-7.296182882776488
27.80565256365981
-13.26531092321874
3.668349281359397
-18.20869092173074
17.65433635397518
21.90009387745522
-22.27620518997806
-17.27822504144513
16.75256445523459
0.900829323015204
0.1514700290526414
-0.002213668690641773
-0.08564083949208692
-0.0636155208881036
1.842679311945387
14.09129802127293
-10.87040363645484
-5.063573696762206
2.802410047831083
1.385801709438918
-1.426809738470729
-2.761402018914551
-11.65834909309073
-5.957775686036511
-2.602734745123243
20.21885952425849
0.007975276039817158
-0.1237940304669905
0.03296891494759061
0.08284983946524317
0.3495562613479272
0.07165141743470803
-0.416027146725326
-0.005180532078298068
0.002834904408153576
0.5874388153281096
-0.5954453490069004
0.005171629249326834
-0.7672441557974323
0.6947801881113992
-0.6029011654013463
0.6753651329981993
-26.03483979128583
14.37510409132849
28.41230015519859
-13.88275689328874
-3.616215075532097
-0.0263286839982681
0.1550655580175014
-0.1260444761973757
-0.002692397836236515
24.20856660965141
-23.66063776800619
-3.517095986364474
8.012116901550351
-13.57937142789851
23.76402758011013
-18.19677305357266
0.01921149738233017
-0.04453665253389434
0.2362509306525671
4.27020220051719
-21.77938087424818
-0.3093368333268499
-0.2422764184392893
0.4112260830040971
0.140387168728164
0.01048938042367325
0.1682030597064375
0.08364867700356587
-0.1287291950501619
0.05153998330498404
-0.006459465279820181
-17.79464002911407
17.28601047880922
4.544759341783758
-4.036129791489941
-15.79309500691989
23.33527915864479
-3.560183550019024
-19.77521071890354
4.773665516105836
-19.9382195868436
1.998134109931545
13.16641996055609
-27.28697538325676
-0.7019465757377727
31.60441647560859
-3.61549451660049
-6.5758447445159
-23.89922944682944
23.80571951938594
6.669354671970744
0.1047509585821542
-0.08106167680205446
0.001117430854983319
-0.02480671265230781
0.5103685122688926
-0.7310577872583082
-0.009105652454002895
0.2297949273962318
14.9273681328174
-0.1752854590384925
7.204079423696252
-21.95616209747238
-0.4483846307552751
1.08923467681613
-9.384096753452816
8.743246707431586
-9.631663215566565
-16.78927116726258
19.63778791974883
6.783146463099237
15.56272994924153
0.1025134536670256
-15.55096171894261
-0.1142816839647443
19.76824498953414
-24.1998941541348
-8.452406717998306
12.88405588259607
13.16299747091732
18.19748610291808
-7.826098054623835
-23.53438551920969
-0.2103123546456241
-0.5419077408489688
0.3487184743666559
0.4035016211099056
-7.315376463799876
11.11825274029782
11.60423859485534
0.5275026885996783
22.11887362599817
-16.04001694583967
-6.60635936876151
-0.08864939155842864
1.431972754615594
-1.334927015969739
2.418039476979272
6.056130282214438
-9.726994974866065
1.252825215623525
-24.92150231737099
14.38190810673049
32.16703112644679
19.07187521594366
-8.150468448330308
4.005961365205886
-6.814040300204279
-1.398131678709669
9.524122184598268
-1.311950205785903
0.1209199429413031
-0.1274732990350801
0.00655335608318669
0.07611078581734469
-0.1390765801092397
0.08371177097535586
-0.02074597669313552
0.09109521022080355
0.09683949196097105
-0.1311985480136936
-0.05673615417891006
-0.07511368883669205
0.1151229851048754
-0.01069847824769628
0.1314093233613731
2.903181886138411
30.42751719632612
-25.16998280616322
-8.160716276303669
-5.765035215014777
2.6054750887047
-19.39278673186366
16.89889828609407
-10.23305714502646
-8.150158649379117
1.484317508320267
-1.759319993942468
1.888276716535482
4.449409253212214
-4.578365975993473
16.01438387112132
14.19977423090084
-17.08812768057302
-13.1260304214453
23.88240170384579
-8.351162478525463
-1.226763346054574
-14.30447587920771
14.39042790237916
9.394354087047322
0.09761971446590809
-14.87405267387713
3.04406473783647
-4.518378629435691
16.34836656554211
-16.93972726258142
20.60161127948935
-16.37861596880907
1.775404722054532
-10.51056826285661
-9.377028029544858
15.46638289538753
-18.29540764031026
12.20605277450904
2.77027223771392
23.11964466968468
1.174068859205837
-20.46676294784726
-2.430310028742667
22.89617119717148
-17.02842778923883
-13.57975331076256
5.810877307029918
24.79730379307754
0.007898536059209031
-0.1092191090843593
-0.01793065679984721
-0.1405744649445599
-0.006415304554523127
0.1662012668725494
-0.1384230040079081
0.07395932487658817
-0.07466606642874717
0.02668469653273581
-0.2438308181875431
0.01566227091706647
-14.48466572360324
21.85955918715598
2.957234403683713
-10.33212786720271
10.48561533795646
9.269210315957599
-8.605790699163302
-11.14903495475011
-12.72402187852084
15.29718786693919
-19.07240642577143
16.4992404373552
22.34545982125821
-22.41508952953831
-0.09896084482932478
0.1685905531304316
-0.1401768942479358
-0.006814431983399778
-27.10140131036329
16.43761449683909
1.951111803229053
8.712675010362357
2.348498949046976
-26.29656274874453
3.140512174422917
20.80755162527554
6.164957455447174
-0.9956268202378196
0.3489432485746624
-5.51827388394096
13.83880753255634
18.06252801110083
-17.32912886300162
-14.57220668065498
35.42381581019935
-13.28855675357484
3.243419432159239
-25.37867848877275
2.38752225693711
19.65148574343369
3.502701107874515
-25.54170910823418
-15.08741380566446
-2.805869818602868
-1.987778058697705
5.731881787714835
-3.117127019411009
24.15489121196611
0.5071398982782579
2.397418055535978
0.2317809921948047
-3.136338946160643
-20.70205403760171
24.0021723840595
2.431763441259616
-0.9921845399739786
-20.04301903530555
-0.1345393559217044
21.16974293119907
2.423417046390872
-13.06921008660622
6.668353097519751
3.977439942699028
-28.49016558128367
28.52561291045147
-1.027631869145658
2.506996305612729
-30.36239043798238
7.812375097062602
-16.61943137699086
1.096938542152198
15.52189396976306
-2.324750218755666
-19.28734196609928
21.61121594320925
8.105035231292597
-7.839962967572274
22.04017638635101
-22.30524865006458
6.151013583020549
-12.12048812606052
-17.2274148605046
-11.57060397448779
12.08040867852227
-5.428446728565224
4.918642024533484
15.57501187255376
25.1708673581374
-44.84224831983124
4.096369089151253
-21.63187627232011
22.70271062051308
-29.56099992948392
-5.525173923245824
5.50625965095611
32.47331401010373
-32.45439973780157
-0.7102262136075163
-1.13224857525195
0.02285432233110168
1.819620466491016
0.379141173569413
0.5852096568596755
-0.7212153625269897
-11.82340616623103
-11.0781041412642
22.90020995793677
-2.735599965136221
8.186140616416496
6.685501260331183
-17.07930526279468
10.62022311536714
28.42029838997625
-21.9612162425684
0.5718128723163122
6.672309443350048
-7.692506946285372
-0.267498104363692
-0.1543367510423611
0.1919010174848648
0.2299338378889557
15.23144928256506
-8.468311007701569
-14.80114703048856
8.038008755635884
18.81103959255756
-26.90159452536933
-19.14233512798939
27.23289006083657
-4.198412559276279
18.68481454220624
-14.48713234822788
-1.888639306262887
1.670738198385983
-1.297676676901317
1.515577784715314
0.4994586284584447
-20.26366223148747
1.310396309088629
18.4538072939468
-3.981874677485874
-20.28993825397724
24.03627511725779
0.2355378142011274
8.217438443475942
13.81038781595535
-10.02545659500715
-12.00236966442353
-22.88234176183963
11.05784751872852
6.778371304594576
-21.18192121368775
14.228264450056
1.70222986582215
21.99638699137726
2.466558638748128
-26.16517549594018
13.04850518729384
-33.60632563297749
18.08239281249314
2.475427633193596
-34.73290701326508
-2.039676591317945
22.58675683373498
14.1858267708332
13.44437329625023
-12.67748133576739
5.293662964936139
-6.060554925575453
23.74427879979338
-20.54205352844335
-7.219189281433183
4.016964010099866
30.25902092217436
3.410877011808632
-8.729061736547923
-24.94083619742805
-35.13256287412532
24.8977872349475
18.41421868334619
-8.179443044254826
-16.18824045772327
24.55635980839398
-8.368790517150945
20.76727785102851
5.953117604718235
-19.51631603204957
1.155953645931252
-7.145020398166061
-4.774426872833053
10.76349362481172
14.72495971140586
3.204805481600199
-15.53144655152554
-2.398318641477399
26.11305655444851
-3.608757088811844
-29.07936764657961
6.57506818094635
-28.8264729722809
20.07687808990461
3.872059135250261
4.877535747171342
-3.238140077363246
-20.43530634335581
3.285074653955789
12.54862626434877
-8.409974906096002
9.743615135127213
-13.8822664933707
-12.19742140040872
12.15692101122897
1.545171215774303
-1.504670826579757
21.44583100705232
-4.276428759938399
-18.3959191193726
1.22651687226203
-0.5493558378123119
-2.621084225525796
-16.28201435928356
15.10870723047758
4.725495421357096
1.329455722217296
-21.16365837404903
-17.5410708651339
11.36012851593661
6.65551571836264
-0.4745733691660628
15.12196317231817
-21.09588707047008
-10.67470672902267
16.64863062719983
29.37749542748435
-8.918383464761593
1.354350196531078
-21.81346215916265
-22.12333441728679
-15.08771852123599
10.77824526417275
26.43280767437862
20.28066690633491
-5.456292812317256
0.284333136461483
7.585933836923285
16.43146994103031
-30.27672006384418
5.9324869949209
13.87125143400972
10.47298163491646
-11.14105336466107
26.51395141900344
-0.480781393345709
-14.89211666092359
12.60988861227186
0.7170947255300745
-17.7793458417525
4.452362503755102
30.74172983767704
-7.24100389800683
-21.05550825054117
-2.445217689128024
12.68672299415602
8.437273756432571
-0.561818495203335
-20.56217825538675
-2.989107309760047
-1.166159842288776
-17.04271056625062
0.82717957458545
-5.163988984353411
-1.443940373192228
5.780749782647971
-1.27189219123059
-22.11826833908173
22.89888337803297
0.4912771522984507
-21.65925087367762
-3.424952910108173
3.687812878755371
21.39639090503276
0.333000676205826
-2.222800625291542
-17.31707319372746
-2.444393320819959
0.04648837154944198
0.03346558891219202
2.364439360097292
-15.53815291140691
12.03136110397685
-11.70656057338398
15.21335238081874
20.11751519135625
-18.43446992926893
22.66226109963904
-24.34530636170137
32.61913284690135
-12.83568739548225
11.26119592948738
-0.0008748599212655248
17.56484011796157
-17.56495378166464
1.924778616835947
1.721328905807359
-1.807575080024495
-1.838532442757659
4.26730051810308
-3.538811635058864
26.01612650156772
-26.74461538460397
22.59707013385127
-23.32898558808062
-4.801237746708764
5.533153200946957
20.59941160146507
5.66563131526576
-7.039776700924834
-19.22526621579462
-14.01326512254748
9.120540820377341
14.10708033635626
-9.214356034183735
18.69060206822228
-10.99355095953709
15.0156084570559
-22.71265956573643
4.272556194369947
1.236041258639667
0.6563600022635039
6.541274072243613
4.686240116804266
6.171330237708302
-17.3988444267675
-2.212276223880065
-10.26070551921363
-6.611105817472354
-20.47330091397874
-15.29648367661253
50.14488868192578
0.02025719823539137
0.2784200865394824
0.3045995068411397
-0.6032767916941043
0.6267812256357438
-1.35093602605791
0.4479569243773388
0.276197875999636
22.49568803185625
-28.64973728403099
-8.840848021496322
14.99489727368614
6.679529557726311
-4.833390476912036
2.492750561986071
-4.338889642718737
12.73229591483731
4.630006246116838
6.573497251753016
-23.93579941272816
15.01683311032365
15.67390401302406
-15.76747297698038
-12.94766389199486
12.26886018594934
12.79942882307103
-12.12062511702515
-22.90359303553312
10.6276446618324
12.27508263559915
-21.96091913981883
10.0189345461588
-1.005679298337076
-8.969748152104154
-2.582260696438491
23.82086903451372
-23.64606482272196
-0.4709494781609729
-0.5560140961467883
24.67302839709843
24.44386421760436
-5.405004972592165
6.992524925545712
-26.03138417055089
5.884471719335886
15.25347103008235
-21.30210437756966
0.1641616281559232
-11.28737271159963
13.19360247213536
-19.95108337929492
18.04485361876301
15.72505034766849
29.4451002771996
-46.36548613062339
1.195335505759224
20.78218324871501
19.29107660857484
-32.6806837764404
-16.73149504216831
-0.3325245473340886
21.33132010761031
-11.14131562912169
-21.09721185253881
25.64579501346585
6.592732468219064
19.94479033770682
-1.348890190289666
-18.59711333671068
15.76553022533198
-0.6571707963760445
1.619353270384375
-16.72771269944832
-6.108136632632338
32.38442005454111
-22.49828310900594
26.46312795265599
-15.57160990416377
4.610229853444009
-15.50174790192174
30.57145284373427
10.85895764920753
-39.05901309142351
-2.371397401426114
6.044883633689078
9.471651754206114
8.445756753161188
-23.96229214105244
22.6131907259494
-20.81670738013421
-1.798874232424508
14.85856410386436
8.894570049976345
-10.35366410120302
-13.39947005260223
20.44658175671885
1.917585856364444
-22.31766853616478
-0.046499076922176
-0.03497802381278472
0.07213433867122467
0.1338197283091886
-0.1709760431900994
-15.83717359052198
10.31698668714397
5.517363629179177
26.75063396940509
-10.65139677910211
-2.089833433384795
-14.00940375691641
-9.601907900732506
-9.935562121498831
19.53534138377245
1.579547723317585
12.16452258290982
-16.89367415873124
3.149603852525569
-23.33431671805887
19.73388494271908
-14.8859447157163
18.48637649115417
-0.2535453658516034
-31.54722159316555
7.780924866518292
24.0198420925232
-16.26732943174401
-12.81213278805709
-8.138965813029873
37.21842803282426
-9.153636680756419
-32.40400550643795
10.6311400493915
30.92650213780751
-2.924264826148921
19.59905228034035
-17.64583706530551
0.971049611112531
11.99608188517706
-13.85695904528907
12.39858748061681
-10.53771032050256
19.6107208657137
0.1929353711628976
-19.80381312307777
6.016168701170594
-6.239788625785638
-4.643803646746687
4.867423571363132
-4.043598276789334
-19.38432416647428
4.411055309946887
-8.505510667811651
10.46264859227188
17.42441240243849
-19.3815503269048
-1.730818492913461
19.57290162659477
-28.32198620761064
10.47990307393015
0.06157616819740878
0.8559565922374114
-0.2907515348458279
8.114696820324932
-7.713914878524735
-12.21433923206626
11.81355729026652
17.83286388635539
-5.815361141980195
16.94099423235471
-28.95849697673122
-1.652484668680196
14.42331469116591
6.663547623462557
-19.434377645941
-0.01521543370560853
-0.1572585729325704
-17.69703537817954
30.43296209765523
-8.79303835237714
-21.79402235111323
12.20132517115596
18.38573553235235
-26.87146607634365
-2.854380629333935
12.99435166351273
5.707737611732752
5.803228405944595
-20.47672469493794
8.965758677262505
-24.19940552246095
-12.8148968641651
10.14283631028707
0.09058862468482715
-0.07366011435166733
0.1029238025880927
-0.01233517790897683
-0.06463084383130704
-0.2368628430366717
0.1279530070343187
0.1735406797872895
-7.169691624535791
6.513783200000224
-0.07669186600937228
0.732600290413697
-0.02878972057622726
0.1958318250279244
-0.090399419360974
-0.02917534362031763
0.07413408200990788
-21.61862367992327
-16.43259488558594
42.17946218250454
-4.128243616993474
0.1352633518924967
-0.1057095094958484
-0.02300048632342735
0.07729646641543436
-11.43762364784943
15.46229174628061
13.41973079983562
-17.44439889826149
10.07672757379062
-10.30866887926641
11.79942375305009
-11.56748244757302
1.330527387155067
-4.555155824861316
0.003547623899308529
-0.07821369033745984
25.00323630697639
-22.57867251645997
-6.240934083304014
3.816370292792397
15.58735697453947
-13.21493717460602
-5.665928832899463
3.293509032687624
9.534781171214565
15.56894145015785
-40.64187553277601
-0.1428663578243913
0.02678881251366532
-0.0286281650075404
-0.09402699602203295
-5.579966193671747
0.9152198240846089
-15.56512124130577
4.550620425004814
-16.79874107746987
12.71282253243074
-0.4647018799854912
-8.674522914667401
1.510788541720445
-10.37893288367023
17.54266725661736
-8.234656812216267
-12.76084972129545
-16.46468976761313
37.46019630113275
3.530714592667941
-6.668197615847686
16.48555162672561
-13.34806860363676
-22.58369436898129
29.82042125711351
-7.237375893789128
-11.13391552628467
14.10217979837044
31.43979183245738
-34.40805610449791
24.17670909360753
-17.52244537692529
-9.790545813275207
3.136282096610432
0.01310295294553963
-0.09553324952268363
-11.96277406686486
-5.299082000564854
-5.196621063415274
-14.20756248893049
24.20245658839993
-17.3846046826732
7.389710583176766
-0.03666715528586381
-0.03844653355698239
-0.0652953202968057
-6.057905070835702
-0.08054601281862367
5.405414471986603
0.7330366116446744
0.01590136842211228
-0.02936467375512422
0.1336790719072779
8.478332228493677
-12.85213413885549
7.85021215179021
-3.47641024145146
-1.019811257642351
-14.52479498303643
-3.850088346171589
10.67302728339057
-4.270822001448926
-13.62976298773767
7.227557705685997
2.497426296500591
-2.841577200906346
21.05395265785203
-20.70980175343901
0.04750711897316109
1.108934995523662
25.5481961882879
-22.13343038146968
-4.523700802241169
-24.54989051768285
6.483102049432034
0.2287034336402389
17.83808503461535
0.7097862295103822
23.99798393511143
-24.7141643747707
0.1091211660249343
0.1575515092205575
-8.385586604330959
11.51783456546842
20.2030311975087
-0.6497572645454702
13.26687010774145
-24.57150631826383
11.95439347507467
10.32684312075527
-0.7401227698091453
-2.046141855637371
-7.540578495305654
-20.45353552636067
7.647827522010545
4.300197336531969
-2.735796387664776
-0.9974990242013068
20.99421056073578
-17.26091514884843
11.7836457602194
6.347252138204612
-18.13057109059519
-0.4691185263258141
0.006327450592811252
0.510880705045738
-0.04808962935538175
15.22774441165009
-9.335666960022436
9.670652497615036
0.9819399521180477
0.1390577311105965
-0.004031918749845501
-1.116965764750033
1.225932537672304
27.40777458952459
0.7437883003932555
4.249740649651061
-1.24176570226938
9.311885243434375
-12.31986019078049
-4.117564989472596
-8.723050659030745
-0.4959290008361457
0.8931694743658672
5.200544954225565
14.21037358827567
-20.30408801685365
-0.4287073528270878
1.460168435979255
0.937956725907426
-1.969417809208525
17.60880333829658
4.712195284950035
7.479145256134365
16.01499264767152
-19.78355584906137
-3.710582054746365
-3.697418119725103
-0.3722150816870223
3.314478218277295
0.7551549831282554
-1.378837853240735
-15.06869286483746
16.44717749303511
0.9018163805123458
-11.00839163566804
-7.093506023711233
-0.5829712666171921
-7.863767689120545
12.50579140670469
-4.05905245094791
14.48351561860256
-9.865065728358681
-5.201421156846633
4.984567392323383
0.1934328472909026
-7.491863151524415
2.313862911885118
-0.06819096229271376
0.0006486665370637904
0.02351104472350115
0.04403125102389308
-15.88181374346779
-3.027536597028793
18.18061489717881
0.7287354433250511
21.17214512344794
-22.23928863144803
2.32301316382751
-1.255869655817594
10.95168155212296
-6.637280377782083
10.16911444426144
-0.4741466207630997
0.3741282892465059
0.09703229365789957
0.002986037749790247
24.16549427694359
-5.666689879879939
-0.9857550104007983
-17.51304938664819
5.029094814180922
19.14577235144901
-1.00072667590997
-23.17414048964421
21.93170132136741
-12.22690200544442
-0.943953476316966
-8.760845839592291
1.254166613157194
-0.1969640925697659
-0.9802624934498262
-0.07694002719177311
20.96079684816195
-13.36453314055762
4.158162203151637
-11.7544259107392
22.85403316026888
4.232145709102888
-9.351597799182908
-17.73458107018247
-16.92829540573769
-15.47079094562012
30.69136179612234
1.707724555212232
0.3202244611073397
-1.004983764408569
0.5480960665099986
0.1366632367252696
13.69493205093174
31.4313590741834
21.7978170558411
-3.365310913212317
-12.99763058393028
-5.434875558681664
0.373623117390364
16.5692451165606
-18.43115982280987
1.488291588915278
-31.34797562137676
15.49512744241894
8.199671251826405
7.653176927179357
-20.23147306784952
-25.09626466113992
25.91537913100509
19.41235859798364
-2.353973806721624
-8.1203063476046
19.45699640114725
-8.982716246819082
25.17011949212413
-12.39043882805908
-15.13365447077638
17.538097734867
-0.5809053992999453
8.212927156570354
-2.616908591622218
6.624438068574833
13.53056825793376
30.49529567074554
-39.18292549997147
-14.36838067133048
-26.32437395576732
-7.586089691298098
29.7001074840123
4.210356163065121
-13.48431222909419
16.64475981057563
21.48312353047038
-24.64357111189109
29.02033319213404
-34.68037381628653
20.27057670460404
-14.61053608039852
-18.52473346238133
-8.325440918240144
22.99571673780289
3.854457642998034
11.49506641930568
-29.64086114250962
4.66148249424196
6.455454916413721
-10.8609612213845
7.005344076876564
-2.599837772178584
32.96621915764507
9.612170953128558
-1.661272111649502
36.35484433423044
-13.24815610107284
-21.44541612148405
23.20412941356371
-11.92055572431805
-11.28524134367603
-15.72413086636731
19.1181124185079
-3.060620283801963
-16.05799267827503
-1.061416296177597
0.5587396288003943
-0.2633445160317714
0.7660211834405961
-10.94946452122715
-18.68046122918445
6.144983426770352
23.48494232360098
0.1613001792120849
-0.1757605706809343
26.07589286543854
-8.888130488486384
-3.900412779248426
-13.28734959772049
12.45632123524327
9.728571355699437
-10.69509525684161
-11.28624928886799
15.820094328209
-21.38940453502578
16.85555949578889
5.436802666808082
2.850720812156858
19.01941265531767
-27.30693613425979
0.2907788754888648
-0.4056127631615965
0.3179693587474819
-0.2031354711540951
22.19614955955761
8.887023390785748
-25.64637028345592
22.4139328335112
-18.14372883324321
11.9846465745247
-16.25485057478419
32.32808755892372
1.092482930216668
-9.54468184293834
-23.87588864622478
2.438403988641221
-27.78208406483429
26.51239894943663
-1.168718873203793
-12.24217786332041
24.39915153165433
-18.88194318310711
6.724969514764597
-17.19423496911359
11.82679196146435
-4.865614137347185
12.70812648419555
-30.64233053764955
22.50158738601152
-4.567383332566098
4.408613436494821
-5.17032606290332
-21.19444947106255
-32.78635171348861
26.65203315249303
-3.609116334407523
9.743434895412605
-4.557947209186145
-22.27270479673797
13.57883017132365
13.25182183460303
14.21676520284621
-11.92297441367048
-5.80988949532631
3.516098706152134
-0.2981926442004219
-0.7205759096090596
0.5743058650964692
-23.80133813422605
26.12487374299774
-35.1098873222461
21.71080450023332
-2.200072584592641
7.141301236860448
-2.899985937365153
27.99721875715963
-2.614668205785294
-22.48256461399705
-21.96016102141379
24.56649968460547
5.384245261029291
-7.990583924204176
17.11563091171184
22.29840482883248
-28.96266782283591
-10.45136791772445
32.32974521977139
-30.13986829428574
3.54204755340245
-5.73192447891228
24.29407130845826
-14.4917441432423
-13.99428945364039
4.191962288435104
-34.3925787639436
12.18909957258177
32.91101616053165
-10.70753696914188
-24.235421459581
12.35198736996892
-22.50914467431084
26.86098030200186
-13.15876913431189
0.3136420513310735
20.1255362910995
1.611878943896019
-22.05105728632952
-5.845207013784484