/*--------------------------------*- C++ -*----------------------------------*\
| =========                 |                                                 |
| \\      /  F ield         | OpenFOAM: The Open Source CFD Toolbox           |
|  \\    /   O peration     | Version:  v1906                                 |
|   \\  /    A nd           | Web:      www.OpenFOAM.com                      |
|    \\/     M anipulation  |                                                 |
\*---------------------------------------------------------------------------*/
FoamFile
{
    version     2.0;
    format      ascii;
    class       volVectorField;
    location    "1.4";
    object      U;
}
// * * * * * * * * * * * * * * * * * * * * * * * * * * * * * * * * * * * * * //

dimensions      [0 1 -1 0 0 0 0];


internalField   nonuniform List<vector> 
19632
(
(5.023523885645855 0.004309981039721789 -0.007836577029566383)
(5.00032124570898 -0.002636954025060738 0.001248232853234158)
(5.000505546166454 0.0009409730278939435 -0.001000375803131377)
(5.078042961126147 -0.01641352231176427 0.202884258133703)
(5.000258985403751 0.002528751430115956 0.008294121875616105)
(4.999350736206654 0.002409906379727478 0.001540729067450868)
(5.000597184256789 -0.002728970852341209 0.01200556497903556)
(5.000327581139575 0.0005438027577361153 -0.0002753642468740736)
(5.000089851510113 -0.003065750763984223 0.02515160552739154)
(5.044785063550147 0.04712857238102071 -0.02380011616948621)
(5.028158242872028 -0.04686624357423372 -0.02042287038735155)
(5.004774181894492 0.008688998452403035 -0.0007522154281017492)
(5.000643982850429 -0.0006777698609856971 -5.159099203728204e-06)
(5.001844784356332 -0.001047549113646119 -0.0001118298001120235)
(5.019869648705912 -0.02253483070926636 0.01018000544081693)
(4.995539958276948 0.00184663853707303 -0.001844790883062576)
(4.996585711050134 0.001371706088618196 -0.002723702560492835)
(5.00571262087379 0.01226787027205212 0.05870298226598943)
(4.999764246270298 -0.0003624795185923855 -0.0001229717409396106)
(5.002300032307226 -0.006059449127624898 -0.0004827805529055621)
(5.024303440856125 -0.01496476993540615 -0.004210797466637201)
(5.377922748236751 0.2368703956144325 -0.2695872560780392)
(4.923196031674109 0.01073702218131898 -0.07794736813652797)
(5.001608374016391 -0.001064423672271796 -0.001243120613889024)
(5.000602604777107 -0.00237589319830212 1.94662327789649e-05)
(5.001030044124782 4.250252401456182e-05 0.0009637200875387755)
(5.000372071444815 0.0009174112302216506 2.511987495844095e-05)
(5.0552705039711 0.2607183208329229 -0.9878431405585889)
(5.02405950934788 -0.01199933406469457 -0.002192401271706629)
(5.000864835763537 -0.0009548139420250957 -0.0007167151469894751)
(5.000321343052742 0.0004758976364737552 0.002507178544427419)
(4.999431249246395 -0.004663970967883256 -0.008184049186518293)
(5.071759350115091 -0.01176559757987592 -0.05809567929060758)
(5.095009245978636 -0.05667879162245193 -0.2055965674781562)
(5.001963838918996 2.415545806751173e-05 -0.002997980287162002)
(5.000891447228421 -0.0006321167885479317 -1.940138458420132e-05)
(5.001382422840408 0.00515424959425685 -0.005171503808169085)
(5.000603071736205 0.000839652247375405 2.733915994952635e-05)
(4.999965061940666 0.0004122900040180503 -0.0001049307373294458)
(5.026410218847412 -0.008447479421968562 0.0005357017720213243)
(5.000595905601718 0.0008602384816824544 0.0009991645912537973)
(5.002980881270322 -0.005846461742665396 0.00399618548342126)
(5.002716867918801 -0.005554266485302494 0.004088057743367763)
(5.274747261922332 -0.2094866254685261 -0.1639552810886074)
(4.999186585707737 -0.0005677474993742892 -0.00105764422202758)
(5.000348748123314 0.0002258403965753148 -0.0003066442239892672)
(5.000280993808145 2.085349316327248e-05 -0.0001991914690969047)
(5.000597634844556 0.0001382433052443321 -0.0003723721836337939)
(4.995216656448782 -0.00517319228981116 0.004279797678623919)
(5.000268814121587 -0.009041096141931026 0.00848433254407217)
(4.999933177221693 -0.001110473894833924 -0.00617641862869995)
(5.003797785751671 -0.008028857575261403 0.0009096130503330274)
(4.999913140290497 -0.0001906631259471008 0.00146802022555113)
(5.004693971050674 0.0006063699887861249 0.001167253351352419)
(5.000636855537862 0.00134299521483672 -0.002593955103943218)
(5.000993475645434 -0.0125039579601303 -6.395665691752942e-05)
(5.001053658475856 -0.002469203120894001 -0.00943928324845747)
(5.002095168806466 -0.003247305653743011 -0.00175085493550831)
(5.002312569632524 0.004270741834479296 0.005031607115083016)
(5.054656964372827 -0.002858941920727135 0.008433041158506594)
(5.000615055938022 0.000410623757514321 -0.0001493712806951784)
(5.000195796043709 0.0001721631439328449 0.0003782770634772383)
(4.93127120907584 0.06664277423199393 -0.03877347487186036)
(4.469271480247189 0.2786100935214699 0.3211722880847553)
(5.000703982149157 0.000220768993265347 -0.0003111281704107022)
(5.002171315682119 -0.1440436935459231 -0.4368239777728281)
(5.289814544875907 0.1473493358392359 -0.2504050476432987)
(5.000410846122826 0.007221537299902958 -0.001524422224420346)
(5.000726487281238 0.001339956381134857 -0.001430118523707259)
(5.003733627076488 -0.005232714373755171 0.002791345208159515)
(5.015540378532449 -0.002102723382221942 -0.004980208836836481)
(5.001038041961627 -4.37565650885279e-05 -0.0007515569597780094)
(5.000623892516026 -4.423160060891873e-05 1.524832561766472e-05)
(4.999630621265748 0.005891784213903244 0.0001359826121260875)
(5.000410709777404 0.0001990121136136149 -4.290194972446373e-05)
(5.000360049607929 -0.000466760038715031 -0.0001738535628075393)
(5.000156156477301 0.0004935320567394303 0.00022603728110876)
(4.848036750068704 0.2325270134518368 0.00345538157096324)
(5.120588449296261 0.01630633697799672 -0.06726650506974653)
(5.042250461585069 -0.004380063301940759 0.02865388764145223)
(4.713497367476322 -0.4210689449558879 -0.7646437767294779)
(4.965805879029521 0.3909652395551476 0.2516749001665403)
(5.001961964550406 -1.735938061561981e-05 -0.0004039025790658864)
(5.000848256323175 -0.0004476255361182682 0.0002060597951220649)
(4.997978969174266 0.002157984520769212 0.001194877279549234)
(4.998683814764773 0.00664718684486268 -0.01343524138070699)
(5.000747421765007 0.005897218276608912 -8.965469470668598e-05)
(5.000529710044663 -0.0007645236230208176 0.0002373562027408727)
(4.999276496384816 0.0002285037275960447 -0.006177013727933235)
(4.994129171020761 0.01259686160422344 -0.02101334102306883)
(5.030540791324648 0.0005678931937336912 -0.05755187129972985)
(5.00020445058011 -0.00663600690807054 4.184081459898841e-05)
(4.996713948902485 -0.006583712192601453 -0.005784523969700197)
(5.028435657462267 0.01432676030286016 0.0254807908531225)
(5.000500616705132 0.003283682363534445 -0.0002674709258248566)
(5.00375218367784 0.002903388826022158 -0.006830515454210801)
(5.00347273795507 -0.001298305298754455 -0.000246416160970753)
(5.001166796687455 -0.0006794315868360849 -8.927389754433241e-05)
(5.000258045730273 0.0005335799112586717 -0.0007814209210899617)
(5.000156783451118 0.003109678986412735 7.659131996339778e-05)
(4.701384395985077 0.5708490942855527 0.222003915979134)
(5.000375806092342 -0.001584708270288318 -0.001827864000887208)
(5.013867992620506 -0.004342471641256484 0.004644982835271985)
(5.000109542306181 0.003595339221960226 -0.001398288316701041)
(5.047743291981265 0.09390402383504796 0.1995604934392465)
(5.071963020631896 0.0256827352558316 -0.04367797437822563)
(4.907247587648986 -0.06622843091340812 0.05670390533338712)
(5.035398366017485 -0.01330134213553171 0.005159159254460446)
(5.000003059352293 0.0007671487328167917 -0.000336082981764989)
(5.002026498076921 0.004776189403489494 -0.002738216968501825)
(4.946509256983771 0.2737346748659152 0.3296478134501073)
(5.000071410749436 0.002476386398047875 0.001138503135856191)
(5.001379109806105 0.001426759880814522 -0.002654374713936216)
(5.20488309969206 0.04119301331561377 0.2223763337754837)
(5.001662363941315 -0.004322734281618683 0.0007398903681269484)
(5.028246879896816 -0.04547090210529523 -0.003912855414130185)
(5.047751377810845 -0.1099789734572575 -0.4907971938149659)
(5.066467351064893 0.1653359952474645 -0.03835624771450852)
(5.000113761930251 -0.001879444294941554 0.001953916654227537)
(4.999971421372436 0.0036069275560968 -0.00210244834368285)
(4.998807699430559 -0.003170826519346285 0.0008803176906177504)
(5.003814294096177 -0.001441397946095797 -0.003192334833817498)
(5.000451775662756 -0.0005650181219630443 0.0002027995004665843)
(5.000276867701317 0.0005307008053136359 -0.0004963878507247139)
(5.145771549423705 -0.03754360046864635 0.03819193268846978)
(5.095906920951985 0.003303335716765477 -0.0192275364964077)
(5.000357727688974 0.001457519412894716 -0.002656107900677283)
(5.0087781828322 -0.001185033086287429 -0.001104291992267853)
(4.998630814963218 0.004293608527957689 0.0003648808531782937)
(5.000246329119022 0.0007360511186138726 0.0003405446670740992)
(5.000842240609108 -0.001237969707221252 0.0002862472854928305)
(5.000452535093209 -0.001000432968624698 0.001189227055493744)
(5.057561113813525 -0.02486194260472969 -0.002834972400318215)
(5.000352823952655 0.0005618541102473565 -0.0001284223728933973)
(5.011641318859912 0.002008204010774808 0.003756174324063885)
(5.024680472793235 0.01091744159195021 -0.02430445916097114)
(5.007987491468609 -0.002578996974139781 -0.003781519477080811)
(5.001792561387596 0.0002652611864683992 -0.003246613301762406)
(5.00079633396656 -0.001794539445041707 0.001585624472201454)
(5.005102004744991 -0.009313557032877498 -0.007857075284367059)
(4.526739449053277 -0.5523555358976513 0.6049105285229415)
(4.8350823762714 0.8904040289131415 -0.3603275930959675)
(5.294950323049061 0.3798064124916135 -0.05455529935180408)
(4.224700524528496 0.1329446458417435 0.1299490124642836)
(3.08110018710733 -0.7690045248650497 -0.4526731750310797)
(5.000208579279648 0.0004638397127317239 -9.066706089977644e-05)
(5.005577519865498 -0.001685974288178315 -0.00417322014763619)
(4.770715937444097 -0.1044013374563636 0.07808737723153579)
(5.018799556540291 0.002233964456468775 -0.002150686350448452)
(4.999599912793058 0.0003689893938396611 -0.0005789519719026268)
(5.000474402171184 -0.00192438665995462 -0.0003438563369290389)
(5.00024336524864 -0.005797454242607235 0.006348366056854703)
(5.001295765449274 -0.0009998438202729156 0.002181820797713889)
(5.001575462953053 -0.001229116971151478 -0.0006979824575962234)
(5.033100172685492 -0.01758493054976349 -0.01511681777532048)
(5.002282745723837 -0.002644216718692517 0.003292220533625253)
(5.00017638038712 0.0008121683109750378 9.866192055545272e-06)
(5.000467541933116 0.002955010071030919 0.0005284716757196283)
(5.008663647752932 -0.01768028630476791 -0.003981323689043339)
(4.98077787808108 -0.1707698529851369 -0.5160958811328071)
(5.058388002371639 0.2099356297295892 0.1007108067116916)
(4.99321401341934 0.232036099596426 0.0474539937182254)
(4.47236746251171 1.321700602537532 0.785159441425911)
(5.182356603030286 0.1939992278175662 -0.01873368782849273)
(5.000974458103324 0.0001645322835593953 0.004290127955371571)
(5.0025163325192 -0.004039120476091475 -0.001891787399612451)
(4.999888550967996 -0.0003410845078061738 -0.001508191510265282)
(5.007297345266095 0.02157621517755249 -0.04440631861836105)
(5.097995454595498 0.2546640949218829 0.003959492681306999)
(5.001801734967297 0.001716706423048248 -0.004671198818470877)
(4.999267757369381 -0.001163890669425422 -0.002627345834033797)
(5.013459706644647 -0.004864321624644614 -0.0008701773591874371)
(5.006813072688377 0.02072455735930645 0.01352787555803798)
(5.00063986721984 -0.0004816537411790966 -0.0008145527982271743)
(5.000331758294657 0.0001750765921166126 -0.0003373350441834782)
(4.787565604136959 -0.04951810572282036 -0.0106234299543694)
(5.000899285483616 0.0007824419331714195 -0.0001922387918102607)
(5.015324520387632 -0.005684750372562871 -0.001471341282426703)
(5.001129926173429 0.0002429227459996867 -5.759994075994174e-05)
(5.000592873691089 -0.0002775998987288217 -0.0005981842039630073)
(5.000544759780355 0.000289302306483991 2.693483455031007e-05)
(5.000704837975697 -0.0001102872825842633 -0.0005957680328344531)
(5.000920658248856 -0.0002218833027457683 -0.0002075879422846147)
(4.999999489605433 -0.0006955754108432901 -0.002086036926651499)
(5.00119614658216 0.00184422589079795 -3.731856363915772e-05)
(5.000343810754504 0.0005445720954546468 -3.113975097282504e-05)
(5.028013930008155 -0.000630007608310439 -0.003271054876559708)
(5.001150778734068 -0.000472138088746969 -0.000277762793446628)
(5.000159469537591 -0.0001687075896317515 -0.000475881880130295)
(5.000744335464791 4.713893269904138e-05 -0.0002120731665371527)
(4.998425210126209 0.001194375207094962 -0.0008495225490582687)
(5.023890986351305 -0.003741737021481287 0.004127735486204693)
(5.031234639410122 -0.04166586954078329 -0.005330944153368167)
(5.001894996771863 -0.001379255992416517 0.01094424721292567)
(5.000634836576534 0.00103654580215135 0.0001396009053360263)
(5.000234500722351 0.001178535407202023 -0.0009054681818947577)
(5.010350512981833 -0.0001054207077647684 -0.001567893635906182)
(5.028358943756511 -0.0466822217541674 -0.03037439271345295)
(5.000980421189204 -0.001265978586982703 0.001029692332752583)
(4.984661637994027 -0.01518887274442395 -0.04267021651192676)
(5.000845968218148 -0.0002759068492931391 0.0004560616519064463)
(5.012992919242491 -0.006961911173564345 -0.0007576174405569754)
(5.000554581287379 -0.0001498992517645554 6.817346830519618e-05)
(4.999101780631232 0.002306118956754824 -0.001553628446165557)
(4.993677319532887 -0.002400270528938809 0.005862231941108543)
(5.00297448273627 -0.003586181467120616 0.009442551797793478)
(4.999758144960079 -0.0008255597598720386 9.357004817355847e-05)
(5.001447201411144 -0.002484789997009366 -0.002789872669444925)
(4.999401645793138 -0.000895334777394621 0.001895969437007181)
(5.000803666514753 -0.0001050050980985056 -0.0003065895093684871)
(4.99495927773498 -0.01101888208556072 -0.004830822865125255)
(5.000452491462833 0.0006816606894184785 -0.0002825891854235342)
(4.999899585761112 0.000686371728732483 -5.137812159756407e-05)
(5.001759153423349 0.0005653474789242331 -0.006383123397593859)
(5.000404435579968 0.0008670685957765539 0.003776547339079817)
(4.99789194847231 0.001098887084323585 0.004576465204925817)
(5.003981764675861 -0.002277996526740023 -0.006124617545803928)
(5.000585558212816 0.004225074560773745 0.001002736725000138)
(5.000114553926346 0.0005547535634584307 0.0006221015180241858)
(5.010162334126011 -0.0006382460449125001 -0.005438533451217252)
(5.013586237423493 0.05734477074397108 -0.03118772843897298)
(4.997548014901152 0.0009533789642482124 0.008204192556002963)
(5.000126222606476 -0.000252020363066658 0.0007479155152097587)
(5.00028051274798 0.0002909926113325667 0.0001982688770201681)
(5.041550818836359 -0.0153751133707265 -0.01043910645925049)
(5.001702844947939 0.002975939932916871 0.001856909614726972)
(5.001095460998233 -0.0001731243888247837 -0.003599701864201591)
(4.999112887648711 -0.002361662506426049 -0.005528377695730011)
(5.002625022714495 -0.0008048947037871561 -0.002243939391703438)
(5.00160199932163 -0.0002926563780546203 -5.171354127596885e-05)
(4.999162061332377 -0.01670257921400769 0.01041572636377347)
(5.002276958890165 0.0001457757040334769 -0.0002067719076759179)
(4.999158143903644 0.0004936975757119364 6.287983815880196e-05)
(5.001834829226746 -7.524663236123204e-05 -0.0003969588892420281)
(5.000686006523388 -0.008403904729072821 0.002647049497398365)
(4.999057703822438 -0.0004197614649257958 -9.578604512001515e-05)
(5.000554900903087 -0.0003252810584466529 -0.0003893534757956409)
(4.911037195956356 -0.01688838770957428 0.02223768077842514)
(5.018326675184341 -0.006381510132308608 0.001639466472595281)
(5.00109488804717 0.001206448086427904 -0.007433232701181279)
(5.001056715940583 0.004869758485307083 0.001564865131705957)
(5.633390293614125 0.2319730873735593 0.05183225823618533)
(5.024268214259048 -0.0107559120805427 -0.0001393276008550102)
(4.998618664154783 0.001453156788592819 0.0008917920552337648)
(5.000947147560507 -0.0002758325977505238 -0.000396692445668555)
(4.998539695957977 0.002984404871045945 0.001134827241298819)
(4.999755420116457 0.002713839329238841 0.001129948373267033)
(5.025748674364396 -0.002300257452869122 0.004384120515155438)
(5.000232685877947 0.0003267148599265447 -0.0002730531313742095)
(4.998876223264832 0.0003315607193599473 0.0007559844179929987)
(5.000468205451129 0.0005184092922162079 -0.0003144087504444435)
(5.000025753699934 -0.0001225584372672786 -0.0005516709835126022)
(5.000680254765909 -0.0008273047506050503 -2.083201966390114e-06)
(5.012478537524895 -0.005127283620594557 -0.002170606239956063)
(5.000182228426032 -0.007017385561568058 -0.0009186348063162241)
(5.013740589210095 -0.01079269976654241 -0.002590300674403162)
(5.00025898666108 0.0007504144319481173 -5.647394828657031e-05)
(5.014286511544278 0.03123396580566256 0.02965440099938055)
(5.040413212738613 -0.01958660723568352 0.002181217386031142)
(4.993708794972251 -0.01059627411475354 -0.003135994945581129)
(4.982742996550684 -0.01336627402834588 -0.01196772989532789)
(5.001632223191693 -0.003335054111958883 -0.005238983345987555)
(5.000371013724532 0.007679391174498643 -0.00021112207215527)
(5.001251965320223 -0.0002565089298513944 -0.0002198979097043658)
(4.999505889384002 0.002441894703050724 0.005956460496498121)
(5.001244915261561 -0.0002192938766545895 -0.0002895961247160411)
(5.001188754212875 -0.0003663446108248171 -0.000151558172332971)
(4.999669712478318 0.003758081248792712 -0.005175458522237351)
(5.000799785764981 -0.0002812465315955762 6.777908301044093e-05)
(4.999825056971629 -0.0002900551489140729 -0.001283356469750477)
(5.001424089440436 -0.0002021956700601681 -0.000193646964928452)
(4.999957831220105 0.001360331115985608 0.001350073330695046)
(5.000393306793827 -0.001545942030979836 0.01316955483612481)
(5.000816164642341 -8.305692506561334e-05 -0.0006227711524955462)
(4.995908242567601 0.004819506005168426 -0.0009008613507374932)
(4.998960956910216 0.003160071978136355 0.0003206626852982207)
(5.004728286379022 -0.004076752700856471 -0.004564983564615342)
(5.000998606540434 0.001141689608465163 -0.006317540876975732)
(5.000214649518593 0.0006634575820184352 1.722759737834945e-05)
(5.030330736521414 -0.008662318524533242 -0.04706428195131852)
(5.000353044117009 0.001058882148985669 0.0008691728609408492)
(4.999719061312793 0.001700091885451339 0.04739707807239963)
(5.001687235263605 -0.004952978258949916 0.001414363603903777)
(5.000972193106238 -0.0001941711310701628 -0.0007207668752526795)
(4.610622686131025 1.341216391589535 0.5962377740146483)
(4.995544397125577 0.003094511258626113 0.0411143719011778)
(5.002784385522872 -0.004819486518671466 -0.006143718019674041)
(4.999269215219689 -0.005441818827528763 0.01100881516814628)
(4.99246184258657 -0.006002724057550619 0.007333574120006153)
(5.000558813588249 -0.005671853585561873 -7.069109246677282e-05)
(5.000957685011733 -1.82403237202838e-05 -0.0004740984084146505)
(4.998171140276332 0.002449321553273846 0.002747483812536269)
(4.999476380392 -3.204597164563895e-05 0.0006643558020833323)
(4.999358556265533 -6.354814201436166e-05 -0.0001161264631908661)
(4.999990287819282 0.0006954924342490917 -0.00222193895417673)
(5.000319049815628 4.868102725529103e-05 0.004563573900087873)
(5.004529507340374 0.001099645650133573 0.0006868099706559468)
(5.073985653843394 0.01572924981049195 0.05066810633389809)
(5.000171176543444 0.001116063596414699 -0.000166720573014816)
(4.999768428489639 -0.0008465676531547574 0.0005870228895098462)
(5.033064036891381 -0.03531434148079798 -0.003247515400174839)
(5.002249291594682 -0.0009538395732916317 0.0001041817020470355)
(5.000284513359503 -0.001284670345771428 0.0007834342966387519)
(5.000525735214111 0.0002423536607309515 -0.0002894930422988919)
(5.047804330749615 0.2954341816427971 -0.144874945562633)
(5.003941073585152 -0.007792156243148965 0.003049549296329529)
(5.000921583506083 -0.0001624196471768122 -0.000666615060319673)
(5.00045217190374 0.0001960776825340739 -0.0001712950507720632)
(5.000753478200502 0.0002702568569003892 -0.001015120502097687)
(5.000422011955628 0.0003218702669231388 -0.0004079292108710185)
(4.525067619841314 0.08306445521840121 -0.1895205460295145)
(4.046684710889733 0.2219818406513582 -0.2665041559917479)
(5.074719304189332 0.01509108129105522 0.05248347845553115)
(4.997511663283596 -0.0105780325581785 -0.008804116183017817)
(5.205193984819321 0.2831740345950176 -0.01118156325433524)
(4.222476471665041 -0.6077849463727566 0.1070050714812061)
(4.015754338241345 0.1415212590382387 -0.1364292982459934)
(5.000068980563637 -0.000164643376170267 0.0002123469908798313)
(5.16668198432156 -0.09357736723429844 0.6889541128152301)
(4.874666544302474 0.2304962310772304 0.6006431373099526)
(5.000241916907792 -0.001788942469203885 -6.688455179502008e-05)
(5.003946854422344 0.004383430816869836 -0.003447058976260642)
(5.711453047777617 -0.2091631309656481 -0.3449961722418349)
(3.280686935954802 0.325122546717647 -0.617022292239369)
(5.000583295676289 -0.0003437752067376928 -0.0001324967330988795)
(5.002805019586769 -0.00778618221684267 -0.002958928023499739)
(5.000638553942558 0.01665584650336178 0.005487482480480442)
(4.7928216306673 0.9181381393580481 -0.7468195109307224)
(4.845996563568777 0.5131207668100762 -0.06173741764447204)
(4.948506135483604 -0.0203068185628892 -0.00563540889536755)
(5.000079762578601 0.002082437441767179 -0.001230233109341186)
(5.000280713684009 0.0007104872024042907 -0.0003953968817900426)
(5.000031857276713 0.0004185596109480652 -0.0005103387956685788)
(4.998607331179168 -0.00492978390740601 -0.01081638695872151)
(5.001834346940148 -0.0002062748495236261 0.004405464959769905)
(4.997054066171274 0.008561346566131844 -0.0147864841953135)
(4.993713937290765 -0.005677463963983912 0.005231206174470574)
(5.157520978707744 0.02792671920440989 -0.4421415677248556)
(4.989188051362086 -0.002984330113228959 0.0004398520143921794)
(3.588388479707858 0.9014771842813961 -0.8397874249931983)
(5.000061921785197 -0.002607870274581422 0.001568577196038965)
(2.924458914925602 0.386313150198615 0.1514843001183387)
(4.066555883777419 0.3007500978487185 0.2008821914589209)
(5.007014300706951 -0.0028776733012223 -0.002571565927207941)
(4.433552839694276 0.1784133296442299 -0.009095624936963732)
(5.005719751698038 -0.0020177897180947 -0.0006156273125832255)
(4.624452694127785 0.05647577174998473 -0.1130941709569169)
(5.003879889701157 -0.01208243517804549 0.005196379355073361)
(4.833866961453651 -0.07667889266415244 -0.03757603330660095)
(3.460020727472363 0.1350123837258418 -0.04674714616641563)
(4.998812047528153 -0.002964092403293957 -0.0004605525009088633)
(5.000605160082019 -0.0006606523850270383 -0.0001089667703800591)
(4.996232792024741 0.01096998368305823 0.05661269436199498)
(4.130477116850589 -0.3947261244107234 0.03725288041719718)
(4.992765410633534 -0.007547363521965441 0.003007499039410653)
(5.000324107436326 -0.0002077374772469172 0.0001288307726714924)
(5.000317463876431 -4.540002045069098e-05 -0.0001461365948579226)
(5.000024273333718 -0.000534602866512957 -0.0004793736078253012)
(5.001444319616352 -0.0003775905335624044 -0.0002017249734772427)
(5.001146117819557 -0.008149834867511167 0.01679096057673918)
(5.024401455183519 0.05946295077173264 0.003217225556976484)
(5.000253244137494 0.0004506914947746152 8.789335270598471e-05)
(5.026640963877694 -0.02655920605777129 0.006815785970342693)
(5.002569401840639 -0.0007328545251486598 -0.002113964488555939)
(5.016397743753314 0.02210874605990737 0.01678856069603389)
(4.444468133261504 0.03940013887460681 -0.05795508613351585)
(4.999989002637321 0.0002007472008121758 0.0003156934060403335)
(5.033585913969442 -0.02301229041221607 -0.01214065219965109)
(4.997673471482714 -0.004009319531917182 0.0007106300483033356)
(5.051090784751997 -0.0002907560406582705 0.0599427478290094)
(5.017055736888532 -0.01164217974800372 0.005872779650532283)
(5.00058476554896 -0.00210333366017192 0.005275495803007399)
(4.991101433429027 -0.1107288495336931 -0.03603114273929071)
(5.000542294982862 -0.001729030448491944 0.001267021829133776)
(5.000579096000959 -0.002437817383600565 0.0009852918287717345)
(5.007909139492583 -0.002323464178802131 -0.002365035331524972)
(4.190000176487451 0.01935560343568752 -0.30877126644778)
(5.000182387527012 0.0009373054462150134 0.0002705837799509799)
(4.999804968862082 0.0008520809826881072 5.397926122495914e-05)
(5.000503273076868 -0.002245020296811446 0.001438702405198876)
(5.001662298972179 0.05166125753364949 -0.04509815512291008)
(5.000890660037641 -0.000358161901797937 -6.400177291391671e-05)
(5.001204587601682 -0.001185247327109956 -0.003050752105187471)
(5.000496215727082 -5.110484292228708e-05 -0.0002527041645164965)
(5.035567541274544 0.00993428254338218 -0.01296319688323291)
(5.000895443282657 -0.0004702386969176942 -0.0002206403138781153)
(5.000293036025806 -0.0003908574829015192 0.000318605212529498)
(4.997482917160732 -0.000378580330163047 0.002763824039299943)
(5.032290922299519 0.00605354794115829 0.02756617276858521)
(5.000817025354698 -0.0004584489850278694 -0.0001986318964896699)
(5.000893515352939 -0.0002402584620618925 -0.0003150804074872544)
(5.004348224806505 -0.005147167545937486 -0.00219756557517416)
(5.001347070859029 -0.00240553700943788 -0.000604155090646124)
(5.00003564363084 -0.0003005739190239854 0.000493180123309989)
(5.000930287010422 -0.001221646262036161 8.834837932922308e-06)
(5.000910280413389 -0.001389083991637984 0.0001939662736002792)
(5.00088660614972 -0.0009567031283126371 0.0003256437127045539)
(5.000823463336292 -0.001024934348788918 0.0002752857062555235)
(5.000024724120819 0.0005237680321696035 9.197227881684452e-05)
(5.000917054743234 -0.0006417271668495666 -9.717352547802703e-05)
(5.001652766425237 -0.001370140225667542 -0.003444589874921603)
(5.001163748202473 -0.001291204685454052 -0.001854120615350597)
(4.967300760791499 0.007503766166877509 -0.004918733845834906)
(5.001798738962206 -0.001408569487244651 -0.003356767654605218)
(5.010421067521542 -8.4902520209338e-05 -0.001630750230889018)
(5.003222934117129 0.0009291418546035493 -0.001505104654068639)
(5.000535880981991 0.000525297890143312 -0.0006781684136112991)
(5.000230564489178 0.007622970887792362 0.03600906883441821)
(4.485085033279671 0.05816459570636337 0.01669300334976703)
(5.000670341506873 -0.0003076264160647049 0.004445253951533278)
(5.03004087743363 0.005883045610168666 -0.01248453927644473)
(5.000801607866462 -0.0001571843898178303 -0.0008754161874773638)
(5.059779418261979 -0.04326804262711527 -0.003941768626465998)
(5.00063840824607 -0.0001846304764443982 -0.001441529854420965)
(5.000523110031914 -0.001817235245391477 0.005079738227927187)
(5.000810475096118 -0.002888640479104577 -0.002139616687187015)
(5.001708059575189 -0.001020945489025947 -0.002061850996999238)
(4.999031050218901 0.03947102348224078 -0.04468822286005757)
(5.001464773994057 -0.002498866561201647 -0.0003276370024430146)
(4.995564661304073 0.000220704319421015 0.006101449162037934)
(5.001733176052798 -0.001795135598974894 -0.001597853553750513)
(5.000788190560429 -0.0006141725395728609 0.0003533393670367048)
(5.000548694353778 0.0002210412525494879 -0.0002441254793822796)
(5.009224489478 -0.004594471069915236 0.02120386222557055)
(5.000462015204193 -0.0007172479991625144 0.00131686169284308)
(5.000455710443537 0.0008606579315308401 -0.0008356750685624575)
(5.000613305201359 -0.0004843553941673711 6.807273686858866e-05)
(4.999511884122249 0.0002520473900150683 -0.0004726814352340207)
(5.000133904549874 -0.0001210906290858877 -0.0009398291369973094)
(5.079721328064109 -0.01252266050403799 0.01652056360670925)
(5.000596595319415 -0.000485592277504788 0.0001399155534287242)
(5.000486662854381 -0.0004657260780498535 -3.003099018129224e-05)
(5.000579437693027 -0.000792772330803618 0.0001528699910569181)
(5.000668404720209 -0.0006040029759645568 7.943598170573787e-05)
(5.000672428304056 0.0001027798780960452 -0.0008909816951266692)
(5.000670148954162 0.0001503390129708932 -0.000884238699464311)
(5.00064440068038 -0.0005921358712621434 0.000108780712778541)
(5.000770029203331 -0.0008476358881663405 0.0002840857874432545)
(5.000691677251037 -0.00081630220656964 0.000164252410079806)
(5.000629558727115 -0.0006736103701545375 0.0003747182863777831)
(4.998489847378101 0.002797646710380746 -0.006902308297275555)
(5.013461442919299 0.001152188163712398 0.03678292130489182)
(4.999526804302898 0.003376995302102768 -0.001186039677684134)
(4.996367335766789 -0.000414600470176922 0.002619719904139469)
(5.007999607577878 -0.0009429553228392087 0.002834352307141766)
(4.998095127375893 0.00191061337436916 -0.0003356860285678165)
(5.001027707789528 0.0004357414403343599 -0.0004163788304991607)
(4.997104470277934 0.001417705801074482 0.002220390064980089)
(5.000714106724708 -0.0004324213342109924 0.0001586611906631782)
(5.000637595844723 -0.0006643696880968392 0.0001186846924464112)
(4.997317624587358 -0.002743923702167918 -0.002202327187015742)
(5.000345358232339 -0.000287139981194639 0.000427766007904052)
(5.000640624338594 7.800410946928637e-05 -0.0004125304969763062)
(5.000288602631284 -0.0008405994724849566 0.000437136651812768)
(5.000837447242652 -0.0008822754731191107 0.000439957006159052)
(5.002638065240103 -0.003723505987940836 -0.002783353554940429)
(4.999802738473242 0.0001260695521694991 0.0001030769884621927)
(4.999989259607388 0.00285356148668125 -0.001677640546521771)
(5.000282876339958 0.00445963438962902 -2.943059494018594e-06)
(5.007587460140909 -0.005686898347843888 0.0002405365467686929)
(4.995034968804635 0.000135159211000285 -0.002740305953491624)
(5.004888991369345 -0.001850519380408138 -0.001991775588942663)
(5.001077308658339 0.0002296160040487949 0.0003798142776605361)