/*--------------------------------*- C++ -*----------------------------------*\
| =========                 |                                                 |
| \\      /  F ield         | OpenFOAM: The Open Source CFD Toolbox           |
|  \\    /   O peration     | Version:  v1906                                 |
|   \\  /    A nd           | Web:      www.OpenFOAM.com                      |
|    \\/     M anipulation  |                                                 |
\*---------------------------------------------------------------------------*/
FoamFile
{
    version     2.0;
    format      ascii;
    class       volVectorField;
    location    "1.4";
    object      vorticity;
}
// * * * * * * * * * * * * * * * * * * * * * * * * * * * * * * * * * * * * * //

dimensions      [0 0 -1 0 0 0 0];


internalField   nonuniform List<vector> 
19632
(
(0.006252950112995475 0.006451436960880663 0.003055384710831323)
(-0.002685647458528463 0.002161400696610711 -0.00136347755933328)
(2.204550440361987e-05 -0.0001881496181236744 -0.0001311832194454214)
(-4.731258763884881 2.602300245942976 -2.234641895121421)
(0.0005695512003444493 -0.01457907655904193 1.361807661608079e-05)
(-0.004891609526239442 -0.003107470747998673 0.0004930149784010128)
(0.002291983504217831 0.004245293579682403 0.01141525720321709)
(-0.0002343997689215353 -0.0002161567003489809 -8.970156870952698e-05)
(-0.003650746471147607 -0.001936712829926715 -0.0006031726245963706)
(-0.3001128197379483 0.01861193266539072 0.004076406264058387)
(-0.3240568041022703 -0.08470071072608013 0.447958441027238)
(0.00543358501280148 0.004402422507747683 0.002010566885612869)
(-1.239044005245434e-06 1.384059479009638e-05 8.835265960256224e-05)
(0.0003793790347539838 -0.0001142405633631334 0.000114981275395708)
(-0.008753559470324518 -0.002514315435834222 -0.0006724505963604847)
(-0.005796552769538861 -0.004833926964135015 -0.01781729989042648)
(-0.005102536960557406 0.001046003243292287 -0.0010128106306294)
(-0.0241263295809852 0.0305537707945095 0.01247332287328161)
(0.0001075480888470903 -5.29932699390518e-05 0.0003834715084548237)
(-0.001439885508578572 -0.000497544821905211 0.002414250755437936)
(0.06494374306180428 0.01586840592356998 0.04557066499747755)
(0.3793453336746171 -6.945140304123652 -0.1927072808515583)
(-0.1374057038891942 -0.1012261170102158 0.1183038566674973)
(-0.002329095208146604 -0.001634383841536987 -0.003779494196716475)
(0.002060543194008738 0.0004753095458252789 -0.0004072422265918233)
(-0.001479042604840789 0.002133037533731352 -5.576728331294176e-06)
(-0.0003888856921149348 0.0004588451413798648 0.0003553569732244724)
(-2.537101074442903 0.7186618223521801 -1.699305396739734)
(-0.0008323517929479576 0.02451176482658636 -0.01286016776269557)
(-0.0001601550512463091 3.933197373869167e-05 2.860895172495149e-05)
(0.0004291559147302436 0.0006926461109834476 1.574304829892419e-05)
(-0.000750930004910913 0.0005933380396232428 -0.0002568125243450119)
(-0.003437912941021137 0.02718463404822008 0.02097271532051734)
(-3.355096464472268 1.055996949686706 -2.552636359479374)
(-0.0003608217340490819 -0.0002768901779298507 -0.0002477859563656996)
(-9.87571926342711e-05 9.060281003506622e-05 -4.613376842202935e-06)
(-0.0005766438521523269 -0.0002637675679578795 0.001032930193705713)
(0.001126784302128474 0.0002291742614402746 0.0005359853450057404)
(-0.001465496945281892 -0.0001315047927238613 -0.0006230063167207516)
(-0.01384980807806526 -0.007456603911102517 -0.0037874366931364)
(0.001780064779151687 -0.000564930815337345 0.0003663207933018232)
(0.001655158172958114 0.0005515482014731062 0.0003782716091127337)
(-0.001588613245700297 -0.001602870142731644 0.001706378152978385)
(-0.01903340413972389 -0.1881150198138123 -0.2174788576619794)
(-0.0003515255143350306 8.678071522756408e-05 0.0007626722859542297)
(0.0008261304727690997 -5.422083500507196e-05 -9.749313228462645e-05)
(-5.869259754383111e-06 0.000127157911772456 -0.0001527989684896455)
(5.32744388436454e-05 0.0001586982850475002 5.579433387099398e-05)
(-0.001946125146830289 -0.01253541395628089 -0.01265556378824774)
(-0.002344552117770398 0.002490377207708113 0.002407976090623295)
(-0.003373104283762769 -0.0006271657736615025 -0.0006374408875338988)
(0.005545146183236089 -0.001478352141436846 -0.0069013732052186)
(0.008157637927395635 0.00588821344217345 -0.002304066530976562)
(-0.0003442281853442468 -0.0007461272090288499 0.001810867591793468)
(0.001069413465595583 0.000547053064752329 4.530052680908257e-05)
(-0.003750936161034046 -0.0009539151138928504 -0.001070671264026687)
(0.00204185265839951 0.0007565376497643206 2.830486234243026e-05)
(0.0009104938753110897 -0.0001924634502676806 -0.001050391220339802)
(-0.002671964616642964 -0.03417227316551361 -0.02341080495528498)
(0.07042688081200185 -0.01206607134454102 0.04023208161758805)
(-0.001986850645338706 -0.0002938110966993663 0.001111705716396113)
(3.005255154639212e-05 0.0001382676221764866 -0.0002193761923182872)
(0.2270482928585358 4.364349038834759 -8.385892255605544)
(-3.394339314631493 -1.445526863227823 -11.05502323064101)
(-4.31835686869706e-05 -3.123526250755494e-05 2.826047819898021e-05)
(0.6057216521119165 0.6325097745551556 -0.07555221544279145)
(-0.001192062746772304 -2.71783948692693 -0.4683198447788222)
(-0.002624220028540243 0.0002787210088794314 -0.000120241042258392)
(-0.0008601059204049169 0.0002411706490309252 0.0001614313885331695)
(0.0008461288376240455 -0.0003167766344791441 -0.0001314267856408884)
(0.00440667936312455 -0.007878924854433327 0.0005761016014890889)
(-1.328852936787047e-06 6.756938387360005e-05 0.0002210097884074443)
(-0.0004496143839285168 -9.836983838423243e-05 -0.000315001909275453)
(0.002061988864740319 0.0006003151457222382 0.003140775463975102)
(9.026677621201831e-06 -3.174787435789953e-05 -2.206204319670942e-05)
(-0.0002802102016380028 -0.0001799641014541456 -5.205860750044082e-05)
(-6.054055751681053e-05 1.421849788703243e-05 -8.005414618983463e-06)
(-0.08157414835884957 -0.01792590098404391 0.4618050076150988)
(-0.2300572905290411 0.8108684367052805 -0.4753568567058331)
(-0.01588815862571871 0.02515200552159323 0.004351471373798599)
(0.6433506719650628 -0.7501559848750523 -1.20057644512474)
(-0.2719048916023441 0.2905899879446009 0.1960784217400632)
(0.0001946183338646672 -0.0002500584989722119 -0.0003999332153942886)
(0.0001975091031304913 -2.892249275806782e-06 8.220703937980703e-05)
(0.0005646334625856728 -0.001152106977593384 -0.001178425022915109)
(0.001824881339563341 -0.003875110286504396 -0.004737998235691519)
(-0.001980453705453931 0.0006962082465141762 -0.0002060887014289527)
(0.001227183834166401 7.300761609592637e-05 0.0004776494720758099)
(0.0006803577351275598 -0.0005763427458904244 -0.0003429667360447303)
(0.002651692595120029 0.00629424808207609 -0.009209568919061007)
(-0.01997533491923687 -0.01268831816154693 0.008730367428963453)
(0.003105575408438238 -0.0001789162003328275 0.003067812491357037)
(-0.0005377633315649064 -0.001335076800157293 0.001035801248653257)
(0.03954877598332911 0.01218861868590532 -0.009926052068281326)
(0.0001257004785284909 0.0004023622192241016 0.001757609301384149)
(0.002260316565694901 -0.0002718632827370828 -0.0003107702906169792)
(-0.001918573663940301 -0.001193386313545671 -0.0007063842336261143)
(-0.0001334920223779293 0.0001428034494975888 7.850461344167706e-05)
(0.001762863666372965 0.0002243311048272169 -0.0003688059889301792)
(-0.002526149739706513 -0.0002793596526220561 0.0004958786987171567)
(3.563355600550331 14.21325141010031 -2.638267790838569)
(-0.0001435029953844936 -0.001033895901209449 0.002059537235301928)
(-0.002272346110538982 0.001666947546250848 0.001439858287411596)
(-0.003373581400345176 -0.0007747203367632446 -0.0005201397649747249)
(-0.06872410990978234 -0.1288069324890098 -0.09125638500518708)
(-0.04654064952860165 -0.04645778019355357 -0.09979332043883109)
(1.340349665005335 -3.302168981784957 -2.88071470597967)
(-0.04288364172281281 -0.06067856865241536 -0.02171375038823388)
(0.0002722713526899603 -0.0009904625772637944 -0.003121302656446275)
(-0.009695891682692383 0.003698610451541794 0.003243800616214535)
(-1.642461990627358 0.8380615729820113 0.4101613138723207)
(-0.0009753535584046992 0.0006662763769719026 -0.001579584933951663)
(-0.0003797089461320521 0.0009968498113886739 -0.0001144457413247883)
(-0.58322371780649 -3.975389594939585 -0.9600076799774885)
(0.0005055484356995487 0.0009407735596872398 0.002730398725074164)
(-0.08855492848789488 -0.01822691346502568 -0.05105578396808806)
(-10.07091910231362 13.53218973517773 -4.338084943989126)
(0.2407006712804047 0.675391825779138 -0.2333898662395494)
(0.001061839796801108 0.0002639431578270798 -0.001767016729680769)
(0.001749262791310599 0.0004405423614616565 0.001731285859313441)
(-0.0005753578809903812 0.0008415834120628718 -0.003429843867097163)
(-0.004118034201931953 -0.003767987184620539 0.001396965564754055)
(-8.534726152117445e-05 -2.369858288664198e-05 -0.0001486422514949665)
(-0.0001562961590438029 -0.0001601726295415212 -0.0001260121459746253)
(-0.06907211020495074 0.2307328937196518 0.1218334048538527)
(-0.1587279964707442 0.09543620309619673 -0.02417967092264732)
(0.002999336325085736 -0.001421837796855839 0.0003573439234892642)
(0.002272251361008153 -0.0009182287128956684 0.001255565820755808)
(-0.004944803181788984 0.001013958252163749 -0.001907032063014601)
(-4.862440857198515e-05 -0.0001756197815204619 0.0002302225023805069)
(0.00056053066863056 0.0001844140289509639 0.0009193741462767339)
(0.0001557281210487868 0.0007038516165722192 0.0002661835714285045)
(0.02209213503070152 0.07695093680685972 -0.0303203482356841)
(0.0001767080076022919 1.1336387115649e-05 -1.364445726485992e-05)
(0.006070003185833034 -0.0004926922840288021 -0.01808698838586984)
(-0.03722350380174326 -0.06556144938900629 -0.06782770383833867)
(-0.001954820599430487 -0.001533732199868188 0.0002722057630919986)
(-0.0006102063293174783 0.0009062603502012973 -0.0008815340651970044)
(-0.002727407055661231 0.0008138827644948294 -0.0008650146958086824)
(-0.0002318927699199 -0.0002335844440353531 -0.0002155959185022119)
(10.82288013326711 -15.82144901115875 -48.48189306810255)
(-2.74152140528031 6.331383524629905 -9.934138810808467)
(-3.905415970726551 -11.46663621667915 -2.959789463877061)
(1.940943721622314 10.9130140029611 -3.490984595326997)
(-5.909886616393257 8.436409405649297 -37.71081820020699)
(-7.640775919940156e-06 -7.599461732046369e-06 2.734894864015324e-06)
(-0.0009458881597453299 0.001456144844376994 0.001738952371968459)
(-0.1440318438321045 0.1952818619717476 -0.4286557473209805)
(0.002974799992977794 0.00161265464739633 -0.003467609024025954)
(0.0009525973653504735 0.0001542091142142825 -0.0008334016962803936)
(-0.001459683359064817 -0.001349101562698363 -0.001184650305598679)
(-0.0003739888039523181 -0.001590014764701296 -0.0001642150396363448)
(-0.002176370673474921 0.000518730656111325 0.0002667626044310415)
(0.001389692224364601 0.000446303117317487 -0.004820724984805998)
(0.009558448115930856 -0.008471434325234693 0.01861869556069486)
(0.000545736183983355 -0.0003028147228111335 -0.0004268475363732039)
(8.573301322045322e-05 -0.000155497202294279 -8.470927059169062e-05)
(0.002166233660903146 0.0003588374277094246 0.00210971918623175)
(0.0006861404504419587 -0.004094352306504778 0.005756515003186073)
(-2.273125599979243 7.025240480273033 -3.24697272773129)
(-1.911131767380795 -4.917668806173936 -2.807679540382289)
(-3.959302585262067 -3.560435411492218 -3.537859579064417)
(4.717047220417263 -0.2395400854443566 -4.892398868553417)
(0.2502831874883222 -1.183986713182626 -0.3817861234771124)
(-0.0002298411296881159 -0.0009117781754885688 0.0009007511030640126)
(-0.01363228957537732 -0.006946670752266068 -0.01211224481548483)
(-0.001125915246060133 -3.601397553146864e-06 0.000408011722013538)
(0.008972300517496468 0.006302849444931003 -0.01089327062754012)
(0.01979158911897305 0.3745758925342081 -1.384910734493536)
(0.001316850843092751 -5.407418787730381e-05 -0.001275126363300126)
(-0.001640352819412389 0.002354780550659533 0.001248778511107158)
(0.001093304513800254 0.001229818106680919 0.00337187050886493)
(0.03886955342395913 -0.02219463709077083 0.01431205371017049)
(5.965893928025124e-06 -0.0004163517305729253 -0.0002013722252849785)
(0.001319644571332001 -0.002921997412626873 0.002168792518288715)
(-0.004858117508892844 -0.02687587978712653 0.03534339668286709)
(-0.00339708391586823 0.000275635744040376 -0.000715365379416865)
(0.0005674637307663431 0.00283836200582803 0.00917712298366349)
(0.0006369384262549037 3.950545345351601e-05 -0.0001146748001143399)
(-0.0001417267635518401 -0.0001064213957722088 -2.499882663169919e-05)
(-0.001324597730910723 0.0006442186301951985 -1.224434689612225e-05)
(-0.0001568336302689718 -6.962640933418757e-07 9.135919394487026e-05)
(0.0002054699024645834 0.0002209361524999415 -0.0002555007451589018)
(-0.002684682872817042 -0.0002436305472578473 0.001098538456401056)
(-0.0005375530281295996 0.0005021440256500398 0.001434658196657567)
(-4.784309215358618e-05 0.0001049497385661089 2.917547712436637e-05)
(0.00382335537574855 -0.005293699795397695 -0.01115241891193987)
(-0.0007508632852760019 0.0005085485358459552 0.0001840803541927364)
(0.0008011619387047273 -0.0007825106933046001 0.0007145038380755765)
(-3.952690041679766e-05 0.000187961514463165 -9.930941389140473e-05)
(0.001162998929663088 0.001151471442014055 -0.0003585064460612171)
(-0.007963391240079245 0.0189606333405709 0.01008379871230694)
(0.01335061826330423 -0.02938315653423411 0.008710339081597754)
(0.005394261722292933 0.00208542606967503 0.001039789355621844)
(-0.0002495669210204134 -8.623033192560364e-05 -0.0005648277078315306)
(3.605479451322349e-05 -0.0001094571857012258 -0.0001621441315288973)
(0.004298997912476397 -0.000380292840332609 -0.0004217145207856825)
(-0.9791170027802535 -0.3318763946237105 -0.4629905345033418)
(-0.0005719984781751521 0.0002385885857388105 -0.0008298192752948405)
(-0.08442885883718679 -0.02701545042146507 0.0382215379707582)
(-0.0009449548315214951 -0.0001802994020979176 0.0001611345070683774)
(-0.004705514841141694 -0.00440582715452857 -0.004717363949866608)
(-0.0005462165205980079 -6.680962878951417e-05 0.0005765360683353802)
(0.004942598429246529 0.005238479664164302 0.004034019445192136)
(-0.047476322530609 0.045618072329178 -0.05382070705665167)
(-0.002434349230687693 0.002875773613100713 -0.0006186975009534106)
(0.001627644099152225 -0.0009170342239586692 -3.743724782584565e-05)
(-0.003133729043942173 -0.0006348985754372929 -0.0005410124762300858)
(-0.0005076949298373956 2.309566377766586e-05 -0.000276847612065338)
(9.212356388129696e-05 -9.142578437385009e-05 1.907445618929635e-06)
(0.001256343318967904 -0.00202161601236166 0.002996461220076211)
(0.0003931737439143106 -9.419155178687503e-05 0.0003154313171628402)
(5.483484647088873e-05 -4.707072197965485e-05 -1.40620740292954e-05)
(-0.0006838043428270035 0.0005079834801983629 0.0009914768876038925)
(0.00199440733163122 0.0003299175634016009 -0.000196256675714127)
(0.001965189085949734 0.006326432342779903 -0.001355920340481071)
(-0.001218239741000674 -0.0003224964897455651 -0.0003412479384230853)
(0.0005065796578427743 0.001073800409040755 0.003563761033431635)
(0.0005152623056702665 0.000760574796061157 -0.0006490699054672047)
(-0.01253933883279015 0.007352422472435039 -0.0299488704295694)
(-0.01367566463035193 -0.01803424122311029 -0.049475906083188)
(0.009718229016443569 -0.0024885428608481 -0.0002130963574981425)
(-0.001185998840148071 -0.0002904789618652435 0.00012946943583375)
(0.000385891210594205 3.936813191643935e-05 -0.0001351949942078035)
(0.01550158473367652 0.03564535089661347 0.0003166167737785452)
(0.004595822504664611 -0.002199771478221234 -0.004797426038395544)
(-0.001486142352955016 0.01446691474065365 -0.01022826700819626)
(0.0002920037750466595 -0.002684303052862999 0.001082301067675221)
(0.0007814006475721616 -0.0001150016471046888 0.0002380463399568037)
(-0.0001832949515548386 2.685830918931255e-05 -0.0001945072957739557)
(-0.008631445890228323 0.01428882698788241 0.01347430323225482)
(-0.0004013079258859733 9.980498619771539e-05 -0.0002345278321961227)
(-0.0003330534486443568 0.002687828901034734 0.003005771356234853)
(4.533467855570079e-05 4.859344382087647e-05 2.716324063105147e-05)
(-0.0004896261512829722 0.0001992539981699043 -0.0007013803735637951)
(0.001657774027538126 0.0002228778134490928 -0.0001944469241498458)
(7.389688328759541e-05 7.975922557693137e-05 -2.312519350224222e-05)
(0.001219234211460419 -0.004181576649110881 0.02666747995577839)
(-0.006963404057308972 -0.002678284007916232 -0.004330338862938503)
(0.002157743018353282 -0.004759226989680508 -0.002628336849150339)
(0.0007001135476163778 0.0008917226695767946 0.001743893337192712)
(-0.03065071077164949 0.09802038426099936 0.03315463050868367)
(0.004073693916285065 -0.0001530907904738754 -0.01055548127967765)
(-0.004397035918186555 -0.003228077281782415 -0.009697980609685828)
(0.0001651504200042496 -0.0001008977393676506 -0.0002079240184955588)
(0.0004644938338030582 0.0001754504713336217 0.001752629933874289)
(0.0001605118694126872 0.0006279382895240731 -0.003045732108710172)
(0.00278233396675602 0.002685670902226772 -0.003272758358774497)
(-7.049153291232958e-05 -0.0002826199548498757 -4.002039975222336e-05)
(-0.0009261390355978308 0.000472164799697544 0.0002038511461329213)
(-0.0001101189112345252 -4.147935440409094e-05 3.610628588964356e-05)
(0.0001252432955071405 -8.598862824708783e-05 -0.0003379177604635777)
(-0.003716051338842601 0.002623608890077226 0.006869100126639994)
(-0.001446965316237464 -0.0006615425905347723 0.00114665932276707)
(0.001817352036055479 1.82005095828385e-06 0.001432443302523801)
(-0.004955812180121411 -0.01553407101974644 0.001302993465837188)
(5.81666794369034e-05 1.05866877671059e-05 -0.001691229563204896)
(0.02496139733719691 0.0275625303000129 -0.00613449810738095)
(-0.001622221834302095 0.04468462853231397 -0.03389739738203618)
(0.005170877663484275 -0.006297169995218902 0.01283100455360221)
(0.001618238094741266 -0.0005841482107138817 0.001314260217189437)
(0.000961181309314124 0.0003125992139141433 0.0004403363122234495)
(-0.000850003275094666 -0.003105822801684144 -0.007516769264460206)
(2.965634876654427e-05 -6.017368482803746e-05 -3.266024512208822e-05)
(0.00256894730293282 0.02197470662970168 0.009658615455338602)
(-4.465351999917078e-05 -2.92315740962385e-05 -4.128902548651675e-05)
(-2.364342116617919e-05 -1.827905566840822e-05 -9.462099375635445e-06)
(-0.0006398852541345233 -0.001554974882512962 -4.309120423296418e-06)
(2.900711844901303e-05 5.513375777312861e-06 1.211267594864501e-05)
(-7.742186604050816e-05 0.0008246721885317272 0.0002053938970069554)
(-0.0003655580190284399 9.45375063731104e-05 -8.805710556519718e-05)
(0.002095727995337489 -0.0008446931365489341 -0.0001697797449592228)
(0.07306463738586159 0.05633093812969844 -0.02949156677429199)
(0.0003073740125772672 3.227290315964247e-05 0.0001389188000244212)
(-0.001274497171901348 0.02807438978928442 -0.002843504260037721)
(0.005436915105687432 0.002091267941985202 -0.004017391201732034)
(-0.0001181349638928784 0.0001324983870714628 -0.0003456360178435577)
(-0.0004659390335553328 -0.0001716929416723264 -0.00124087740888386)
(7.948183853524918e-05 4.305637604458083e-08 -9.017158931456026e-05)
(-0.01838955475866139 -0.07592118963374406 0.04020028109013314)
(0.0008513185358942916 -0.0004206897454061181 0.0005198003820229677)
(0.007692271340794424 0.002745978091774442 -0.001865444330120855)
(0.002221886212435217 0.0008163482385945152 0.002342639429887556)
(0.0001085812328197131 5.868964658976148e-07 7.96434953221062e-05)
(6.019553443141099 6.441890186435136 1.41192703160686)
(0.01695046882989289 -0.007084900886472704 -0.0003536166449739769)
(-5.473859786081666e-06 -0.0006745621465083351 0.0009586974294938376)
(-0.007211914957882983 -0.004964146764042884 -0.0007784520356687464)
(0.01015011513528189 0.006544321953573929 -0.002060129840392773)
(0.001695970034718221 0.0001705320721789411 0.0009072061073794832)
(-4.063738694181496e-05 -1.64839109026502e-05 -1.116725341217275e-05)
(-0.002081954456145113 -0.0002967232173025377 -0.000280355308506917)
(0.002829452016880543 0.003326421675612192 -0.0009152746258842229)
(-0.002418918829117231 0.000761439132081613 -0.002206392537902453)
(-0.006350810902909395 -0.00323173898758742 -6.493426548831021e-05)
(0.001593378693718476 -0.0006308051775524492 4.084628143410235e-05)
(0.005600803623097856 0.011011930619062 0.01517106951325953)
(-0.0255986166027944 0.03266719948583423 0.003565061047307427)
(0.00103853372092148 -0.001824735004645698 -0.0002794786517595546)
(-0.001896784960288417 0.001131255896284718 0.0004175500138530985)
(-0.0118640722842447 0.002801926572997215 0.0006818482849995991)
(-0.003192635269763829 -0.006281007332755333 0.00336779399222499)
(0.0002353722081234732 0.0002104463308357452 -0.0001436269004787496)
(-0.0002397558756044054 -0.0001040369235938141 -0.0001191955855532897)
(-1.013333814203836 -2.295408648835136 -0.4686362830413182)
(-1.40941721754641e-05 -0.0003990969482817762 0.001690464758985066)
(0.001223099501502909 -0.0005224816011818677 -0.0001322112969859464)
(0.0001479464575087427 9.097128932809389e-05 -0.0001875674510023823)
(0.003173158712175101 -0.001058799420779745 0.001890244768952283)
(4.106685521509258e-05 -9.348833966186696e-05 -0.0001258451253181924)
(-3.131090460529347 -62.04820046350122 -3.48506340788896)
(3.610055573513462 -54.46334056032864 -2.069782828897727)
(0.2571769418353685 0.06224069740156386 0.01407366324543054)
(0.0009490683033380356 -0.0003094880391307095 -9.1088771288504e-05)
(4.236975178664752 -4.43364287533743 -7.220700150387972)
(1.082663274669029 -6.029111141859681 -13.38715677216091)
(4.10594360236525 -57.3280717856823 -7.289030318359867)
(-0.0004921795003439784 -0.0003694043053675374 -0.0001113351139907291)
(5.294472931634296 -7.551426825887402 -2.898858014855289)
(-0.00829798840011442 -9.538477593379254 -68.53278765655267)
(0.001011670180605839 -4.818943014365577e-05 9.121874558989236e-05)
(0.01094441161098127 -0.002390299066461153 0.0157026980806666)
(0.120430575528155 0.7208418014090441 0.1118277453978388)
(-7.556445021746765 -7.360239394938293 -54.52099992086399)
(-1.869457134545466e-05 6.334050187599332e-06 9.922912768424518e-06)
(0.0006046411720239801 0.0002917177719602411 -0.001679616246502244)
(-0.05764226584022277 0.01871879904443967 -0.0006759888806889599)
(1.933354634639258 -10.27805791657712 -8.503809414668755)
(-4.361983145253766 5.382988597186544 -9.36131306982923)
(0.007091890973835125 -0.01453024209291377 0.01610642099975578)
(-0.0005358343392567887 0.0001466412672393235 -0.0001453977838394619)
(6.821738178641009e-05 0.0001847780750325057 2.574477013706963e-05)
(0.000135638126361305 4.938488170183624e-06 -0.000142104161673065)
(0.002253183806251834 0.0003692367424668352 -0.001065317112834193)
(0.001751148091224299 0.001729714289628674 0.0001519781786056144)
(0.001272761038059542 -0.01486578822856904 0.0001519629495706858)
(0.00247132541940956 -0.007989850817565375 -0.006315171918374161)
(3.821265085388827 13.30437764552038 -7.113591695691212)
(-0.0007859842860753609 -0.008921809814765544 -0.003021045928660242)
(-2.608316629961185 5.327270568642685 -59.68972921370182)
(-0.0001603041525196471 0.0002175187332583503 0.0006937669267211556)
(-5.061610596937468 59.62142857705838 -1.303343562449983)
(-7.001161279797278 72.64908779195619 -12.61444116129812)
(8.625178914914653e-05 0.0001357290751672468 0.0006540214710071938)
(1.177961125738385 6.035311265850059 -3.370075923168168)
(0.0007664671481602079 -7.323379024789937e-05 -0.0001778597009875226)
(-0.04730990619576403 -0.22105316458895 -0.01498123322391524)
(-0.004292217010228104 0.000257649655891271 0.0001151777714253665)
(-0.1781254828218441 0.3029839570266396 -0.2788480285739662)
(0.297170338176342 45.64031825983533 2.812899670856517e-05)
(0.0001119254165723217 0.003797164409643435 0.0006703343740086665)
(-0.0003321728612948722 -0.0001209670177807946 2.891091386099423e-05)
(-0.01629515931556909 -0.005652617503474683 -0.0004640861386717227)
(2.643118456996634 -3.671576018512182 -3.139799991270057)
(-0.008817234236795811 0.004236007834460914 0.005350280452079973)
(-0.001463204763319112 -0.0001487323166776266 -0.0004077950039478623)
(-0.0004374320795930631 -0.0002066508882092153 -0.0001232424737187085)
(0.0002834500969277928 -5.911525408950095e-05 -0.001300299070535966)
(-0.0004572335701542577 -7.549578544943883e-05 1.066568596809773e-05)
(-0.003082286986589721 0.001286068001411714 0.001880769055293442)
(-0.001023726276642047 -0.05293154139354593 0.01728869197257666)
(0.0002349193577378602 0.0002859252719976701 -0.0001873175088074567)
(0.002454860682528153 0.0191093691631505 0.01690530666582045)
(-0.000243213777692302 -6.729919461889421e-05 0.0001081032586274499)
(-0.001232627159697937 0.0116391537465301 0.08171956694939297)
(0.05035171742685868 0.1388127092035415 -0.05066250744618234)
(-0.0004286470050309994 -4.12047782092797e-05 -0.0003353075498351829)
(-0.03143246347527691 0.02463900712345972 -0.01627616067039783)
(0.001822424845367998 -0.01097344098106975 -0.002244076959646375)
(0.1385079820889845 0.1549774874326424 -0.1497968961299307)
(-0.005855839548125476 0.005361230802060167 -0.001013993745263579)
(-8.828916407250175e-05 -0.001233847120203537 0.0005437230513646583)
(0.02450008425313388 0.08061956582091757 0.015916965645243)
(-1.047447840346315e-05 8.761434397108028e-05 3.203491260530099e-05)
(-3.477844340055607e-05 4.017130299216904e-06 -0.0002003180953276902)
(0.001127017762577258 -0.000608117551649026 0.001131112940908216)
(0.7178431782751102 14.6327163731495 11.17393187366313)
(-0.0004500878347725441 5.094008122391317e-05 -0.0003460879369468754)
(-9.546850654241785e-05 4.507680828287175e-05 0.0002903585617957631)
(-0.0001285894060613266 -0.0002206956630000468 0.000113167061054288)
(0.1163179898884904 0.0638734506585209 0.08642573521138283)
(-2.580652952537921e-05 1.29343253449894e-05 8.266674001362252e-05)
(-0.0002572021608906701 -0.0002362684740114392 -0.0001187888841598052)
(-1.502889764568471e-05 4.227113036878597e-05 -4.370455496287759e-05)
(0.1121766284273775 0.04706648570391705 -0.02659141110548599)
(0.0001145655494048527 -4.135452301603204e-05 2.366598693258572e-05)
(2.929885801826226e-05 9.431957550661703e-05 0.0001233445346567679)
(0.0002769824045249401 -0.0008772192563254653 0.001067504580166977)
(0.05008658457887936 0.3098299696309038 -0.1304331978991647)
(6.753348045986056e-06 2.637539109061801e-05 -3.417798665257914e-05)
(-4.418004702363154e-05 3.270741533879237e-05 -6.077227424061379e-05)
(0.002019484153297285 0.001084115425480895 0.0005359785622658891)
(-2.540603237485332e-05 -2.054369740898951e-05 -7.242570938499858e-05)
(-0.0003704829004427564 0.0003717141939758204 2.363741853962373e-05)
(3.499932115954179e-05 0.0001008570507668567 -2.759755974599888e-05)
(0.0001043601155111198 2.263344956934072e-06 0.0002818445816271406)
(0.0001777139373266915 1.240743047917487e-05 7.081327922588718e-05)
(-0.0001877196088809108 -3.849653046610241e-05 -0.000112440257195799)
(-2.249368689794161e-05 4.43131850801306e-05 -0.0001245072371836284)
(0.0003955059252929666 0.0003079396736534717 -0.0001956557079844638)
(2.685129124884521e-05 -0.0002803121668781351 -0.0002019433267010261)
(-6.113512530806272e-05 -9.182150640756194e-05 -8.850386027348503e-05)
(0.01441672922582903 -0.02872739564505901 0.08146627982459602)
(0.0001484614529044717 0.0003151138476015252 -2.790413762289063e-05)
(-0.0001571129093269481 0.0001249203720462466 0.0005331132342588213)
(0.0003580743569970943 -9.177616990332335e-05 0.0001886111593850078)
(0.0001554552269738812 0.0001267712176262332 -0.0001348451947612527)
(-0.000189949337408824 0.001454785297729911 -0.001981950232192833)
(0.1424938985589966 0.3403131225757023 0.04342484300731458)
(0.001356643625720345 0.0002529283412483029 0.0002939546509114019)
(-0.01673085977472809 -0.03402633217723298 0.03893438032419771)
(8.950651150334117e-05 -9.045370141244608e-05 8.02118273671216e-05)
(-0.04132077038366591 -0.01774825342800205 -0.05048884748792289)
(0.0001815078342849066 -0.0002265273309724312 0.0003360390176717)
(-0.007517046699713812 -0.0006314854369951384 -2.715323105193407e-05)
(0.0004349517215744356 -0.001025939685529771 0.0007646154852124776)
(-0.001404480212861481 -0.0003325536946333821 -0.0001962616948735648)
(0.02655369453815046 -0.05036682791667444 -0.0198784839493357)
(-0.0003087923783720558 0.002103721522442804 0.0003911386035422129)
(-0.0002363489770092475 0.001215247237787592 9.895085230573829e-05)
(0.0003751543573309647 0.0006432106307999981 0.0002210587959814525)
(6.338927338867868e-05 -3.161332387929579e-05 2.62784438273582e-05)
(-7.741042351042818e-05 0.0001367303320756313 -0.000134765671360917)
(0.02333403672914366 -0.100880796000136 -0.03189394181498306)
(-0.0004611235867070732 0.0002872395622174097 -2.961955845140158e-06)
(0.005043942440491592 0.001042981996334875 0.001279408980514175)
(-7.603893390094016e-05 5.245379728212032e-05 9.015997890737304e-05)
(-0.0009571185006318451 0.001350414582849444 0.001246949066466657)
(0.005080883315123643 -0.0002970128204313251 -0.00204177073008743)
(0.04392559300691051 0.1918828410331188 -0.005023177866245995)
(-1.763764492358906e-05 -4.929277233167622e-07 -8.826029814347115e-05)
(0.0001434044977012467 -4.915527222779122e-05 4.622538315527891e-05)
(7.270100661067104e-05 -7.883940700935757e-05 -9.195914374788719e-05)
(-8.514351517713815e-06 7.404512091939381e-05 -1.235030124176703e-07)
(-0.0001867710070028415 -1.32493486276624e-05 0.0001087513077449176)
(0.0002154686099029943 -0.0001403937128901552 -0.0001372751995351788)
(4.196851825691011e-06 4.484155262301077e-05 -9.456721872850259e-06)
(1.544715799099128e-05 -8.355822110968562e-05 0.000109626512452578)
(-1.862868191973342e-05 6.360019026563796e-05 -4.442615250340456e-05)