/*--------------------------------*- C++ -*----------------------------------*\
| =========                 |                                                 |
| \\      /  F ield         | OpenFOAM: The Open Source CFD Toolbox           |
|  \\    /   O peration     | Version:  v1906                                 |
|   \\  /    A nd           | Web:      www.OpenFOAM.com                      |
|    \\/     M anipulation  |                                                 |
\*---------------------------------------------------------------------------*/
FoamFile
{
    version     2.0;
    format      ascii;
    class       volScalarField;
    location    "1.5";
    object      p;
}
// * * * * * * * * * * * * * * * * * * * * * * * * * * * * * * * * * * * * * //

dimensions      [0 2 -2 0 0 0 0];


internalField   nonuniform List<scalar> 
19631
(
0.7703778278556233
-0.1839433931933454
-1.183994611000058
-0.4990420125170014
0.1243641107204954
-0.3788884674964645
-0.01452245133977016
1.448989765172176
0.03076733316359856
0.05976446471562731
0.1185655693411636
0.03688908955976825
-1.441586097359131
0.1414511153106535
0.1722975294528058
0.07550239754871022
-0.4454463873386653
0.1448694170137289
0.6585975301581066
1.004475539394803
0.09702574151312081
1.135043610316814
0.1255269275249299
-1.242054978992486
0.1681944682921513
0.1940496481178874
0.04960266835780047
0.6639497903494392
-0.2906782036578343
0.01232251521011318
-0.05636504777409672
-0.2621332398358184
28.02517682069776
0.1408318886620145
-0.3955467969665329
0.199546413508691
-0.01844795526603741
0.2017944292162527
-0.07942787351030849
-0.004403858823445954
-0.7702041350892694
-0.1517859512316893
-0.2505651902257039
-0.2537061488103733
-0.2634632257508189
-0.6269582585669818
-0.3403292418489518
0.2588500546959044
-0.183482032573442
0.1004649171804645
0.6298563215589537
0.0475473580232191
-0.1857128025190798
-0.009943340864661976
0.2094667451449557
-0.1942072326395923
-0.2791489897394485
0.07875973994206149
-0.1151576153640546
-0.5027604460608877
0.1138366271703189
-0.2108415173313839
-0.3364703749762725
-0.2105681074356286
0.7104476805505298
0.1252107705664339
0.1919380021656381
0.00624751476410512
-0.1608059660443499
0.0736224600652397
-0.5493874950819715
-0.2711296819736326
-0.1561709801464514
0.224111900710705
-0.1159550734120729
-0.1448755739310805
0.08643481058048642
-0.7682344147813754
-1.182866687641455
0.02485591965270337
-0.908580070743068
0.4397789402702612
-0.01135816820553717
0.224202561995243
-0.1145461959395855
-0.2514553770270677
-0.2100324259412432
-0.01187054112671423
-0.2482896479235584
-1.042884766494979
-0.3042816667002562
0.1512896036583996
0.03134978205095823
-0.8244634767949561
-0.2022641023495834
-0.4210774438868599
-0.2103048304460588
0.05925990561414073
-0.08018467981102434
-0.119652741548638
0.2114701237446037
-0.7686709125329861
0.1192627770553282
-1.164566049434163
-0.6133172280608847
-0.5291314583367402
0.1031527809256702
-0.3841567280253008
-0.01286750831564868
0.1221576628324628
-0.5473598887131099
-0.9665923135421574
0.06152778318566902
-0.03268564458329725
0.6002288234843032
0.4217618349114076
-0.225378742973872
-0.1392095393205017
-0.6691587793227266
0.08906080105137429
1.101319871086969
0.2860723845902687
0.1000386564331252
0.001540996826482238
-27.65616507952572
0.1995487675996776
-0.2914292724628657
0.1461915125594637
0.1641862913165768
0.07838148054398576
1.088549454944764
-0.5488117059791855
-0.8992917729005212
-0.6682323718700682
0.08030757788820202
0.05688171562683907
0.01804630900009542
0.1754670699011161
0.3900194146642598
0.03318616586307974
0.1821085580964876
8.619853909696584
-0.1597570580685127
-0.2744075640131451
-0.04240755233441951
-0.1321602346381772
-0.07182534034850822
0.2114120784193905
-0.5516335304916177
-0.0151675382368574
0.1745024976462634
0.04545112719798115
0.06362251780431007
0.07722637029187281
0.2160459812404902
0.1238704214025659
-0.7418201628517886
-0.2126572186980029
-0.3370723085202351
0.09955472358420708
0.4485606914015431
0.2365037519104279
-0.4076016437810851
0.3639920164571769
0.1005383463952306
0.1174225960642669
0.1475893230813026
0.1396334623427884
-0.7597878380931596
-0.299067337562278
-0.4441675895762139
-1.03062576163666
-0.5168286661958366
6.270811887048228
-0.06802350816005874
-0.6744619222586915
0.07396518290854814
-0.3751502764375568
-0.05094163596858876
-0.03596082998221211
-0.03745453823000271
0.3524364371835637
0.17797900531001
0.003157170206061139
-0.6813091814222425
-0.4119521762472372
-0.01512197564788596
0.05529873460854781
0.03286349858660299
-0.01402139300455827
-0.443259861124529
-0.4462249363988375
0.3157857606872943
0.05988993317701315
-0.9391688179040243
-0.7194462662863057
0.05350194778803198
-0.4362776308686398
-0.8383114864526962
-0.1135614726643416
-11.04919366157977
0.2128767794951077
-0.755607971777105
-0.1677499888933785
0.0137473808858649
0.2128347001661096
0.1326472547264223
-0.5260871954390187
-0.3075690866097526
-0.03767958141453319
-0.03967821849844998
-0.2570672091393861
-0.3344557485006412
-0.4713261729484311
-0.0455779534754332
-0.3960330969872637
-1.287438444849001
-0.5261698086164959
0.6461428868828033
-0.02590196546004686
0.4831968589612732
-0.467294222171226
-0.4970341723595967
0.6147389980156392
1.704869393857384
-0.4094599951971621
-0.165913307225282
-0.1885450545496445
-0.9328266671155655
-0.08389688199342667
-0.4302781550109929
-0.2317502800747728
-0.2994126915403611
-0.1221420519349534
0.7547131401871358
-0.07703897555867849
-0.1826177884524078
-0.463796735682482
-0.2902089741628416
-0.2441272048564036
0.6341068791384084
-0.08585390908532625
-6.797776732987334
0.2390324968042546
-0.6957937373647022
-0.7799824378167589
0.2176302441639621
-0.3496634487335059
-1.060423800968478
-0.2917541147471107
-0.2051590963399786
-0.6240930583347615
-0.376594439033162
-0.9130890759196048
-0.3444950849590419
-0.8054260193610517
-0.106824426684226
-0.5883062016044099
0.02663705456891843
-0.2799023480464053
0.1184971008460812
-1.222124683475424
-0.3244601401613889
1.432564061880144
-0.6569479120317
-0.4297294304858216
-0.01180971539309399
-0.5492326626881631
-0.8819792975972546
-0.4694327330698138
-0.6334307536965255
-0.07305612211351012
-0.2087864801179574
0.1823214500783663
0.7734266137844599
-0.3149918202088833
-0.236675423759168
-1.440688635048097
-0.1772876574914853
0.443687209484933
-0.5205548871713406
-0.4802769035442806
-0.1889736382107168
-0.2061273837992235
-0.8050548844806291
-0.3350986676835937
0.3977755078497346
-0.4360992002001752
-0.4089055972946007
0.1353676528797152
-0.1471326553230609
-0.3589928189111145
0.1891735875947978
0.0778088915591815
0.1752091384415037
-0.4690281152651476
-0.440234098122035
-0.481670545932103
-0.6815955877853606
-0.2552134882965448
-0.528027831364599
0.668926109132709
0.132527476801668
-1.6377314264182
-0.7210173670838328
-0.03617943198074683
-2.539481211737582
0.9121958935627896
0.8976488243277515
0.1466286371929224
0.3275304963212259
-0.7219719734233313
-0.7457121668155089
-0.1254353686980544
0.07615304139589411
0.2130102011125944
0.2276009300627627
0.1544797244209296
0.1493286274584902
0.03984838225740962
0.007533179232472667
-1.022000470100527
-0.2299141023022396
0.07090623898283531
-0.2399060764340412
-0.2781879984689319
0.1588556281640786
-2.036141126955182
-0.4270108570133745
-0.3411523608707797
0.3398032461740161
-0.09236623738823849
0.1283201811897829
0.1088595662355932
-0.2366720532894574
0.3253876263206996
-0.8462392992177026
-0.2401094031298434
-0.01561183623653268
-0.1144453133913802
0.04038965453285428
-0.2318525794625418
0.06358171585191535
-1.193010651898768
-0.313206147191874
-0.2865499893337285
-0.5227872296938917
0.5750279698426117
-0.1114721245889181
0.02895874883541846
-0.1159575241139576
-0.2214200280564657
-0.2132047560598597
-1.149451074315417
-0.3066655214390354
-0.3353914581398761
-0.07523825140396714
-1.088227474851331
-0.3655460216649268
-0.5398538470330853
-0.1689397694538967
-0.9814574038692577
-0.06798103382408979
0.140948438404119
0.6068350226957041
-0.09051938768761271
-1.09700315314453
-0.6197497413462131
-0.08553971063224933
-0.5041305686009122
0.237343162055521
0.182968290524336
-0.3773292270402152
0.1576045795767098
-0.1746476402556434
0.3232681346555599
3.183275535286471
0.08976185883119533
-0.2028968034979546
-0.0005236443927734269
-0.7590703852596606
0.1225422226203172
0.06082940789387806
0.1141452835869158
-1.262992932196279
-1.743012889384432
0.06121692839231109
-0.5322037497538989
-0.3129026274217596
0.1078411619968229
-0.1254153586455296
-0.03217447187278113
-0.4377697171583185
-0.3469623569437572
-0.0893508416056667
0.08947292569837811
0.1659623859299222
-0.1470626971897585
1.049916738772273
-0.332271842718821
-0.3393568062916973
-0.07472944419006713
0.228445366486482
-1.133289126809046
-0.4359231378106131
-1.691068524842952
-0.7857089517168815
-0.2201494701656632
-1.503515446318485
-0.3019953864759887
-0.8374349143601453
-0.4424158936352083
0.3684051784947889
-0.529245381420377
-0.2434947373345852
-0.3692198312041426
-0.4707636098052505
-0.1411902156147369
0.2659100535308497
-0.7480994207938577
0.1293315149549874
0.06565391480180474
0.5068730937568695
-1.536418201604737
0.4833208645836181
-0.1028195351911849
-0.2585244386965187
-0.4570833427437191
0.001388285550931689
-0.03706671758475324
0.1871348027993438
-1.385269399287202
-0.4485319255448797
-0.008828038410533761
-0.1029094413337707
-0.1413159693987417
0.01921958639775827
-0.9093089471093704
-0.1358889999909469
-0.4663101392548036
0.0590069172738704
-0.463519287226407
0.06757313351767073
-0.08794882884133229
0.03533852291115969
-0.7799085671807533
0.07369282327566186
-0.692830721787511
-0.5037562756244373
-0.143472075110356
-0.3021284364478829
-0.3957616579235411
-0.788033427939046
-0.6387183443884007
0.07383937520467429
0.08667492049915304
0.1153601488587226
-0.4147268883327183
-0.3305343798469956
-0.5447911449170919
0.2405206393077179
-0.3645304582858733
-1.219204065715867
0.203161846892148
0.2016667057772349
0.03620731404483035
-0.4274292019230048
-0.7074781874481512
0.7689751381598053
0.2763588881430636
-0.5638812761638996
-0.4251884401375282
0.1589286632106823
0.1773412232212766
0.4634449834203298
-0.3576245659577159
-0.004141267315499829
-0.4064880775418578
-1.001942056490596
-0.3822163204736836
-0.2408351771918345
-0.6632127882150125
0.07778361496780956
0.3775848624099268
-0.3190553503802833
-0.3869393738985369
-0.2100641393200481
-0.2101958147391903
0.2493794246124862
-1.245138471932946
0.2414531272388478
-0.3688868126649382
0.07885649796061268
0.05330629304770348
-0.2736768505239563
0.139444306143799
-0.3260613013679085
-0.3415471242475379
-0.0669925267424291
-0.4300542460221361
-0.1230155998194326
0.07403622152283296
-0.1281281637953105
-0.001073851222188766
0.08545035104365213
-0.2671358221474395
0.7443640496498217
0.02345889569881199
0.1194596601458306
0.05257283673767041
-0.7088901692920101
0.04709190710750707
-0.5955774195975689
0.01823151317694722
-0.02809716921834834
-0.003220143467653695
-0.1572838381564728
-0.02054685281588065
-0.4547513697280021
-0.7605028562944783
-1.274423710966802
-0.4646493561691746
-0.225132229919265
-0.1484210134109472
0.4870414168996841
0.03971951131676666
-0.1112924304182907
-0.5707942364938906
-0.2306737572031091
0.01865391934209062
0.02229040080040871
-0.0329288756049722
-0.02664789540325913
0.01810893060860551
0.3273159392310387
0.0007481298810191686
-0.2512222462707337
-0.1687626527190808
-0.3094849743608538
-0.3729861478815122
-0.5250283154000861
-0.2265990617089474
-0.06100341806985669
-0.261346034143123
-0.01256798516815835
-1.018162725948045
0.1541916357020172
-1.234477512871524
-0.1197502855453673
0.06488092752802631
-0.3006197002474487
-0.1957002155541115
-0.7764165573989167
-0.3190109552406855
-0.1799259362678795
-0.03907033618704796
-0.2770342611444394
1.191343469680787
0.05270758964875474
-0.5133744489169323
-0.06669413571325403
0.01609756983580445
-0.4525621221614874
-0.3394069299028864
-0.2153373401640338
-0.06962977321695829
-0.05592410596765186
-1.982425591071347
-0.122393102297106
0.05202197226347854
-0.07496841299874937
-7.345198353644523
-0.01558266444742147
0.1211692554754647
-0.1146094326846233
0.2345320061686106
-0.1260318355605319
0.1063117237814092
0.1049006298453202
-0.5301226686221249
0.1669978496289534
-1.656775886955617
0.300161685377163
0.5400528018542369
-0.07574475840647105
-0.2855664146941575
-0.3527233162862682
0.3579702968176095
-0.3630672599569555
-0.1950599516825583
0.1165210263875812
-0.02140566426486981
0.5526203794945723
-0.3951707045858032
0.0106382067136319
-0.1023089287711636
-0.2914414297715098
-0.3198140374665235
-0.2097181912408926
-0.1131383501269695
-0.9596357915535628
-0.2260013710736506
-1.04572158925047
-0.5825995256640898
0.3319316178591933
-0.2940881406189627
-0.5425642091806095
-0.006783929577015578
0.1139368163668547
0.2695228768209867
-0.92033472626251
-0.3221182636046833
-0.35583069769062
0.3074327656240686
-0.4806426808378196
-0.3116161583690684
-0.2674420002871923
-0.007633304428572999
-0.2479513929165498
-0.3877175411367862
-0.3890280165963027
-0.3345650467778048
-0.03504745950426189
0.03942674766433355
-1.200272115888801
-0.4932136361233463
1.807119646242259
0.05269880069255359
0.2425630204547607
0.3846736016690954
-0.4226589947690767
-1.43199811998908
0.5095532590989218
-1.132020936880627
-0.2207421574397533
-0.4131441254383171
-1.154766727782525
-0.2861184801718037
-0.1132002398822499
-0.2758788107857431
-0.1467184917832714
-1.046354701136279
-0.4902174042522002
-1.395761765652849
-0.7539916120449595
-0.7000036855242947
-0.5068725559049625
-0.6586166700099703
-0.0907630216350023
-0.1778865445658853
-0.709150805379911
-0.2705309896359622
-0.1869205233826094
0.1310715823312085
-0.09173661654735983
-0.2730844502726207
0.1843655504204602
-0.3196062222597361
-0.2767694215721022
-0.2486997913463205
-0.03813120282048413
0.1825838048582977
-0.3584969957512498
-0.5345781873821323
-0.03461526352917601
-0.5751323598141783
-0.5503793762663444
-0.8055719846634585
0.05332719561411099
-0.44093512787124
0.04330760368107558
-0.8031594836930325
-0.8134053837795936
-2.155316049349009
0.01245307310605695
-0.2056028542185697
-0.758560906661075
-0.08047984385647967
-0.39797150100963
-0.4130155770664198
-1.119855207852501
0.007944589419762317
-0.7074337629696114
-0.3612117847398673
-0.3530548778058794
-0.7024426853718213
0.04242960064287359
-0.3935524382392775
0.0692617487240646
0.1567517365184
-0.2715481720257074
0.03704936406179855
-0.4087995912072365
0.1247364620743736
-0.569297335960401
-0.6386611243781188
-0.4026011550347227
-0.8021610327480899
-0.6170189116922074
-1.094907347676485
-1.044296317529049
-0.5357679210312815
-0.05961300823308415
-1.017555492185812
-0.3404304461823936
-0.2072238081273865
-0.6983541824865154
-1.394383235827503
-0.5685716356692337
-0.0484544696514419
-0.5760090843178857
0.6298513811177292
-0.7726504980328183
-0.4339130420165457
-0.315680003531046
-0.7267840402088215
-0.6936678954854518
-0.328754242567195
-0.07285858126680037
-0.4992224463209093
-0.9283523569445274
-0.2156171369208121
-0.1462377413860759
-0.4984146372906128
-0.8323630385568791
-0.449896750011185
-0.3382049398060292
-1.451072432281401
-0.5916151879660493
0.2579069042250185
-0.1838760937246051
0.6313990157775056
-0.08939696720730277
-0.6271962170822322
-0.2858222591964235
-0.2360074848954203
-0.4138535369648048
0.06225600439230363
-0.0638422703541601
-0.4007530065215119
0.225075375027338
-0.2172738810077292
-0.629732873696511
-0.1738702474535163
-0.1981254117075779
-0.7769861602072722
-0.1831883901639492
-0.5289050200374339
0.3140579493603754
-0.7173452345529709
-0.1896539294556793
-0.380696769497439
-0.5798286592521131
0.2503604427220591
-0.1841403625395104
0.2672801523100934
-0.063837092517707
-0.4373394797059597
-0.1456565436541904
-0.02834119810577338
-0.5713008305386874
-1.087775405981508
-0.3696847009922765
-0.215041189576022
-1.57658276787239
-0.2437988352035065
-0.9249954856617205
-0.6806064004880839
-0.389017025659384
-0.1003445265560674
0.03012206600148018
8.941224921604645
0.192675712674294
-0.4621535273712106
0.09668626242955093
0.1612303541761067
-0.4290329210703951
0.1881013968082383
-0.4050265854162051
0.1268271304127783
-0.2469019358334028
-0.3354762236277369
-1.220012926150373
-1.668054347675452
-0.2178357038761947
0.009484856028496623
-3.907278712827264
-1.878401984436544
-0.06090788869936509
0.4082444044509647
-0.1027762487579639
0.04526072913496478
0.2001345786331413
-0.05684231149357983
-1.26488889168298
-2.695806043201483
-0.6024785411730775
-0.3838756522772542
0.007397052012568422
0.4262072186638133
-0.3853665344271139
-0.5207583944871955
-0.9026344407627667
-1.305911830225655
-0.6892914990372556
-0.2059445316449316
-0.6169928927244468
-0.4017750461066868
-0.7360572347539686
-0.4419926648388952
0.1252733651771058
-0.2200918798736083
0.1073386554114055
0.07866593007321078
-3.916249089984471
-0.2082748052179949
-0.1402421042229024
-0.3256113425185929
-0.384082886161003
-0.04862785213253735
-0.2992382655171814
-0.467918430231354
-1.206292097040787
-0.1004941713511986
-0.5289319413006336
-0.15451404874354
0.129971231391699
0.3109210161047934
0.0407492548667276
-0.467153697548459
-1.505582400807919
-0.3761978974169671
-0.6442184249190784
-0.436261874119024
0.2034280093551011
0.1927565035384737
-0.1946428759288945
-0.3110122326276287
0.1871997231073527
0.2334208358428479
0.241159019909949
0.1044033104701946
-0.9061934680865324
-0.06828463371700165
-0.1621516968147817
0.2560597776999984
-0.4870268794130875
-0.1998264335886429
0.04437974049058296
0.05648670064619037
-0.463244071059716
-0.1883289675102972
0.01401139854933674
0.03106169660573003
-0.1318645541763295
0.357582796196128
-0.04641599425560292
-0.375996788091841
-0.1882345352246745
-0.2647173870431734
-0.5340492626141756
-0.1501739710250633
-0.5186016500927518
-0.1506881223598108
-0.5100819027489056
0.07494277437514768
-0.6605283661543125
0.1516531740841835
-1.024248288423603
-0.8206149860120624
-0.6231935054194295
-0.1810797715223414
-0.5959533934199672
-0.3287782437178448
-0.2692409877992598
-0.2953226208776447
-0.07227292743452239
-0.6725831853823653
-0.2174073866091628
-0.2837062057016589
-0.7621324095124086
-1.501981945284369
0.1105950303441563
-0.5026884495148037
1.436866497970709
0.06339846479334968
-0.7583736999466549
0.06651744128869516
0.1288811956755381
-0.2087553302204758
-0.03286438776415088
-0.369817076457404
-0.165018975438596
-0.03869733076762964
-0.5672310662034538
1.061980515757447
-0.6876966230023405
-0.1376774163333254
-0.4724292348588871
-0.2335647761189106
-0.5598524855997715
-0.3865447270581628
-0.2358111335337029
0.2404457879466378
-0.04643806806678161
-0.116529147687787
-0.07188735512797964
-0.5607216437058823
-0.09622189324996268
-0.2948510303145255
-0.4062333623408344
-0.2206281602462827
-0.7092404189919864
-0.5371347874353579
-0.6243029944864976
-0.6040306005602798
-0.8790051487214563
-0.02405481242447229
-0.1963218220028386
-10.41685550166871
-0.3118848195600161
-0.400626854606946
0.01353541919437034
-0.5826412553830388
-0.7904937220325166
-0.6325240520353563
-0.1223266629879104
-0.3459314968182418
-0.4070476857301691
-0.9926709360337171
-0.005304067515096391
-0.5718686508280955
-0.3021238567844091
-0.869375553261139
-1.171699111712396
0.2580076304285271
0.1439372076369758
0.2370780685726849
0.2847824933173316
-0.4392402552027686
-0.588921349428884
-0.1461543360448321
-0.3681883755023699
-0.4496495442026027
-0.2907381740067605
-0.2182340031170481
-0.008686976226130435
-0.1549891366072971
-0.3743791495047317
-1.296131107559046
-0.1698073136076676
0.770733612573592
0.09161954579596268
-0.09034590312648323
0.1285825569026829
-0.1921499992284405
-0.8230160036751707
-1.013764702676875
-0.4861883825763798
-0.551815056443855
4.687905487458834
0.04193118996680593
-0.3185291994161599
-0.5398841336232693
-0.1055427006357961
-0.130130974095795
0.2570052003241733
-0.06308189925506143
-0.301761457509425
-0.8169808875180943
-1.66407106640653
-0.4327145469689219
-0.4160639555216051
-0.3673155145168103
-1.832944543915155
0.3974672836374021
-0.4042981791682647
-0.06176122324264315
-0.1776571374743967
0.0539911067901047
-0.05126447895693532
0.03932900809393901
-0.31065030112243
-0.5812887539699895
0.8236811598100265
-0.4682281081473634
0.04064163032876696
-0.3908930553813949
-0.5699663762050707
0.1827498904608154
-0.2394250103204875
-0.05741063918389502
0.0154410065017496
-0.3437011586308628
-0.542173491420779
-0.3876009662355403
-0.4136369439315849
-0.1082111769929969
-0.4469691948805969
-2.621750732392712
-0.4545915978854833
-0.7284722721622815
-0.3504646571856699
0.4305925863140403
-0.5735237536491451
-0.2790064977518726
0.03289315866662236
0.04695812833266737
-1.277209745426473
-0.3238046254460701
-0.1372819255418528
-0.01382900476753444
0.1022613888205594
0.05057416256675845
0.004210564529331433
-0.04979248280737165
0.09947911955526989
0.05723684494726023
0.1433199373800702
-0.1602607435898657
-0.2083080295156917
0.1845773529450156
0.2747678388047256
0.1906616690997924
0.2581334631202361
-0.2962272393425061
-1.623063160512737
0.1438713980630918
-0.2239164702194136
0.07303833637794602
0.2018818103549026
-0.2544269050922224
-0.04982843824078641
0.0776263153329866
0.0829888596107017
0.1231392048761126
0.1833311103503197
0.02734540740609747
-0.4754255684434348
-0.2728156162860932
-13.81644783548261
0.2249412932782549
0.2125742941342418
-0.2744780720773493
-0.05279096619290695
0.01661931432698104
0.1613242325111887
-0.1435947590415978
0.2591121787639006
-2.851909456308963
-0.9237675671674127
-0.2304549676378846
-0.7818748493145676
-0.591466411698589
0.04002081301188103
0.3760894196567707
0.05062751308014079
-0.7728751080880593
-0.7412336836365939
0.04850405870760847
-0.2009679315813338
-0.1140238549558422
-0.1111499771990063
-0.822810303490238
-1.408054524754751
-0.2663775349735839
-0.1623641559830926
0.1609469748956494
-0.3786474095967767
-0.01378850816459594
-1.005611182226612
-0.6327999227636559
-0.7896380732036556
-0.9413540503422918
0.005593623189427644
-0.06805552355081314
-0.188943488811672
-0.7071323567986361
-0.485909978486482
0.5423271481396206
-1.391253659577215
-1.265597722910129
0.1524426085817721
-1.303737159715845
-0.3997129818795681
-0.5281223395310737
-0.4398068610907053
-0.6065363109397228
0.1711585545855965
-0.02060513552064948
-0.1552747316313036
0.158295745882502
0.08120347040541767
-0.08700644507659146
0.4172018022949822
0.1722390060675595
-0.8879389889767089
0.1061341440643157
-0.001831938663296798
0.2053067309945445
-0.6556819770744967
-0.1903617081044419
-0.4380932070524536
-0.725701751644057
-0.2608333804209018
-0.243076105065373
-0.6504081495312695
-0.6597333634008389
-0.7866076416924133
0.1218648268162544
0.3207944892428029
-0.1151251384943138
-0.1016868272706736
0.1936100627274291
-0.4955801473323088
0.03676393402104355
-0.1235048079915685
-2.20081042981512
0.05144247127699131
-0.9390153426359241
-0.3136552675959496
-0.3919736230492682
0.3068431314386385
-0.03065092666596822
-0.06623229838564929
-0.7657657174125105
-0.02878182228149124
0.07774668713758207
-0.6910480265465474
0.04588171704897112
-0.4179483384361029
-0.8329857479433473
-0.2196351202667551
-0.1903708810393401
-0.4347035112310907
-0.3175601983517801
0.2376326883661637
-0.0006671921724125732
-0.4567488470605439
-0.407245762098525
-0.1194815564829033
0.1618011484886357
-0.7829220073078723
-0.01166519729292496
-1.242985200710913
-0.2450077669552477
-0.4329059692940067
-0.6537020676456685
-0.1794796396271961
-0.2526611404306536
0.199361954094356
-0.4937859616424444
2.711486657543266
-0.7091506539835591
0.2776127074249169
0.05051956364863255
-0.09936162932414845
0.5213778266667699
-1.27545336561487
0.1421374528195513
0.02447299855319531
-0.669543939303593
0.054617185473229
-0.946405753185507
0.1729533371039896
-2.655054778999565
0.7578942467494004
0.2288144451901283
0.1575489748402697
-0.8340458831401616
0.310130212189786
-1.524768166845239
-0.3952771577709744
-0.1698272280915649
0.01482903036314555
0.2991764883844384
-0.05681743289209565
-0.1429388801589583
0.4730681514459064
-0.4980477305159916
0.4692671507670778
-0.3308695652085049
-0.02209223398062128
-0.2261320019997768
-0.6380953142194138
0.1259788282887035
-1.265434767871164
-0.6250202756333357
-0.08801574246951382
0.3326235788613936
-1.47128308535508
-1.236305583774676
-1.341853551765171
-1.104171899461528
-0.3521961862169065
0.09049684774418325
0.2339423331273277
0.3800378465885445
0.2882296062147192
-0.3333191995021851
0.2038865723695195
-0.2427145453243215
0.00425150243931334
0.2577393383962786
-0.9994698540352436
0.277126740835034
-1.448988334962877
-0.1939849889693694
0.1802056214554311
-0.009384087973822831
-0.07268410042917918
0.2846799765091907
0.0146790592551164
0.06558255770401863
-1.697563209458321
-0.3501287964700332
-0.9288128049208886
-0.4335766674685781
6.720846507901887
-0.9089893356684497
-0.5415020631402671
-0.1227137825671795
-0.06850336712844773
0.07703781174637508
0.2646225999675741
-1.649133843830445
-0.02064784907004238
0.3487156806470024
-0.3921510991137919
0.09797905586752284
0.07757513450723676
0.3162109382868201
-1.248133938614457
0.1455573284140807
-0.2329964362243015
0.2305374709859681
0.1178018585322116
0.01795554692560145
-1.193706027154565
-0.08200270151292281
-0.6224532496063923
-0.5731959077820832
-1.714663699981235
-0.1455675258440927
-0.1493917528271671
-1.904807765316234
0.1976880733531822
-0.1385883640493435
0.06136522354500914
0.3337579220948056
0.1408844079920483
-0.6708552060277698
-0.8653010101073562
-0.05508506848211683
-0.1530186077278759
-1.463690682108252
-1.281036348927306
-0.8804076338021509
-0.3730828885210429
-0.7123762330786455
0.2081196314985658
-0.1765409885732546
-0.4169015830290217
0.3690228287937323
-0.649840151518016
-0.6836708977513857
-0.2501805483987858
-0.9094712683430496
-1.202241311572791
0.03902074638101791
-0.2698213367277744
-0.1266901359862218
0.1214500188590178
-0.1705947466556974
-0.7130790908698528
0.3404714705816775
-0.6955793935800471
0.05124699193820852
-1.099047952168938
-1.447789471178651
-1.022808735603374
2.179914858839449
-0.4006016283977014
-0.3044352091901775
-0.09127489694952048
0.3379682290977337
-0.2740195332206806
-0.05367460585897832
-0.01822311084236289
0.07524063471378571
0.1036541670408289
-1.445019859160452
-0.08690913621171616
-0.1439784503758413
-0.1977779688387544
-2.516682845038409
-0.4427278057526719
0.04695387444106063
-0.2454857574615156
-0.1004560904804577
-0.1999527137437855
-1.220639579204444
0.0870452240976594
-1.651626092788972
-0.8545913145612946
-0.2687838907064487
0.3315277924376723
2.055286500156923
-0.7178327612473978
-0.01330456626462233
0.6690412789831771
-0.07049602705673101
0.2394030307971117
0.1004555277287222
-0.2156446589462893
0.2358696590680372
0.1610925917292933
-1.322978171108599
-0.07085616169829161
-0.1580637921036991
0.09255741615976344
0.1492575760118718
0.2749762696691021
-0.6292529081892315
0.2877729706362566
0.2798946375792152
0.07926594970316495
-1.337854379073246
-1.189079141736589
0.09484044983680551
0.01236956876977049
-0.08315590890956481
0.1288559160115567
-5.176590783737431
-1.004998773176046
-0.1407293904017723
0.2284721096509001
0.1688862334486695
-0.112587918703696
0.09722899511367203
0.8738569325926394
-0.9018383966970263
-0.2136649863274966
-0.9009233449471519
-0.6180636421941568
-0.2839251527305546
0.08113295616349249
-0.7425714812112818
0.2087585498060927
-0.5887173895312235
-0.02083021296551272
0.2191878653242037
-0.09766833874805202
0.2742524683304202
-0.5915793669605467
0.4889492016456297
-1.210145001014058
-0.205085161927885
-0.4001913527572487
-0.8705563059434878
-0.05868816378892813
-0.7247963664794764
0.2917908566097728
0.1406301599693477
-1.096853192513105
0.4176951350675826
0.1246636499449689
-0.1419303945890274
0.2858569007308064
0.3862319284868102
0.2409642318816285
3.565191177830866
-0.5785184683912951
0.08661024004419783
0.04824547666357631
-0.1664747912003429
-0.6579309125956329
-0.0340456771000291
-0.9619265154229183
0.3265087241336109
0.03758031659430099
0.1196449647573521
-0.03356203027997043
0.148362696398978
-11.04711080576656
0.2100326308765861
-0.3927677848502442
-0.151847277113977
0.03887485308824506
0.4256231301602909
-0.6152682955666449
-0.4201553933482456
-0.4865197239775615
-0.2967621931954542
-0.6753914657063798
0.01558906145704105
-0.1683376293918607
0.2056355491068142
0.0944762044889345
-1.564549077604671
0.1237581987877468
-1.202146007546747
-0.2020202106208034
0.1234491159832614
-0.3031559188645442
0.07764330999681068
-0.9950603521827978
0.05289062841526622
0.09207919422722464
-0.2823355546131583
0.2364999654200577
-0.5413092031750243
0.3326715033689588
-0.8724765623562835
0.1754561963040664
-0.05085894533217822
0.2395529377941035
-0.1898727692817105
-0.4760812521694639
0.2979454022960711
0.03360654521812271
0.07478884817022929
0.0808473218386002
-1.637126324245715
-0.8098925075668451
-0.3551394972195691
0.4099136777222315
0.05910648974609094
0.4911097970127998
-0.762763003108142
-1.5043045005112
-0.5981440115936004
0.03112915690320756
0.7130065729571468
-2.863774965652568
-0.8327943327782132
0.05375303692784284
0.6173408955112684
-0.274138387864659
-0.5344794578339309
-0.5086782197057435
0.2850296058009953
-0.5475402103788503
0.609698324553387
-0.4923636823408021
-0.1807255932727122
-0.5392447687076473
4.310946069174516
-0.4258484064483026
-0.002003019467401559
0.1752277950601409
0.189012396303472
0.2018885200631918
-0.4343090182175949
-0.643373326601699
-0.3766780458801871
1.303471478477927
-0.5047437740632288
-0.6917584549914335
-0.1897481636927825
-0.8028442386404483
0.7465124772001259
-0.9883218985377469
-0.42977115151654
-1.862673537448347
-0.2335800169203919
-0.1896279218435746
0.3705386495421802
0.1920370042971119
-0.8702475804604122
1.355860363830956
0.1972338832605939
-0.7913232796491347
0.1604391186465005
-0.1027964317483771
-0.05072502366616882
-1.14387298661957
0.2282093974334273
-0.132994365535648
-0.00230271185729046
0.4623981159516142