/*--------------------------------*- C++ -*----------------------------------*\
| =========                 |                                                 |
| \\      /  F ield         | OpenFOAM: The Open Source CFD Toolbox           |
|  \\    /   O peration     | Version:  v1906                                 |
|   \\  /    A nd           | Web:      www.OpenFOAM.com                      |
|    \\/     M anipulation  |                                                 |
\*---------------------------------------------------------------------------*/
FoamFile
{
    version     2.0;
    format      ascii;
    class       surfaceScalarField;
    location    "1.5";
    object      phi;
}
// * * * * * * * * * * * * * * * * * * * * * * * * * * * * * * * * * * * * * //

dimensions      [0 3 -1 0 0 0 0];
oriented        oriented;


internalField   nonuniform List<scalar> 
37503
(
-7.337092182675494
-10.95379399658136
26.02813558788914
-7.737249408999502
-14.2824410448384
4.337639129971128
19.19535800701244
0.002922007915210561
-0.5060805677581915
0.8494803881428694
-0.3463218283553987
-0.09644015030834638
0.116568188941841
0.002827709770828821
-0.02295574838729514
12.37381229767082
7.212639720215089
0.6039495285357911
-0.02205382731222045
-0.08559076864486782
-0.4963049325763662
0.08339844043338455
-1.626963229858421
1.576396549116554
-0.03283175955794972
-0.5006920588897498
14.46482808059188
-13.96413602178336
-7.890940855976375
-5.693355809199486
-7.769219405387694
21.35351607032118
1.79177693246009
-3.131668451444946
1.479800283093962
-0.1399087639731385
1.507852897007109
0.1732007690961576
0.406597478132338
-2.087651144281896
1.698590450457802
2.118253934591814
-2.72271887738392
-1.094125507885891
-0.0237654702862955
0.001595593897468489
-0.02491767917543582
0.04708755559283404
1.110723711813196
-3.577538303903216
-1.016301231813131
3.483115823544785
-0.8981478808048942
1.971561304197186
-2.769770460947247
1.696357037330593
4.38196424355885
10.50749782409054
4.5444741359402
-0.01361556535370012
-0.1547626325417264
0.136078801956193
0.03229939601023613
2.093270702676146
-4.631119530465763
-1.996529509276744
4.534378336817762
-0.4156743309244086
-1.254123217236372
-17.75083166168054
11.92311886285413
19.37019711600917
-6.561993465328621
14.12620491048482
-8.182183582270254
6.951337295318578
-7.764863731576265
8.99571001841246
20.22284785941471
-25.57821728964608
12.00285749358776
-0.0600782847527475
0.4772214657072716
0.001607913689337498
-0.4187510946508987
-0.4537574749288305
-2.174299176309319
3.738780362829714
1.397570100382011
-2.677565594383135
0.3818476130246522
-1.450196816184951
1.931140942487188
2.208747221519701
-2.689691348071503
-9.87015600418721
-9.38058960479114
0.240031197454227
-0.2533090093501937
-0.04545989124100092
0.05873770318696657
-2.324561225147105
0.4456133715992175
13.16821816651598
-16.21778041319746
-23.78577274806756
26.83533499501737
-0.145950380997472
0.1255965038704328
0.074776468242161
-0.0544225910605464
23.99101310068869
11.92184587788839
-18.4139850613182
-1.544989124565713
-1.011818963075242
2.103050612441987
0.2247987883896894
-0.0132081482692197
0.2057783108327049
-0.4173689508931528
1.341524858604115
-1.145499528559676
0.5079107988038548
-2.071334159265017
2.708922888830693
21.47873567966512
4.972530616850372
-4.422791647397053
-22.02847464939592
0.05034254051065595
-0.3113292943408291
0.118732375596793
0.1422543783249484
0.2746387671657939
-0.5931820145470953
-2.154691245132518
2.473234492680224
-0.0376275133951556
-0.2264484139981705
0.3771226874000925
-0.1130467599893598
-0.05872116619999208
-0.03891158938256798
-0.006380131817240019
0.1040128874321666
-0.497758322667561
0.4500260867679505
0.2984748622835817
-0.2507426263361309
-0.06435464671747379
-0.3313245208186621
0.5324993242134151
-0.136820156539204
3.781310503389798
-2.489232681444876
2.248555166129697
-3.540632988018362
-0.120123077351488
0.02665483422421504
0.01914816660419324
0.07432007657009537
-0.0345475372578322
-0.07978365116544954
0.02681848726570032
0.08751270121725199
-0.02363228716745272
0.1170011784309389
-0.1388491593091398
0.04548026808835853
1.966625212149082
-0.9886451144131874
-0.2444479292497725
-0.7335321684181383
-0.6623261455374634
0.1823505382700012
0.3229919478610123
0.1569836595578728
8.683192448216404
20.99187180527129
-27.17068136052551
-2.504382892931595
-1.260930037573824
-0.09082541302665711
-1.370963426890411
0.4238007335393267
-0.1193773762679763
0.08311371679896735
-0.3875370740370671
0.8372878142000741
-2.156618855456598
-1.005230184044588
-0.207677740161325
1.514747705750354
-2.084008726671277
0.7769387611700845
-0.1564749037449453
0.2142339189829106
0.005147419428782865
-0.06290643461329885
-0.2350141736607315
0.1224717625697177
0.1694160103487704
-0.05687359919534583
-0.8957744656645754
-0.5298757259799719
3.165405606241264
-0.04757819260257155
0.3266569911501007
-0.3199976375937361
0.04091883911895464
-0.006949086186589762
-0.1061148691576193
-0.01961941334189744
0.1326833687507591
-0.01010542123773004
0.05600510483388713
-0.07336554853863193
0.02746586497586449
0.01291495058242666
-0.1362436743356948
0.1129244525209516
0.01040427127123835
-0.07456640428462241
0.073213042980941
-0.03077307738210854
0.03212643868610943
-0.2366075288172809
-0.2324048634775656
0.4600567395578536
0.008955652779529314
-0.1456421950899714
0.1270884006294183
0.03802674382108814
-0.01947294932060382
-0.1084148738995304
-0.003247533361700415
0.0955656855381283
0.01609672176963419
-1.935608604824269
-1.164205401434721
0.06304447658717582
3.036769529453575
-19.99240489040295
19.15988446698924
0.8325204233661949
-0.1437480101395494
0.04307852117259343
0.08326699754388746
0.01740249147530121
17.94349091727975
-14.82932037079707
-15.21227420443348
12.09810365780588
0.07993772314599068
0.02098718359330803
-0.0750025008286553
-0.02592240582650105
-0.1525704581913251
-0.4958701789375091
0.4382430002586675
0.2101976369048999
0.1276848434114018
-0.5882466348169868
0.4890629561188041
-0.02850116454505257
0.1420842675586288
-0.07767041906585787
-0.09839839348916339
0.03398454502711589
0.1968239864024383
-0.2203021745892904
-0.1566300691500639
0.1801082574120416
-0.05415514297164337
0.1339923242737783
0.1776120431710302
-0.2574492244032481
0.8499404098427331
0.6057947314171603
-2.197135931014411
0.7414007898167655
-0.02188103600286677
0.1263711570867101
-0.03698637947140589
-0.06750374158606386
0.0486248878602824
0.00759353064559571
-0.03324376734207423
-0.02297465111546168
0.8227914336894553
0.8323713749894175
-0.04497919828312733
0.0103612655626481
0.03461793273552813
2.798056746857833
-1.614899706733451
0.9074311168688552
-2.090588157023424
0.2198148380435478
-0.09426246977770973
-0.1071471423508693
-0.01840522587675229
0.08570586345098889
-0.02028019066666117
-0.04354578445117712
-0.02187988828980319
-0.07901527874184647
0.4571726317228734
0.3983215275610215
-0.7764788804007334
0.2596370569306337
-0.1889839642465548
0.1576744596415137
-0.228327552294397
0.1170517909526851
-0.1693829855330398
-0.2493295025170736
0.301660697129655
0.05601368657684827
-0.1245201721491257
-0.01266713800803199
0.08117362361001065
-0.09168153654321644
-0.01758688737589036
0.01282827361875392
-0.06124740757707885
-0.115544555935881
0.07089516018150945
0.1058968033841522
0.1924533762980312
-0.1104978943874077
0.01620341248615422
-0.09815889438461953
0.8913768992372442
-0.5669109353236571
-0.3606127556294541
0.03614679188330146
0.09304284553159306
-0.2485121216718601
0.3862170507313727
-0.2307477745230535
0.2549145435101091
-0.03474781194223524
0.01637870890909129
-0.2365454404149652
-0.06976220409151981
-0.2274067690522233
-0.1882099139468768
0.4853788871093681
-0.05328295952420161
-0.1896626543314629
0.4207927156098638
-0.1778471017024654
-0.1213605716759405
-0.2499718499700844
0.1013583921134034
0.2699740295593839
0.02853554428472182
0.1449436201438057
-0.1959378386844533
0.02245867432748511
-0.09783053930534474
-0.07850165227863569
-0.2554141209738881
0.4317463125958808
-0.1998178986583986
-0.2856843805017525
0.3435889475545149
0.1419133315874448
4.802125169945139
-1.489039007235227
0.05103244424248486
-0.04916159510450067
-0.001870849127218543
0.9938192607714911
-2.21509532824523
-1.456289527055448
0.03135657714683921
-0.02281472373515941
-0.00854185339271203
-0.1951729264700235
0.03853097610002909
0.03637500756905554
0.1202669428432879
0.002515752761001444
-0.06545233900723491
0.1568517476354071
-0.09391516132519166
-2.324455521892843
-0.8341839470692062
2.615502476624238
0.5431369920869559
-0.04177047006566594
-0.07902920018117103
0.135105776113254
-0.01430610583659802
-0.4383906933680858
-1.184365530749461
-0.8575399317370818
2.480296155864981
21.0942487434609
0.007565943503378214
-0.3113509382721288
2.883822232992678
-3.717970823308901
0.06423524243862817
-0.09195730497295777
-0.03048357707319618
0.058205639633192
-3.067608168027507
4.893976214509567
-0.1333004759242512
-1.693067570266173
0.0954861475220741
-0.0456788923863824
-0.2546767718752798
-0.2693196023286171
0.3754829233553647
0.1485134508824247
0.1871910817396572
-0.1004032777185435
-0.02271168328064809
-0.06407612072763122
-0.06142360596886747
0.2300193716619947
-0.2168938191478337
0.04829805358211497
0.1810985167802696
-0.2895538222694583
0.3044278158062029
-0.1959725102639694
0.03257321377336621
-0.01929296136357917
-0.04041858972929259
0.02713833734217745
20.19881682506006
-18.66604153615924
-0.4484268930359409
26.67358453825972
-26.72584970426258
-3.352606724198383
0.2082502728339699
3.840162073608412
-0.6958056224872634
-2.045803656735904
0.3419335684486027
0.9175276125369292
0.7863424757727052
-8.03009179517495
-4.706940717510641
6.895530852215197
5.841501660915382
-20.08961402255956
-19.53579085521691
40.27771696417486
0.770868991903769
1.581337025738504
1.386574345004199
18.61793977418199
-10.8480702887387
-7.769869485426435
1.201557611601464
-2.364699123248617
-0.06050130993742099
-1.715449890223548
1.140688096141143
2.329388966111463
-31.03349335232106
-0.852284663326522
1.720048356884152
30.16572965842355
0.1015828037740905
0.0007267258017862726
-0.1183398608680945
0.01603033135673658
-0.1523443454703216
-0.0003919363385057038
0.1527362818252699
-0.08708567171120697
0.03886189625365922
0.1039859235518413
-0.05576214805133826
0.5382217628380129
1.428449783115515
0.5384682652445147
-2.505139811503148
-0.6102661746524095
0.2169515952481458
-1.758227826328328
3.103426439137841
1.891339822332313
0.7545860933100758
-3.426768526285829
0.7808426107263273
-1.889127486555139
1.915646162150799
-3.142078563870782
3.115559887962084
-0.3836645518588421
0.180959252267803
-1.934005445145475
1.653091144417725
-8.788663172650844
-10.17296569414941
-0.0562978699952681
-0.1525069960295133
0.1140741760783131
0.09473068998600277
0.1176337500471138
-0.3416848646463905
-0.3577731842449013
0.5818242989821164
-0.520212274818955
0.3609973949720729
0.1205612094787718
0.03865367052070556
0.457675757738878
0.2141544001120068
-0.8248316240748341
0.1530014662685801
-0.3581053809133579
0.4842125241380766
2.220387437621693
-0.1416523953751854
0.04547396416906574
0.009838481268927564
0.08633994993945084
0.008908023688073434
0.02706221071938528
-0.1227351873996943
0.0867649530051943
3.129474025216756
-1.073180970743942
-2.585177517856103
-1.16523264515957
0.585756231816648
4.749376604327523
5.575316108355543
-10.91044894457178
0.1979977206947424
-0.8135031365498506
0.3748040195342132
0.4386991169973726
0.07535874418297918
-0.2777890045573536
-0.2133657922115331
0.4157960526367323
-0.6459137732757571
0.2497465325333553
0.5530219306423441
-0.1568546898144305
1.80168123416928
-26.15653711182171
1.706984642046295
2.852805132118551
21.59674733754523
-13.86717646746251
7.759173785971537
6.693758913033219
0.1815931974010017
-0.05360804246815239
-0.1355369843167628
0.00755182943437957
5.150080905024393
5.820060813657828
-28.29226665229219
17.32212493322209
1.647490384244279
-0.7743909452283204
0.2861160136104184
2.679334806858527
-1.763893209043397
4.075743753585151
-1.737213129938773
-2.95440771054689
27.71018821700103
-13.68183055025917
-14.02835766697124
-0.08516175973333852
0.003785383461435792
0.09240539602769597
-0.01102901970543947
2.361087220424638
-3.677668342720243
2.024765087477647
-1.867142897692354
2.72620004304853
2.389039616338216
2.158618377680843
-2.186570773724256
-18.71408059183628
8.580372053949034
-9.014812271058215
4.367692816869055
-1.533039829066015
4.183383465074683
12.71623512840402
-7.893261053158851
-4.280226027390258
-0.5427480475716373
-0.01148153582269026
0.08069895483959487
0.01522232171785397
-0.08443974070447899
-1.292291725162648
-0.7405979862891378
-0.4624575540345796
2.495347265647483
0.3834407256484156
-0.2147774779193515
0.1250543072142972
-0.2937175548968006
0.04079343732545987
-0.06169912907623612
-0.2141084818756963
-8.084175274456189
9.072374476421819
5.224254522644043
-6.212453724647848
2.634865840899469
-1.984624730343036
0.7129707961958781
-1.363211906615269
-0.06103103631945821
-9.223379726411379
-1.729473810911037
11.01388457431793
0.2285415160906674
-0.1589682258353098
-0.0695732902537885
0.08996920326365519
-0.1562505145028897
0.06628131127978798
-0.05902341110848854
0.2794963388116804
-0.05095200541879816
-0.1695209222453583
3.690134806011033
-21.69865276695765
-4.090583806485667
22.09910176720109
-0.1366436248035072
0.1475384040078098
0.1568846579441698
-0.1677794370998887
2.63202259311225
-1.264026421578063
-1.806386864928403
0.1917863631666147
-0.1018171598704981
-0.1487638051384916
-0.05174666266438074
0.2324933094530696
-0.03198284155120131
2.927163850004437
-3.486485455156635
-0.05925051515383448
0.6185721205821764
0.365856342042664
-0.02464977134648546
-0.02065513680862889
-0.3205514336936355
-0.009642522607273069
0.01342003423213381
0.09010528193386719
-0.09388279351185165
-0.4366401714689007
-0.1116756101361728
0.2741335741681988
0.2741822075499243
-2.313985224547733
-2.105598956915942
-1.45779172458822
5.877375906029213
-0.09162691218321892
-0.1603006969239441
0.1065826491389165
0.1453449599914454
0.0151499517847531
-0.1469171551538322
0.1317672034067884
0.06950482372329714
-0.02418756854822678
-0.08563336791201676
0.04031611278605742
-8.600616816909396
-0.1344479417572262
0.004051059563066681
-0.01575847024377468
0.1461553524838649
0.01864835783002258
0.04641381660956984
-0.06506217439030314
0.03586092540853496
0.05291325020955699
-0.111255526905256
0.02248135133670113
5.909192035061099
-4.028020614333063
-5.35958269969663
3.47841127931707
1.961359672580491
6.111284112990638
-2.425151289918345
-5.647492495448306
10.21287635579029
-6.582179083132305
-20.81959121453064
17.18889394160968
-0.0756166787547483
0.06159350158591217
-0.08820909767185163
0.1022322749106257
-28.53483825517161
14.40814650425891
-3.624139910810058
0.7180811906963083
-0.3645751543862622
0.7095107158304497
-1.06301675220834
0.729401003716776
0.1486235788735313
-0.7213401183720676
-0.1566844641659547
7.674598030783069
-1.079011268471036
2.112711261351631
-8.708298023638148
0.09778182787985909
-0.1242933865074974
-0.3320240323993643
0.3585355910758207
16.87281137832413
-13.44478687938253
15.18991527523221
-0.6388795820097267
0.1917711123658669
-0.05807620836477114
0.09417794738060281
-0.03610173899339952
0.07225237717228522
0.1185783936262734
-0.1635918108699496
-0.02723895990480599
0.1070679891629623
0.03023690780749558
0.02198935235027325
-0.1592942492367109
-27.19679216017174
14.81219615564849
1.146178613167129
11.23841739095618
0.3150958102546463
0.4482419879601721
-0.3824240741463953
-0.38091372405521
-12.77052088142525
16.39921369899621
0.09025485371670564
-0.3759694766326102
-0.1200731253116434
0.4057877483646444
-32.21448335656778
9.13916171212759
7.649207348673366
15.42611429561465
-0.1621649114352017
0.03817642693734741
0.0570822804111978
0.06690620413463196
14.40668579403153
0.02222629047775597
-0.04607721878613894
-0.01430698080583321
0.03815790911272948
0.445566611044165
0.06321377304035661
-0.5518915784262896
0.04311119436641421
1.436402748778677
0.1561915986631137
-1.028339208814328
-0.56425513842583
0.0004361891670357453
0.4033344336920093
-0.1208701050357579
0.06373726067178494
0.1950919800251103
-0.1379591355685867
-0.07832841896958569
-0.1272008406965819
0.01484172042090704
0.1906875392533898
-0.2109897303251755
0.02676930241668335
-0.00203644217783222
0.1862568701707439
0.1279564535335971
-0.02142589966406072
-0.1065305538162199
0.01934161673807215
0.04349670965601416
-0.06283832635216632
9.723579155795758
-14.11584437631382
4.39226522061436
-0.06036378704999737
0.08224739131539192
0.1802838099564469
0.2138687524734261
-0.1410939902440412
6.725852515484328e-07
-0.07277543475138197
-0.1010977656858529
-0.3032650506483107
0.8327593042422429
-0.4283964878690347
-0.1300424265387823
-0.3320559099531603
0.174736657873935
0.2873616787698849
0.2093853887132944
-0.3919183209320086
-0.3715860845666158
0.5541190168131273
13.55629572581497
-26.25455383073436
-14.49853405556595
0.8922837924268872
0.4759491330065675
1.748134519740635
-3.116367445063293
28.8986261223172
-24.42370053957733
5.017077905684704
-9.492003488577296
-13.19447934025239
-16.14302999746874
10.15008080816289
19.18742852923583
0.1277787376187544
-0.01990535246688242
-0.1078733850801046
-0.02135506612878083
0.003527873923771105
-0.09934288902312846
0.1171700813332528
-1.247244493141947
-4.798419968011043
-1.015393320563877
7.06105778175631
0.4039621818589721
0.09216202462809274
-0.5735239046546805
0.07739969817437896
-0.04614346546050239
0.148885264434708
-0.02211574892897883
-0.08062604999756932
0.04318389667675716
-0.01903451714449246
-0.07852052660831912
-0.02651982059256605
0.05859568837853735
0.08301344139953926
-0.1150893090801462
-0.05666062588992376
0.1106313706254047
-0.0539707447007374
-0.04584880389319525
0.04450556953137854
-0.1228633820149784
-0.05536752452091635
0.1908354557433777
-0.01260454913988472
-0.05950434119912338
-0.03464500067143251
0.09414934191328167
-0.446375809973358
-0.02061128700849237
0.3947100754701431
0.07227702159280838
0.2005485029995761
0.1777878314690633
-0.3279937938932975
-0.1426828331774325
0.08839709387675954
0.08015416995194426
-0.0258684305851807
-26.21999514179216
25.30605958366714
-3.581855452674283
4.495791010412433
-0.4732073280929678
0.1037234947941782
0.323735508272453
0.04574832516015245
-0.416794781380434
0.1639878806142462
0.5272252715922019
-0.2744183707639983
-0.1643218424152108
-0.01777009329327832
0.1102221577592506
0.07186977797067376
-0.06997535692872751
0.281281676850419
-0.2475619881866235
0.03625566830513183
0.05160878919701017
-0.1980452812394173
-0.005773864732728125
0.15221035681325
11.70508168166534
3.349057406306188
-1.805292376220478
-13.24884671186254
0.1165555456657267
0.02473870054489916
-0.09730298422778126
-0.04399126192804222
-0.08486893502248723
0.217660294599124
-0.03737200123438214
-0.09541935830629641
0.1269247647971024
-0.1193765421520151
-0.1637987371095554
-0.04442048000018183
0.03592122421179191
-0.04017234486192569
0.04867160059953356
-0.06685344416343937
0.4353258914747313
-0.3225476440549399
-0.04592480323286049
0.00933167440167568
-0.2267531837366296
0.1856449276207869
0.03177658175507701
0.1348847950072264
0.06690784344386332
-2.352221642020166
2.150429003782806
0.1250594574937266
-0.01936100173213845
0.03220138655584096
-0.1378998422728235
-1.360069542946603
2.066546068754982
-0.2474841254621347
-0.4589924003155585
-26.67112358996127
1.476229506404537
26.85100818946437
-1.656114106078947
0.07608796313747561
-0.3200201646145041
0.3361700910928396
-0.09223788949114563
0.1033526118730128
0.02561640194349377
0.06326630207792867
-0.1922353158236414
-0.0726900715962676
-0.01709531454070611
0.0685261026503267
0.02125928351799698
-0.5269759858659809
-0.6141565159818466
0.5975888074425347
0.5435436944179948
0.05609253080027563
-0.2594090004108903
0.2041056620576881
-0.0007891923255325053
-0.15879463637423
0.06129137408038696
0.2011686944066709
-0.1036654320647161
0.02331856766226826
-0.09613307514929646
-0.0163471948115976
0.08916170231497571
-0.381429666152771
0.3674443192726033
-0.6635026699652243
0.6774880169549375
0.2481199239380935
0.00550924498163681
-0.6541547981423749
0.4005256294786254
-0.0692057484697694
0.1363900381174055
-0.05037487406579823
-0.01680941554214356
0.1531692727617058
0.2725251018265807
0.005470162390666358
-0.4311645369291524
39.22691876590955
-25.20760039501878
-18.11280208071823
4.093483709793242
0.3540060445029193
0.1033425437550611
-0.1679296502610729
-0.2894189379199827
0.008031730731806821
0.01227130264837753
0.2123513320321145
-0.2326543653331036
-0.658501125611373
0.1220544395220107
-0.08664740915397592
0.6230940953118008
0.08996218861096217
0.04166796744078076
0.05124113789880409
-0.1828712939129513
-0.05317503857366764
-0.04484998093018087
0.01329311608627509
0.08473190344339249
0.04675137713727198
-0.4097262916625663
1.721969546006338
-0.8474153731153512
1.275266323184334
-2.149820495856711
15.53673769581322
-10.96642603617106
-0.04060651144703224
-0.1305456985802722
0.1306583622961049
0.04049384778377919
-0.00194879336208458
-0.1279627334599867
0.02359076833884531
0.1063207585165641
-0.1314035787552711
0.122237574481563
0.0358794783190842
-0.02671347397575561
-0.2486853373899933
0.1074652484750547
0.3303966682029337
-0.1891765792056442
-0.08087599131460489
0.03420611174800787
0.01775453197776508
0.02891534763214313
0.08203486610742748
0.03226691417179312
-0.003331784846989959
-0.110969995356338
-0.07097921032461631
0.05770893144491399
0.09985429839237941
-0.08658401947702675
0.6328119980846308
0.6892430549380228
-15.20464862101248
13.88259356749141
0.1636710417097816
-0.1717269411949946
0.0113969561073488
-0.003341056588657932
-0.1659441476741575
0.04852455713305864
0.0330594680099795
0.08436012262318203
-0.1917114902235729
0.3414510573965431
0.13421926912105
-0.2839588361824367
-0.03424300146082804
0.04267284258071112
-0.008429841092286262
27.62067441127332
-28.39904098983002
-8.316376209010928
9.094742787721488
21.30431551607359
-2.545876531056998
-21.7446682763685
2.986229291390503
1.957564387820399
-2.196774582293894
0.3336385036537859
-0.09442830901820923
1.835026728435077
13.03282900013655
-8.334728424252772
-6.533127304260638
0.1519515097333634
-0.05067702482071058
-0.1012744848373719
-0.00489008129928455
0.004963774693721982
0.08866245415962898
-0.08873614755049193
0.2811359032092312
-0.1189158563736282
0.4389556643928818
-0.6011757111510201
1.829837974135791
-0.1400604756840431
0.2883908006290068
1.213496218727347
-0.4729688123810089
-2.044462009561976
1.303934603257955
-7.323763669661776
-0.2710017312954527
-2.416684291516412
10.01144969210449
7.628167348789447
0.8937046517347229
-8.206556563627659
-0.315315436756652
-0.3014649015905664
0.1249129792843147
0.1223967793886395
-28.72818011512686
22.23542224542372
4.515732589060458
-0.1056740430058589
-0.1613968061160891
0.2137878896215919
-0.001902333765776174
-0.02295803666870965
0.02486037045059237
0.09657383125599202
-0.04958436662334197
-0.1478600208758966
0.1008705562821141
2.805622378453763
-1.68671013888853
-19.81377822932093
18.69486598944682
0.5627988535532662
0.09694982087335777
-0.742119461335458
0.08237078702810303
0.04624662219519677
-0.04404980359316432
0.1317955057120255
0.3514962352690955
-0.03839961592342083
-0.5058114928881458
0.1927148735611346
0.133389600276682
0.01532639374644626
-0.06822177576897735
-0.08049421823219054
-0.09870615647868727
-0.4162743032110018
0.2040919144249987
0.3108885453037978
0.2694468859172481
0.01378500422836949
-0.2617473546946421
-0.02148453539253613
0.03289184561942893
-0.1952628330143315
0.02898124275006336
0.1333897447362452
-0.03514847261239812
0.4697566773097483
0.2607182082664243
-0.6953264128572096
0.1990265672862196
-0.2525930657081279
-0.2705030538313546
0.3240695523583907
-0.06225805103396621
-0.2882775718778088
0.302373679474388
0.04816194358024867
-0.03419244661286942
-0.1474620071296865
0.1816544537952912
-16.87424492053378
15.57244530598784
-2.567856100083181
3.86965571517786
0.08699880454779486
-0.1211912511451935
0.1065235492312166
0.09030623140761448
-0.06939680997802405
-0.1274329706440898
-6.774077684044674
20.23083406317521
8.021979300310811
0.7185032009742339
0.01929829231900295
-0.4566655900638604
-0.7985042679236828
-0.318770287282131
0.6589120228187775
0.4583625325492431
-0.02984503098504377
0.11203995426848
-0.07666831817399875
-0.005526605038351887
-1.060413427985766
-0.4051689297542077
1.358121598394801
0.1074607596481583
0.005770604090300719
-0.009640142993061098
0.03644275269742686
0.1305651232465064
0.04733147888454802
-0.2120665438157644
0.03416994171681374
0.07291908812636355
0.1446448396834705
39.34871656252619
12.22885342230691
-37.3568577059578
-14.2207122791545
0.03867478532568647
-0.08755258961820549
-0.0007629601905281275
0.2875538729403444
-0.486608811385583
-0.3398621966336668
0.03226573304528502
0.362695283431142
-0.05509881975677298
-0.2707649993252275
-0.2694019128676581
-0.1760280973826569
0.7161950097324944
-0.1308626288037447
0.1767390232160264
-0.08644755592215375
0.04057116155487361
-0.5528646815271554
0.4731368037188085
-0.0157756080905888
0.09550348595118857
0.06843139015308175
0.002396371247787229
-0.01083075415850707
-0.05999700717557632
-0.6517510989478491
-0.1050654437861311
-0.1549588433634201
0.9117753860168539
0.1111242873055831
-0.005730284346354897
-0.03264000771138347
-0.07275399519533406
-0.3626215741056225
-0.1098208481258842
-0.04776985249972469
0.2418880120201858
-0.1541407476312703
-0.0877472643425757
-0.03610456705342577
0.02265665017658093
-0.1204550282117737
0.1339029451473096
0.03637784711623562
-0.112413625311276
0.09727951121055166
-0.02124373295337288
0.5362388416794118
-0.7401042655313124
-0.1211051707636117
0.3249705947208142
-0.07913487207045744
0.09036641545795082
-0.05779721996172092
0.04656567668601737
0.1374569862386061
0.06969023925483737
-0.0003383815128112312
-0.206808843923397
0.5848175791128196
-0.3678725549099386
0.02918802571888063
-0.1533897910579575
0.1093859320976621
0.01481583329545461
0.04266679833290971
7.86192739857238e-05
0.33837694055283
-0.3811223580427721
-0.09292534140867573
0.01109488821671791
0.009140381617011863
-13.80256604689504
-2.774798052611414
-3.634176567604305
20.21154066703413
0.4628729339212679
0.07907044056781574
0.002702913373595742
-0.5446462878447921
-0.06534956361439841
-0.179639246308579
0.17425072763391
0.07073808237628107
-13.30436727225847
5.418699407831929
13.01762238141667
3.255784256408159
-29.57777391011157
-0.1333197776682498
-0.03546787795338162
0.02002385055113822
-0.04964264882826547
-0.09438816734822045
0.1855371936164133
-0.04150637738451227
-0.3796954883946787
2.336732525713932
-4.288682805022352
2.331645767619655
-5.634502344040864
15.81005609190921
-8.34052701946497
7.336885302642992
-11.86250855879629
14.59249580679054
-10.06687255072076
3.240471725037891
0.04526113067692906
-0.6760732131791753
0.7708323701258591
-0.1400202875467199
0.1390166195169434
11.01548611361881
-4.688699794641647
-6.465802938507645
-0.1042447692005398
0.0003766169602474174
-0.08023037133614908
0.184098523700619
-0.6415203132145058
4.069022332614002
-5.164715149070273
-7.718163585387126
3.291063392576957
-1.167024021815068
5.594124214668065
-6.673194231233621
3.896481070902549
-6.81308073191313
9.58979389253019
0.002092611054520867
-0.1553544232959732
0.03490707574161416
0.1183547365308726
-0.04587331309062595
-0.3582561692440899
0.3958795031809264
0.008249979181747864
16.40851802298418
16.48960852028074
-12.41004098931753
-20.48808555410132
5.864422948444536
10.54409507443178
25.31652854866493
-6.083854052853954
-2.743065975656762
-0.04354074664778001
0.1676154301369629
-0.05925191528058607
-0.06482276814655773
0.1393586325186011
-0.08641688742973448
-0.09648249168160135
29.65819224423844
-40.51992663493548
3.206187394877151
7.655546995729432
-0.04729129913835187
0.05365140533716375
-0.0001544949856927333
-0.00620561111794514
-0.02553550072839867
0.06881974952908426
-0.04328424875745723
0.1403291437108831
-0.1779200324404743
0.3285073088793003
-0.2909164200515781
25.74888386895315
25.95763856828517
-0.0979287344318011
-0.00769932257369427
0.1275878005246423
-0.02195974346139079
-14.19997677129387
14.16267891784258
0.1264983010850346
0.02187590352842587
0.02294026396704843
-0.171314468519976
-0.03112696381448537
0.01113086382843639
0.01999610002221651
0.1620900035600232
-0.01718751219050992
-0.1737913856892151
0.02888889435070099
-4.521719601393489
4.990840494627893
4.535617904555216
-5.00473879784615
-0.01374332669185522
-0.04576803597309244
0.01310163680619464
0.04640972590746003
-0.05590866239492621
-0.04393801601952946
-0.03543195034460693
0.02168862366625736
0.01824142424429654
0.0597805827032564
0.007578717166239968
-0.08560072407802648
0.06425504542920307
0.107966556487747
-0.01620421511526785
-0.01922773521223862
0.07406439860775429
-0.1168622337676836
-0.1007809421952085
0.1435787773875894
0.0474997994145222
-0.01884709258292925
-0.02865270680545422
0.02412034558172966
-0.06735887880399884
-0.1073663989890975
0.1506049322796348
-0.303671119268374
0.1255503903824363
0.3189348179997004
-0.1408140889342198
-0.7422557163798084
0.07171957929754282
0.4995505544778818
0.1709855826392053
-0.1082434891259785
-0.2058475560431902
0.428258861827062
-0.1141678165336905
0.2936606393054501
-0.0096347311736794
-0.5164555860852249
0.2324296779462645
0.07531063504651467
0.02052812102708186
-0.02305775032052368
-0.1354487724542946
0.3291263852590856
0.08891011643729739
-0.2825877291800891
0.07724463796893383
0.04697620648154926
-0.1242208444266782
0.09077529584745747
-0.1076141551813551
0.07072268364045978
-0.05388382427183897
0.7887503278900835
0.0128629332883929
-0.4617198448888234
-1.264841244951471
-1.297405873480169
0.9353491110288852
1.626898007450336
-0.110116589597998
0.02837953656613591
0.1109250787799996
0.06731285133751258
-0.03295119818477996
-0.1375441783265763
0.1005085076526702
-0.01625763522619073
0.05329330597195596
-1.171175425910949
0.7495137661294889
0.1908392202321925