/*--------------------------------*- C++ -*----------------------------------*\
| =========                 |                                                 |
| \\      /  F ield         | OpenFOAM: The Open Source CFD Toolbox           |
|  \\    /   O peration     | Version:  v1906                                 |
|   \\  /    A nd           | Web:      www.OpenFOAM.com                      |
|    \\/     M anipulation  |                                                 |
\*---------------------------------------------------------------------------*/
FoamFile
{
    version     2.0;
    format      ascii;
    class       volVectorField;
    location    "1.5";
    object      U;
}
// * * * * * * * * * * * * * * * * * * * * * * * * * * * * * * * * * * * * * //

dimensions      [0 1 -1 0 0 0 0];


internalField   nonuniform List<vector> 
19631
(
(4.982887413939911 0.01748130820979433 -0.007495630596643659)
(5.15489772514601 0.7607007500102568 1.047440317112063)
(4.874815153063507 -0.006556031140837379 0.4388781250935564)
(3.63507915893007 0.04257778842918742 0.1421408980473945)
(4.998194504031517 -0.004054079737415328 0.001832638026602908)
(5.084273018213582 -0.08530871915787071 -0.02101909465891636)
(5.041158403312706 0.01458479380405716 -0.03368770769869518)
(4.883437787639659 -0.0607097397254521 -0.1500072736464018)
(5.01101458880836 0.07751948080704346 -0.03697914349864714)
(5.018938268341067 -0.03249893670784496 0.008862653549046017)
(5.006857238367923 -0.06497308683378011 -0.06307095191920505)
(5.044871720208054 0.009434282455470778 0.0344619503233499)
(2.447252061628855 -0.1181987131652876 -0.09666820508130801)
(5.032695819050147 -0.0336936514724379 0.01523196940865143)
(5.018939079906126 -0.01090670579177695 0.007585467585606424)
(5.022064911193229 0.01962341640656055 -0.0367283389226875)
(4.974362580134079 0.02103864377918944 -0.1533966733791113)
(5.019402021214324 -0.01269871712530154 0.001008716890276404)
(4.978172576107145 -5.981970488311023e-05 0.003799392553573564)
(5.147056428398386 0.523986132072203 0.4944311835305086)
(5.006252909167816 -0.008971056446168232 0.01225908991915731)
(5.034267235431956 0.03170120821021345 -0.0997788118253824)
(4.996585050203971 -0.06626169750470132 -0.06778592551533726)
(4.951866373520883 -0.07077449054656389 0.1299715302913844)
(5.029111391225479 -0.01499696385290687 0.01010654814976799)
(5.022432145559797 -0.01454718582868646 0.005802824227129593)
(5.049535544817443 -0.001513076045217013 -0.003374249248845749)
(5.201224413617434 0.2194028360636642 0.05580616231773666)
(3.522231767569152 0.526774189291883 -0.1626177994808118)
(5.046186148106874 -0.005739935735238851 0.01899099005228159)
(5.008418950689764 -0.00663628380961353 0.001494439948451193)
(4.927052498731272 -0.1293921070957028 0.08597664402769016)
(2.832405408939567 -3.93213858398874 -1.50389550199926)
(5.03277074661541 -0.0005887963078983578 -0.008227507003169796)
(5.007581334167468 -0.1359985435388306 0.04078712921118955)
(5.025802543899313 -0.008614446622347997 0.01738397052299098)
(5.048948855114875 -0.04943474765883753 0.04285000201203411)
(5.002496754636355 -0.0290500460699985 0.009037911444760485)
(5.048695382774764 -0.03750469296676812 0.129847947464767)
(5.037878401987599 0.1200175432625365 -0.01268765070528331)
(5.01981940039265 -0.1981725366244542 -0.1299879278670404)
(4.345308062947919 0.05937687130346032 0.4421584625755737)
(5.078273971488472 -0.06063420441246862 -0.01348635732752539)
(3.854010307886824 0.0009397977379976194 -0.1498072222233964)
(4.923121533074262 -0.1120378091543322 0.02681889601538502)
(3.712883319794178 0.2709563335659473 -0.2189246687908888)
(4.502285347120544 -0.2499774653552413 -0.0009819468344346091)
(4.919339054908968 0.3295545192104583 -0.4322961336635576)
(5.074075878097838 -0.05015514965089114 0.003339540217610621)
(5.017742577154294 0.007424717161754103 0.05184003460022273)
(4.960413045102843 -0.007235325239092494 -0.01125628255259452)
(5.051459293529292 0.01034921697677912 0.02240607606152248)
(4.27722093381174 0.2152788777385726 -0.01910474863054466)
(5.061541042158658 0.01959172077838318 -0.003780305669920335)
(4.959668081541245 -0.04076653729459742 0.04267913307787418)
(5.031154621155858 -0.01539562963482407 -0.2158651715570932)
(5.127203425123022 -0.1668843576362957 0.09869637583053804)
(5.036021212491543 -0.0002305967006403511 0.01617776971490394)
(5.061217117837375 -0.02113978209604113 -0.08948669058999474)
(4.189865513651525 0.1247180180767243 0.2565453873051422)
(4.37096039618068 0.1160176785505615 -0.05828699637449513)
(5.073884217290752 0.07966653446544605 0.3066119840054905)
(4.924216143193858 -0.1444339128477213 -0.1077813090579727)
(5.106917574721559 -0.0913591009764449 -0.01123037641555107)
(3.931239243927385 0.5967736154894586 -0.7117943458503813)
(4.955549363771738 -0.0619761725231791 -0.5779593754534645)
(5.04628063078132 -0.02026109074515386 -0.007987588310645451)
(4.98453866075716 -0.01229100442863941 0.01879646668043205)
(3.496002328848871 -0.3427018049691776 -0.1945812669499563)
(5.021091444630285 0.01455449524824076 0.05452181174151238)
(3.750208457411873 -0.01170502705431676 -0.1062102268430091)
(5.112150163111858 -0.04980681383096486 -0.1088797411804846)
(5.114377864485362 -0.05712027328843369 0.005341364953667807)
(4.944893189275213 -0.03145140095373097 -0.3107825358291498)
(5.05630231400376 -0.01577287602599859 -0.1669300830561969)
(3.890014087035542 -0.2258590977318883 -0.2314880547351706)
(5.017498760651978 -0.05626429966964627 -0.05715711664519833)
(4.727914225877057 -0.4432414116344838 0.03691315064398965)
(2.476528264146042 -0.2532143328374738 -0.01903036002330546)
(5.040190124197832 0.02765595170262389 -0.003731222079062713)
(2.146836411723744 -0.4685447893714233 0.03110777914419365)
(4.826507098288411 0.9878661731828139 -0.1634994953807271)
(4.23246474494207 0.02612404656455449 -0.1664963329762299)
(3.188909877544005 0.1399769776007018 -0.1718655651410302)
(5.102664765743421 -0.07423517952288561 -0.09158208838973401)
(5.122095950282421 -0.08808699094471568 -0.0373637562748889)
(5.12145977792756 -0.1200751300693765 0.03468678338625755)
(3.787005402452453 0.45553830683791 -0.06951493762598847)
(3.672432275291506 0.079196983939051 0.1066907645009251)
(4.282978658583792 0.3441141907071956 -0.1164720086696197)
(5.016936022256278 -0.05498274707395388 -0.06588645482901959)
(4.2382835987004 -0.07577201553747728 -0.07014896467377228)
(5.882296619760847 0.8242572365375821 -1.135349101106551)
(5.104206016705804 -0.1200175558690388 -0.0003325751986291625)
(4.996193557245493 -0.1621555754109358 -0.1421243554162828)
(5.050932796798237 -0.1949716704622599 0.2355559168037826)
(3.665803715302517 0.4813596620108739 0.2875522441609353)
(5.022397693098103 0.01731530154033331 -0.133050719729385)
(5.013536950009672 -0.1451628366578686 -0.09542568244840002)
(5.074005465452529 -0.08686774025528418 0.04818655378621588)
(5.015408148010785 -0.03690589705461012 0.005912407950969701)
(3.19321844320006 0.156268444832726 0.1355434576916687)
(5.027622532317593 -0.0340342195430447 0.01670602144638009)
(1.723839133120263 -0.1040155065209599 -0.01981639222525805)
(4.8864707547792 -0.4216297170890649 0.3403825341528482)
(4.992984612452324 -0.1787038934761269 -0.1100009879508445)
(5.047817607300084 0.01199345617686124 0.01812968304687506)
(4.040953912499778 -0.2042685413296577 -0.1357057834710769)
(5.029528806180331 -0.03938045872351465 0.01049587583846892)
(4.977205560450738 -0.003711369109109008 0.005972773380948536)
(5.068527767366285 -0.09153362089902904 0.004238584269764811)
(4.081478140214856 0.1707981176373372 0.1819150339074437)
(5.030578369436276 -0.04519761631766979 -0.004086129288177297)
(2.51697111191205 -0.009052809969507022 0.02309754629154882)
(3.271659824383726 0.002226735879996037 -0.0867321032010695)
(5.063969652506228 -0.07902966785883926 -0.08142696541332622)
(4.560082268543927 0.1874104187791034 -0.4317646296160038)
(5.073129148958386 -0.05372781927812731 -0.09290485761200577)
(3.007987634238667 -0.2009019968267976 0.06868201915727655)
(5.006657992668218 0.01150038794600252 -0.001381313111102471)
(4.971292730410918 -0.1421277967009329 0.1287071979048616)
(5.032877185217673 -0.09036760498156442 0.002358946422666972)
(5.030225938994988 -0.01022717094542407 -0.00634518320747345)
(4.965382157430977 -0.02816712885365136 -0.03254337211419299)
(7.037531409528531 2.142788712133473 4.468426956039821)
(5.026074851252817 -0.01165994409496423 -0.0002720098607777411)
(4.507683186944146 -0.06193928919006646 0.1887314171219248)
(5.030487473135671 -0.005137204604081449 -0.001322822142840074)
(5.01743223946773 -0.02109211167421766 0.006779163378801471)
(5.036842828840929 -9.049536357813229e-05 0.01637359904104202)
(5.13434583958485 -0.2900245213964474 0.2249860241802686)
(4.31906092632088 -0.1931114040583979 -0.1612476610556004)
(3.628723590724565 -0.4267499883581304 -0.2802030486598288)
(3.664206864870873 0.2903953919363776 0.1036203814226771)
(5.034681000151773 -0.01320003470139213 -0.01797556166294359)
(5.048256706030111 -0.003256683861925776 0.01406558159931344)
(5.059852576766137 -0.06306406524467767 -0.03788568704352355)
(4.605126298525349 0.04114555117245757 0.1160513484026789)
(5.017227377649333 -0.03767529895593617 -0.02026170495342241)
(5.059189659537518 0.02575067154716753 -0.0583772203485638)
(4.849354004315795 -0.02168952749859058 0.04051229148413994)
(10.64150126123175 2.208744573127956 -0.9873434465530099)
(5.070923450215409 -0.02301391887379009 -0.2487013956331832)
(5.118833302452781 -0.09811847334066473 -0.052495328508064)
(5.064809219836448 -0.041672848161834 0.09743686364235399)
(5.05645441132756 -0.01208885795848291 -0.05530144573053039)
(5.047723872650878 -0.00264179123032755 -0.05784310857620317)
(5.019602377517727 0.007642174085171384 0.0008957028834834467)
(4.96958393904361 0.5076476576983365 -0.2339132934171779)
(4.631734824278714 -0.1977536531611372 0.1744325601467199)
(5.013634069673893 -0.005509533608806881 -0.002591826024262516)
(5.044233837895229 0.003373299170278512 -0.009037526361172594)
(5.041065845229165 -0.05435866834565119 0.00801508377711879)
(5.052522597523237 -9.831586518494738e-05 -0.02949949340640803)
(5.00750687260226 -0.007598625235359506 0.004227884861330093)
(5.034063192859548 0.002719224774390079 -0.0471377061947264)
(3.395287409494143 1.329877358932921 1.757653756493383)
(5.079875861219462 -0.0721995224329281 -0.06544297034231847)
(5.104728644369619 -0.08853807995570127 -0.04479921910364224)
(5.040493972597875 -0.01972029443275121 0.009309803847562696)
(5.01443162117479 0.002165916183748363 -0.0208599917959439)
(4.989200713012661 0.040245351820506 -0.03426447465231306)
(4.314382988214842 -0.5663971586123338 -0.09675875958089711)
(4.976262993862002 -0.01930307075498674 -0.2380521862239416)
(5.033801734870375 0.00393710151075862 0.00667144612317403)
(5.0345608705133 0.007133128285792094 -0.003319112204961827)
(5.023028116033519 -0.01452941556557069 -0.001102908371080667)
(5.018268655803555 -0.009941912570697202 -0.0003562968126443008)
(5.019066243514834 -0.007989583324986492 -0.001668839142742582)
(4.306572242485078 -0.2601867603425095 -0.1961583636990155)
(5.08153575748911 0.1404368607666226 0.01235729921731915)
(4.895472420554681 0.1867705207384755 0.04378971368898196)
(5.049092374846754 0.02512303665087568 -0.004624998879307132)
(6.102883642936675 0.1843819246952279 -0.00135086193698271)
(4.982273619414802 -0.08843759699277895 0.01331641353806847)
(4.618285222092025 0.28861421714421 -0.03317308570273214)
(5.093555488616458 0.04123713549465326 0.002025673502718045)
(3.509178091940504 -0.03351767658335464 -0.4663108967528615)
(5.051130504883087 -0.02038395192734196 -0.01208579259196546)
(4.619945605065907 -0.2465504509218086 -0.2485778202068246)
(5.060167875150066 -0.08450165524156079 0.01594708333126305)
(4.985050742309055 -0.02321163428151169 -0.04124367480577276)
(4.884495089801294 -0.001216016655224769 0.04926838405795921)
(5.111754447857143 0.02557922654286895 -0.02247596777076769)
(3.643331080405484 -0.2600656084391406 -0.3962983029369939)
(2.09169790062185 0.03524835636986652 0.1344440834996519)
(4.136748307189846 -0.002361651656913016 -0.1425640851200483)
(4.997346464628886 0.001563638188350715 0.00446702291697907)
(4.572002451850826 0.1194646435594363 0.3344007766679889)
(5.036159856392444 -0.03120962281007827 0.001463464621343659)
(2.637079925227791 -0.009144707130774185 0.0381544724248912)
(5.071894843017166 0.02010028638228711 -0.001437484394002944)
(4.995268902590541 0.168632585658999 0.1238582082767267)
(5.026011838513887 0.02727678748803051 -0.04712637774091753)
(3.671055051336547 0.0736877104476444 -0.05164846428992395)
(5.153932959122167 -0.1579969529206293 -0.0241179016633404)
(5.018223012724987 -0.04531592188710785 -0.01572974896058255)
(4.881344396757918 -0.07187050643134159 0.1754442919651721)
(2.391125620887371 0.7113572151585684 -0.03607316897195412)
(4.973696327223731 -0.5478767294006968 0.4300550540532406)
(2.931177954998232 -0.09809701624678173 1.957725910195839)
(5.009064689545337 0.08104365265040046 0.2118080584503026)
(2.358183378052385 0.2086190049189438 0.3129827557841555)
(4.27722793025282 0.1190318687387616 0.3714813844313007)
(5.031213679442996 -0.06101638803274972 0.01905478341014866)
(5.014397505354913 0.007894503523028134 -0.0215062662226133)
(4.951980216167354 -0.006115433133943486 -0.01287321933099987)
(3.418442748006992 -0.07619969048684924 0.1120564884732151)
(5.013507155067361 -0.2771173055511202 -0.1066593292114772)
(5.056556855696504 -0.06517922617073904 0.1057101478808729)
(5.069268366797753 -0.03613785027447463 0.0206053032522443)
(5.044988280053452 -0.1410157342424726 -0.1758393844656521)
(5.040469164651237 -0.08023072970497942 -0.0398648033827908)
(4.991025863477669 -0.01187644011565925 -0.01105081265276356)
(5.060638576269946 -0.1443890343455074 0.05325299201476206)
(4.115362150290094 -0.07576801264023726 -0.1507698416020117)
(4.816865566420494 -0.4766157657678292 0.02516308345863924)
(4.829283139405092 -0.1523492763949741 -0.1261117515883415)
(5.035463758515243 -0.0007126277525888168 -0.03067814465588015)
(4.929733363219297 0.01436485308337464 0.2127244678207683)
(5.001443004608176 0.004715977810294226 -0.02093047177819322)
(5.008709257000374 0.008784541349118886 0.06878674963695573)
(5.210598002397982 -0.09283947054125341 -0.1258514202678092)
(4.939079938024015 0.1185110455250943 0.2796008501913469)
(4.877566826223664 0.02984446385798391 0.465176388382253)
(2.760762168098859 0.2640321683837816 -0.009655501951074931)
(5.076099714400053 -0.07979318595898073 -0.01324788461275358)
(5.085341840490495 0.05398540084859623 0.03167682906269225)
(4.749721647099149 -0.01742312468664131 0.1880400906046731)
(4.739414301926606 -0.02864935391550491 -0.003811372860555984)
(4.909964656010965 -0.08280474965321366 0.124377012832404)
(4.774261636855563 -0.2156164236145668 0.04796483973785907)
(2.664382097224521 0.2276834096819168 -0.4639028044398121)
(2.049120919668142 -0.2691757036438794 0.03736613931168102)
(4.921404228073152 0.001804574639294746 -0.01301334706543044)
(5.08748450430383 -0.1118682843518657 0.1057449750657187)
(5.072769579431363 -0.1355017108687782 0.1133062410909952)
(5.082637986401309 -0.0696016321204292 -0.05601835416931992)
(3.863337221404429 0.4585010834577122 -0.4268843297590262)
(5.100095345314572 -0.03859290871266571 -0.008227216781882129)
(5.010076509658488 0.01042897272519808 -0.002779428089320532)
(5.014448142309287 -0.07277251837175024 0.0008882617374238568)
(5.832163956197897 0.5701557460314646 -0.3880802259869209)
(5.010530859964971 0.0002962295742216495 0.0006590556591000801)
(2.988148003031593 0.3963298830816182 0.1102854182037018)
(2.771793800923791 -0.2346477963709205 -0.1008420847378889)
(4.981352412641098 -0.04261867798901405 -0.05210908911931349)
(5.103216416071656 -0.09849357374056152 0.0249408569637758)
(4.327100039918268 -0.06781643558702666 0.04590106350553864)
(4.515674827544848 1.246729096785521 1.04420375425595)
(2.562777127126923 -0.2777868784307236 -0.004398607772877759)
(2.840067553895729 -0.09004996624289106 -0.0876074639381971)
(5.132457847881519 0.03313846564851031 0.1229285951657506)
(4.868955068646533 -0.09167360782269508 0.09575353954765933)
(2.008167589782602 -0.01108335593216798 0.08736012156156808)
(4.915287540458815 0.1495398398797004 0.06329302330011927)
(5.056534963256363 -0.003301323852059793 0.09862842590167524)
(4.308827695766389 -0.1174360257823919 -0.05172282606478737)
(5.054056016466657 0.02542524618594237 0.03186308986608589)
(4.18821112911912 -0.06090394829114389 -0.01986465679166504)
(4.181229575563549 0.1387201630841509 -0.1324390441141673)
(5.073728688780992 -0.2233930190917271 -0.0652226453692881)
(5.136407337167975 -0.08559136466281687 0.1742049115506598)
(4.553981151810901 -0.6874538403926918 0.8205716106838634)
(5.052314729880085 0.5616210664097289 0.08476331608752034)
(4.098654502215723 -0.07247712863748471 -0.04643826391633834)
(4.55264203978637 -0.04445556796911836 0.1120012284343777)
(2.810413799980687 -0.2338796459191553 -0.02478676653949655)
(3.522073540087314 -0.01386631785938492 -0.2048356470354892)
(5.11260652113002 -0.236213652194404 -0.01319144215753248)
(3.768012655906553 0.3483443435995431 0.6246433387913598)
(4.997587553304591 -0.06819494888294766 -0.2315870579317204)
(3.489965785934725 -0.2186916701837051 -0.06151434688338251)
(4.964187408229255 -0.06652923746608382 -0.07238538092344149)
(4.996077219725611 -0.03063202544888713 0.02293382360607384)
(5.127530412477483 -0.05951284560911042 0.04451822362948677)
(3.8573923954728 -0.3155013024496421 -0.06764262640335209)
(3.578323811407189 0.05459718329031042 0.01372204717307575)
(5.101902450369504 -0.08747910009802985 0.06104136893596461)
(4.961846371155288 0.158359157104481 -0.07104800291822953)
(5.511022762192134 -1.688288082736159 -0.6340405281225253)
(3.097380614222535 -0.08703717592597027 -0.2928542683084271)
(5.071829724148642 -0.06252147354782206 0.01476778759480733)
(5.082537390859796 -0.08607390836035457 -0.04349555475743402)
(4.578735846251997 -0.3570355772590825 0.2036048036525595)
(5.064973106092117 -0.1719292668968889 -0.1527639473716166)
(5.007198827210083 -0.0002450900145368955 -0.02134329942772691)
(5.13162502496163 -0.07535576889621229 0.03377833076464167)
(4.875152326343578 -0.2562031687654656 -0.01890585281866291)
(5.049417312728364 -0.09916293819822827 -0.1067867381762777)
(4.931369414795119 0.04148663753424216 -0.3206694786039661)
(4.275745485932021 0.1459398826143073 0.4406234485185555)
(4.991678542166373 0.1106814742512612 0.02697688812164422)
(5.038656720602612 -0.006701947148460592 0.007740136000316353)
(5.006061212199838 -0.002152310633243341 -0.001864530741821674)
(5.169350152557913 -0.1656228766840703 0.4224199943380982)
(4.825381205236877 -0.1875408060412778 0.04539129799936766)
(3.990421683160215 -0.2958847226208889 0.1090430166666975)
(4.750317455762295 0.004392492106373416 -0.08636788749969795)
(3.253680015909899 -0.2600037848934986 -0.06512059472421303)
(4.303430883619561 -0.1562616610768986 -0.0766540345798003)
(4.933340067727061 0.5365645562809163 0.1648882973532968)
(4.902508605176735 0.01182771035905453 -0.01987945048218715)
(5.040249343957222 -0.1919513703643184 0.1121003153030983)
(4.616717998123562 -0.1923875577878685 -0.03536993665274855)
(5.042866671815826 0.005736827359164572 0.05212229539608747)
(2.125076788465971 -0.4628202196418008 0.09671774127180638)
(4.988019111516261 0.0008010140428362225 -0.02545257703644694)
(4.951478268502883 0.009274198965269004 -0.01810744899537771)
(5.007397777296185 -0.01589683233454705 0.006228809455900514)
(4.980572172460258 0.01198579192573957 -0.007443507487840962)
(2.866684541040612 -0.09397757088229081 -0.1263681645128649)
(4.830599688503254 -0.5104297267993254 0.2171501557454306)
(5.091711260668889 -0.0499547740504686 0.008283886172488115)
(5.044947301352575 -0.001780230583731084 0.007449994741233661)
(5.007870220027669 -0.06870622691800123 0.09910661996191331)
(4.976200470623199 -0.01125831788755608 -0.01764996521063669)
(4.977742767632319 -0.01014373491391573 -0.005288692425816015)
(3.825216404917867 -0.04181462941029537 -0.04875372797417869)
(5.000507408993413 -0.003311753656729111 0.007224186799265764)
(4.933840470928248 -0.3444125644044287 0.3161787032308462)
(1.449830519514687 -0.2099592845463121 -0.01395884479505616)
(5.055025415258685 -0.06544306731839866 -0.166097322570705)
(4.800235453196207 0.0558844574482328 0.06018277074833584)
(3.921370923006419 -0.1320170840784924 0.1357526216194203)
(3.943988891269676 -0.1541415141364747 -0.1100787198346527)
(5.074287041465722 -0.1819993740306818 -0.06770205556323504)
(3.965696152601521 0.5251019479926704 -1.038500130865381)
(5.13965796686827 -0.1264013310996033 0.01871289017880435)
(4.885612386835371 -0.21531110853721 -0.05889949472200891)
(4.991574051416221 0.114435038654699 0.143075219386403)
(5.054075298083179 -0.01113210630729558 -0.04589569721103716)
(5.010387937596039 0.02742143177903036 0.07946580786767612)
(4.998068996630738 0.03027118084995178 0.07979794299986398)
(4.040333633300481 -0.03121518567764896 -0.2499817737227305)
(5.012581244916378 0.04997675938656199 0.04693617977239899)
(3.492611106823619 0.2103152696662473 -0.2726015093777835)
(4.277376886078116 -0.1306923229746408 -0.3111460545127124)
(5.000497582807235 -0.02740698655255383 -0.0288248713563581)
(5.086467669469571 -0.04917486082011415 0.02472187407197739)
(5.042972495968539 -0.006387591078985537 0.04006824917576293)
(4.570199441683889 0.09552293350416416 0.01189993647848127)
(5.062545398052408 -0.03408390389909453 -0.01501822922616425)
(2.717274593474724 -0.3510430271522025 0.06834027530669458)
(4.723162098820029 -0.1894482925599002 -0.2038223766627569)
(4.113154270928199 -0.007657433546057997 -0.1096003959212718)
(5.025798683118405 -0.03419698119966769 0.03970618142365869)
(4.992794281542592 0.1337929269397815 0.2824451146375749)
(5.075822242962388 -0.07983275925477987 0.0461885562485345)
(5.064671642044712 0.04162291570120583 -0.1098543138831253)
(5.09288427374446 -0.06589815621098798 -0.0245882747862439)
(4.877249907043492 -0.1068150270359178 0.1609434456296805)
(3.618258163687775 -0.2728133364937795 0.06508984847150215)
(3.928645300327602 0.1787354022864131 -0.08505570544408216)
(5.077601994722819 -0.03669016089961478 0.01649070580455668)
(3.975936381973871 -0.0787877538320475 0.03387979185872045)
(5.068633731768281 -0.03833061666559293 0.1077731581149678)
(4.108347887006972 -0.3007081504101902 0.2631986685590019)
(5.152667596313167 -0.07605661623016439 0.1457976454891735)
(4.819905487814038 0.1589527168918191 -0.1380902359255084)
(5.090557608870819 -0.06603044474953791 0.001534854532089993)
(2.880635593066734 -0.1246491592009778 0.04393818183914577)
(4.967315775049702 0.1169204021700851 -0.2191636803942471)
(5.008006090413443 0.04637215254169768 -0.03674778200387175)
(4.937016058574802 0.03243548105175589 0.2860878618591856)
(5.066775379300121 -0.0424803403709219 0.02404943413788685)
(3.34669261687335 -0.5680734308428113 -0.06726833208218835)
(4.886294156171554 -0.05316871654380095 -0.06694627745625539)
(5.059574132919568 -0.05490848862279119 0.01232901396168184)
(4.872057180544858 0.1411457499100089 -0.02208373753383113)
(4.998715213379663 -0.02260706044473461 0.01631931673388549)
(5.002685296590422 -0.006573021911678168 0.01713198851109418)
(5.052546830652497 -0.05098034682452438 0.0836949540759088)
(5.02379391294021 0.04879882388677996 0.1318709794845671)
(5.116424489382339 -0.0400505917832026 -0.03830743788313974)
(4.99526936962634 0.008764603812349669 -0.002911310237424294)
(4.535006432924645 0.1056096817792004 -0.7808951745243599)
(5.031582157972344 0.002932915534808708 0.02072455414043847)
(5.094385945747229 -0.02681775671731675 0.004670497894406983)
(5.019237966798402 -0.03941753010824617 0.04855815486670784)
(3.469194716476868 0.04509087933856062 0.05275505505675073)
(5.020455993311446 0.02479729602451642 0.01695415094260954)
(4.998369647612764 -0.01456230688598873 0.0291282228271397)
(5.006506901024246 0.01968612696023575 -0.000472028132505639)
(4.746413717237782 0.2528011705053734 -0.1211550577653008)
(5.43348282012881 0.01197953815792512 0.08280641041542301)
(4.907382957959967 0.1163016195423074 0.004984848833348085)
(4.95815958909504 0.01188883334306922 -0.0982411408301454)
(4.929948997832581 0.04430307231187534 0.1044238277817994)
(4.508610688620436 -0.08155301254044058 -0.1259686973305659)
(4.75174085763383 -0.1148440572265448 0.001725016005934393)
(4.989691664683308 0.001098913723922633 -0.001637552875200019)
(2.348216441002215 0.04953814036703139 -0.03397118237096883)
(2.467070918352874 -0.2229121134686568 -0.1147152590004803)
(5.07508458852546 -0.09270374673305559 0.1247705045029658)
(5.000334872945995 -0.0007786769864069419 -0.003520102867702852)
(5.007603204576358 0.00950699034990527 0.001366756514458915)
(4.741355600419493 -0.2785052810852444 0.1795556489076955)
(4.883652051054631 0.02473511467108869 0.2528918182656628)
(5.057270446333138 -0.07183393242614131 0.2466308534414314)
(1.972455867666933 -0.02912326902452692 -0.4147363149928606)
(4.947744702495966 0.02137267001077119 -0.1704741480463745)
(5.094057399172914 -0.2456303938895583 0.004653237844529536)
(2.314447607351648 -0.3706581335185982 0.02347320662852447)
(3.818030412308155 -0.1582805315532066 -0.2386388541629809)
(1.708819286322111 -0.06239737657037762 -0.2101614093788167)
(4.258088511080381 -0.4868893679726092 0.2509134018437563)
(4.574698620130019 -0.2562557491518206 -0.1739902776924364)
(2.41498677596923 0.04791268119483339 -0.1191921186345413)
(5.010915647467434 -0.3429842627273959 -0.1782951811964608)
(1.874679330066046 -0.0514223504179051 -0.2605911952974249)
(4.299734714310651 -0.7771303650228427 0.3924613525793488)
(4.986707136437904 0.08177198477405374 0.001121526753988627)
(5.109857639834726 -0.07736609661907377 -0.05897866151217163)
(5.144963062555685 -0.04117788985387457 -0.01745066142259903)
(5.164233386185772 -0.1597890420830411 0.1551789222501912)
(3.940745040309859 -0.1287108266147506 0.2731911562422263)
(5.06529085963885 -0.02548224567566679 0.1250615020421101)
(3.692637232202926 -0.5412635597699316 0.9667184142951917)
(4.22292055199049 0.03952233766219242 -0.0382694577682032)
(5.007629373596631 0.04680369022650079 -0.04848508480199414)
(5.014025645910938 -0.02523746270630725 0.02219109318878075)
(4.906283352880929 0.2846632262092855 0.1062968522465168)
(4.474442000451952 -0.193170138643328 0.6089214508302588)
(4.971311295646719 0.06147156776447261 0.08879298509006814)
(5.0691119605867 -0.00522950617149063 -0.02204826040692651)
(5.089409723219373 -0.06486299226992961 0.1220210300518661)
(4.898173427095248 -0.07351738642891574 -0.3738697604186685)
(5.039085682999398 0.009679879982794308 -0.04086216972914052)
(5.056203597642926 -0.03261980317181505 -0.00237208383654475)
(4.967385281148792 -0.05112458515671509 0.09160894496969889)
(3.128076560752336 0.1787326407764528 0.2005299069566004)
(3.91396303742669 0.2578011519713858 -0.2531980531578698)
(5.061681546845942 -0.01023190987671116 -0.03011973615640552)
(5.055911247722191 -0.1519781159929055 -0.3152700349395302)
(2.139797197160281 0.1558480617082252 -0.3056977700856295)
(5.003424316081225 -0.002542426026875882 0.003654531949856644)
(2.582936929269868 0.7790662953161979 0.573001545389249)
(3.899098976550083 0.2357575038012185 0.07277570866995903)
(3.306643169973284 -0.04417717002326767 -0.2473156815646048)
(4.999139116347727 0.00677087531450697 0.006283042444132611)
(5.082606636177465 -0.1798840336878268 -0.2007542567940311)
(4.775098798345651 0.2511812533357758 -0.2667955436581771)
(5.07544265755304 -0.1421199518121492 0.1720232402420862)
(5.001347007042247 0.007870648224124956 -0.004090932831082827)
(3.3530971021819 0.09146028295811484 0.2676639290514339)
(4.999564602528793 0.003567609378086773 0.009461233450304807)
(2.797239250051016 0.2337985233405634 -0.1241460334959207)
(2.311008162552583 0.2948356275208234 -0.4212575043189495)
(5.064400382833066 -0.05214465969583049 0.008705980357048448)
(5.053223423080535 -0.07861426388468787 0.2266339024748584)
(4.889975893079425 -0.1266913901243891 -0.1575704356458585)
(2.193458448766945 0.1923527165137682 0.09873435203647483)
(3.021475322279778 -0.06279751399546721 0.07277317677910448)
(4.998097840280525 -0.002515783449302416 0.0002240992321928521)
(5.000092326383064 -0.0005498700373421053 -0.0008440199070985672)
(5.012804730685042 -0.03467101453690908 0.01844442619745362)
(5.049792075913032 -0.1239804641624676 -0.1215037341862483)
(5.100150139548341 -0.1063010371719139 0.05724546337962066)
(5.019688617744089 0.01071595607632107 0.01997972461239027)
(4.776102996896757 -0.007616915449626207 0.1025439353180129)
(5.009770203894379 0.01041248964397708 0.02999577838107369)
(4.754860159760233 -0.01950762165884942 -0.01983713326966339)
(4.985219530050673 -0.0304701030642124 -0.0449518543994914)
(4.903108936122276 -0.2261706703142557 -0.09397460640155574)
(5.068152165996698 -0.0378186418645978 -0.009382345379367843)
(4.762555890876376 -0.2836949979147801 -0.272553232716528)
(4.022707367300912 -1.008232695830761 0.005568461847050824)
(4.925424028523391 0.01640146060190117 0.009695093479045142)
(3.835553207064314 0.1570922965518516 0.04230857509864589)
(3.779633120715013 0.06321995502616055 0.2399913168445119)
(5.093114074333333 0.006409928322119174 -0.03822255394134143)
(4.98946790454083 -0.03164804554011563 0.009418829092473028)
(5.009688209074229 -0.005145668408755449 0.01086450621485903)
(2.824379999907182 0.4708683734636631 0.3258491373155449)
(5.133699112089094 -0.06222353234910803 -0.00343653100751539)
(5.032620853517563 -0.0366509460051772 -0.06222415900734842)
(4.005463795122181 -0.04322852925545607 -0.01136971267195545)
(3.680965300941822 -0.6650818795010727 -0.1757892688683036)
(4.809004527215513 0.04192839127622661 0.06707379721290245)
(4.708802915804422 -0.1743679831060812 0.02109809018366011)
(4.608451969043687 0.09405236894191463 -0.2112470853616707)