/*--------------------------------*- C++ -*----------------------------------*\
| =========                 |                                                 |
| \\      /  F ield         | OpenFOAM: The Open Source CFD Toolbox           |
|  \\    /   O peration     | Version:  v1906                                 |
|   \\  /    A nd           | Web:      www.OpenFOAM.com                      |
|    \\/     M anipulation  |                                                 |
\*---------------------------------------------------------------------------*/
FoamFile
{
    version     2.0;
    format      ascii;
    class       volVectorField;
    location    "1.5";
    object      vorticity;
}
// * * * * * * * * * * * * * * * * * * * * * * * * * * * * * * * * * * * * * //

dimensions      [0 0 -1 0 0 0 0];


internalField   nonuniform List<vector> 
19631
(
(0.008777965756637028 0.00258162975252571 0.004220313109816219)
(-1.305596767037094 1.275345751356808 -0.7346600724535088)
(-0.9211891479971761 -1.624811714859467 -1.465707826729712)
(0.1475885858907744 -10.64702133332753 0.4085162681192481)
(-0.01378704203571467 0.01371295545368147 -0.01939695456907291)
(0.07470054420114713 -0.1062704343414171 -0.07468346141582771)
(-0.0005741924126804448 -0.008824847426349118 -0.006690817815369256)
(-0.3361472414680954 -0.3536501221818852 -5.561473514896141)
(-0.0279195382444364 -0.0108980455573716 -0.04284850641142336)
(-0.00064321901298303 0.01088038468077288 -0.03836924431142177)
(0.06373992410289674 0.05479742517223724 -0.1193221533889275)
(-0.02727394812316895 0.04060325009899993 0.001439490370305788)
(4.466381274779565 15.45859891556732 4.446938481218117)
(0.01011347223948112 0.00119641108952413 0.01272774840072686)
(-0.001171662892396001 -0.0008528191141415889 -0.01408468261591748)
(0.04628976311162975 -0.0480235246446926 -0.03166036065277201)
(-0.2020828867251541 0.2860142431689274 0.7269199829909496)
(0.002810358737481968 0.006466526464754835 -0.007286109720632083)
(-0.01248046421885482 0.005544399671736293 0.01719099299046748)
(-0.5128995231317071 -1.809254739641895 -1.042146924417174)
(0.01308238599894704 -0.0001560617780488279 0.007113396282855532)
(0.009726168438771277 0.3076562945470822 -0.07192600979690304)
(0.01994719582882396 -0.00374481258818047 0.1532563638113723)
(1.306699437455984 1.355269496694457 -3.46262792473666)
(-0.03211932260648948 0.009062288901011571 0.006907906658740438)
(-0.01033956626642243 -0.007276200826735779 0.03871181634116646)
(0.04411651540429774 -0.01450124732452522 0.01396147269744943)
(0.04525570169227714 -0.2702652641667681 -6.310861262639927)
(-2.73000250699194 7.025795167976399 0.5179845534526533)
(0.03442186622961151 -0.03254921966198746 -0.1518196864018194)
(0.006473215116809204 0.001486787623696765 -0.01066937713849999)
(-0.5494603737148368 -0.2820617642822852 -0.008946208071504841)
(1.117957197996174 -0.08879560675523523 -2.744426184052943)
(-0.05362967367059791 -0.0005802082478181605 -0.01326615408581809)
(0.4030555594532788 -1.861970205868181 -0.05739147852089767)
(-0.00204774735944532 0.0008724274421013471 -0.00318471682251462)
(0.03648567531996483 0.01249924626912125 -0.04089288735132739)
(0.09949760278226943 0.03302850042215383 0.02254181307734492)
(0.007601661537454417 -0.07895897407449266 0.04843482783761289)
(0.2536240767939859 -0.06990986997230507 -0.3324539233148484)
(0.3980175729400329 0.1835781661287948 0.365903540930422)
(-3.526703786135945 6.598273511238945 2.310928116889921)
(-0.04758171529015748 -0.006025268471982925 -0.02230528486471915)
(-0.2925441296780592 0.9667101624458674 -4.614681511162122)
(0.6293504162814949 -0.2542123878901724 -1.275234333934481)
(-1.109727666396754 -0.5473388327409834 2.218154380031963)
(1.684494113874147 -3.545952487142368 0.9950673985850234)
(-4.854667635892745 -0.780815811974079 0.3175817290279769)
(0.01579801683945512 0.001091489262059112 -0.001852779509552848)
(-0.1025547490951046 0.02685943591544802 -0.03515082621487756)
(-0.0142094519662007 -0.003713139992469732 -0.03607925531055818)
(-0.03080302173883604 -0.01577042005896549 0.01623778990350517)
(0.2624118596631952 2.820471703148906 0.08549635062306665)
(-0.05866401634001896 -0.04086509430057231 -0.05293503805687552)
(-0.04047383810966958 -0.3054706949788777 0.08276279702463241)
(-0.01947107436461079 0.4651305792237125 -0.172826568447172)
(0.476832692224378 0.8343885198643362 -0.5833288221533923)
(-0.001372250842005582 -0.001130276381384935 -0.003758642428213256)
(-0.01057974573362408 0.02335131383059106 0.130294912019856)
(-0.4102179400639316 -5.998453357259016 0.1133451555040297)
(5.113238233847028 -0.2369494666585856 -7.357941050914758)
(-0.1275455219431821 -0.224710691458441 -0.2930180132843762)
(-2.765125035151238 -3.755775363506027 -0.6946864707899536)
(0.06068515358896899 -0.009102363054205517 0.1141051844353232)
(1.489919291737673 1.808476060657396 3.083574505647841)
(-1.79350919477206 -0.1988209534964364 0.4866772131202437)
(0.08241757932184898 -0.005482865833485005 -0.03544850555318404)
(-0.04278784691922871 0.1694318542340608 -4.750628876126433)
(-1.282217437667549 -0.5419737490780914 -0.3280895297226084)
(0.03154430999968138 0.162893396148016 0.0412970937114723)
(2.144168228164805 9.717279044782298 -2.391082490410732)
(0.007624110055886604 0.3015665961163199 0.0732986853840812)
(0.02441919213263555 -0.04203758164318094 -0.04072761713001827)
(0.8609137896861203 5.525273171848225 1.185434059946507)
(-0.1136290804491321 0.126004774604956 -0.02862219920294982)
(-0.5675805671589143 0.9013299507962114 0.5202131582428224)
(0.191610173373766 -0.02622700577683564 0.04292870024630136)
(1.095628082644944 -1.052588256947341 1.737293861118448)
(-0.2241679995191606 -11.64470161222509 -2.29111353743229)
(0.03329835829418429 0.004412202220101835 -0.02811097176668031)
(-8.838446836363962 -33.08369731343928 -1.536746785767318)
(0.361701841847525 -0.6180348083407594 -1.260517070970165)
(0.03093400271028612 10.77301411249954 -2.770060194749848)
(3.346446440074205 2.354422251568123 -0.1674284802913022)
(-0.08321138994095292 -0.1000066211800344 -0.06096526751347982)
(-0.2034596452101242 -0.06222880263492016 -0.07728947197459518)
(-0.01234224902248332 0.1340201815056477 -0.05174058690578129)
(-1.509137723273246 -0.9102557966730137 1.230317037101606)
(2.960011823320249 -5.881575527989945 -1.830673069340781)
(-3.415133833174784 -1.373059583247679 -2.478545853100278)
(0.1176741202957598 -0.03948026111488617 -0.02638946590479845)
(1.115201639485448 3.393437497039444 0.4953527441268898)
(-7.13733241487102 -9.132472681638225 1.2127872557645)
(0.676190689963674 -0.6268568553989643 -0.4541732642721122)
(0.6344783267336087 -0.4415701046250484 -0.1506548071500652)
(-0.1347923839936571 0.1313259224031362 -0.3364438986747118)
(-1.408023626463343 -3.707321812910387 2.167655100431494)
(0.2740469419536509 0.1943806049942268 -0.00996771335232291)
(0.2400755667664561 0.1000778415075314 0.1274427443685233)
(0.09423040088733675 0.09473797398713406 0.09555283907169707)
(0.0403684116748722 -0.004413722474938724 0.03555241754002404)
(-0.7202089066200821 60.49349052190502 9.767868807568963)
(0.03213711908580594 -0.02196366557678016 0.04677591840401941)
(1.640568806174416 42.01257203504604 -9.590216137715611)
(-3.854331831905386 -2.09194591222658 1.311210925134399)
(-1.936273187025266 0.3993636637327269 0.9200685432343558)
(0.1290075273816162 -0.02988476914078818 -0.01866657518242263)
(0.06285059381418046 -6.697421219578207 2.123217405289618)
(-0.01732624893921167 0.0106667248582754 -0.001850330724981782)
(-0.004149325405371907 -0.04137364633092552 -4.546598267724846)
(-0.192340672668145 0.07675263433162965 0.01463145429853288)
(-1.040063084193548 11.1341371615826 1.110701406589711)
(0.01161483950235536 -0.02356320817556521 -0.006410128907756052)
(0.3035380353620808 29.33475826508739 3.283106994885769)
(0.4071681901261357 2.024575461766703 -2.016627985827488)
(0.2343551256200045 1.96654481841179 0.4683345184668223)
(-0.654688156500445 1.52611079601092 -0.2078282183491381)
(0.03473908181700001 0.04163221776263533 0.07448543120107377)
(-4.873894876986133 8.349413403444439 -11.69258916251521)
(-0.009496705297085985 -0.004185386068681149 -0.004909692662228975)
(0.2243011991937235 0.02842556545569609 -0.02926423467496722)
(0.1943307272763444 0.06620292763921427 -0.004729254016434618)
(-0.01792416636902252 0.007116675981028526 -0.001658541729387064)
(-0.2171516426205887 0.2404843651832452 -0.2012438728051013)
(1.389847916889791 -3.44204730775619 -0.485409484345543)
(-0.03596022234837258 0.0057471603751324 0.02201256107042829)
(0.06285897528110276 -0.005738253383740344 -5.361121138712275)
(0.03103517961493247 0.0546052079012651 0.01123127887827421)
(-0.04338209584906433 -0.002574167021333227 0.01714590087119356)
(0.119527443231585 0.005633634946972757 -0.00949496702016228)
(0.2000186545433109 0.08134022482440988 -0.09314089778132123)
(3.278176208899283 2.500957434303646 2.349540535349399)
(-2.889137907252051 -39.74497498439252 7.379359229345674)
(-6.408683115631375 -5.952257849561695 3.911568656521556)
(0.005814471582187515 -0.00732443001936928 -0.00736435202263212)
(0.04941595727356225 -0.0490411705807291 0.03133465073482629)
(-0.2156841315356069 0.02560274887240788 -0.01192568720977862)
(-0.2423707838476862 -0.2933481973200208 0.2619455878404544)
(-0.381494972403139 -0.08780073257926557 0.2885278025791109)
(0.0974166296666162 0.01330041234543284 0.001498708078434587)
(0.03794216111543383 -0.3081296971173016 -0.2805158872527521)
(-0.0435581418717377 1.909243524677724 -12.40054201259175)
(-0.434126250158426 -0.7999950968584328 -0.7095480220089554)
(-0.1154279476034455 0.09115288734613629 -0.126790125090491)
(-0.1980505533379931 0.01106658817525281 0.05296209704016358)
(-0.0771974971597895 -0.01936878988281047 0.03215856406906307)
(-0.05109612696947679 -0.02311323110236338 0.08976689343282288)
(0.05167682382543719 0.01741828668407457 -0.01067208376631252)
(-0.7861397475119396 2.716674772160697 -1.602162346479876)
(-0.8361604993190006 -3.35143716916249 0.5910590470462185)
(-0.000577791116055806 0.003099942374726871 -0.005876824119574247)
(0.01739040080569817 0.003661405205435663 0.05598819766896436)
(0.06586452648065325 -0.002786794343803693 0.02900154341314217)
(-0.01486897371248802 0.009277683518948338 -0.003929940597678533)
(0.01689283082509701 0.01433483570053265 -0.01343929894395829)
(0.01734073171210702 -0.05329757273842671 0.03127355396842941)
(6.651561861900714 -0.9228681302992676 -26.25273963474625)
(0.04392415660748486 -0.03075780069293485 0.02374935901490258)
(0.003665520078141145 0.1793559702979453 -0.003874638930700197)
(0.05594733867754483 0.01191602642785625 -0.04526340452922108)
(-0.002397706056342422 -0.008940851271211032 -0.004536493154328289)
(-0.02562061997620164 -0.1198689273770436 -0.06050545944926797)
(3.073943508157145 7.099016927135557 -0.5100941306135669)
(-0.0518038889733277 -0.1119692264639779 -0.07470013560410321)
(0.04428687285834436 -0.03225236276601579 -0.0298965858239397)
(0.02776180968699406 0.01225160571262114 0.0001623796012078069)
(0.01853833545072242 -0.006028522895477577 -0.002256105174722605)
(0.04109755975332019 0.01092666176184302 -0.01200742515666245)
(0.01533901804472114 -0.01511800865248584 -4.213382619351187)
(-1.243423729182949 -4.688109420688615 5.711175269860745)
(-0.2515330122764445 -0.1156275573558478 -0.3239664546265388)
(-0.1329417535349103 0.3841087201958405 -0.6076428579225562)
(0.5389067491838884 -0.2291183012424448 -0.5708206345306084)
(-0.5888099386516191 0.2400023184854456 -0.5269504229873533)
(0.1350096654425248 -0.1700662797237469 -0.1012902456209604)
(0.109534298290313 0.2891906877641465 -12.93180102127031)
(-0.05609378149328777 0.08745097538274764 0.03221701250202622)
(-3.713221370157677 -2.992122046320175 -7.213090068363234)
(0.07365275744663374 0.0173034203056263 0.03113464429584829)
(1.029370778113244 2.143262088963187 0.0248855853073856)
(0.1646285752387843 0.9825477903017312 -1.005683238469093)
(0.003369114245200322 -0.008224555677900404 0.004952927647793403)
(-0.05550580515181722 -0.435201946169356 0.02079705351920781)
(0.04903457999694138 -0.1349142722735301 0.07382976007931136)
(0.2100920581930503 -41.0481996008354 4.024145963673694)
(-1.097926261773365 -23.18130314585721 2.760754269801866)
(0.9739070772186965 2.879622197146719 -0.1871406524621609)
(-0.006202168160541753 -0.01750278939793139 -0.001585694397230579)
(0.8533222980660802 -1.702311874912947 0.4634756212108957)
(-0.007277672758361245 0.004600990838722639 0.01699534275335199)
(-0.4112658151272919 -22.66321147804459 -3.819547236538813)
(-1.070317576921074 0.09324864682278312 -0.7362732619737181)
(-0.2854986370277425 0.2827956141409057 -0.2267507468778409)
(-0.01328363808978858 -0.0392324249973653 0.06475007663041675)
(-1.765806200409868 -10.50823298191281 -4.212273808019366)
(-0.3376899185486165 -0.3785309208270399 -0.2795506626747469)
(0.01393731740499672 0.008505350672076094 -0.004296081209888445)
(-0.05152012372230216 -1.226324506858115 0.3201160488817785)
(-8.916626053771186 26.30368822750031 10.5123885659451)
(2.052473265934873 4.700679433044996 -1.742667324661487)
(0.2978159327503297 -0.08560320919736353 0.1908961622752174)
(2.07908956851592 -0.8352089243011032 0.1125833733533111)
(-3.116243485971703 45.04709442094536 3.167461299156641)
(-7.646025232154889 5.920626279244762 0.9887629377570987)
(-0.01657614413504951 -0.01532996718187958 0.01066251016185588)
(-0.02779225624173865 -6.747872290460352e-05 -0.008799039806113594)
(-0.04285867783523198 -0.02139926822543636 -0.04307095163321499)
(4.61718541623525 9.554970940003081 1.753340914409731)
(-0.09570166897881191 0.09574959546072284 0.1004134890739364)
(-0.02736814789892953 0.04359813046868349 0.0596163518129788)
(0.03950585584134469 -0.08772918389820035 -0.08365489109904974)
(-0.006931343255670679 0.1333805566811839 -0.01102945622195478)
(-0.0898799124224658 -0.5666549359185608 -0.04468124037295709)
(-0.03441238345875416 0.1277051446084682 -0.0688565471583106)
(0.2079553711802303 -0.05933843817819156 0.1538594765562866)
(0.7511623002523032 -61.64433526734368 -4.17560537192387)
(2.457109071818674 2.893147166413325 -1.671357184780753)
(-0.7490729358462169 -3.383108583055917 -0.5061375323325432)
(0.01786470874058336 0.06727642475015153 -0.004087450024052225)
(-0.0403069704522577 -1.147501279997297 0.03250970816987302)
(-0.003357585271032164 0.004008920516038121 0.001985017193569428)
(0.1082328188594984 -0.06738096700716478 0.24527007783903)
(-0.01448362780620016 0.2103371604938195 -0.5501656011605836)
(-1.908546258425122 0.07404738773193864 0.1889422838129349)
(0.1524059836389386 0.1453772892456407 -5.60920930578241)
(-2.436432912066978 2.985752397193824 3.150376737026159)
(-0.0723526543731543 -0.002930460919065028 -0.0555584114084684)
(0.1271040775723503 0.03148220524499894 -0.08030836850437675)
(-0.00674475489821218 7.352531608335589 -2.181744346093217)
(0.6966161775917427 3.001700829537872 -0.2100407052261236)
(-0.01067894674758291 -3.185674058187981 -0.4461129291890844)
(0.6556755424485664 -0.6018282209694434 -0.5581811542732962)
(2.03632921231599 -28.71525494955666 -2.305306658376643)
(3.817100467069558 51.22752713176013 1.287936523889265)
(-0.01206154623164209 0.1085735328481382 -5.907052614602443)
(0.0809668607916037 -0.1232979649524879 -0.08069868359178567)
(-0.08721588574963968 0.2698665406796338 -0.3955373167670336)
(0.1158515456955274 0.04059486937798407 -0.01939900116359726)
(0.8699286180143564 -1.127581983687828 0.9119629062845136)
(-0.4020902548183236 0.05400297732819444 0.04182956461884674)
(-0.02779521163102358 -0.003814039044491431 0.008715164891943293)
(0.1001424637551605 -0.0007660831335425423 0.01079543563473805)
(-0.2659923477618922 0.720199778906899 0.4979665488039236)
(-0.001686618374754377 -0.008201131057134048 -0.007670411422999159)
(-7.538569967677307 34.10618720083957 -7.060861024606641)
(-1.728355516821119 6.129877457577279 0.3231583628639341)
(-0.0001533316616909386 -0.00241093480795844 0.006572837593044703)
(0.2056731049497543 0.006478568069503587 -0.1266772245638099)
(-0.9040866328394626 -8.597059687648544 2.041329839010761)
(3.06600381618623 13.25399923760499 -5.479146380691025)
(2.766517004401789 13.45876374207856 0.2386956041058655)
(0.3877956386542133 -36.67947640131742 -2.33816418313959)
(0.5026827410722939 0.3585685749058726 -0.2947751858340371)
(2.87009642978425 -2.39169748875436 -1.619788609084313)
(-0.429043739808909 27.37048158914805 1.798557009505906)
(1.741942015724236 5.220496742609066 -0.6597390011507127)
(-0.01391200710883063 -0.03288760538163361 0.01409024156427799)
(-1.284818928033859 -8.608560649429242 0.1378053199607199)
(-0.02027483989938024 0.1029603458626414 -0.02832916184965311)
(0.3145224422211749 0.3149923281219343 -2.315496959707599)
(0.1998907652680303 2.118102005457976 -0.1006200858932784)
(2.247774421953754 0.6521438458469671 0.8874552658245605)
(-0.1891518455715992 -0.007678081138356482 -0.01580246878721611)
(2.0658255431205 5.261294719500588 2.800296950278271)
(0.5301435061218942 0.1069150341589071 -0.6158323015009445)
(0.04990106307253905 -2.016972079512984 -4.946731990623402)
(-0.3848982631882183 -5.457940736634077 0.7487454959092693)
(-0.5436809725765983 -10.81876029241542 0.3838679667795261)
(-0.3363669994540742 13.75620550299471 -11.28604477354665)
(0.5465195064386632 -0.255416503473028 -0.1791336085586953)
(-3.3339479093931 3.964542801694793 -6.488294874399504)
(0.4934479610172355 -0.7998799686437948 -0.2584061463005382)
(0.4043601703773015 -5.568585573675489 3.520088658397094)
(0.04915173499533471 0.03469542465773642 -0.06840143092304522)
(0.03374387198636011 -0.009816598794560474 -0.005594985064012499)
(0.1668342836702449 -0.04083493840072464 0.08599181945274399)
(1.151342208917315 -3.182419698989189 -0.393499264790486)
(-1.030673216639034 -19.8683485808052 4.910867188116974)
(-0.009804986938864148 0.02047656384204446 -0.03122114768915826)
(-0.03101655975240483 -0.1161519964339124 -0.6610511491120497)
(21.34427293299384 -11.34485365497471 13.48290408636398)
(-2.870842897355237 -12.23913137787267 9.957562994719181)
(-0.09827546095292643 -0.176053371223488 -0.1382436862186029)
(0.5465025314472307 -0.07559311461041043 -0.1132381173335247)
(-1.206208661880098 -7.719996162486535 -2.198553197333002)
(0.1858468595213201 0.2273548425412997 -0.1494717416702799)
(0.0007708145790710633 0.00621531887477223 -0.01669396596915823)
(-0.08440157964770358 -0.05333940897091302 -0.1767062360658204)
(0.7319974451006478 0.05682086938116815 -2.692980050771536)
(-0.1589358815507917 0.04505031842855671 -0.004748434145835669)
(0.3919998651392577 1.875086928940586 -0.1367965423665917)
(0.2066174443536835 7.110464856947758 -1.986994879552166)
(-0.02883440191150838 0.02962926463984476 -0.1555456343362402)
(0.021719105407897 0.006188823240411487 0.001634254113957391)
(-0.003950726705111783 0.001336455975427767 0.006190368781910334)
(-0.1782712461611911 3.215045682762498 -9.08525044259909)
(-0.2800787971749363 -1.114972397405712 0.5084301864831337)
(-0.08381232747894446 1.273928932369234 -0.7843055857647621)
(-0.4794143796437995 -2.151041406540243 -1.463727532100902)
(1.36599154391381 6.516862208036536 4.061863723961535)
(2.381364125627553 7.630025665646205 1.114341745908305)
(-2.698086787212112 0.1237734191642337 -0.847110811042848)
(0.0562618352881961 -0.001066972800841528 -0.09462574522045984)
(-2.501882758074554 1.017494503462911 1.566240009589825)
(0.002310971404999931 4.981510668235965 -0.7485948606773291)
(0.01606118532697767 0.04259252089118852 0.0316927598966327)
(12.33238313086536 45.42299144380301 6.376394462417389)
(0.0161155095377914 -0.09475027080682749 -0.05445488979878033)
(-0.003310648869278033 -0.02043650379093209 -0.06735499199693862)
(-0.04026672384519641 0.01127820565335157 0.1202087775412265)
(0.03014204209646532 -0.07525811220473916 -0.01605061561498515)
(-0.8743249932346203 34.28265989223949 1.548852061118046)
(-0.2711135061870968 -4.691335109896925 -1.09327779555737)
(0.04377836909888027 -0.01270914182558193 0.01273684111417536)
(-0.01752921945439332 -0.03712023981657541 0.0147867120223069)
(-0.1184093010639569 -0.06792579032315089 -0.004852141794926604)
(0.004230823988985713 0.009714967668196307 -0.0111295437368925)
(-0.005664483923531201 0.004353675521703864 0.001149174339821296)
(0.6231807299365442 -2.271298226865805 0.09166955521151032)
(-0.00134184852860254 -0.0001040189798572366 0.001900495250984267)
(1.210977628473039 -0.4420741463920649 -1.377831851428642)
(6.073018274596905 40.19171315617965 0.4107713830394386)
(0.02917719333125671 0.9091219110709499 0.01439287962213695)
(0.04643827851676097 -0.02859006981320713 0.4887095676244567)
(-0.3472847747611971 0.776716938347298 -5.231779457498589)
(-0.1973050692646318 -2.222258152995797 1.753714507512352)
(0.2719939782214291 0.2801767344428288 0.02393996302768231)
(-3.916812775481363 -1.071180428731902 -15.90800167841127)
(-0.2413172235478686 0.5669843681795441 -0.1024635476182915)
(-1.175604666007461 1.20058275718785 1.340518009732008)
(-0.07710529651759876 -0.06104406034194781 0.0905238957899684)
(0.08115742535400898 -0.01270501556297134 0.1037790775820811)
(0.005451734638607958 -0.02325650983175051 0.03089915395468124)
(-0.2194430700536616 -0.0691086123774047 -0.0762314236617892)
(0.2075659557779159 -47.62355129908277 5.886943069288499)
(-0.1114712347730906 -0.02284074498168637 0.04451586438375527)
(2.284215429661032 -44.21680927328054 -0.8672810344962799)
(0.4150092865272343 3.754722043680821 0.4617554004615552)
(0.03592957423696737 0.01207138538219794 0.00649720698356008)
(0.05324726487808012 0.03648654728781209 0.03432161925558452)
(0.02102653122933209 0.02536560445217003 0.004626635709022043)
(-0.2107387309170599 3.017847903220687 1.31561732772864)
(-0.03396093229130068 -0.0008179723307755946 0.03037028481885876)
(2.994457308273132 11.89073218369067 0.2825727074347999)
(-1.268354172183919 -5.176517910025895 -2.802782355466695)
(-6.870178106971949 -6.515546345380457 -4.67662367537945)
(0.09329155366565878 0.009374282050787774 0.01393052152467815)
(-1.744347998260385 0.734115444778046 -0.4991676015513744)
(-0.03135047108832036 -0.02354823664979683 0.05630000436841318)
(-0.04191434223506663 -0.01405354502485821 -0.2590970942853698)
(-0.02201165540189653 0.05389931775526637 0.0456837227379861)
(0.2113173805905547 -0.708519596082911 -1.147012143898527)
(0.2565714408719853 1.115988694072386 -6.153167487313688)
(4.641773777558331 9.306338957319408 0.9310543354707278)
(-0.07564681119760422 -0.0569090003026763 -0.04345635955120867)
(2.386394671742894 7.067244445667566 -0.2108590863711931)
(0.07689966173346123 0.02723989389846717 -0.003923125298295652)
(2.027051312706852 32.77597241588315 3.744830039671508)
(1.084523251226758 -0.5789625878270165 -0.1023667462903179)
(0.3580237343784587 -0.01406639913232932 -2.058992726407121)
(0.1479399266309303 -0.006392769264837358 0.007371264642878374)
(-2.508242488040529 13.98056892790896 1.624842064427683)
(0.6930791712268853 -1.169937460527414 2.439897229302975)
(0.02216904725716015 0.03798175893083224 0.01546109374957322)
(-0.1093987078127577 0.05320797012391432 -0.03306621873838267)
(0.01950558839148367 -0.02189024417734567 0.02045558285752195)
(-6.891687062745558 -7.661512669516692 0.2186727920135612)
(-0.1535777570049336 -0.0203288435105893 0.1872002006629418)
(-0.00685035380274244 -0.1295629622971803 -0.03005724102794153)
(1.176223037497864 -0.5261740129352634 -2.407227998707648)
(-0.002898859073061195 -0.005079573895914539 -0.002007602568247127)
(-0.00366874714827561 0.0001386162820912074 -0.007328419519233962)
(0.1615411658480821 -0.0836332937584422 -0.1448444912867496)
(-0.0928834835595041 0.1701581906638964 -0.1085554029190282)
(0.2550679201214717 0.1003565537692743 -0.09757177929563982)
(-0.0002787119583145649 0.0003491692875423587 -0.006225055728382943)
(0.0700382264122278 0.8333679786338954 -1.394270954421287)
(-0.0164472997221475 0.009006389818726989 0.007955564747974668)
(-0.002620718399246998 0.02975077643305105 -0.03157485258780794)
(0.01733355347904224 0.01870879396562125 0.01740909382688769)
(1.342038487552775 11.36834283904514 -0.4776686402240444)
(-0.0315959322849745 -0.03963566632508626 0.04188518898179847)
(0.03451083673777291 -0.001637862324349017 0.01276894538015163)
(0.003550401489479991 -0.01648644576173523 -0.002178191669502833)
(-2.635828009027463 -0.06084471938630576 1.708016755042056)
(0.2539448764149905 -0.3204095699500503 0.3536803423541353)
(0.05781121511988294 -0.05477455984474895 0.1191051728167439)
(0.01199260004251904 0.148119228151264 -6.555619003548904)
(0.06629359965949745 0.06247050518830292 -0.1363938874745085)
(0.07464115976090818 -9.447989347021128 1.866072767579219)
(-2.966665635917723 0.6965863260937357 0.2384412172345841)
(0.09137400140170322 0.03033046101383019 0.01532501096166034)
(6.740522565524522 -8.784289148524584 -8.633327056822914)
(-3.511492145462562 -31.29726015069703 -2.852685414795516)
(0.112655966718088 0.1373602606026594 0.1138370649580657)
(0.007128404701515567 -0.0147170402146061 -0.007837489287864841)
(0.00560637685074898 0.006490961656152552 -0.009531727364826369)
(-1.544631108191725 -3.031725612033964 -1.206115725395534)
(0.1055384270618163 0.3209004011303654 -5.556181371223464)
(0.5578967488059674 0.1424877359754705 0.3326697318911385)
(-4.082672326183136 -52.85324349588701 -9.628529203337225)
(-0.07302665341196982 0.74615037507758 -0.9107388863675163)
(-0.63185430229743 -0.2820782038772001 -0.2398175744991939)
(0.8316441836944015 -17.85775334462556 -1.329161191946588)
(-1.549985145250422 -4.28408011950587 -9.095685391572228)
(-4.202633424274609 -42.34698275897473 0.2549035187771906)
(-1.824502609851246 -1.239115486664405 0.9374089513692052)
(0.6876909588420304 0.9254162803884599 -2.020535630966316)
(-3.195813111436112 -48.76399493080091 -3.690208164357661)
(-0.816771553627256 -0.2715485889311646 -1.087838275081919)
(1.05500513771973 -36.27365476056877 -2.349531902129484)
(-2.448382043285121 -4.568133157992937 -0.4689924967425283)
(-0.04068017398608836 0.04187966430440032 0.09187102637501515)
(0.1442151677482661 -0.2440964378013593 0.04591363594077036)
(0.0127874663831157 0.1721443469845635 -0.04717994648754262)
(-0.5299134396619852 -0.1444957457755574 -0.2447308438010921)
(1.963715797970533 3.296700179594608 6.332827617724291)
(0.2517429180687789 0.1936245790302476 -0.3306483253653458)
(-1.861923658593252 -50.23401062670189 5.652195728161253)
(0.9213898942969865 5.330682700074819 -0.01304826278103)
(0.1107422160490002 0.0004185504745185288 -0.03865573826615997)
(-0.04451096487131645 -0.002312535641790316 -0.007094250135279404)
(3.489004461515105 0.8491400828276354 -0.4271406757735499)
(8.77360274935819 91.56245714060722 -2.040463636911825)
(0.6599926818835988 -0.2392307536554985 0.1935805361646269)
(-0.03791802350115449 0.008088249207674161 -0.003753590414600941)
(0.1063337240144885 0.0354610912046105 0.09686385729672546)
(1.605741272884432 1.396165326593619 0.6574225771314617)
(-0.02412538868904391 0.0001279732852388137 0.03210371695350064)
(-0.01678840291713207 -0.01375830891470135 0.005064628066674395)
(0.007108558589655558 -0.1267634048165074 0.07201272300564864)
(-0.2446843438480717 77.02746499619766 -1.219919938366103)
(1.973695984360248 -2.503031910805277 -3.236266358891383)
(-0.02224813341085357 0.02117772578232004 -0.04285571155305004)
(-3.451577119510658 -1.90339305466382 0.3321494528653919)
(1.942265387297737 13.59746021897539 2.571455570295071)
(0.01431586819060366 0.001354839205699094 -0.0008542045967037193)
(-5.908167453229569 -19.75145543669062 -1.566001637131762)
(0.1033362168192485 -3.928309637457898 -1.310215699782995)
(0.9232440153526186 1.391241455085527 -5.872240462841309)
(-0.003756731131928886 0.0006347844809792226 0.005577191034693165)
(0.1554701449977292 -0.1999164006450359 -0.3392899495937827)
(-4.633385568445563 -6.17782824645816 0.6872552101928215)
(0.1041444404851687 0.9908871669004464 -0.894294475668705)
(0.007113932984741849 -0.001525570773063654 -0.003172107376409493)
(-0.1927338459014591 -6.636537457756755 2.917677494183871)
(-0.004067768778706627 -0.001304547937939892 0.001744698513559933)
(6.561521590430708 1.301457708834601 4.502515909371425)
(-3.128059434280742 1.580815546002643 -33.39722527560617)
(-0.03050293036516382 0.03152872970458347 0.004455689620847627)
(-0.2929069243942226 -0.1369858162167921 -0.07046945694754385)
(-0.4419099467469492 0.5787696923888616 1.00686365477615)
(2.34046140996096 9.498027867905357 5.815072972910174)
(0.1686599433563696 -5.537958671284649 0.2716688194770208)
(-0.0008404346246468754 0.004032175777507532 0.004549677105682594)
(-0.002526859242794197 -0.003233073369953951 0.001332147726920138)
(-0.01410094956172893 -0.01063659607786151 -0.02757580097399038)
(-0.1581493944122593 0.9080131614409496 0.4065947458457625)
(0.05630384801484799 0.3232798214278073 -0.2634767690994821)
(0.2745248402058593 -0.1395359030238465 -0.3443073608096311)
(-0.1496482064977746 -0.5046918368185408 -0.03764026258046341)
(0.00289281868470817 -0.05874422607263255 0.02375657358581321)
(-0.09028860361215295 0.1237375721902402 0.4427018184039834)
(0.0004069731526189953 0.0005507759727374825 -0.006808773332019873)
(-2.641375146250621 3.627273971443179 -1.283854431376444)
(0.01240187997927576 0.0324411078298615 -0.0163887400756994)
(1.48311064920491 -0.8256756896858394 -1.052765527047961)
(5.360455264793952 -5.362833991619657 -4.908255630220911)
(-0.03660264286719494 -0.03977334176376898 -5.920974129514287)
(-0.3221974810428843 -2.06561054245834 -0.1482318748373909)
(-2.466018960772448 57.05689954789909 5.934113786228275)
(1.119005913595833 1.883908533599348 -0.4379098624426969)
(0.0007319077495200263 0.01364525459105902 -0.007531440363343538)
(0.01261198588423802 0.008793035405292568 0.01098318314011626)
(3.369280615217878 -54.22544273803706 12.53794425938981)
(0.1508490080822731 -0.0397287179821228 0.0287132211989151)
(-0.04652162408133234 0.0421508349525767 -0.06837449406784882)