/*--------------------------------*- C++ -*----------------------------------*\
| =========                 |                                                 |
| \\      /  F ield         | OpenFOAM: The Open Source CFD Toolbox           |
|  \\    /   O peration     | Version:  v1906                                 |
|   \\  /    A nd           | Web:      www.OpenFOAM.com                      |
|    \\/     M anipulation  |                                                 |
\*---------------------------------------------------------------------------*/
FoamFile
{
    version     2.0;
    format      ascii;
    class       volScalarField;
    location    "0.1";
    object      p;
}
// * * * * * * * * * * * * * * * * * * * * * * * * * * * * * * * * * * * * * //

dimensions      [0 2 -2 0 0 0 0];


internalField   nonuniform List<scalar> 
33857
(
-0.01429171245266947
-0.01452232195742532
-0.004305566006636857
-0.01446701351837718
-0.007325713352018507
0.01121984869090279
-0.07568389423423819
0.004055375702452587
0.100635865093503
-0.02534785600045986
-0.01934712400936375
-0.05197379749365543
-0.02963855698025662
-0.01416302233364741
-0.0220933763526296
0.00791719540281206
-0.01698576093624287
-0.04597676206072053
-0.02224845474982335
-0.07507151930439378
-0.04801164322622407
-0.1130486527048082
-0.1191196829102955
-0.04563429983887867
0.112009456478226
-0.01515364775953574
-0.1168169305673067
-0.09502753680930717
-0.1236732469186372
-0.04469807835626562
-0.004931377169750987
-0.04560239188567775
-0.0100504851486615
-0.09730431108901502
-0.09804799124357184
-0.01974571149280305
0.03891809639153804
-0.1167535176995841
-0.02419076404191715
-0.02551621399503391
-0.04364912449901465
0.07793350606015773
-0.07785421912446706
0.0184389065836173
-0.05063388985572627
-0.07863878484291312
-0.003913608906715423
-0.1270362145939158
-0.01727443944053624
0.007997371588289417
-0.09020015147690751
-0.01389568952560237
0.01558363103360143
-0.03863854471475504
-0.01711059937456356
-0.01821046778606312
-0.05796736421789335
-0.02987282379300316
0.002847523199645866
-0.003972387890832488
0.01620067052735935
-0.0557706531498533
-0.005753826341357419
-0.002998253202899079
0.003563257234916174
-0.09221059332491698
0.1233380107263568
-0.01998492545512101
-0.07194645079316347
-0.0294516042045336
0.02672303230344988
-0.02722298476784841
-0.0136658547654359
-0.09213476840544035
0.003831046143844832
-0.02498418172839103
-0.02378752208821218
-0.01295204592101293
0.01605778505094606
-0.009875479776409278
0.001534167872723228
-0.09576599046951741
-0.05307726446526872
-0.02342999298157555
-0.1339248250056578
0.02077559966925135
-0.02266990988629679
-0.09683056098651929
-0.01556908515724464
-0.02190768219567273
-0.08991277324103358
-0.02712526399233631
-0.02924723378663015
-0.01752404187825622
-0.03314263019068039
-0.07766215279799989
-0.05225420952437185
0.1518386873932941
-0.09095368868513772
-0.09262609434378122
-0.08811504361306192
-0.09340818544828852
-0.01718318339630259
-0.01114713971273671
-0.004981895570993819
-0.09114376493045782
-0.01863963551896939
-0.0570019254232349
-0.01888565296925322
-0.05714428092037738
-0.01966534549356814
-0.09268439071017281
-0.02052069011428567
-0.01471739821967112
0.02605294699908301
-0.01736550237783455
-0.009547584448542867
-0.0285280357805948
0.01295790154074082
-0.1047497605848168
-0.03701141505031724
-0.01750019743736547
-0.0141298271098444
-0.05187707247588105
-0.01951356419256178
-0.7141883726694654
-0.06036749669181968
-0.03518090233760982
-0.1073831204742112
-0.03037435502930493
-0.02110966977545033
-0.02696712277694901
0.0847790439601754
0.09772117168871894
-0.03729765270726943
0.02135854841391344
-0.01733490716266346
-0.0377279276645702
-0.08275187896294084
-0.03028183507221122
-0.06696163442973718
-0.1494704303987058
-0.01386236694517438
-0.09207952863539298
-0.03583940483353747
-0.0234192675527535
0.009793857255170641
-0.0324413459631023
-0.1267192104758755
-0.01620927784131989
-0.04061125713900992
-0.06427630815741425
0.03025278809392289
-0.1040040554826063
-0.05456113350955537
0.004139816522461619
-0.006634178802106692
-0.05759685006458705
0.01250459032042061
-0.01493931490774824
0.007433747072108484
-0.04188742083196324
-0.01845005885285278
-0.1724469613983135
-0.09951002209460402
-0.05153609200806873
-0.005366398654919787
-0.0379110655406593
-0.008890154882063269
-0.03392138661103557
0.001253988919821479
-0.02295307640663512
-0.02011110246141757
-0.0762455212495126
-0.04200215604136941
0.1817953294055969
-0.08250995893524396
-0.0442644384839079
0.2764168380325576
-0.006322787485947027
-0.03397369858659405
-0.08542258839327588
-0.0407655405703674
0.01808125036673608
-0.0140109750608112
-0.0940335623888726
-0.01685898880861175
-0.09090760085249981
-0.1075736833674132
0.01785306041764038
-0.01392802273602959
0.1968121320906167
-0.1232271282279494
-0.1168826078217103
-0.1205581640563984
-0.02293508595994012
-0.1191850154955826
-0.01043981954989397
0.01149010088718769
-0.02340479459140331
0.05456695242791366
-0.02573737923525168
-0.02102473443210144
-0.02298153197218613
-0.01736826236636593
-0.1008360073688641
-0.1771976226103839
-0.02208403572894211
-0.06467407138367719
0.02957116938166566
0.02277208083538888
-0.07029928248442545
-0.1040685236895316
-0.06056901044673162
-0.01232813469192437
-0.104859174097354
-0.105476902658332
-0.0454792290958582
-0.03688658510497988
0.05490112195164355
-7.734319072659972e-05
-0.3666134626721284
0.01254614660452683
-0.05581114970431718
-0.0445523368255209
-0.0536085424642872
-0.002692403601273977
-0.04319070241482535
-0.04196575278800467
-0.05144690425734132
0.02054725122437
-0.04630400214309617
-0.006976932680126978
-0.0480992256649726
-0.02470875406464041
-0.009719442507372722
-0.04029158232416593
-0.003527576560111335
-0.0121792252384041
-0.1213809936482528
-0.1103516783610486
-0.0414028860367698
-0.04328642370681352
0.08501198382528928
0.003536302966726087
-0.02334717556741048
-0.008462214614026053
-0.03632787171912175
-0.01681416721137505
6.041590782216293e-05
-0.0408043889310696
-0.1078700452092431
-0.2237870688978416
-0.07057774571732715
-0.03376078879323215
-0.08730207325624667
-0.0157643600903193
0.005631981189192196
-0.09587654484732397
-0.00876568025656607
-0.06821015395078138
-0.0207033040462567
-0.2304993289765989
0.07502968833522242
0.01583494565107512
0.05167250862903384
-0.01409926885379316
-0.09750388243527841
-0.05180753524193912
-0.09047079492600678
-0.07364545877551165
-0.01734840927267035
0.004988424051532738
-0.01329987092546499
-0.07357913739876702
0.03929591449069684
-0.01400294232484293
-0.02063062138934144
0.0293578094729971
-0.0029642945226258
-0.1133810074621274
0.1809517768365939
-0.07513956329012848
-0.02184252414610069
-0.1029478351626578
-0.06009140081531066
0.08091637134733291
-0.002093964721148962
-0.01949937235330293
-0.02474035904886374
-0.1010303956258289
-0.115809199529344
0.0217587802213803
-0.01713958246736728
0.04196095659666824
-0.03166706360922104
0.03895664922355849
-0.0198267633166169
-0.003824824213911949
0.6511666378559886
-0.1311286365207064
0.01490669132807748
-0.01680559698545587
-0.09260814336373981
-0.05339579075870959
-0.04607486811879057
-0.06731477485012491
0.0008581046762404706
-0.01987145501294191
0.0137338738667089
0.002648319435785766
-0.02415331594054793
-0.0266387517600555
-0.02710355714546262
-0.000710078445792903
-0.01022649016045195
-0.0226036099375164
-0.01652125295922807
-0.02095354924807357
-0.00599019933950951
-0.08157038375455503
-0.03740244729473766
-0.04173095192560354
-0.08422355882364334
-0.01779688863763001
-0.0166451779369633
-0.05616364023533704
-0.005000092868576275
-0.05092558526113077
-0.02579522119099698
0.03555633740525924
0.01480359065527942
-0.02143636598030865
-0.02776789720210129
-0.3820667302010908
-0.02913132591551655
-0.02454396876698483
-0.0448001307039388
-0.007269699586590309
-0.009420895375843032
-0.1358694341896537
-0.04909426179814687
-0.02326181840316663
-0.05227986244195248
-0.1080003307207303
-0.01486233748899051
0.07006700184271208
-0.009944156684670167
0.01604951016606425
-0.003302447160277085
-0.0198337063565644
-0.02683217278490696
-0.01000061798135854
-0.2397354199070076
0.07368752094808255
-0.05993706664666675
-0.05130126283674634
-0.2017441349055327
-0.02033730369385196
-0.1473725649272573
0.02068212568219394
-0.01086692475749095
-0.02055301244022587
-0.01509606104042743
-0.08628275626654448
-0.04192156538355533
-0.05395372383618866
-0.01037055117566103
-0.05413214532600946
-0.02147587566153876
-0.1072970281968859
-0.01519285107755729
-0.09789475754523566
-0.0375790036857362
0.02008070617678947
-0.01289217053519913
-0.02310403195021849
-0.005833154896300934
-0.04985778898637828
-0.1131590373520601
0.02928832257936648
-0.02408301450321074
0.01680737778151654
-0.05259901852828999
-0.05331749428249576
0.05144992465381487
-0.02179999527387089
-0.01519221052704657
-0.2441556570750235
-0.0126771618645212
-0.02481066355961592
-0.05424082170402648
-0.05393462540122211
-0.06497267659748271
-0.00817837535810712
0.01328562751424347
-0.02393241954242383
-0.01627806301733532
-0.04478452565276778
-0.01142069184816426
-0.0756509742245781
-0.008594376595148884
-0.05160657441418654
0.04130994432414843
0.01740300185208074
-0.008444608387793789
0.01785074699026318
0.08028967299252178
-0.06326938500417498
-0.1089443618041921
-0.05168015823330703
-0.01508284384549661
-0.00897438132259422
0.004955447700134335
-0.1725391207858849
-0.03052174167173154
-0.01318291134506018
-0.03837609920787369
-0.0425609934913676
-0.01843260602679992
-0.2758135281335087
-0.05893454868922469
0.01054295176931699
0.01684196003847422
-0.07695012914245981
-0.01670473582982188
-0.02410626918958659
-0.02294694393088502
-0.06325693075615954
-0.03094606281630615
-0.1165643240615313
-0.03840742669072094
-0.0129625706316792
-0.01190803395810547
-0.02373770313235308
-0.03432824023959019
-0.01871068671717041
-0.04446117209094587
-0.0116056309130483
-0.06020496551754082
0.005505412415994609
-0.01765066045159962
0.02021998017211087
-0.01041705434241301
-0.0004771960788523698
-0.1159113015433399
-0.01279471955261595
-0.01178851138066997
-0.01157471612777457
-0.02925656948947894
-0.05082207267473632
-0.03414573740518568
-0.1816921992462209
-0.02385206272411168
-0.01989294358340936
-0.0480449735038849
-0.02287712104535075
0.0801106035810009
0.02147891111833684
-0.0821881409716486
-0.01438538537189586
-0.03601959862671977
0.04927114320119288
-0.01204240613412698
-0.02617479415501835
-0.02370253745242392
-0.08447443965718859
-0.02487738928850969
-0.04570695796528872
-0.01263539785820058
-0.02432523267979836
-0.01958367293928797
-0.04424809219915258
0.01492570323615864
-0.0957241890591697
-0.0899526929517898
-0.09393283597458825
-0.05382132461649172
-0.08173678080052708
-0.1543191729998246
-0.0525340424969846
-0.05211401660579009
-0.06761184527732962
-0.01133859295885366
-0.04443789943363514
-0.09060988586798206
-0.09441630710565301
-0.04248495530691447
-0.0265248756483563
-0.07722435607551102
-0.1317133618777152
-0.0175989083517487
-0.05943371431243508
-0.06960116987853854
-0.1190795216857527
-0.07560015742263804
-0.03141574836951943
-0.03084513092149823
-0.08135218137043557
-0.1043268274896821
-0.05681375798701505
-0.04212608339914831
-0.07767006421847018
-0.06988178887433795
-0.1033398987689225
-0.02853826884900748
-0.04424630691702483
-0.03025446546929231
-0.05103922427154706
-0.09452527220161934
-0.04164077296589724
-0.06002406342497813
-0.01734431561934623
-0.05461922033965246
-0.02904194423590912
-0.007920926830254558
-0.03003258153626143
-0.0272648421770196
0.0532167900828196
-0.00206083838375214
-0.01979402750517004
-0.0645546407046613
-0.02996673153675368
-0.01709135829162171
-0.01694079102530483
0.01304225417349932
-0.1461788439090418
0.01506182071698262
-0.01116672044051298
-0.01155727570977234
-0.04652305995346104
-0.05985054961227916
-0.03689140085012807
0.003939793948452484
0.00647831848898097
-0.01326970606936995
-0.09308524913720535
-0.04961892971255866
-0.04143026595779551
-0.02531308052975307
-0.07222919390491585
-0.01381363226779106
-0.1223731695257699
-0.01668111570044266
-0.06006422232266743
-0.01717517130935039
-0.05669357751648037
-0.2532022465354249
-0.05997192152386991
-0.09828626088151229
-0.09103626540337791
-0.09115378052705143
-0.04198214513786406
1.006022473138948
-0.09683873467279114
-0.04806010420219461
-0.09492248742871644
-0.04526834724624976
-0.04967100316436801
0.2355426494335352
-0.1103041969129355
-0.04884215580284418
-0.08971102357658411
-0.01830576906325616
0.02548127184275611
0.04078643100546255
-0.01708820100743236
-0.04890978277773571
-0.02268746728693149
-0.03120227402606258
-0.04503697466409375
-0.09667301928900478
-0.02012378873290745
-0.05552063726619715
-0.01451020475787906
-0.0464814305574271
-0.1592352338731275
-0.01876334202678669
-0.25724516126466
-0.01258401509170435
-0.01717034101938735
-0.03018173615081133
0.007364538633798783
-0.1015770293441977
-0.05494991569337277
-0.0306305648402149
-0.02273989574038147
-0.01697322665381308
-0.01375976916286932
-0.01596141308131116
-0.02328137851400935
-0.06161837381145711
-0.01137898420048353
0.01815725000645045
-0.01362817788886989
0.002145733118372112
-0.02575688480262393
0.04721819707899492
0.01822159114041499
0.009893935192748751
-0.06253388030864737
0.007432828258021111
-0.02303594981350503
-0.09228444163245275
0.03839162470822436
-0.02921498447383025
-0.02318953736925647
-0.0344302150466774
-0.01794997202737962
0.05303820301952022
-0.01333217447396204
-0.02388325042339445
0.02107146568184993
-0.02618844871795921
-0.06590251041397029
-0.0219687660336721
0.0241757484019366
-0.008138793964031344
-0.09964974568238197
0.024978573924048
-0.01509815208320317
-0.01890257713433695
-0.04653721596255211
-0.0237280560752701
0.02608406562438863
0.01166369548208088
-0.02378230991842183
-0.02195422354390926
-0.01836402985614826
0.07600067486169641
-0.02680231788777317
-0.0854658174673595
-0.01007876520419362
-0.01296386548121658
-0.01829651972766804
-0.08756248359360429
0.01500730954180264
-0.007445172406638098
0.005518957217321408
-0.027114439521774
-0.1092731893661652
-0.01414777258289912
-0.03914913876574937
0.01836041793442328
-0.1488042961167181
-0.01592091409773988
-0.03249074502605678
-1.212338352570124
-0.02336739330651769
-0.01661108755335059
-0.05777384638668246
-0.3616739661212495
-0.004858883408302169
0.005939658810827217
-0.05219385386300545
-0.008095622201514554
-0.01972708038955682
0.0683079411614745
-0.07848846160596439
-0.01531436605818283
-0.04258615827508611
-0.4776414752195821
-0.01725354300361706
0.02260792351411245
-0.1774893359840065
-0.004791321728184511
0.005249010000156796
-0.088829031464733
0.02799357702823706
-0.01384114249311942
-0.02671028050194724
-0.01692128031767766
-0.09364778659321803
0.01113333214727133
0.04414858673629802
-0.03611676359576568
-0.01998689726379641
-0.009192266430572624
-0.03113588948027387
-0.006314992440575898
-0.008843538763281557
-0.005712893283752281
0.07581763772077965
-0.05623909563126094
-0.08010493760715447
-0.02377468645897083
-0.02414041513032284
-0.01997612606704442
-0.02177461369816961
-0.05304950103933333
0.2133251636998715
-0.0547424731894913
-0.006971739650730171
-0.06607353969245129
-0.0686731684160282
0.09226557415477013
-0.09227657200807834
-0.02315402722368773
-0.02011068756499752
0.2024989090610558
-0.0691432082613123
-0.02255830652164868
-0.05135053329474232
-0.07883530004718345
0.286908835372317
-0.02375657551605728
-0.009605024233144235
-0.04037317826617479
-0.02054529572728191
-0.09587532709334093
-0.06195984268495834
-0.02337020799589539
-0.02125961200255426
-0.01276673689261425
-0.2185943266091777
-0.09613600250111587
-0.02074355838411786
-0.09408971867168635
-0.02022355903595524
-0.05310809885583472
-0.02087685823205361
-0.02995276747243859
-0.04041920392343441
-0.06616404318221181
-0.01772507967239101
0.06408809371423711
-0.1186893845653819
-0.02097354994344716
-0.02145772207537554
0.05132955755042849
-0.1303758019059389
-0.01480283380113336
0.03736719192009578
-0.02668738290809951
-0.04604704941783239
-0.0526195706103207
-0.1216101845055227
-0.1175738241994825
-0.05388686943896041
-0.03194156059992044
-0.08183948264354358
-0.02283263040416409
-0.01997923539571737
-0.04149236307400176
-0.00990224948038643
-0.036257322154707
-0.01481155149498233
-0.06299676495842726
-0.004968671053871033
-0.01905843644071549
-0.08744880223881171
-0.03813816301405142
-0.0458999480444395
-0.1191004146359731
-0.1713885995775374
-0.09119153041312392
-0.05771957881990887
-0.01654205159856185
0.01531410727947232
-0.1242015940881006
-0.02405800773977788
0.04397926166681722
-0.01909364266174736
0.06712018266401126
-0.09540172294743475
-0.01437348079768222
-0.03875655783807627
0.02654468995595757
0.002070193251115617
-0.02474504614433324
-0.079287309038159
-0.04649415527152198
-0.05436162741681431
-0.02192142107078771
-0.01884941966671324
-0.2961858740249129
-0.004168926289193313
-0.0211265626475623
0.01579512852649582
0.1569324967401763
-0.117257146931017
-0.1176259335933662
-0.007266390954611732
-0.01397098964809175
-0.2076474251900957
0.02000383920105734
-0.01830218015155102
-0.04322374871907958
-0.07536238698887213
0.02366630238335083
0.1042562788240434
0.007437920041734112
-0.09741324952291265
-0.1310811475976326
-0.05244754020443373
0.007959510519687346
0.1487094190670311
-0.01888716311069405
-0.02716038184602016
-0.04296051921825194
-0.01347586956242875
-0.01407866095008713
-0.02205929613562016
-0.02260942264064134
-0.06124499347287946
-0.01711723515759924
-0.01969071888470716
-0.02937681200633235
0.003690683672740472
-0.08163446700681405
0.006369529797016517
-0.02267950349271012
-0.04978894530505679
-0.006034104709945088
-0.02171156861686049
-0.04231105191822013
-0.009390174972718846
0.01890812962647338
-0.01422148378282193
-0.03143637203787464
-0.05777418475851627
0.02330809259853869
-0.08105272482293537
-0.02100080002800188
0.01181922515262702
-0.01224833288011921
-0.1114149572036577
-0.01749624556715573
0.06373274063045968
-0.0825727366092753
-0.05129573501782363
-0.009827571012775085
0.02758900562732776
-0.07047786585815355
-0.019034327039522
0.04965985921446001
0.04495540057441384
-0.05475055249173477
-0.09689968487350688
-0.07754022976134108
-0.0674430961033254
-0.07320481441079853
-0.07486980204594051
-0.07700399661447452
-0.01930713703764834
0.01182631638678938
-0.01557752849251376
-0.01579359603444913
-0.02369117154087692
-0.0187899925726948
-0.01765345899169858
0.01681946364830178
1.68523575685742e-05
-0.07559409438094163
-0.06189553645105561
-0.02363558118776264
-0.02322200456145672
-0.06403540213705325
-0.00365080697114228
-0.09293424143240571
-0.02319932188720304
0.0303912162241614
-0.01296603730801486
0.03922184173347184
-0.002039714852990394
-0.061469070718432
0.02032139487148727
-0.007084743440627887
-0.01533326029652578
0.01739170471826923
-0.023481919858836
-0.06241562590840014
-0.01342677646133711
-0.01697724913278771
-0.01142786924821114
-0.02380236780256679
-0.0186799103395206
-0.04829182150471422
-0.01716605926461776
0.009481653509965967
-0.01435367407112592
-0.04852546954041664
-0.03719232829904249
-0.07539255850333731
-0.1383104021817916
-0.02073850904331517
0.01187639305006037
0.02509981905808812
-0.03043211442022184
-0.06725734134593594
-0.01885556727179534
-0.03818447662668895
-0.03363065269525109
-0.02450572903599113
-0.1118757820454302
0.02274961049527677
-0.03110146774282719
-0.04420018569292344
-0.02285383253210359
-0.01613408970494492
-0.04193010849257126
-0.04289562694624008
-0.01750704247752605
0.02729876043707114
-0.0457487300572367
-0.02947748871589386
-0.02646768935009998
0.008579956083753301
-0.01661443679499035
-0.06004312791852504
0.008018710846901559
-0.01179531865900566
-0.0106269092565117
-0.03112767121376225
-0.3123630647127666
-0.01874333916955721
-0.03002525549235475
-0.02722449505215958
-0.01783283098747777
0.0115821613128215
-0.01840685763098484
-0.005584518350020032
0.05425672335423538
0.01774894983813255
-0.04225814231980188
-0.02041544454616463
-0.05252452688320526
-0.02186105321838172
-0.02254893115700407
-0.08954814042243311
-0.05169819019936812
-0.03544280270450467
-0.01225156706253572
0.004568634567514875
-0.03718856074085873
-0.03729803777127171
-0.0115465625060467
-0.04231230314471637
-0.01454658487868518
-0.02524032891359268
-0.01075717543475488
-0.02354045837085658
-0.1710249277799401
-0.01275651538867599
-0.1100289217580165
-0.01363501902044493
-0.05384542389285712
-0.01984716641562997
-0.05425104213130412
-0.01691831724240043
-0.05060959629016094
-0.03759954097415509
-0.1131445264091023
0.0310796311587479
-0.01123055895065039
-0.01508589901805394
-0.01800866660041529
0.1241726072644714
-0.02394277382189139
-0.02029394421438642
-0.01652678931217784
-0.01807140480014089
-0.03836446187868358
-0.0008621363716963412
-0.01320259512367391
0.01478639798364575
-0.01304505163516117
0.01226645361036108
-0.005517236028747833
4.73279447623807e-05
-0.02771056154837071
-0.009500230724283255
-0.03364709612278256
-0.01530263918016724
-0.03547932860932258
-0.03624674984154828
-0.1475050997668829
-0.1860271757794326
-0.0244588432826516
0.002728195783220818
0.1622783513921303
-0.1055339251388609
0.04961744603736171
-0.05379163196146147
-0.03376536615327447
0.06133558499690447
0.02351988484570492
-0.08365379263512965
0.04393875240560161
-0.05154406949005531
-0.01742625785268414
-0.01715637320937609
-0.01775091035595825
-0.02656428745302275
-0.03076041498918856
-0.01064348775828482
-0.01056133234832731
-0.02423058748646829
-0.02029669475700025
-0.06798293084869227
0.005703609062386969
-0.005794179669527428
-0.01293972930941647
-0.01933085300015669
-0.02177835774245591
-0.03825810801366662
-0.05872842544990292
-0.0201465107032941
-0.06555973522486511
0.005776970194284667
0.1516497855026077
-0.09734022874272789
-0.05436455315264208
-0.005079202497894832
-0.01573278264769719
-0.1610785119225893
0.2018854834099325
-0.04504127371932262
-0.0584524438167045
0.02399074753525024
-0.06396019195485608
-0.04327137968829937
-0.05438750922524165
-0.05325806302897023
-0.01819777601961299
-0.01779853893090289
-0.03121339143403691
0.06890185646221116
-0.02706693915086516
-0.06932670685703277
-0.02401880552060311
-0.05796081999250225
-0.08791692108632561
-0.04539436200298139
-0.01119490558419575
-0.05691919150812808
-0.04356944863780775
-0.08883322959492887
-0.08603093118553196
-0.08426056176971743
-0.01003391042816617
-0.02157031908319438
-0.02108028423637803
-0.004679360716814619
-0.1127175305870735
-0.01481926915764447
-0.02652417723572507
-0.01137289571151288
-0.01039810574333981
-0.02142025304848143
0.00157787634560627
-0.0214859381726754
-0.06511577412913183
-0.002114888922967828
-0.05458382212211044
-0.04944542017409007
-0.08120030705444584
-0.04947363744712718
-0.02409105157566076
-0.1355724260576205
-0.05654081762158344
-0.1004922304092955
-0.02271007675585801
0.01824364512872771
-0.03735165528268392
-0.06660469647213477
-0.05399481770998013
-0.05388215530493976
-0.04608274728461684
-0.0937713207684827
-0.07550591438901796
-0.01430391752158415
-0.0888438601381708
-0.00750070379427106
-0.01593827962945604
-0.09520748898738791
-0.05041990925996039
-0.01968606866211937
-0.0325106790526338
-0.02299746031606428
-0.01851830719774161
-0.01757212211089946
-0.04349368170250032
-0.00533386845502224
-0.02239684985266813
-0.1229485736277501
-0.02589430832374749
-0.008858139831284898
-0.04027017622157463
-0.01951442743776762
-0.01703222638799369
0.03580034696374835
-0.3781581061184983
-0.009938997788972904
-0.03544637983411686
-0.006649410724505241
-0.09121635740654346
-0.02269127512948646
-0.04723776377020641
-0.04892009159714923
-0.0156637564788776
-0.01527168426169205
-0.05106924544226365
-0.03104270132474499
-0.03622857963975654
-0.01558659823273121
-0.0288850934062391
-0.04796716668448067
-0.08376893829224148
-0.01680829094918795
-0.1291244648814503
-0.1592589028092785
-0.05501458877464727
-0.01224008965747858
-0.01476434992691026
-0.05735620732502111
-0.009556440318387536
-0.01679966906223009
-0.0215164384501417
-0.01768208140033532
-0.001293280199813712
-0.02131832484997273
-0.003449968032299037
-0.03018802747822139
-0.004537370952061897
-0.06783560657428243
-0.02143732417639603
-0.03896446265317059
-0.02013198506796005
-0.02931125345177144
-0.01165890865144404
0.07357179319817145
-0.005508497616416919
-0.01727927061940528
-0.01974331799631265
-0.04761205090517379
0.04194117892697408
-0.02178761696006728
0.03229445533927153
-0.1775064546133769
-0.01180465911338575
-0.02502073359182379
-0.01195434028859725
-0.0271914544603174
-0.0161088801769052
-0.1186059276092811
0.01993311441732042
-2.394320648768537e-05
0.0141522488126993
0.09048474701212743
0.01313633689601133
-0.3524301291749299
-0.08977029300528303
0.03822240896590588
-0.01448718781507431
-0.01304833717018039
0.2822678142550381
0.02158201173246108
-0.0270532835093005
-0.04996071820786613
-0.2381500415980391
-0.002705219455504357
0.01187050135750181
1.04619476826981
0.002455656074665634
-0.01978391092044536
-0.02240234833983796
-0.03697731763239209
-0.01985333288139433
-0.004183685908771766
-0.08002015851047668
-0.02161886611283403
-0.04378784125435196
-0.04977530888122297
-0.0335101840579744
-0.04652487050251104
-0.01586047927273365
-0.02308178098127713
0.01798889046043262
-0.02368120272868671
0.03095497366670623
0.04932386455455715
-0.02178035361388765
-0.02805951337590749
-0.01750965378072832
-0.01275744360049101
-0.02727709399837121
-0.01954700260068243
-0.02359452151608349
-0.02137004994553076
0.02911014851668156
-0.01180441182222054
0.1383425739750586
-0.2375938138732916
-0.06499858920048815
-0.2141170332776122
-0.009636819485753036
0.01476741751568494
-0.02220563351050026
-0.6888304591017369
0.0136444554520966
-0.01661191818033664
0.03088006981612761
-0.1290724292920992
0.03810964753090011
-0.01198084274596801
0.1006845866350832
-0.01545323944174651
-0.01662619467620174
-0.01697015543734739
0.005221210009847778
-0.04463235279415626
-0.01402995455904596
-0.03885172531956377
0.07617955050367504
-0.2550853862820278
-0.09036411166050649
-0.1671058987671356
-0.04688456232601575
0.004954194790463306
0.06881442471311519
0.03143443925208953
-0.02028023789753266
-0.02368753212732472
-0.07807185195261142
-0.01286406312971956
-0.1748166330214867
-0.05584474351034157
0.04144312314614108
-0.04473302502737971
0.1265422661154695
-0.02449184591333581
0.01684344036764666
0.04175436004946122
-0.04191932894330228
-0.002958584055236604
-0.03816882169523221
0.01371188175098943
-0.05036062132887034
-0.01140822172599528
0.008293680782780036
0.007925608486079129
-0.02341843166434582
-0.005597656627604581
0.0120305739728219
-0.01318953144848512
-0.01105667265229304
-0.06884749420457696
-0.01925781347782673
-0.01863879220722493
0.008224588736978943
0.4054859033881565
0.052171374998311
-0.2776267306026825
-0.03212424327093653
-0.003275206620288465
-0.01167734748473192
-0.01328321231075569
0.2839365417487834
-0.02662510425665767
-0.04887002599639393
0.01497866899108103
0.0028246926968929
0.02357036439057974
-0.02918434997800841
0.1164780704287913
-0.02200408458971363
0.02126468609522669
-0.01995746816009943
0.778235293343174
-0.2736489175146754
-0.01279075497227763
-0.03146061767962218
0.08415580338087372
-0.003415281820049362
0.1551815584881439
0.04746308961608206
-0.1277243186657501
-0.04747384873067097
-0.01811525800991354
-0.02326294653778579
-0.005789154787956518
0.2128884421397885
-0.1325716966542933
0.0396142032278822
-0.1638506030882903
-0.02550092491927607
-0.01490330864796543
0.1780045879888346
-0.1204655104126403
-0.01100404191330892
-0.02001973154023203
-0.0003888065025253441
0.01190213280195404
0.05223753257833774
0.003889787616751236
-0.003127752914158457
-0.006624015125016674
-0.05289070665339428
0.09614892157158461
0.2181214716398889
0.03982925182126265
-0.001132881924399622
0.03037706068553335
-0.006991469275411981
-0.02644660602873
-0.008992715458244862
-0.0160959022276021
-0.01666826898523013
-0.01855105171588724
-0.01643316701304871
-1.09058399326319
-0.003939406369155352
-0.0009613240281223713
-0.01908681054222505
-0.01392174362682061
-0.0250434946518887
0.03305061140664806
-0.04145380399185498
-0.09461901292542342
-0.02533013995686846
-0.01844060016265848
0.01432170213099403
-0.02974950905938218
0.1107349237122077
0.005109920050255746
-0.01900845999027245
0.0826270427713492
-0.0009686856956073583
-0.03401153287205463
-0.0189909846064844
0.03013075589060711
-0.02704582812795544
0.07846035446591769
0.003041534543949768
-0.02736701331304541
-0.02803994563677996
0.5308708227670197
0.1448644282258645
0.07099139030749964
0.1144208829608326
-0.0211956763082828
0.03122960478154894
0.05006959917394088
-0.06143248123531953
-0.1796069459957411
0.03285197117237284
0.08121041707180407
-0.01803628314365617
0.009992100048937665
0.06425112695571512
0.3411470758122302
-0.02011237561552914
-0.01760099406332155
-0.02483691497680326
0.1174527461068955
0.03354126009716336
-0.01887005882436448
0.03429827962766828
-0.01309815943513763
-0.1016357421558577
0.01951411654266818
0.002926179389066249
-0.01839600052612729
-0.01667271300233876
-0.1081647673029908
-0.02744882551105841
-0.003251621099877686
0.04470001878016736
-0.02337154594570867
-0.04424905853733494
-0.03066488149762044
0.007008477356532008
-0.1025596245655794
-0.009045832207578713
-0.01383580412702977
0.04499896402972526
0.04940683765671738
0.007594089223612892
0.07902141623581346
-0.06462381875725433
-0.07332276122868843
-0.1110413096172849
-0.009043689877794605
-0.02096405385583248
-0.0486539021873365
-0.03232304456264288
-0.02576670881115777
-0.04798159625267125
-0.02959465166955848
-0.02851841358639403
-0.1127522822455595
-0.01058239119062546
-0.01542799502948262
0.0691686727400017
-0.009441177155354153
0.01819965292471395
0.03205794496776743
-0.1014017367457398
-0.03502638934632073
-0.01181923296833428
-0.01755099071609776
-0.1133479605301295
-0.01138065524527516
-0.008117220329322803
-0.06669551292143887
-0.02485990054939151
-0.105372371732508