/*--------------------------------*- C++ -*----------------------------------*\
| =========                 |                                                 |
| \\      /  F ield         | OpenFOAM: The Open Source CFD Toolbox           |
|  \\    /   O peration     | Version:  v1906                                 |
|   \\  /    A nd           | Web:      www.OpenFOAM.com                      |
|    \\/     M anipulation  |                                                 |
\*---------------------------------------------------------------------------*/
FoamFile
{
    version     2.0;
    format      ascii;
    class       surfaceScalarField;
    location    "0.1";
    object      phi;
}
// * * * * * * * * * * * * * * * * * * * * * * * * * * * * * * * * * * * * * //

dimensions      [0 3 -1 0 0 0 0];
oriented        oriented;


internalField   nonuniform List<scalar> 
67248
(
0.005361357744100391
-0.003639732646528885
0.002131103524750608
-0.003852728622358115
45.46920763040195
-25.29163221360883
-17.23943810356262
-2.938137313230373
31.52602897821223
-83.05441640104043
257.8649582026188
-206.3365707797907
-0.003414000743619127
0.001999674231630006
0.001414421537606407
-9.502563893051298e-08
239.4518579636163
-280.6014860069233
122.7672647887676
-81.61763674546062
0.3657799259504396
-0.06928115200895159
-0.3993374600308175
0.1028386860892565
0.3317355536582562
-0.3245385793582109
0.5750851303578352
-0.5822821046581388
-178.8716727679303
178.871630560482
1.51139229866717
-0.708455923431392
-1.117867046161145
0.3149306709253152
-0.0002684884758933743
0.00128168401493945
-5.414832699455941e-09
-0.001013190124247975
-0.003266092593676072
0.001550454043544079
5.457495216521956e-05
0.001661063597944885
0.05814315762199667
-0.2119829596466059
0.1471162307250529
0.00672357129960627
30.82150002933754
2.349883882974303
6.54561108990475
-39.71699500221648
0.002192921726165527
-0.002187188969263926
-0.003419733500540578
0.001163723325850575
-0.00268977203419469
-2.478340287325599e-09
0.001526051186664981
0.01514888699132679
0.09989575486479162
-0.02689428996147553
-0.08815035189479888
0.001146770277051164
0.003983540476378525
-0.003712574125728964
-0.00141773662773636
3.461428831999709e-05
0.02559677165878102
-0.2532195561382783
0.2275881701911543
0.001135285292166944
-0.002451316609562507
0.002479754643226176
-1.53586230637579
0.0239306485221675
-0.05138010705770469
1.563311764911456
-0.1163869034924468
0.386314814993946
0.04796860360790583
-0.3178965151093298
-1.109974463649655
-0.00588880047566448
0.5615220710686624
0.554341193056806
0.1628322646146709
0.003378870365680072
0.004910416393031736
-0.1711215513733185
-0.6910732184685221
-0.008637847837656944
0.1394022055443609
0.5603088607618951
-0.1056867761124879
-0.02581287686480434
-0.07980648096993126
0.2113061339470671
-0.0009389651705772643
0.001567438379538571
-0.002476900516867284
0.001848427307877584
0.1703703954491633
-0.1810327678570673
0.1734946370226363
-0.321215287441494
-0.2521119456861583
0.321258656623102
0.2520685765046149
0.1192166277495061
0.08193883768259476
-0.213150892017507
0.0119954265853495
-0.2624943791711188
0.09511973042702758
-0.01168780457966932
0.1790624533237786
-0.7229552640212498
1.558352871258105
-3.905391398703632
3.069993791466847
-0.1482984749586472
0.01445058353522231
0.5352716314868819
-0.4014237400636125
0.001481120343008223
0.0006044618317311852
0.004136270455850475
-0.006221852630623644
-0.1025735309633599
0.1309147319611775
-0.07335865207737058
0.04501745107959931
-0.1462916024130588
0.01703676759802731
0.02668130385170466
-36.82091205531971
67.05589500642333
-68.06132828356415
37.82634533246043
109.2657035977933
-180.5910193943052
-303.4030587042711
374.7283745007831
-0.3062236739437526
0.2364147125420341
0.03605603381643919
0.03375292758537991
-0.000154955427975813
0.0002121058943514235
0.001035674090028453
-0.001092824556439805
-0.1683551771337727
-0.007139911450680372
0.12253082875818
0.05296425982611249
0.5148390946860673
0.002477716677880386
-0.7497789996157017
0.2324621882516432
-1.027475404787282
-1.368122042278172
1.38012775660742
1.015469690457663
-0.2685348495517227
-0.08564463575116937
0.1043457102402592
0.2498337750627277
-1.268257016664991
1.555790580159097
4.399552165960114
-4.687085729454283
-0.05247260196521536
0.4158953351698752
-0.4068216656275928
0.04339893242290969
-1.60580669011965e-05
-0.07199312962813305
-0.1965256618566425
0.004285101478308777
0.00931069596418369
0.002912431938857406
-0.01650822938139627
-0.01320803562809541
0.03044644030938974
0.1348305159326835
-0.1520689206139442
63.14146620036252
-37.85054981328724
-12.32322337675339
-12.96769301032206
-0.1668580322555993
-0.0956198275935724
-0.2316855990899619
0.494163458938977
0.08688905257697521
0.004850481737160186
-0.04897967689461891
-0.04275985741945993
-8.814799118118148e-05
0.003646737131766913
0.001802768603494494
123.1627698253088
57.30383623413794
-135.0007563993913
-45.46584966005535
0.09574261361325813
-0.1650361620499119
0.6308541166451587
-0.5615605682086354
-0.001457316314293187
0.003373237033348795
-0.003398184160461827
0.001482263441374558
65.03746090052725
-13.9317788605446
12.03578416037972
0.4947588851730001
-0.3956104381988605
-0.1275473881497808
0.02839894117582534
0.02663866384534653
-0.1843840574913611
0.0811008405868052
0.07664455305902751
-15.16255110800869
-6.877991081630071
0.549709294991286
21.49083289464712
0.002960048235057711
0.00238132922298783
-0.002127001661981612
-0.003214375796110572
-52.41209569050913
55.64920407252362
14.02221225534973
-17.25932063736482
-0.1521078535221243
0.01611337919780635
0.08296992091018834
0.05302455341408297
0.002474365278953831
-0.0009768549418484546
0.0008192556961492117
-0.002316766033287453
0.0002456481317089909
86.84735636947062
-86.84760201760224
-0.1869524654364388
-0.0335086886903813
0.1618714841851007
0.05858966994153925
0.05779661805255041
0.05851736020325563
-2.576058914715568e-05
-0.1162882176666167
-2.218998840338886
-1.477868733287087
1.010047910183029
2.686819663442722
0.002860496750661945
-0.002078129066071423
-0.0007827711352206349
4.034505834845264e-07
-0.2352347700813107
1.025299834016394
-0.965008553401724
0.1749434894666075
-0.02118296260862965
0.1548299592338953
-0.2098839325515826
0.07623693592617686
-139.3832095930161
71.98376075349358
91.93611320690749
-24.53666436738476
0.2516186367905568
-1.343280965283832
3.240157396530728
-2.148495068037259
0.002973777929755218
0.01130880460029912
-0.01295214610897783
-0.001330436421125655
-0.1101508950681731
0.113090522928521
0.05485699019224353
-0.5650366248199007
0.07375565629487961
-0.1657433785156794
0.657024347040527
-0.001083386743011407
-0.000491477930951977
-0.0005646540976230897
0.00213951877155142
-0.001187515136920852
0.00170046312173972
0.001050467014739528
-0.00156341499959318
-170.8527244870074
79.93115396879496
90.92163746797833
-63.92937377055954
-54.81209695204826
40.07020685629816
78.67126386630966
-8.363651480567229e-05
0.001102647456568924
-0.00266686995381377
0.001647859012017463
-0.3364545433371135
-0.3763583419949697
0.3846858915896822
0.3281269937421275
0.1154696837801939
-0.05693537120609948
-1.695237081068585e-05
-0.03963128113821244
0.1054093193386161
-0.09627304232730202
0.03049500412693987
-0.0003727178840536864
0.0009397565368783099
-0.0005098718168107682
-5.716683603322733e-05
0.1656428220386582
-0.008672856707546257
0.53572528709602
-0.6926952524270582
-80.06608146216804
-17.88205976143848
45.53604553309722
-0.0006362211332964006
-0.001599345663661593
0.0006532026579455828
0.001582364138984268
0.01007111746525116
0.0193824825860473
0.08601608372892386
-0.001439829763250675
0.004131118740442759
-0.002299477263121003
-0.0003918117141063492
0.002052736226142493
-0.0005969419174456672
-0.00196277571780338
0.0005069814090634754
0.01346422587489065
0.09446936012640351
0.003749839907870403
-0.1116834259090952
3.971122951789441
3.933453690537467
-0.855266219058782
-7.049310423267991
1.858568772035745
-2.132754165053905
4.24530834480778
0.002131316816736758
0.001634496818001807
-0.004704778805347954
0.316782016491526
-0.0840182185106319
0.1048107953278978
-0.3375745933087999
-0.03814036029435418
0.1194215964462536
0.002871659286900821
-0.08415289543888563
-0.01157761806937262
-0.009235045459827096
-0.1814559552839727
0.2022686188131476
0.1436207525701313
-0.1847890249772523
0.06519453259548873
-0.02402626018854472
0.2367932419233864
-0.02218896132419747
0.2317646174655101
-0.4463688980646349
0.0004917689025596685
0.101598078272795
-0.1070470506312441
0.004957203455951265
0.03912506180643434
0.2315521233906387
-0.2572129593220921
-0.7415233295950074
0.2267067391571544
1.33398509431357
-0.8191685038755649
0.002345157932052407
-3.604378944948935e-06
-0.003985951882832335
0.001644398329699433
0.001981112079142092
-0.00120139770743478
-0.00250445516693046
0.001724740795194494
0.00243792121833266
0.0006768584711623882
-0.0006404144105838023
-0.02663316607255747
-0.02961758108621245
0.1507201072852209
0.001469150851901267
-0.002559895764079747
-0.0005816093851279348
0.001672354297286409
0.257454486946455
-0.2639220075738511
-0.08926921690114005
0.09573673752859363
0.0003809553593121608
-0.002177897101101756
-0.001106069526604111
-0.7727538921802416
-0.9133924519811086
1.687252413687886
0.003255018562480661
-0.00242234705580271
0.0005228125621766425
-0.001355484068894052
-0.1135240512576032
0.005969024957976952
0.108046795202234
5.812112945463558e-05
0.0009719768421552763
-0.002496663236560792
0.001466565264925842
-0.002728713289713987
0.00286640894860799
-0.00426082941411811
0.004123133755199325
-0.5827367727571635
2.636732703539521
-2.053995930782258
0.004166440764539689
-0.003313568310623933
0.001492285478112275
-0.2799045428110467
-0.4650698883953771
0.7049861546720477
0.03998827653416986
-22.0774748356146
119.3384393286099
60.99882455710715
-158.2597890501026
0.1889995268594405
-23.5255522266199
24.4438151191282
-1.107262419367767
0.08512235401488089
0.1877642490774173
-0.1069962846755276
-0.1658903184167087
0.1993378324839869
-0.7078350889352847
1.507604238070767
-0.9991069816193322
0.003095845722876649
-0.0005874728576962012
0.001658067899345019
-0.00234349847169445
0.01213031515564386
0.008992499476626252
-0.01877931616064206
0.1456784938728701
-0.08935883813696312
-0.02325148919043359
-0.03306816654545217
-65.16844147892718
-26.21211993743208
-74.52659169846288
165.9071531148221
-0.1453513389643436
0.08418498023287052
0.152377575899797
-0.09121121716839273
0.01356403621725005
-0.01352827282393161
-0.2697775533667736
0.2697417899734018
0.07137758153742317
-0.3054187361356313
-0.06079749368072596
0.2948386482789034
0.1768519308377984
-0.07576274651864862
-0.01596683030422569
7.213065287248456
-6.875746728068203
-1.509635191320073
1.172316632140143
0.001180537021307965
-0.002809877423857011
0.001687461531984314
-0.2142644093602048
0.0686830986551602
0.12439834809625
0.6377891850175255
-1.159388518932747
-2.046439668490664
2.568039002405334
-0.1404249916386885
0.001070996959274751
-0.2659044198755512
0.4052584145548466
28.32179784911162
-14.14552693184372
-8.708536013313964
-5.467734903953923
0.1515360400459146
-0.1278857820556316
-0.2005480081455384
0.1768977501549862
0.005041369647001332
-0.003894830371768313
2.310017935351997e-07
0.01789499693593481
-0.2499927077409896
0.4204056266548821
-0.1883079158499504
1.155449212411752
1.070944541142742
-1.437423851166325
-0.7889699023879455
0.02982966740553054
0.1120811405017091
-0.01795020500632128
-0.1239606029010284
0.2416035126250573
-0.076815775575145
-0.1346622529027905
-0.03012548414729613
0.1530828177323357
0.06419616034026221
-0.007384399271391845
-0.2098945788013092
0.003204404055829579
0.004401394089751922
-0.004514565577610147
-0.003091232568001429
0.2694635151530398
-0.4563057238202205
0.8701483100546206
-0.6833061013876622
0.1505080463987766
0.1469848164099965
-0.04526896845402301
-0.2522238943547898
1.224952135439806
1.253651829487658
1.122114032371144
-3.600717997298748
-60.72281107439024
-11.83117750924253
150.8885441094077
-78.33455552577479
-1.076186019346805
0.3232381136066838
-2.103977770074834
2.85692567581531
0.04920179406124688
0.07368980294456935
-0.1949558780187164
0.07206428101286649
-0.003167880300109364
5.379077034916796e-05
0.004539514162751015
-0.001425424633015788
-11.28492815309291
4.436952426903486
6.478625276399001
0.3693504497905459
0.04633389030590173
0.3977250064084991
-0.3851668744199754
-0.05889202229435812
1.798936519124894e-07
-0.0002961902468410871
0.00636507728254902
-0.006069066929392123
-0.06214392798590503
0.4687210107898335
-0.02342397323532998
-0.383153109568547
-6.627541887822392
6.415631790476807
-0.7375408980469653
0.9494509953931538
-27.94709454928055
182.2235104892432
32.02032354432736
-186.29673948429
9.204406968512918
0.1066972232034654
-7.241909419838355
-2.069194771877617
-0.142597343368635
0.6457341046173527
-0.7048526315976374
0.2017158703491281
-0.5659082292514216
-7.111127293674497
7.333281626734142
0.3437538961916832
0.0001500521935662383
-0.004542114445487924
0.001663348962184778
0.03114648184355301
-0.348242832827438
0.09111435978538299
0.2259819911981104
0.4245265180134556
0.2641790869012616
-0.07515657447935638
-0.6135490304353647
-0.001126706870273686
0.00166265682905668
0.2279334025552792
0.3063507331657122
0.005857677025283102
-0.5401418127463934
-1.824769571329378e-05
0.08213892083924267
-0.09033100082206129
0.008210327678569065
-0.2441803079933045
-0.182309207743813
-0.0732305466965059
0.4997200624335768
0.0005205847968985521
0.001462608496286435
0.002341602987642473
-0.0005603370600900862
0.0002897686136806906
-0.00207103454130354
1.018982335265002
-5.993312830829367
3.02080600234583
1.953524493218435
0.2832479241782484
0.07177173345069683
-0.03823764113741833
0.7186264459034852
-0.8627889175283449
-0.6030072499032797
0.7471697215278128
0.0008760654087362508
-0.0009646672900050945
0.001179888650577805
-0.001091286769347864
-0.2028339316114989
0.2491324751013692
-0.04379921233160051
-0.002499331158497285
0.0579723175427705
-0.1044853392910652
0.03812042686876198
0.008392594879394666
0.1384395530616127
0.0679281412064108
0.07967605218457541
-0.2860437464525029
-0.1534625833361807
0.01207734211942687
0.09433985861413616
0.04704538260246558
-0.4417742710783784
-0.04005085064220251
0.3623065880858263
0.1195185336345294
0.8746305464574257
-1.099931382933334
-0.08712196712913993
0.3124228036050746
0.2002426776071613
0.1131569910521945
-0.1968187652495738
-0.1165809034099468
0.351675716402843
-0.1456940241648437
-0.2060858436067205
0.000104151368545138
0.1986042864443347
3.661597628044738e-05
-0.2446168746474042
0.04597597222668878
-57.19135369351787
-70.59083586461304
-30.27079674761697
-60.48770335038709
28.63586333612287
63.51884970628616
-31.66700969202204
0.1350841095371403
0.1270169426299928
0.1457920563345155
-0.4078931085018601
0.1524265201506312
-0.003212489617743759
-0.005607723435553815
-0.1436063070974984
0.09226091032657835
6.135084309922582e-05
-0.3331441770618428
0.2408219158921214
-0.1385393357729688
0.5647870383502438
-0.08859771841930655
-0.3376499841582482
-0.006544668407951973
-0.3985436957721567
-0.1453806725943858
0.5504690367745673
-0.1412879647493444
0.01857604801804204
0.06362956882371466
0.05908234790764069
-9.874605470673746
-17.14254975891325
35.32034488462499
-8.303189655038301
0.1217002909445001
-0.2887265809931414
0.1624399535452339
0.004586336503131408
0.3646070480083511
-0.03774319297997194
-0.3560074087815039
0.02914355375325798
0.09892616423537805
0.03578032213001988
0.04377560691279925
-0.1784820932781333
0.007911368095794931
0.04753963096587419
-0.1253353460476308
0.06988434698600361
0.1041786571113821
-0.1746492434246152
0.07838195440908277
0.0004888997780441898
0.000148760523535963
-0.001825175438539536
0.09524373442396426
0.05122206077731244
-0.1075847482106126
-0.006686318469830573
-0.007223013416522444
0.1214940800967596
-169.4312115236846
169.4310909529229
-0.003630615331250056
-0.004519968407470817
0.002360551264525251
0.005790032474166299
-0.2106744670496156
1.031030572052054
-0.3091054625684272
-0.5112506424343707
0.02080640237275092
-1.121863778772713
1.010752556001469
0.09030482039846155
-0.00148830657181292
-0.002691789927362128
0.001489315585814148
0.002690780913342817
-0.001222086721218805
-0.0008814833002410791
0.001730852137388117
-0.3636285228789718
0.4955158466316117
-0.1856862097814813
0.05379888602869028
0.1550433682854906
0.3912000395717031
0.2375958794490443
-0.7838392873061313
0.01005600854544236
0.02206699935107297
-0.04865005723230659
0.01652704933563325
-0.001165741473808359
-0.002981702728970822
0.001222540533357822
0.002924903669386608
-0.1892526615204327
0.2533082370098403
-0.1029987152094159
0.03894313972012558
0.1462342197054875
-0.03588106771652288
-0.04525541230656176
-0.0650977396825671
-25.68865544960359
27.74497107276689
-11.93092109383714
-0.1390482339972689
6.0989377297368e-06
0.2207911010474972
-0.0817489659878838
0.1509499481682647
-0.3065925025369831
0.08164355206935034
0.07399900229944213
0.7544041804755569
0.06066043802431097
0.3876984911449972
-1.202763109645023
105.0376436938973
146.2645248141515
-127.1702809053584
-124.1318876026904
0.2888398398450845
-0.3516871910310535
0.2178907194715132
0.0508540703001461
0.005775674460430329
-0.3116140530260682
0.254984308265654
0.08172713090512963
0.1433720632030797
-0.4348535127162342
0.2097543186081159
0.0008546505341834043
3.137477781953833e-07
0.001486638705668905
0.1118416593143018
-0.1344438078316786
-0.05304240190239084
0.07564455041967666
-7.106109239617298
-30.6970912980911
-131.1916691751833
168.9948697128917
1.676212884436704
-0.6309946838031493
-1.045218200633431
7.305175344382609
4.953305896400511
-3.517259114998738
-8.741222125784407
-7.95884706238352e-07
0.07560635580304916
-0.113092170685497
0.03748661076713709
0.2010634362371381
0.1811600981777964
0.001214568832351726
-0.3834381032473826
1.653177550621014e-06
0.08150364792447928
-0.02392590295978147
-0.05757939814228338
0.4898633041806411
-0.3310666779863677
-0.07688339925557167
-0.08191322693899192
0.002535900172384767
-0.0005146787862492738
0.0003708684911949701
-0.002392089877384454
-0.0154199545017986
-0.1963736729334714
0.1978500972297666
0.01394353020533895
-0.4100850385558835
0.5902304766759429
-0.08859441073759017
-0.09155102738231671
9.41798653571162
13.39462561667024
-9.64460677092182
-13.16800538145975
0.1424043674865548
-0.03298437885529101
-0.01880616479763545
-0.09061382383365907
0.0008955223928532074
0.001458762310643683
-0.04138759648098731
0.04977871943932383
-0.0940981189805381
0.08570699602215576
0.01165451679274451
-0.14378231504702
0.08208732152902422
0.05004047672510323
-0.002185360900479542
0.0006768203519440928
0.005374642095569676
-0.003866101547070986
-0.07586681447136821
0.01305203462075512
-0.1660475812275365
0.2288623610780989
-217.9120201252584
-87.41001222774273
305.3220493544003
0.01339431378071079
-0.06019724324850311
0.09583881671396412
-0.04903588724618337
-0.2743838960806081
0.1877667877240227
0.02589923311824211
0.06071787523845074
-0.1375695426797888
0.1105251275585557
0.2038963459591046
-0.0001136024291911898
0.002089165541474676
-0.1639996747413408
0.05207910490179183
0.183923101720232
-0.07200253188072385
-0.6441610016790428
-0.08645701786324723
0.3184132822616105
0.4122047372803836
-0.0199494893861217
0.03612630405475533
0.02029610832676422
-0.03647292299552481
-0.004820925540349647
0.009079822563735141
9.162165280876087e-05
-0.004350518676228246
-46.46956013064421
-172.6448044658287
-8.029628145991174
-23.48843883555564
24.48090263778805
7.037164343759029
-0.003404297266187269
-0.004458533182759693
0.003322958126764239
0.004539872322155344
34.76826287163158
189.7404637361632
-224.5087268580267
-0.08739621533707673
-0.1524702738756665
-0.1578188853859108
-0.1166930398077024
-0.01712970854121446
0.2916416337349325
-0.2041153867611814
0.0158122848249534
0.13969235134582
0.0486107505903707
0.9239223400963833
-2.17617032266553
0.7786567842982217
0.4735911982709898
-2.611677378379004
1.709552275173915
0.7098945677675704
0.1922305354375904
-0.03732456741340467
0.1845468519159756
-0.1365550448459715
-0.01066723965653908
0.00456947243779111
-0.003136539398055034
-0.004600813339868795
-0.002305425012350163
0.0008092438590206151
0.001496458141530064
-2.769882275405558e-07
0.2519786700789657
-0.2456198550459677
0.03516332422032099
-0.04152213925324853
0.0008236900724574025
0.001678006803555661
0.2863140612044434
-0.1622335955280723
-0.2631286996735881
-0.002389790328638521
0.0009628478574450745
0.001426972455676994
-2.998451239880789e-08
-0.8000481528681308
0.5829213320685888
0.2875396950292908
-0.07041287422975359
2.917072973010928
-2.1045779985112
3.598517795013901
-4.411012769514067
0.00540910237660193
-0.172135433412759
1.341597919051035
-1.174871588015019
0.02612567366840933
-0.04036855664125771
-0.008342356872773448
0.02258523984553375
-0.02947357742135174
0.01220773262756755
0.005692856181499551
0.01157298861222492
0.06334665798947664
0.3496563624231646
-0.3504341208663082
-0.0625688995463856
-0.02923800295922091
0.04002595896382906
-0.01917785589851773
0.008389899893790298
-4.60901455281047e-06
-0.02368477526477171
-0.1047511646725946
0.1284405489518464
-0.3066357390336406
0.2155306022775861
-0.4781453044714519
0.5692504412276165
0.001636813088932286
2.592918666420891e-07
-0.06521830893447408
0.002653253470838861
0.0365527762492238
0.02601227921427637
0.004589382990014912
-0.003594244765991399
0.0002987877915650339
-0.001293926015622894
0.3546071292813022
-0.5642852297072488
0.2116039626410992
-0.001925862215088445
-195.5600901653889
304.8257937631824
-0.001401761909217453
0.005123776350493297
-0.005445635790734652
0.001723621349421493
5.490008859159413e-05
0.001303838814229393
-0.003031541849080153
0.001672802946234764
8.517730770724766
94.63446258004065
-4.5276242470263
-98.62456910373891
142.29131589351
71.45294932008142
-213.7442511255654
0.01847659020846124
-0.03619116638838107
0.00432827411101912
0.01338630206875468
0.2020654223940391
0.3603187228279923
-0.5541728063900896
-0.008211338832164046
-0.09536666226989388
-0.04401177401619698
-0.1247976068416074
0.2641760431277922
0.001233693721591063
-0.002700385855825153
-0.001223079899972418
0.2917231342999368
0.01827767578180975
-0.02116097023661037
0.06623260872883047
0.03595152906744198
-0.04421182025355253
-0.03680157211141822
0.2599939385725305
-0.0149385765018235
-0.2082537899594879
25.59072480951265
144.4659471338653
-93.19049918528121
-76.86617275809658
-0.00510113133495946
0.001268558593043792
0.01157529399010496
-0.007742721248225341
-0.005699368977784849
0.01047330860900942
-0.008680712318675482
0.003906772687371095
4.199471888032313e-05
-0.03269272847224304
-0.1474537823154649
0.1801045160688095
0.09920705185174014
-0.1205666504758862
0.03497738545091334
-0.01361778682672569
0.114014477218671
-0.01206863090130466
5.542934686112424e-07
-0.1019464006109055
0.00424945435582467
0.002947227450084998
-0.002958815397352366
-0.004237866408583647
-0.01458568231053349
-0.0005010103131580839
0.0004955950082994224
0.01459109761511477
0.334129103516866
-0.1336550339867913
0.2481084023095293
-0.4485824718397633
0.1969714512928666
-0.05187174231757004
0.06702054605334581
-0.2121202550288557
0.001211447613886037
-0.002717333944037518
0.001505918270906085
-3.194077939627094e-08
-38.2289036860422
-113.6526076672491
-13.53083636577623
165.4123477190676
-0.01989508670569812
0.06839732782560447
-0.04850224111995957
-0.00736508485120415
-0.1086391690922773
0.1185455122805456
-0.002541258337019959
-4.864471875638919
2.358456437518718
-15.18735238788363
17.69336782600333
-35.0026832347727
151.5633204336727
-11.52299350500265
-0.2765955353587202
0.003322301305857351
0.2781465131043922
-0.004873279051487236
0.4106936571545692
-0.4289393225058928
-0.07821813593428252
0.09646380128565706
0.692633359857922
-0.7860993150222706
0.07450081847946785
0.01896513668492726
0.04447644640210884
1.009981552821409
-1.064468495016321
0.01001049579288482
-2.475412240907663
-21.8556352206688
2.327660199671715
22.0033872619049
0.0631641037548564
-0.01074752728542688
-0.09703703769674378
0.04462046122718645
220.2676720443002
-196.8747336014741
-3.484854421425527
-19.90808402140014
-212.9379357088714
-135.0824320259054
158.3787201128907
189.6416476218861
-0.002220204525667881
0.001878004776454846
0.0001872443211423991
1.191263785736779
-0.9674450580019135
-1.182077321219433
0.9582585934844503
1.096951288509259
-0.502780959019576
-0.9915764854091409
0.3974061559195521
287.3400888789096
-276.4061441721984
53.36014115300132
-64.29408585971242
114.5720695790663
-313.7321074413045
60.78745333802546
138.3725845242129
0.002308824594324144
-0.001173525920486107
-1.338168500553372e-08
0.001149916817563862
-0.001624909523962277
-0.001093612036823816
-0.0001078234986309916
-0.0004476766190671525
0.001649112154489625
-11.89617257412568
-26.29844835522359
-53.80533233854587
91.99995326789517
0.07554783579201171
-0.338405417983402
0.007600029407262992
0.2552575527841148
1.378576604964032
-1.5549999865943
0.005809929006057395
0.1706134526244183
-128.6874100145541
-60.74791022153241
-49.36165184911342
0.1331757826843759
-0.1608317394222125
-0.1075635990916301
0.1352195558295281
-0.001785300761362861
-0.001189549411060336
0.002974903787887149
-5.361549232236494e-08
0.002925630143697699
-0.004980059426312465
0.001466956424894879
0.1230331737349041
0.3556453384703261
-0.1014797965957492
-0.3771987156093885
29.41759934867355
-25.88227480541768
-2.151856681606148
-1.383467861649857
-8.338524092581119
-1.724750673112573
-2.690902289509015
12.75417705520291
-0.04014390378187734
2.006887319400909
-1.424434546848137
-0.5423088687707309
0.1447351609667744
-0.5725722449471117
-0.1908601715399867
0.6186972555199579
-0.8861997816681857
-19.06329241008554
20.13849171861312
0.1582103376284781
-0.5925980979436943
0.6000113607185603
-0.16562360040332
-0.002120048826210368
-0.0009253336412644026
0.001951770430597453
-0.07549584229189314
-0.7245523105762803
0.0005559817053753669
-0.002789632960791063
-0.2471500970417113
0.2274543275639944
-0.001809484784960659
0.02150525426265073
0.326570062188124
-0.5283399180960897
-0.08570588093953803
0.2874757368473951
-149.3809942706577
-217.2755797031798
-12.91961419114685
379.5761881649843
-0.2115158771203039
0.1497407874453717
-0.005300155912793485
0.06707524558764245
0.07068570678970411
0.05006938419492241
-0.1244812012170256
0.003726110232420244
-0.1541052987219022
-2.552358140861866
1.537534592629658
1.168928846954206
0.0003652482478810243
-0.002259912753959756
0.002450646211419116
-0.1249507618481061
0.08183645305279351
-0.06806917606083832
0.1111834848562136
0.06478167931861571
0.6732791188034601
-0.1756297909916336
-0.5624310071304719
0.6130516308178834
0.06446364764710069
-0.1937706761360471
-0.483744602329003
0.07442856126606184
-0.05119671937308596
0.09003765336764831
-0.1132694952607182
0.003646861587050957
-0.00362464403255515
0.001458902788494125
1.098298220093143
-0.1373859309569612
-0.9555031867596376
0.003569862700286683
-0.001188209654091962
-3.238232581744863e-07
1.269155819302975
-0.01572892827638166
-1.095216553397957
-1.49576164293227
0.8308384913631001
4.598376842106842
0.002180626980164696
-2.553940094011025e-07
0.001466490000868275
0.2079465281863205
-0.05640025940647486
-0.1515462687799169
-0.5503113155927057
-0.4455603515002021
0.3760765034912062
0.6197951636017757
0.4863004797696696
-0.218851217685025
0.2296507366229285
-0.4970999987074134
0.08832826979337116
-0.04887662150196717
-0.08425648428289018
0.04480483599154126
0.4670142115213534
-0.07338888200800604
-0.3936253295133413
0.002481480179773318
-0.001255480127082377
-4.211218828867185e-08
-0.001225957940534087
0.1479854433461108
0.1589434263019514
-0.2362431628583267
-174.0402249840589
48.38038835230179
125.6597322998857
25.68976255150762
-42.71921521586347
-34.6653992739422
51.69485193829809
0.001063666693287817
-0.004908975294963633
-1.821215144292277e-05
0.003213847184615767
0.001713340261762655
-0.1242630076718296
0.3513046787674005
0.002363198748602415
-0.2294048698441112
-8.057295564602512
10.492162144862
2.601368283583803
-5.03623486384265
-0.07710591213787585
-0.1340248553108605
0.09227516529534791
0.1188556021534342
-0.000521982648170422
-0.001713103198635387
0.0005301741032531671
0.00170491174350811
-0.1255201658467276
-0.1444512045702681
0.2617548311079677
0.00821653930907743
-7.414321101756387
3.790937190137846
0.8165893492402316
2.806794562378243
-0.0330417261498987
0.2760665347774711
-0.09503936528143167
0.00419050400803072
0.0001115281155112006
-0.001435623174953412
-0.5209476822485193
-0.05560438917900661
0.2694709102759986
0.3070811611516882
-0.4423332987225777
0.7531092888657357
-0.1988893572459554
-0.1118866328970865
-24.29025916890972
208.3166428460011
35.17637484718779
-219.2027585242791
0.003534260831402953
0.002395098737669376
-0.003599851890121959
-0.002329507678979642
-9.691007593047274
-80.85319848398797
-0.8009237365259841
91.34512981356136
-0.07021672214956801
0.1055986506189631
-0.1517072916146953
0.116325363145157
0.2870282202233772
-0.1176737900571466
0.2411828947306094
-0.4105373248967894
0.7133455436700828
0.1705643985433123
-1.057604063605314
0.1736941213920908
143.8211140827311
-83.51888655347334
-199.6854371222738
0.00031015559425832
0.001352405278273624
-0.0003696770222388552
-0.001292883850313524
-0.3554467812417745
0.1414404129081433
-0.9298000229300958
1.143806391263306
-0.08848852514218991
-0.05083129417666756
-0.01084292304248818
0.1501627423613455
0.0836841029398326
0.1331856319811634
-0.1027072330629709
-0.1141625018581081
0.09583275417597797
0.2738287859403697
-1.107105486745883
0.737443946628825
0.9868281898585715
0.5300057587884943
-0.2476781293439531
31.47484833970346
9.758388271676969
-3.289743959933111
-37.94349265144742
-0.3612328520451915
-0.4882462993384991
0.4487851145110295
0.400694036872537
-0.03729658784820675
0.04312844753115815
-0.03217938345857461
0.02634752377552022
-0.0001817847035025595
0.002057494908564602