/*--------------------------------*- C++ -*----------------------------------*\
| =========                 |                                                 |
| \\      /  F ield         | OpenFOAM: The Open Source CFD Toolbox           |
|  \\    /   O peration     | Version:  v1906                                 |
|   \\  /    A nd           | Web:      www.OpenFOAM.com                      |
|    \\/     M anipulation  |                                                 |
\*---------------------------------------------------------------------------*/
FoamFile
{
    version     2.0;
    format      ascii;
    class       surfaceScalarField;
    location    "1.1";
    object      phi;
}
// * * * * * * * * * * * * * * * * * * * * * * * * * * * * * * * * * * * * * //

dimensions      [0 3 -1 0 0 0 0];
oriented        oriented;


internalField   nonuniform List<scalar> 
37503
(
-7.329844343197536
-11.00479746672483
26.09637569383646
-7.7617338840561
-10.83753989517382
4.569850888322579
16.77036736391531
0.01680699281491427
-0.7047868945713892
0.8314424062960282
-0.1434625045376705
-0.1043176410487447
0.1296528306927708
-0.003387495544209599
-0.02194769409035524
12.38378044329534
7.201925313563178
0.6021836827554142
-0.02175441743656705
-0.08412742098606574
-0.4963018443207122
0.08351895922654225
-1.613312988218928
1.57746651516504
-0.0476724861292942
-0.6053523938412007
14.47517304665926
-13.86982065284943
-7.733978321815697
-5.768475617626155
-7.824849051435711
21.32730299077297
1.795982002043526
-3.131267939611236
1.484181947936369
-0.1488960103306679
1.481827616873234
0.1881743967191573
0.4006486712648639
-2.070650684879452
1.711423846641425
2.123871305413704
-2.718320295920253
-1.116974856223213
-0.03080778184614877
0.005146107267831292
-0.02535079733361239
0.05101247192506651
1.079187606653743
-3.557989706296179
-1.021666223040309
3.500468322531733
-0.8890691166124938
1.971502062023529
-2.781041782090701
1.69860883658865
4.274660198624284
10.56181250404133
4.562693459204673
-0.01263116862687292
-0.1592739488267997
0.1436498992941483
0.02825521818278304
2.092017009091969
-4.639495074885233
-1.987998883259554
4.535476948929186
-0.3718251767867345
-1.296945656274564
-16.88194720551551
13.00022170855786
18.02796328087312
-6.614872517729453
14.14978661962892
-8.113255087197945
6.929197329422402
-8.08110248456269
9.265160242289642
20.06058533935441
-25.69671856313436
12.02847949989711
-0.05648298114802459
0.4611958250577076
0.03443640035223573
-0.4391492442532421
-0.4540956481846678
-2.191646898049552
3.724930152800921
1.396853627823692
-2.672146572671001
0.3862238281688966
-1.437935208293242
1.919464380936222
2.208720331995428
-2.69024950475315
-9.666625630790513
-9.568706567468588
0.2488296781097415
-0.2713686828167146
-0.0291503481557511
0.05168935289406763
-2.315374985248836
0.4688091255487388
13.10538850588322
-16.1906057325604
-23.76871303115719
26.85393025794719
-0.1499344737614102
0.1281044913935002
0.07678587230883618
-0.05495588992406603
5.860583927169281
4.126553607708122
-18.95457994717774
-1.552827100625585
-0.9975827689074757
2.096314221235265
0.2357842189885939
-0.0267660072873347
0.1997229796832598
-0.4087411913573548
1.329078035163646
-1.1735840709318
0.5122001200421998
-2.063417269373738
2.724801220168318
21.4323368733426
5.09122882370637
-4.45369187146036
-22.06987382571113
0.05714455076094905
-0.3142169787478458
0.11266614045768
0.1444062875635965
0.3049785891072045
-0.5926386670146648
-2.175369538171905
2.463029616138041
-0.04344808160720303
-0.2240263593818628
0.3823455648979065
-0.1148711238908009
-0.05856451827793065
-0.0480047428487194
-0.007349035653354865
0.1139182967928559
-0.4954704040566658
0.449937192446655
0.2980432309769377
-0.2525100193405831
-0.09756983203705064
-0.3035958066987378
0.5419451063678582
-0.140779467586773
3.781558880967122
-2.538165949936548
2.483484626717987
-3.726877557750413
-0.1301367186467666
0.0282570683201449
0.01984801741189796
0.08203163292922863
-0.04412306123909833
-0.08371395296190737
0.03395484931246309
0.09388216490941501
-0.02497933144322363
0.1158348923344899
-0.1413517335913097
0.05049617271295652
1.96087958213883
-0.9861044214056119
-0.2414678743762861
-0.7333072863418709
-0.6637913128296565
0.1825128661935301
0.3257198832892365
0.1555585634104579
8.772688881239333
21.05036160333509
-27.27553061666038
-2.547519867922095
-1.254407026160633
-0.08286354338901367
-1.38104972641192
0.4451472119085155
-0.1274562585675267
0.0961659176672332
-0.4138568709948835
0.8195255598072716
-2.181234371317627
-0.9536661738007397
-0.2116015806455734
1.514881188802459
-2.093671085767646
0.790391477661895
-0.1583354980345998
0.2144478777051057
0.006067384609434416
-0.06217976426188541
-0.2339115639042237
0.1235869899227538
0.1691301270300836
-0.05880555302943485
-0.901415608554144
-0.526808761706189
3.163221614401965
-0.04765905191701775
0.3265993220187041
-0.3198673846936022
0.04092711462466795
-0.004486995279721153
-0.1066591311886217
-0.02738651372654909
0.1385326402188673
-0.01021058377773765
0.06029412713497671
-0.08609220856862343
0.03600866522489281
0.005040638269516967
-0.1335705837820525
0.120848274630893
0.007681670902419932
-0.06851584250170799
0.07068596204000045
-0.03497928032614797
0.03280916079639454
-0.2380863354327077
-0.2313304561107804
0.4616336511989853
0.007783140378407274
-0.1050454506677004
0.05904779394854805
0.02448199142561721
0.02151566530772757
-0.1072471396781383
-0.0006357072212226074
0.09330997766785776
0.01457286924515745
-1.936819862065604
-1.154189376997023
0.05862417434989869
3.032385064581428
-20.02906927771218
19.42508247184185
0.6039868058515568
-0.1677935915396034
0.05011940565617006
0.0967677904543103
0.02090639544874215
17.87838757081401
-14.71968729683592
-15.20148857814781
12.04278830404651
0.0893238659475516
0.02357813858773783
-0.08551573934712721
-0.02738626516262173
-0.1530898474477627
-0.4912928409911941
0.4370344091429169
0.2073482793224359
0.1227902609431742
-0.5823124748684887
0.4869287247670036
-0.02740651077755039
0.1502002969180569
-0.08384486940962101
-0.1010038711942533
0.03464844370803954
0.1964442795273618
-0.2215805971185155
-0.1551460684492748
0.1802823860711985
-0.05810809153037137
0.1459928053585367
0.1800627004466887
-0.2679474142537491
0.8445567305306505
0.6110995143693695
-2.190016864793168
0.734360619923228
-0.01346612813578767
0.123297437314938
-0.05071760122561953
-0.05911370793520898
0.06319279488792719
0.00657767002027428
-0.04145874209624613
-0.02831172279436205
0.8126867970863831
0.8517095579939246
-0.06380561358200477
0.02105505434845114
0.0427505592400676
2.829991765356515
-1.659595012482859
0.9090463974789743
-2.079443150330745
0.2240170295339131
-0.09906066220703565
-0.1049621068874285
-0.01999426041359655
0.0965591341472624
-0.01411987184773632
-0.0601640599307174
-0.02227520235169689
-0.08317037281210597
0.4484043589532385
0.4019427445032623
-0.7671767305833852
0.2611576988558526
-0.1840823653133603
0.1544294409052393
-0.2315047744350886
0.1153260617165604
-0.1681187881887622
-0.2492084129823566
0.302001139476849
0.06306356849512028
-0.1275347898297164
-0.02700383578567969
0.09147505713216295
-0.1012218317718294
-0.01525563749915566
0.01215982822807818
-0.08466024618240721
-0.1139290519759547
0.09581324512940292
0.1027760530482572
0.1908256834116132
-0.1108349462734641
0.01994084372702217
-0.09993158085905894
0.9498921371074418
-0.5897769448064277
-0.3849878922817638
0.02487270005111488
0.06618948324364068
-0.3069570606855136
0.3399837835448301
-0.09921620606902631
0.2533377579536357
-0.03854547189898073
0.02212217597118727
-0.2369144620031092
-0.06625267577157196
-0.2407576107199947
-0.1835902748428327
0.4906005613443933
-0.02992229227964564
-0.1983258300798844
0.4100715881775482
-0.1818234657984633
-0.1078403545128847
-0.2546917967433869
0.07803495099143215
0.2844972002797794
0.02899783633101401
0.1455273610740558
-0.196327674050884
0.02180247666881033
-0.1017769163232914
-0.08740150949856046
-0.2547937455086116
0.4439721713449336
-0.2021696529818608
-0.2842420813374836
0.341675415761085
0.1447363185623669
4.800138220944579
-1.499558123794748
0.05068999548726886
-0.05288239138240515
0.002192395904536011
0.9892269324653085
-2.215803059571031
-1.445570445622543
0.03437295115259895
-0.02758220233258236
-0.006790748813215659
-0.1932600093314824
0.05108728151340083
0.02008189540727216
0.1220908324274035
0.001506468207533076
-0.06469782902498648
0.1589609911335876
-0.09576963029423016
-2.333592668599979
-0.8059046047734283
2.60991511911127
0.5295821541585957
-0.04264356075921804
-0.08713283490802234
0.1328309888942652
-0.003054593212988223
-0.4311469750512399
-1.183582803232474
-0.8623369885887401
2.477066766855771
21.09693217274606
0.03830810040022745
-0.2883094165813589
2.897083488309089
-3.782358142691547
0.06292471777274979
-0.1035390810290004
-0.02803037160829656
0.06864473487498517
-3.043214092023299
4.865124757289673
-0.1534038916998936
-1.668506773460075
0.1111152080763133
-0.05620245278941789
-0.2868757792330306
-0.2689147037576925
0.381051940793578
0.1747385422183278
0.1915001263796534
-0.09932830761940352
-0.02983444155280502
-0.0623373771949411
-0.06666196992086579
0.2483174113766428
-0.225295270267836
0.04363982885496717
0.185015375294356
-0.289614481480191
0.3023112567325115
-0.1977121505196072
0.03267279683490704
-0.01652397903925517
-0.0467946171251851
0.03064579933790506
20.2054386176333
-18.63470134606951
-0.5002798341245618
26.75429997036117
-26.85937253013502
-3.348756794029832
0.2676498832018561
3.840734517401877
-0.7596276066684876
-2.043436140125209
0.3444792085737509
0.913629199633753
0.7853277319170517
-8.044542475587402
-4.888599787764514
6.967519793043468
5.965622470546205
-14.61953444220802
-20.88004051268889
35.53141324675327
0.7563243517546027
1.58421911259138
1.384386688380606
18.95473446738472
-10.93831717341308
-8.016417293961089
1.195261019985242
-2.361864292484503
-0.06325353328274616
-1.72856131634471
1.135211308644207
2.322745177306704
-30.43962723192258
-1.040279445351121
1.349515989765245
30.13039068737912
0.1026819529275839
0.007010274317089738
-0.1288895455590708
0.01919731833538931
-0.1374037577821488
0.008402312581385823
0.1290014452151881
-0.1043154455955252
0.03762661889745156
0.1190646625817791
-0.05237583586708994
0.5428841982912913
1.426189682675436
0.5335684856366567
-2.502642366728558
-0.6166805412723437
0.2025522536113567
-1.773674469561774
3.105400149329939
1.974254339988435
0.7710253631641101
-3.531413187167719
0.7861334840608623
-1.896808368107517
1.899769751644372
-3.131859084946859
3.128897701247757
-0.3708587423376107
0.1707256985677481
-1.970510979067764
1.701307663412606
-9.07854111131893
-9.731923183527757
-0.05622050073933166
-0.1509584658425318
0.1134532130548086
0.09372575354362067
0.1179271847473567
-0.3423438167215974
-0.3535484651210122
0.577965097148353
-0.5181047885180137
0.356773402684661
0.1207261937278837
0.0406051921621945
0.4553005140658378
0.2190802881116744
-0.8242205543533317
0.1498397522065351
-0.3566948147416362
0.4844227902299332
2.207705778658947
-0.1474796892352944
0.06191199465324438
0.006191361756452911
0.07937633283119559
0.01086082285708144
0.02276768735913448
-0.1242810694109216
0.09065255920344012
3.122231879166886
-1.082113588294745
-2.583931839431821
-1.163455294325661
0.5886044180542814
4.750176107557344
5.584751408743037
-10.92353193440269
0.1869255581506377
-0.7960871606443753
0.5422697420445671
0.2538174186055679
0.07034192790122425
-0.2761537680968685
-0.2147946726361198
0.4206065128616414
-0.6422277159686647
0.2501725183343644
0.5422420897649726
-0.1501868920994018
1.799257908321017
-26.14995442263283
1.817451871507484
2.873801446621093
21.45870110445889
-13.89972006118051
7.775980050653681
6.712344428458606
0.1852687640663311
-0.0571293315795959
-0.134090733971284
0.005951301499679696
4.979255759644372
6.500821064414272
-28.85892340850793
17.3788465842816
1.657435991073848
-0.7802612594077445
0.2825960964311409
2.678584041869759
-1.765919118389276
4.073221942099257
-1.732669652723502
-2.97007895548486
27.60331763879154
-13.58498987780098
-14.01832776108325
-0.08733165218467165
-0.0005912557496992768
0.10082014346192
-0.01289723551161951
2.435362965631166
-3.677338556018445
2.00821426044739
-1.910389097434279
2.799258325210777
2.344157400924333
2.321629638994296
-2.230424074358042
-18.98233454385903
8.640429014058659
-8.660769452616337
4.393553059087536
-1.580586532673827
4.329843899403408
12.55973259554597
-7.724118368883612
-4.259656516369897
-0.5759577102057378
-0.01244025028043327
0.08153449806356515
0.005465070431796981
-0.07455931819798628
-1.282466991774847
-0.7416687433754982
-0.463581585969331
2.487717321185313
0.3890896910736355
-0.229436417950361
0.1303275549069736
-0.2899808280051587
0.04923398600160171
-0.06834184368785419
-0.2148037062020506
-8.10057752258745
9.069676747332304
5.252890662995429
-6.22198988776619
2.670727026685237
-2.043409016007774
0.7378753250406443
-1.365193335632275
-0.05930547198933899
-9.103566664749497
-1.764095776460387
10.92696791347407
0.2306575798249144
-0.1717441411712542
-0.0589134386476022
0.1119847545146551
-0.1939577414078737
0.08197298690781979
-0.05780560226118902
0.3013973591131758
-0.05842856107720028
-0.1851631957563588
3.717918085546975
-21.75179491612574
-4.070837680256659
22.10471451074602
-0.1501619068610481
0.1502946444070558
0.167684350928822
-0.1678170884439801
2.629680052914154
-1.259613253312356
-1.801213774675269
0.2350787161131832
-0.1230939615865831
-0.1464133668554093
-0.05709387238373528
0.232562275590054
-0.02905503631932883
3.012491120409362
-3.59512988831448
0.03468986958620649
0.547948898432543
0.3643176461514049
-0.02231079738731734
-0.02210441916585838
-0.3199024295246271
-0.01218038270238888
0.01108636908983436
0.09321481455044074
-0.09212080092092256
-0.4300281036392706
-0.1091420443274085
0.2670659524166775
0.2721041955925715
-2.302308166731178
-2.120708787601508
-1.452503307803664
5.87552026210671
-0.09079226877029473
-0.1632294814468093
0.1080803397902242
0.1459414104371974
0.05642612128816717
-0.2023048781071033
0.1458787568303001
0.06255035734147801
-0.01776002530626772
-0.09055513423627752
0.04576480221846654
-8.101401227585526
-0.1319648561625702
0.008166355383531094
-0.01476199970060645
0.1385605005002918
0.009890987974180395
0.04275334233703187
-0.05264433029409628
0.02493377337808664
0.06206344178286672
-0.1067681387957957
0.01977092365205475
5.873226132626814
-4.030203084937874
-5.318632211858797
3.475609164302708
1.981982050855319
6.089263888584718
-2.417580656224256
-5.653665283160642
10.25991318988208
-6.621984833192098
-20.84042901970807
17.20250066291587
-0.09466788140773988
0.06200451614231368
-0.0919215863831585
0.1245849516696495
-27.79255570040305
15.1874577678361
-4.276849272964846
0.7188240975541677
-0.3599707941024419
0.7031796258956607
-1.06203292937161
0.7304445758995176
0.1462862737696485
-0.7204359195113902
-0.1562949301318515
7.582259318943665
-0.9655818762423057
1.963285023377639
-8.579962466041758
0.09540469375659082
-0.1266337523980091
-0.327158071502983
0.3583871301661303
16.98157016500837
-13.29249742240714
15.26566172478767
-0.6298287702172315
0.1892458616700234
-0.05522210952322675
0.09491068644691884
-0.03968857691458999
0.06370707383005603
0.1276743234005468
-0.1694601099976441
-0.02192128721983853
0.1159721189791581
0.02690831929073976
0.01796359075144617
-0.1608440289920383
-27.1268265571547
14.92308714685192
1.218467864195861
10.98527154593515
0.3237057172223001
0.4479663547233863
-0.3798678934544955
-0.3918041784714438
-12.74330482061626
16.4153642770157
0.1199799417208783
-0.3883694591311314
-0.1413612804159204
0.4097507978663198
-31.65130494570219
8.994474393927877
7.326425162929016
15.33040538877854
-0.1654669825273292
0.02713859494978766
0.06659309461129215
0.07173529298516623
14.47134199469527
0.02839703140752331
-0.05218155759221924
-0.01979363819982881
0.04357816439350166
0.4435364097118932
0.06509101632259701
-0.5497634525410421
0.04113602651044147
1.430525958747701
0.155974772440501
-1.016232320698728
-0.5702684104217913
0.01031528059807623
0.3996134501610497
-0.1230344699848213
0.05593858576795835
0.2074479362627311
-0.1403520520188696
-0.08109551050401707
-0.13045090823523
0.01594156490271739
0.1956048538464991
-0.2170807050269344
0.01991101278141958
-0.001054416707279437
0.1982241089772749
0.150398732153772
-0.02998136084678541
-0.1204173712881855
0.02009695773757406
0.0498075418207563
-0.06990449954501594
9.728778202235077
-14.17110777957719
4.442329577380258
-0.05892715096674058
0.08010363002217628
0.1793020225982513
0.2139751897997412
-0.139024214381566
-0.003896469389023903
-0.07105450599687038
-0.1026708339822635
-0.3008985216532817
0.8363503924393303
-0.4327810367863543
-0.1322327932537012
-0.353377634082665
0.1593688647059803
0.3262415626783661
0.2094745260356957
-0.3924078478529142
-0.3696594552987691
0.5525927771289603
13.56953508785765
-26.18370132689293
-14.51266031825608
0.89360515050947
0.4298257478391057
1.779171529883331
-3.102602428205424
26.80325429135515
-23.82108876853291
6.969307924507789
-9.95147344738821
-13.1930053348122
-16.13136568501835
10.16362754271276
19.16074347698807
0.129236063217525
-0.03852603223660118
-0.09071003096007411
-0.02919454558836859
-0.002321848302871831
-0.1102742941862993
0.1417906881110331
-1.273524270050749
-4.795335688997885
-1.006714078487536
7.075574037549958
0.4048345705283227
0.08905220908627867
-0.5765239380385744
0.08263715842949848
-0.04645255971960397
0.1424632337526211
-0.01869352735721517
-0.07731714665734353
0.0421242698376344
-0.02093098911923278
-0.07479341016408712
-0.04804907123364473
0.06170080229517701
0.109011238483799
-0.1226629695113367
-0.05177636619134311
0.1097673756339767
-0.05799100943097634
-0.04357092345020198
0.04587329357843969
-0.1304376427650238
-0.05253293830945512
0.1971566855170512
-0.0141861044167563
-0.0540987157721979
-0.04682746192625905
0.1009261777185818
-0.4398461792264695
-0.0397069538906866
0.3976284448848059
0.08192468825943018
0.2043591430316249
0.180784888348242
-0.3279994805973034
-0.1421671471204924
0.08663025070062463
0.07338002115974598
-0.01784312471718731
-26.38957639600129
25.39225190371815
-3.685906104411733
4.683230596548152
-0.4918531500199532
0.09964834839377991
0.3236155815417883
0.06858922012562803
-0.4429451758521253
0.1774527335667845
0.5688678487947839
-0.3033754064852656
-0.1645092911755855
-0.01376937716691425
0.1079905300637677
0.0702881382951938
-0.06868276708694281
0.2786863051121217
-0.2439855980934834
0.03398206009375028
0.06217629781128248
-0.2267039804361419
-0.00996150705578866
0.1744891897039522
11.46018486791613
3.134090915229116
-1.242547009283413
-13.35172877390984
0.1226676601101148
0.0304934288659608
-0.1068536900160399
-0.04630739893665491
-0.08396780275697968
0.2189781237496426
-0.04025631522557593
-0.09475400574375455
0.09058684071565179
-0.1367123104309065
-0.1478322716768813
-0.04934089922140274
0.04452328395399512
-0.04526267597657243
0.05008029125091511
-0.0632732082421478
0.4369365537168365
-0.3190725897515631
-0.05459075570681057
-0.04221123448731196
-0.2224654047440213
0.1929154846380268
0.0717611546188814
0.1680511964704686
-0.01733118213516078
-2.350302179550542
2.199582165311623
0.1416923722466752
-0.01772311532574097
0.02283867496198033
-0.1468079318655577
-1.384806645625729
2.068360433622431
-0.2302586958763684
-0.4532950921133955
-26.4644784594417
1.242268879841118
26.88904552126665
-1.666835941732438
0.07403604175340303
-0.3230148883658063
0.3351084028848675
-0.08612955622046138
0.1068874635240425
0.02663291374780612
0.07778217594851811
-0.2113025531982757
-0.09350623389983927
-0.01351560245148782
0.08624690047016592
0.0207749358933471
-0.524856101230625
-0.6068195129772472
0.5903220187445557
0.5413535954732844
0.05706870029087558
-0.2595378650305779
0.204156752243163
-0.00168758746629824
-0.1856461965760186
0.007163529002366602
0.1937699877560699
-0.01528732016449332
0.03002137940141886
-0.1055803406501034
-0.01988747532576201
0.09544643658198533
-0.3844708802503664
0.3765391161999539
-0.6593981869631889
0.6673299510581517
0.247938676274056
0.001452702885622933
-0.65031962105021
0.4009282419905885
-0.06149199688391036
0.1442756061639467
-0.05429362351247866
-0.02848998575294088
0.1481438794299329
0.2716870980375306
0.01250269262334183
-0.4323336700721761
39.2674983421204
-25.21006810531367
-18.13644581792806
4.079015581082604
0.3500109662271179
0.1031769168748298
-0.1651229096225415
-0.2880649734501434
0.01843174052437436
0.02619558021241196
0.2066592664581535
-0.2512865871720999
-0.6558260424478672
0.1245485495857284
-0.09311052320973383
0.6243880161045292
0.0937549365618718
0.04291647904649511
0.04595788030603596
-0.1826292958961591
-0.04933048113512711
-0.05476591507514714
0.02137571254807938
0.08272068367320427
0.04678566290977358
-0.4092118934247687
1.718570061886904
-0.8473414200653359
1.273318141061476
-2.144546782803393
15.528482919025
-10.95578969764488
-0.04190132023557673
-0.1281663914068654
0.1274886699084209
0.04257904175133076
0.001965712961028238
-0.1321848986518878
0.02021596339575238
0.1100032223070464
-0.1428518698684764
0.1334107386223184
0.04711246789694006
-0.03767133662956098
-0.2667753670720586
0.1176505413686453
0.3298236774309707
-0.1806988517011773
-0.09023805226782833
0.03913516450599235
0.02279111366272103
0.02831177411369049
0.08580116219182257
0.03399515648394908
-0.003762695840079021
-0.1160336228110122
-0.07476873247983436
0.05506115826306066
0.09871790615120077
-0.07901033191759645
0.4495849015425426
0.724637698603941
-15.1827254385728
14.0085028382244
0.1657771919738099
-0.1693261775203212
0.006590573285571441
-0.003041587722981922
-0.171985014759289
0.05355902982113056
0.03992093309774029
0.07850505186822879
-0.1908293520366
0.3419206976641941
0.1328990659287061
-0.2839904115183408
-0.03731520201423211
0.04732280420924533
-0.01000760218239745
27.69368051475915
-28.48071675130683
-8.431358528983885
9.218394765586041
21.41149741940115
-2.702890387730832
-21.81114091527707
3.102533883613158
1.952523269841501
-2.186359491209018
0.3073597213091276
-0.07352349986864297
1.815484119520616
13.04780152119344
-8.35452562453915
-6.508760016159225
0.1672518123818509
-0.04166218022973151
-0.1255896321298199
-0.007904022654413369
0.008400400537102642
0.08676362884873307
-0.08726000672567744
0.2781926452635379
-0.1166824680151537
0.43881408070341
-0.6003242579229089
1.828348029891462
-0.1433182939809122
0.2886600352627514
1.202613256235879
-0.4618530017729682
-2.034124891736698
1.293364637300902
-7.317196774780979
-0.2612066263535107
-2.446014595735287
10.02441799668037
7.648388901423096
0.8937078852233109
-8.219223342628251
-0.3228734439484776
-0.2689543048690244
0.09914609382337317
0.1117001195323941
-28.7470854635059
22.23583256201731
4.515546528889041
-0.1092429173777171
-0.1612882178112268
0.2406088429198722
-0.003530758247095961
-0.02452224075200006
0.0280529990052979
0.09799585010957663
-0.05291307818734307
-0.1497172194762796
0.1046344475664203
2.708510358224755
-1.803311499588701
-20.09700743446474
19.19180857569632
0.5880691500443214
0.1031132637061109
-0.7988095145917733
0.1076271008781961
0.05340989225842677
-0.04181358633849762
0.1343964994497751
0.3571423304460843
-0.04233929888409995
-0.5031891863476128
0.1883861547994531
0.1290104284332691
0.04858516737063358
-0.07950922273855315
-0.09808637305407146
-0.09338265537482836
-0.413801626906598
0.1964696088346059
0.3107146734617594
0.2688891861470452
0.02486543043700508
-0.2656573520084402
-0.02809726454722744
0.0304044001208218
-0.1912878287537234
0.02273119632378952
0.1381522323557577
-0.03524622482340971
0.4682774704315493
0.260904721206323
-0.693935966785872
0.2027655405268375
-0.2506794845296567
-0.2659465680154788
0.3138605120564012
-0.07663469827927963
-0.2714968899999157
0.3055691800158287
0.04256240831729591
-0.03439437543699154
-0.1393407774973375
0.1737351529522743
-16.87611289980946
15.59345019547483
-2.611931575046505
3.89459427954699
0.0824222445297159
-0.1168166199596433
0.1164691307032384
0.08387820225487697
-0.07345906103873055
-0.1268882719046097
-6.849410923163823
20.00644192740289
8.275305869005839
0.7181068229174838
0.01829733254210918
-0.4582115101849752
-0.7998528099886861
-0.3177831734089216
0.6570258865803309
0.4606100968803594
-0.032560672941207
0.1189406206525895
-0.08049495710985602
-0.005884990582121193
-1.061111451745619
-0.4035239785789528
1.355830863981688
0.1088045664507368
0.00231788496558625
-0.0128655474473685
0.04322045932437317
0.1129163547979425
0.06056791694432125
-0.2090414092688088
0.035557137541052
0.05153525716675089
0.1438033421679136
39.16731997280264
12.19679638575578
-37.25155925400143
-14.1125571046707
0.04601505485583209
-0.08863040841787244
-0.001118279550199134
0.2849198436721033
-0.4859712170924646
-0.3509664744522287
0.05084891940101768
0.3532804155992757
-0.05316286051296508
-0.2717371240150073
-0.2723566489719911
-0.1716520855405389
0.7157458585811325
-0.1353419150603906
0.1822208457947841
-0.08606153725976168
0.03918260654203436
-0.6192159565454749
0.4816682244925072
0.01045474939015576
0.1270929826825435
0.07518269726036143
0.003012228740121796
-0.02249091234809379
-0.05570401362638032
-0.6557980824965655
-0.1016048202038468
-0.1537699415678197
0.9111728442599882
0.1186203609212684
-0.005839668917772529
-0.02873659691663822
-0.08404409506605104
-0.3632985127416721
-0.1119047807954483
-0.04290149494662728
0.2603347561229843
-0.1719306040722669
-0.08840415203421371
-0.03615141492449959
0.02061959072445768
-0.1176203551144787
0.133152179334431
0.03316450248137141
-0.116021352053936
0.1058096402098636
-0.02295279061254022
0.5354539857056675
-0.7382330953538048
-0.1191212789744145
0.321900388660255
-0.08514276728616509
0.09791984411131896
-0.06801779988238971
0.05524072309078251
0.1391425042002463
0.07036665031013613
-0.002636050492650327
-0.2068731039979857
0.5871387054350812
-0.3677034980510819
0.03135957958195731
-0.152674333405887
0.1031243187549878
0.01819043509714916
0.04260723144026857
-0.0008987114815593809
0.3388662069033402
-0.3805747268272882
-0.1071481572186743
0.01422612285114057
-0.0005841995247252395
-13.72376681335425
-2.273327815788962
-3.483872813052465
19.48096744216213
0.464522453288283
0.07704709230410707
0.002327015957802251
-0.5438965615444527
-0.05472650249799652
-0.196810415526826
0.1741715871187419
0.07736533093776941
-13.28837226333958
5.326637278112758
12.93465010108243
3.363480080216167
-29.58650244464921
-0.1310544824371168
-0.03671794548616013
0.02135906108946373
-0.05081268838571731
-0.09463265483869009
0.1872786388256098
-0.04183329557646567
-0.3536896310758569
2.234924213372952
-4.306040493536312
2.424805911182305
-5.633941588544181
15.82502842738064
-8.37560271933911
6.761301374979914
-8.980219650645248
14.78997497928078
-12.57105670364717
3.233779781775999
0.04528323589037901
-0.6781825985167271
0.7696081784385421
-0.13670881578016
0.1326958278124275
11.02125906411923
-4.683489453965846
-6.470465437982178
-0.09824824615311732
-0.008587652704489752
-0.07442580317376067
0.1812617020685994
-0.6294177467760428
4.048951236616086
-5.152203142503612
-7.718743839782288
3.316668944519869
-1.173520039676661
5.575594934947421
-6.649980917955723
3.931207375301694
-6.847308151793532
9.566081694546401
0.0005874288978835959
-0.160389456933993
0.03089658245751802
0.1289054455976673
-0.03990836169641027
-0.3477038649760704
0.3592776160218281
0.02833461067338681
16.76686198853876
16.37111921772938
-12.4390480408717
-20.69893316545673
6.489601460176813
10.27726052831992
25.87122073689959
-6.587326557813335
-2.912774961406083
-0.03662137406745974
0.1733396067144559
-0.06650948721907227
-0.07020874540676604
0.1497021076795847
-0.08869960078464453
-0.09762388094221748
29.82290885772323
-40.47961359877755
2.958939766015163
7.697764975002747
-0.06725850715768741
0.05676125200145135
0.003067217808218825
0.007430037374882452
-0.02607280324357313
0.08204757750925332
-0.05597477425085929
0.1443594524890957
-0.1753102745339745
0.3239909799407112
-0.2930401578552236
25.79839209246089
25.95485058007981
-0.09969261272967044
-0.01397218441924648
0.1346344151465866
-0.02096961798143411
-14.40972691643376
14.42327095417088
0.1235971130765688
0.02377349180253041
0.023286320167966
-0.1706569250210936
-0.03303534285799639
0.01611854762459905
0.01691679524720737
0.1697097124242687
-0.02875929081451565
-0.1738387910296432
0.0328883694324494
-4.687736310869654
4.794444600316449
4.797243016062591
-4.903951305553258
-0.02021035729888494
-0.05822908012941395
0.01721605067636038
0.06122338676809783
-0.04736003228848985
-0.05050563798748784
-0.04299562170264626
0.02278526440868107
0.02240008608615711
0.06392025848227648
0.000653561957992474
-0.08697390651330554
0.08043354462357183
0.1201335456935412
-0.01769678223716298
-0.02529883945936733
0.07132295353091661
-0.1114119657485226
-0.0998001422056454
0.139889154439913
0.04826614916701963
-0.008371388495323661
-0.03989476066157952
0.01703390983303134
-0.09595258148565006
-0.09463587298158974
0.1735545446575013
-0.3031078986404412
0.1250192574492661
0.3184129549957966
-0.1403243137314276
-0.7444025057896351
0.08510006508784972
0.4965432667419395
0.1627591739823976
-0.107394907303592
-0.2008325880862795
0.4242385616216755
-0.1160110661817668
0.3035369990910985
-0.0319784763718259
-0.5026343746213965
0.2310758519055798
0.08349194751672205
0.02018449393639046
-0.01924100818405263
-0.1383522491418348
0.3277023371177064
0.0960837502889
-0.2854338382208805
0.07232020339965475
0.04581524858528067
-0.1181354519756437
0.09529817931178021
-0.1176314073177396
0.06830964924668147
-0.0459764212275586
0.7894269730924007
0.01260362051766157
-0.4626554570820557
-1.266733032868242
-1.295224276863069
0.9351419541059887
1.626815355637198
-0.1126846295919244
0.03727233247860143
0.1067718767071558
0.07409332710990511
-0.03410285993740306
-0.1322155669695168
0.09688635293592891
-0.02443535329808934
0.05976456735932006
-1.171137135240097
0.7446368283092751
0.1919565408130374
0.2345437661720277