/*--------------------------------*- C++ -*----------------------------------*\
| =========                 |                                                 |
| \\      /  F ield         | OpenFOAM: The Open Source CFD Toolbox           |
|  \\    /   O peration     | Version:  v1906                                 |
|   \\  /    A nd           | Web:      www.OpenFOAM.com                      |
|    \\/     M anipulation  |                                                 |
\*---------------------------------------------------------------------------*/
FoamFile
{
    version     2.0;
    format      ascii;
    class       volVectorField;
    location    "1.1";
    object      U;
}
// * * * * * * * * * * * * * * * * * * * * * * * * * * * * * * * * * * * * * //

dimensions      [0 1 -1 0 0 0 0];


internalField   nonuniform List<vector> 
19631
(
(4.998511337204236 0.009894332645928984 -0.003786399418949277)
(5.019766355175604 0.04325436295101635 0.0784267353490898)
(4.880571635910237 -0.05552167460323507 -0.3883068661597913)
(4.033788011599602 -0.1824272762060823 0.03484506570137987)
(5.006887009386469 0.001749188802191145 -0.003984785770689599)
(5.078879903853155 -0.08407419042912448 -0.03309226217602793)
(5.033148559022155 -0.009473576902820932 -0.008603372605964967)
(4.894693351351814 -0.05137097713532378 -0.04491651218033325)
(5.003380127703467 0.02094677872671385 -0.006000635037772452)
(5.022428462778066 -0.02710213333645482 0.02014668887144632)
(4.957859082928282 -0.02133381038090824 -0.05645041783089326)
(5.044714504961711 0.02915218503926871 0.03598733936534831)
(2.621202357644625 -0.05811764513368858 -0.2746839042273808)
(5.015897612467293 -0.07493433565579023 -0.03970244903851673)
(5.02319752293953 -0.0156960953596708 -0.01025461497156861)
(5.016514849100775 0.02881362806003008 -0.01150100632798976)
(5.073077832610478 -0.15479744365968 -0.1523190257851534)
(5.019981197289822 -0.003658446038287435 -0.003311675952746634)
(4.995764627298325 -0.003014326463074013 0.004339392378639392)
(5.007593845564121 0.206450699314768 0.1408069217057951)
(5.004221406545746 -0.003427992475533867 0.004068814498201389)
(5.038707405730753 0.007639859170263998 -0.02161168082079061)
(5.00340086207992 -0.02119192690622023 -0.02421356289631799)
(4.913113481738311 -0.2437097279881546 -0.002462158689933632)
(5.022688781957939 -0.02392896817281983 -0.01459928795980645)
(5.017527636808248 -0.01178941078490482 -0.008266916109389649)
(5.04554637453445 -0.02511510060539968 0.0253456266232609)
(4.84163991238254 -0.003762105213370682 0.05881746563541202)
(4.079002988026384 -0.1499906651947064 0.3843040086242904)
(5.044579380465448 -0.04568490891525448 -0.00970411045445697)
(5.002424830208517 -0.001940029080533832 0.002151198900564533)
(5.048484858062845 -0.1351861021363248 0.08124246482786936)
(4.475445639026893 -0.6280783876309364 -0.4852077021405125)
(5.02617765801202 -0.01442300471963961 -0.01564233867460017)
(4.974165338971065 -0.3705210567492431 -0.1282716056119814)
(5.027739406138635 -0.01557182398859111 -0.004376630490501734)
(5.059050545850837 -0.03768297772930573 0.02040278802818044)
(5.00237351480584 -0.006922136651182798 0.003294728774205662)
(5.053420149927766 -0.1259392628224606 0.2090096554458502)
(5.039993296437009 0.1231591543590741 -0.2145694705794404)
(5.038741298678803 -0.2204700396296076 -0.1753940391126419)
(4.564599290097255 -0.08564983191897779 -0.1294218691177496)
(5.070688669523136 -0.06855235614920273 -0.01779916724216585)
(3.880892720515397 0.03047307739787873 0.294722883113633)
(4.935113066841526 0.02968452798732594 0.01997335213041573)
(3.968132353033825 0.1049878766012381 -0.1701048807845376)
(4.92513351183103 -0.3853698195336186 0.2393268577519561)
(4.981726037032097 0.2421836576770421 -0.4155217340451321)
(5.062002118951596 -0.04844337520130337 -0.01731475257625641)
(5.034491508918402 0.02671411255688147 0.06178729849935249)
(4.98105476714764 -0.005208821596811478 -0.006058247122973721)
(5.050577889177703 -0.01241758560993059 -0.01039297900606129)
(4.5738473070747 0.1974303459270558 -0.1605289842704357)
(5.07562470701268 -0.06145774744844391 -0.01056838715523381)
(4.966478173238694 -0.02365920114247703 0.05743161083581475)
(5.055033091261048 -0.01467888708574584 -0.1985844922130484)
(5.109446147973265 -0.2056368124681476 0.05103881654665703)
(5.030447330666474 -0.008548572281786591 0.01465226000604579)
(5.059025322369964 -0.007933718424523836 -0.1052736592832679)
(4.259893236950982 0.006461884523698418 0.226236250236285)
(4.723589633962134 -0.05635113413308729 0.2887078815156912)
(5.093923931135854 -0.1971624174499656 0.1837978589274642)
(4.831066913803885 -0.098499765075632 0.1011163296210296)
(5.111314456660035 -0.06208895336830679 0.01752157516488109)
(4.013621126227848 -0.00391667110413129 0.7243105262864796)
(5.003636735749763 -0.08946968206819467 -0.5407757908255427)
(5.034071950227093 -0.02987092858794551 -0.02049986068823072)
(4.991238962792597 -0.006150982790103267 0.0211220680018553)
(3.909172157122031 -0.1584296600663486 -0.3287966520945386)
(4.986331497802957 0.03084110487653176 0.04265408679514257)
(4.244261100004352 -0.1018257631100038 -0.06365076252600571)
(5.090610271878892 -0.07250666424731494 -0.07933920764297475)
(5.075178014212405 -0.04994485358650272 -0.01948674809419489)
(5.072086493992429 -0.1643723124356096 -0.3398860649430896)
(5.05940403660099 -0.02663497004447128 -0.1345267488674382)
(3.941674566061829 -0.2040949285825668 -0.05149927327675746)
(5.001935893711287 -0.03066565103874041 -0.04163697003303072)
(4.859056620087897 -0.07549591159337968 0.2362586763553358)
(2.895296155304415 -0.06987173297130911 0.006098201400836977)
(5.037322698840404 -0.01233567236867153 0.006845143039837224)
(2.764619025446796 -0.303569994318254 0.2489655610938066)
(4.924345208159568 0.5597300684154326 -0.241144066017507)
(4.239739194058433 -0.1120607663240868 -0.1486025145549015)
(3.627819300035943 0.07485745943671814 -0.2095754040246608)
(5.051638217898616 -0.05001031603009446 -0.0964463893925447)
(5.092184609415244 -0.1209432340913973 -0.08265502656608806)
(5.106988220682686 -0.132644174772431 0.001084736003569854)
(4.190559301794752 0.08048898641780716 0.01222267850957636)
(4.103808849928757 -0.09320042874612562 0.2009094759894508)
(4.59609314427119 0.02704072126720922 0.4247802419953636)
(5.064138411934474 -0.06795901163326824 -0.09376545175830865)
(4.418290051758665 0.1587781548536337 -0.1206670284653375)
(5.386971833313514 0.173977973255344 -0.3259097227382057)
(5.100136578774642 -0.0919826803850146 0.09896854853618187)
(5.072148290418367 -0.096456903339888 0.03982846167984767)
(5.108033696699733 -0.1448610531954463 -0.0999223234985724)
(3.507391998569351 -1.104587861653325 -0.1671333393587081)
(5.012195540589191 0.007776884415458532 -0.1693690977003078)
(5.097753714459394 -0.08063083394515627 0.1249950408825604)
(5.063283626954084 -0.08937212106890276 0.03048995140408051)
(5.01748471227467 -0.03346888582667577 -0.003199595603314369)
(3.226027998254798 -0.01594158196202061 0.1468656024243722)
(5.025272946395719 -0.01944314920383351 0.01229799808987105)
(2.047155068749912 -0.3028051868439064 -0.02941007699248667)
(4.948460346021052 0.01126106581927275 0.2523825209376027)
(5.082998326607872 -0.1048765908300734 -0.1194026359677364)
(5.038685263842058 -0.0458184319137885 0.001386180874433544)
(4.044745426018052 0.06228755615479829 -0.2819268407519464)
(5.025992835917219 -0.03022627506253001 0.01770593831983257)
(4.967173480507673 0.05281075998418666 0.002270013598080887)
(5.081671619871905 -0.01708415951027438 0.04180344381744604)
(4.360623410708085 -0.1185023446868207 0.1715812895168605)
(5.016022297331573 -0.02812010143548712 0.01391466721139885)
(2.900581700895601 -0.1392433090498383 -0.01501324540447697)
(3.524770774882613 0.1414962850099375 -0.08907773489409518)
(5.102295753188791 -0.2389647294867413 -0.2254765532113157)
(4.74072482994517 -0.05660317278488116 0.03573166202332898)
(5.06634337962787 -0.04834609435715218 -0.06534151615489878)
(3.270408483854753 -0.1246137317276711 0.08382254068738981)
(5.003082272128277 -0.002804438231910479 0.001111216126703493)
(5.014929902990166 -0.1031655922990932 0.1056692079313548)
(5.017955839315047 -0.06011228349370699 -0.03688526687184222)
(5.024898175224829 -0.01693374386345041 -0.0047112350140834)
(4.990529365879848 -0.02152397747436534 -0.01645782988191197)
(5.144226497289654 -0.07418068637656296 -0.0607905529527253)
(5.013354707546386 -0.01786625517426838 -0.01591364816318955)
(4.685415777427364 -0.02751846809896822 0.08521597706973526)
(5.025594747734004 -0.01551228745284439 -0.01858772813099075)
(5.019817915211394 -0.02094563920111797 -0.01088914528078604)
(5.036259887474457 -0.01137947046525939 -0.004591414955235007)
(5.042922712382811 -0.1079082494761742 0.08847472389478157)
(4.706323595491562 0.04242004033817107 -0.1074916825599345)
(2.794033342930935 -1.067328052928958 2.320336638421136)
(3.901440521816346 0.1385072447807795 0.6285189162563292)
(5.030001917871338 -0.02182106245985369 -0.01469520051301447)
(5.041730941651213 -0.02799266972085127 0.008671924251370379)
(5.055363537890627 -0.04829681292426007 -0.01300984410053127)
(4.774997826137337 0.02270628122468957 0.03718874249981804)
(5.009281635088124 -0.09256002098954258 -0.01773547617284593)
(5.045591325691825 -0.009322399401864552 -0.05622726411026782)
(4.927166677353904 -0.03801816249766999 0.05849985617457505)
(5.519118428639495 0.1293685918906365 -0.138558413441325)
(5.02478960987773 -0.05100963267653211 -0.2205738355444088)
(5.091349606455516 -0.02338255091355473 -0.05696124309467217)
(5.044122437593871 -0.05979542805031122 0.09670074754542254)
(5.062765415348383 -0.03671460539754972 -0.1586580266441353)
(5.042505784852126 -0.01453643499742776 -0.05919861663857894)
(5.013143632637771 -0.02101060513081688 -0.01238530493884288)
(5.133705919080079 -0.3508551238631638 0.2241035065202765)
(4.722164433938897 -0.04416071509381998 0.1509675220448441)
(5.008946613727013 0.001797206510326093 -0.01018872901379508)
(5.060016513858854 -0.01375176998096855 -0.001878059855973172)
(5.039648833630887 -0.009955976741736657 0.01740642538522016)
(5.044140377151726 -0.01651797780470113 -0.00500346917122026)
(5.010563552810405 -0.002116794014701289 -0.002117575031857613)
(5.028082067484858 -0.04592854897805038 0.001131760908503805)
(3.532259105487899 -0.1391998463440192 -0.6585204762038324)
(5.08926341843915 -0.1128262880427904 -0.09385676567463982)
(5.056608779453245 -0.09906179943793897 -0.0007354488126304344)
(5.034778349495818 -0.02344954863905918 -0.009479105054331107)
(5.010139209599344 0.003060739498860489 -0.007131320618743349)
(5.006732187767242 0.03683095387938783 -0.03438545865236813)
(4.431854300464129 -0.2787007357935446 -0.1684162538391312)
(5.012938858561461 2.276444795033465e-05 -0.05636484738195152)
(5.031864859884685 -0.0124280581473415 -0.008284293120262512)
(5.024232387176597 -0.01190311601382264 -0.009745715618808793)
(5.023114822403207 -0.008290549736577717 -0.009802191417712183)
(5.019995479305381 -0.008940485508971792 -0.003695339419595748)
(4.990152058837194 0.001341262631782943 -0.002430254805030096)
(4.537465117257633 -0.191479521455793 -0.04784781177698996)
(5.106279599846566 -0.01712148333228322 0.03939599018387328)
(4.949363538475047 0.093730475898789 -0.006974731322218793)
(5.06547154132991 -0.03657311471088246 -0.001496898441878391)
(5.298145859847149 -0.01788949069830035 -0.06988221695826448)
(5.015813134668439 -0.1258070423138898 -0.05714755985285127)
(4.745198434683634 0.002422492112029555 -0.3068944848496538)
(5.027643639175237 -0.00282056646273283 0.02454997522887734)
(3.633965127336696 0.020128212603122 0.02073372835536957)
(5.03615957194796 -0.03822402857918749 -0.009447423375968237)
(4.765734383151287 -0.04254533544529223 -0.2612689822871981)
(5.122056400707536 -0.2496563068981559 0.04917314298856907)
(4.990472300331268 -0.01137181016821123 -0.02405261658181057)
(4.957645983946795 -0.01240589279392441 0.04002416258289577)
(5.060158294239627 -0.007030300335457766 0.008147102179566197)
(3.605136524805115 -0.7776859408694347 0.1132178055323448)
(2.591274584244603 -0.3312215328235407 0.352594821601833)
(4.413953696218372 0.1964183682508266 -0.1789652763396573)
(4.9995043467097 0.004587080116037567 0.02579276617631516)
(4.820717069123307 -0.05277223476170499 0.1096938527222878)
(5.030062147520717 -0.03247525529628163 0.01764326509780688)
(3.47386671550152 -0.3072387503001579 0.4076698327396271)
(5.058135664737876 -0.07095904817410924 -0.07748709976864619)
(4.94713066831665 -0.1129784742070643 -0.2085511668770085)
(5.023582425371001 0.03771917975996142 -0.05610017875251184)
(3.683094913286262 0.105226076932543 -0.02960577993715507)
(5.079297076173374 -0.02399154537332004 0.03938091980858058)
(5.007910948049375 -0.02455729695064876 0.02002954588095577)
(4.971712298372728 -0.1618010884789682 0.1151469928891767)
(3.307721226099634 1.129541493371959 0.630070526561888)
(4.771751431819353 -0.3479487996750855 0.6188729781196277)
(4.535181650768498 -0.06580309391702995 0.4706089742472656)
(4.895780876611128 0.05228077354711756 0.08760234178019849)
(1.963150685729341 0.2829444669444876 0.2386224830145733)
(4.236786762145655 -0.08179743330657008 0.07897438417611292)
(5.006760661584402 -0.03539604254403258 0.0133973351883869)
(5.016868184443528 -0.001560867722638602 -0.0125601586549802)
(4.962275069520284 -0.01779045309928528 -0.009151646541078548)
(3.895914905566623 -0.2126524326428502 -0.09979520855819649)
(5.010234257598411 -0.06638127253025917 -0.02403231876463351)
(5.043455581677404 -0.03686621783843214 0.0933208006634331)
(5.07293985132634 -0.06179238449894718 0.02147945652259053)
(5.015691650381196 -0.07299090717803985 -0.1756008188962091)
(5.017940975462671 -0.113120474554054 -0.07433220468582709)
(5.002101942177488 -0.00330886397086821 -0.005534854176158549)
(5.037222915432348 -0.1036766697598975 0.07296103149685679)
(4.168269501758352 -0.1617284630264653 -0.2348108664865882)
(4.936280729670099 -0.1755590868155168 -0.01572882894874516)
(4.923502126163979 -0.259683988742885 -0.05770577645185853)
(5.006143446406009 -0.01250695720969673 -0.01130485156066772)
(4.925485342909129 -0.04189530467987959 0.1962453811926912)
(5.002394102873289 2.883626340731156e-05 -0.01519174340687438)
(4.705876795054789 -0.568065608065247 -0.2599163130264521)
(5.116133232979563 -0.1636642263913828 -0.1083569186753287)
(5.068940410878992 0.4524371714755198 0.3940075351196883)
(4.97757666337139 -0.06555796712178519 -0.04100765582407814)
(3.059145660856778 0.3365494632983909 0.1801136309449509)
(5.062954548992272 -0.1073961665044165 0.020676924606049)
(5.062201080829031 -0.04157259042536483 -0.01575777170110679)
(4.767393092918987 0.01874433112638261 -0.004577441413592009)
(4.877500598878211 -0.04328471777792527 -0.06567928351853471)
(5.007259895375234 -0.03351887726314511 0.1481137013940915)
(4.946691516082297 -0.10718117129774 -0.04925858258285931)
(3.074931159331799 0.02995434163232771 -0.2776447998031714)
(2.242120599440431 0.122406362165668 0.1371651883500658)
(4.94457477018861 0.001616279376855556 -0.01390318150666834)
(5.057716480313751 -0.101058611139919 0.0755459309512219)
(5.059874112187061 -0.0635415899306655 0.2183138282984219)
(5.115528640505643 -0.1207790625732731 -0.04296941903562786)
(4.243430341625468 0.2008713499283042 0.04645220704824627)
(5.092210023504444 -0.07545069522630928 0.01887397319235119)
(4.99798554981733 0.004917242017930388 0.003604470813684128)
(5.026346372692879 -0.03837333274582456 0.05326742288218795)
(4.986304413240206 -0.01088730527327503 0.05186742655272628)
(5.007751234579335 -0.002552637777310054 0.001533231154246623)
(3.113252054693994 -0.4389346574044711 0.1349598725117681)
(3.185656149832517 -0.1317279473684436 0.07137441880166673)
(4.982674413401612 -0.02122210077913344 -0.03825912844481914)
(5.128490821483938 -0.1135037406831903 -0.0238221856738075)
(4.162093517934498 -0.05023424521749251 0.02944952263055588)
(4.365099894231122 0.7556343383190568 1.391711604749009)
(2.874691652472992 0.05429791713145651 -0.02210836284071969)
(2.821174991759552 0.05451543897470114 -0.05075326729438039)
(5.110627060939678 -0.08223399841519298 0.1177054212606506)
(4.992345120716435 -0.1055494694036735 0.1374791141310921)
(2.06291715136562 0.05655217248016156 0.1429731581113236)
(4.869786715042145 -0.2736549882296218 -0.01227423492679938)
(5.05939157650419 -0.1180819592547551 0.1550341134803083)
(4.256685860509759 -0.002742293189801565 -0.07097385914852032)
(5.024828037088033 0.01301004160155496 0.009084826610956347)
(4.331970451214174 -0.01674685053931266 -0.09756916471009922)
(4.474359309350496 0.200955058311534 -0.06453431605880332)
(5.04582116425346 -0.09640646398515038 -0.0681999250926085)
(5.079985798312689 -0.1010441457313269 0.1633221772668236)
(5.453736437821556 -0.8520158664837799 0.8328366548818551)
(5.003809448600578 0.1005124947676966 0.0007196627714019289)
(4.190664408021941 -0.3965127224512933 0.3294478935970399)
(4.500376992866309 -0.04978180665646519 0.1237466939180599)
(3.30665393884704 0.4994533814707847 0.179987904889726)
(3.706251749971342 0.04609804832197631 0.08004307468435286)
(5.100162677177961 -0.1122356389381865 0.03052094253796264)
(4.013179079648908 0.9864594697261632 -0.3007354987372426)
(4.959976868837205 0.02581796702925265 -0.1322045373661622)
(3.685784087315735 -0.1234999150807345 -0.1082019906359833)
(4.974741377111163 -0.03953039759410978 -0.06589099675810618)
(4.981997483349383 -0.04046461644865458 0.042265021294617)
(5.107635281539801 -0.02123353173298222 -0.0159901141754013)
(4.18417900459623 -0.1460898679534787 -0.0489125901394206)
(4.282608047944198 -0.2660219967123577 0.8572627978984219)
(5.063940942639403 -0.05294866066717944 0.09065442419941652)
(4.966267867607164 0.1200478597820899 -0.05064028855660022)
(4.527876866126088 -0.1194727201805201 0.5877728317021781)
(3.246734859145641 -0.4030380324727821 -0.2453443409837064)
(5.068337189477732 -0.04558121828254014 0.02699728301382317)
(5.070577769731674 -0.06310812925966985 -0.06216735590766842)
(4.796938338431914 -0.03261653933721196 -0.007403264417378833)
(5.101857867182206 -0.02530858930987206 -0.1139660606060287)
(5.009383843946098 -0.001331305782221733 -0.01449202311546285)
(5.106064677051192 -0.07373395411312231 0.0186548440829351)
(4.948283539718335 0.9781383470150881 -0.3999496983680753)
(5.046556533812715 -0.05696281637898625 -0.08099420459519968)
(5.0009620911887 -0.1886923726378598 -0.2565508233493373)
(4.331918182343013 -0.2869508203496484 0.2675757811417236)
(5.013028046765786 0.07941429274951249 0.08489152733560391)
(5.033659547972975 -0.01740117005364523 0.002343861816784924)
(5.00723946797854 1.318955399768667e-05 -0.005152612183987836)
(5.089461699282592 -0.2425073647171916 0.5219053190050169)
(4.968062497402376 -0.1002948865568191 0.1480537151534792)
(4.468237612999768 -0.01771844602787526 0.2603396303227968)
(4.712905671524243 -0.2774869265954558 -0.1155373730047005)
(3.59258385163241 -0.2892440115352822 -0.1822167091087422)
(4.49733503947819 -0.09173113406881428 -0.05555743971633709)
(4.87339407088766 0.3144950655474933 0.1890995417212868)
(4.948158990026894 -0.06219974574324211 0.02186975143549851)
(5.047988036444038 -0.0619946744577546 -0.04456267537117133)
(4.795063970396247 -0.03270614938039634 -0.1414415150518864)
(5.044751624201431 -0.01377942142417819 0.05950177164981676)
(2.587338978263118 -0.2372529232552196 0.741597133823461)
(5.000304010668261 0.005164770273081496 0.0007157704865750141)
(4.975336953041047 0.006300084439461118 -0.003747616563729842)
(5.006787165111898 -0.01301791343687392 -0.04603322998626462)
(4.978097007930494 2.545853514224207e-05 -0.01566732646455618)
(3.302347650334823 0.04287637283408967 -0.06793287463633517)
(4.756491937782758 -0.3196891867004962 0.4361582939909599)
(5.078870852924373 -0.06231944449057759 -0.0006371892445633961)
(5.039792434608687 -0.01128941586019202 0.01495283422934788)
(4.976890575190454 -0.0464009303041971 0.09759488889766962)
(4.984146973105655 -0.00640389010445363 -0.0105853315257156)
(4.985860739549105 -0.005830499894213644 -0.004346870531914745)
(3.504940331034633 -0.1825914763258242 -0.03351175517189557)
(4.999894710198136 -0.002130565383735705 0.00734673683403872)
(5.048593235037874 -0.1487982037370743 -0.06974031531015451)
(1.626276677532686 -0.1829625428645678 0.0365063795557407)
(5.090851233340739 -0.05603049332750593 -0.2326331149602966)
(4.934838372270685 0.03881621289934773 0.0177845445437299)
(4.236045446432701 0.1708081277738602 -0.1377015645284288)
(3.946596707191804 -0.2550027569622945 -0.02044052628559994)
(5.025810599762209 -0.08973177970771297 -0.08450108883499002)
(4.039951285443371 -0.413218291325748 0.4280662457560158)
(5.110646048749221 -0.1165007765726354 -0.08942717238680604)
(5.008630648446499 -0.03798239984034079 -0.1520547437315735)
(5.052728994855936 0.2783391351902409 0.1312730015781596)
(5.04300683015888 -0.0172374659851173 -0.0437890604290271)
(4.981622504956557 0.04543215644075101 0.1470500393757073)
(4.938331677176214 0.2606954935041433 0.1870115531219901)
(3.872922128753589 -0.09250326340815271 -0.2513515102416699)
(5.017199973035824 0.02719720210391009 0.02792717689541325)
(3.319211617253267 0.1266745105808451 -0.04886956915243938)
(4.466502260143852 -0.03464034024414792 -0.3896368707285777)
(5.003048028923122 -0.00595190072532498 0.003360042652786511)
(5.076488165957075 -0.05851944562436701 0.033607575131062)
(5.039242197148681 -0.01808301322664798 0.02968198283668271)
(4.930166564193169 -0.06577989970372342 -0.04049323423755135)
(5.05700326277935 -0.04461845819881772 -0.01778668029668109)
(3.029277989886654 -0.1723944114670774 0.09788342509294408)
(4.700966588850345 0.2454349103598542 -0.03750063309360696)
(3.975440534844648 -0.2808048039897567 -0.9545492996065743)
(5.004476487759273 -0.004582710152367954 0.004053294827445082)
(4.952097721530097 0.1213416170893481 0.3422252544471209)
(5.062875208959556 -0.08022326658860356 0.03066274997022057)
(5.068714097859784 -0.05002373124282894 -0.05225253155744062)
(5.079840635109002 -0.04632112500307657 -0.04319023256267243)
(5.075284912130519 -0.1002892576385791 0.08005354089683898)
(3.794284727262137 0.275993367062956 -0.3596587564447076)
(4.261936482477565 -0.05584856645902774 -0.4150328066062884)
(5.074913259737855 -0.04074266389644016 0.04840374086186126)
(4.309072465356993 -0.01834287035557726 -0.1427875530410174)
(5.034484865023525 -0.05678900079715284 0.08839429470066432)
(4.274234136920548 -0.1126157933301687 0.1003817963628651)
(5.110068233119099 -0.1707142004427309 0.1713511127987525)
(5.025901249843435 -0.02256943681149143 -0.1070785591792386)
(5.074688951749739 -0.06837869440774477 -0.01346777115637552)
(3.289815875193998 -0.02161338305973373 -0.02402468009207172)
(4.989338629073477 0.05366493212406044 -0.2014127925263202)
(5.012572325780013 0.03486749177746075 -0.03544938735978176)
(4.889950254264641 -0.309468913646421 0.3014634109977519)
(5.060631570111618 -0.05171608187074971 0.02685479027330757)
(3.783842184091966 -0.1547233103485922 0.49685300143626)
(4.935582995313733 -0.0006843545650496272 0.008459785320559814)
(5.049087213105709 -0.06351542731105875 0.0290668773410431)
(4.976029059209513 -0.3025866476814074 -0.00360671846230168)
(5.000428812766984 -0.007885813179085523 0.004193696784985703)
(5.004039954631115 -0.001349388095963928 0.007956499900382092)
(5.052890202093064 -0.08695611313538304 -0.02873324482849179)
(5.056816711803775 0.02888668481667411 0.0912512384568622)
(5.12707028397777 0.02201333963725041 -0.002158356217402325)
(5.00049283297013 0.01111227658906159 -0.0051110531603983)
(4.937183720002825 -0.004896572169135197 -0.05322360224406477)
(5.028434764044583 -0.004515039690660643 0.01016029844191033)
(5.075749508310219 -0.04678131743733797 -0.01180876252733432)
(5.015413037577334 -0.02533727353923339 0.04013323885566029)
(3.402124748693051 0.1762963889872866 -0.1186168769476644)
(5.022717337072576 -0.007477610705141408 0.006047070255489909)
(4.996794971872018 -0.0008301789278041037 0.01479685580402791)
(5.011587936809058 -0.00961984783385576 0.001872025062144767)
(4.757451663402372 -0.3537244771290431 0.2580056264734323)
(5.111320708258184 -0.2050024930879553 0.02551102950551879)
(4.986226336543822 0.02384064338981199 -0.02068905917580453)
(4.999487939273018 0.0260425213282843 -0.01180802733752369)
(4.9973597450803 -0.03794035843137825 0.01030777940553359)
(4.678040409492681 -0.3603897024024236 -0.05750036576630221)
(4.781690594583228 -0.3813746353187792 0.1974058310002555)
(5.003566253206165 0.005867419595584126 -0.005979587603034208)
(2.765546315977828 0.08917790788132743 -0.1715507095296606)
(2.849308155214545 -0.1127458573285495 -0.1221243151595553)
(5.089984278251451 -0.06539792705558639 0.07995721814782067)
(5.004847426977892 0.004869852286199253 -0.004549860589865653)
(5.010287591675044 -0.001163239477371632 -0.00520874311357594)
(4.930057900685391 -0.07619320981210223 0.1028268605694673)
(5.05165709285602 -0.1044384555965153 -0.163635906522969)
(5.031200677491518 -0.1421619167986168 0.158470965703919)
(2.359766993380386 -0.2439811093026586 -0.1708439615991294)
(5.103389250445757 0.1395251394145987 -0.1267661090899402)
(5.051372716566944 -0.1238809111454555 0.01877883691034186)
(3.095820505443028 -0.3258385112450496 -0.005426680196980872)
(3.832660096994148 -0.2242533386232919 -0.3289893338748072)
(2.158581270454627 -0.1416751974117563 -0.3407089330605693)
(4.28840007592196 -0.379925838870004 -0.09316937595169704)
(4.857863893388785 0.07464641777513427 -0.2778817223298921)
(3.022220147954646 -0.1308853717591657 -0.2462565255636149)
(4.990012668858642 -0.1195387415468663 -0.1995433569240914)
(2.096280780059069 -0.7897075368979151 -0.3380667069387782)
(4.695169094898656 0.1510415680497385 0.1717951578527952)
(4.974383136978714 0.05500340484968185 0.02013686965246746)
(5.121393051675438 -0.05239645931927417 0.05220285740266545)
(5.096998036727309 -0.07250438434532845 -0.0527510764795362)
(5.062071289149102 -0.1348328635962978 0.08858557563911111)
(4.394140942858135 -0.05393793457674045 0.1780141052298107)
(5.068808899615499 -0.03670379801137302 0.08629059595097421)
(3.275438920442467 -0.3699320048113048 1.120009231956515)
(4.475121151791147 -0.27658326990939 -0.1942803198881281)
(5.007996616180574 0.03302153314086818 -0.02982018540741654)
(5.01580369467365 -0.02320695613952592 0.02037036606322996)
(4.912099681554605 -0.09293416512655417 0.03388287178436215)
(4.826922758882228 -0.3019907444929529 0.4792590289377642)
(4.8309193784654 0.4209564627775303 0.1103906303128111)
(5.061374971700163 -0.02179930959363796 -0.02388167171720915)
(5.061666140026269 -0.03405714766714197 0.07183679798342367)
(5.001371478907831 -0.06765983492390287 -0.09555067649636097)
(5.038202672068676 -0.001162031088596512 -0.03180549265219361)
(5.043753113860788 -0.0280582658472125 0.003657117305395791)
(4.956620513195614 -0.0210101305898402 0.06881508434659343)
(3.543914696828678 0.2491406107275148 0.3791587489171818)
(4.238515509746176 -0.3355266835440692 0.08815736323627843)
(5.011891014646332 -0.02449215586182566 -0.02727720822349012)
(5.018876183716253 -0.4631218806195675 -0.2759255239929058)
(2.097432227369112 0.2929228658162907 -0.3801334171984843)
(5.000873956407204 0.001431034512464803 0.004043052028994743)
(3.184408418383233 0.350979174399026 0.3238337700256014)
(4.175300683837933 0.2025919153816665 0.2118578114116269)
(3.547102344660048 -0.08834332870594622 -0.1620768183552608)
(4.998649135266509 -0.002573207171616616 0.006142648404529524)
(5.069786210878511 -0.135414790211375 -0.2449876235633968)
(4.802517384437907 0.08219579635162401 -0.1177458377934727)
(4.486337309532066 0.6828282539949764 0.3604425722366532)
(4.996200904883134 0.0005593845811112549 0.003335946552743545)
(3.373765637850163 0.3119032839583982 -0.04179280131645045)
(5.00435499671975 -0.004002302646422614 0.0007268224763890771)
(3.273120774945466 0.3948677388320879 -0.004173995966282464)
(2.540556203430087 0.09301246012679491 0.1024747686928986)
(5.045200484756183 -0.04782865090769098 0.01452006915159889)
(5.015940598158518 -0.1798701861424264 0.1880932562460131)
(4.948260431936452 0.005197546476947662 -0.007856696818423516)
(2.571656855706789 -0.03939936962896899 0.2075859179119762)
(3.346058651825783 -0.01338846195766138 -0.1200502007174939)
(5.001095980845392 0.0005677845238710239 0.00130343635634755)
(5.002057476973602 6.509552059533394e-05 0.002304938057014401)
(5.001563960068949 -0.02985381636774966 0.02512041068629076)
(5.033608093202964 -0.05680377217772273 -0.09939036968109423)
(5.089518741936332 -0.1467435517085952 0.1724740641118654)
(4.991575399383064 0.000674419058361067 0.02935742157992727)
(4.891500859163058 -0.01009214662330776 0.05198711448286408)
(5.011138755780672 0.03302826021625284 0.04549954279854281)
(4.917695638816409 -0.01927510831270507 0.04744909455571197)
(4.993387405641339 -0.02618101901859369 -0.03262775739541142)
(4.94195556272371 -0.2237831610725912 -0.09476023008424744)
(5.059898102036401 -0.04266369096228505 -0.02285687903042543)
(4.845346138404819 0.2263507235654746 -0.2561740033676088)
(4.555682284429603 -0.06326178269668054 0.2017795156643259)
(4.96354595669384 0.01418264967112021 -0.007702956354315667)
(4.20840056284566 0.146468517401658 0.01664142745560918)
(3.712044570052129 0.1180806960118403 0.2594555937492736)
(5.070434838249046 -0.1719654921403907 -0.208430391563843)
(4.983458074590501 -0.01941775794137892 0.01887614078204612)
(5.011667429583222 -0.002577163374300132 -0.001537983187881688)
(3.323777854612759 -0.2003489945246324 -0.1244625362801818)
(5.097312778045424 -0.07307142629579703 -0.04443498164399891)
(4.979785487517914 -0.02101876311198546 -0.04949803012407485)
(4.302919243504043 -0.06531687246125775 -0.04723142613434807)
(3.952561899887957 0.5057179401509295 0.1756580286505874)
(4.889918329235323 0.0687567735247217 0.06216753689628499)
(4.884329412836474 -0.05879498394758859 -0.09856468410986954)