/*--------------------------------*- C++ -*----------------------------------*\
| =========                 |                                                 |
| \\      /  F ield         | OpenFOAM: The Open Source CFD Toolbox           |
|  \\    /   O peration     | Version:  v1906                                 |
|   \\  /    A nd           | Web:      www.OpenFOAM.com                      |
|    \\/     M anipulation  |                                                 |
\*---------------------------------------------------------------------------*/
FoamFile
{
    version     2.0;
    format      ascii;
    class       volScalarField;
    location    "0.5";
    object      p;
}
// * * * * * * * * * * * * * * * * * * * * * * * * * * * * * * * * * * * * * //

dimensions      [0 2 -2 0 0 0 0];


internalField   nonuniform List<scalar> 
78526
(
-0.05992435848286482
-0.01366589439222034
-0.01646343452873164
0.008548175264119268
0.007151937214833695
-0.004159587699347817
-1.041599059657837
-0.01942386835452152
-0.09479130498467951
0.005598046910192451
-0.02585194749371286
0.1357746799160218
0.1614575776756778
1.300910485837163
0.0292208341617174
0.003768111275052154
0.01837664454894742
0.02097482406253679
-0.01562133963771193
-0.09904862802118303
-0.4943089070535137
-0.713511838501155
-0.05253861322405926
-0.007216417813058917
-0.003041172579624547
-0.006857361579253839
-0.01404824589187679
0.0121280637247195
0.02093664436359573
-0.02089550844653768
-0.08498493109239826
-0.009253979479008929
-0.270748960378015
0.004650050647614975
0.01088007817445286
-0.01608717059311345
-0.2597027370819569
-0.02019911549798193
-0.03541718033759252
-0.02643156911982445
-0.1216817961701798
-0.007715444368835117
-0.03457887123951865
0.009825159954393035
0.01069945013527268
0.0105584472183454
-0.05303546266721584
0.0003616563943849506
-0.009031694349136124
0.05427966620116523
0.1202792923887174
-0.007057099865796648
-0.7946487842156661
0.0274552025887041
-0.0117956133659976
-0.6723331006024914
-0.1326726800129369
-1.631047591177154
-0.08521186286332096
-0.4000722558620909
-0.02510607498631829
0.009455084851621288
-0.01486392510961048
0.002120574242530493
-0.01007318277174914
-0.01078576960464282
-0.009289353352456868
-0.1210269770219355
-0.009270188668606721
-1.387771057764174
-0.01409587104299334
0.4156090444266388
-0.2660349185324743
0.3973324147711835
-0.02449131769784766
-0.1916592613652598
-0.008316199024486982
-0.0683155022209931
-0.006367029695033426
0.00250568762809945
0.04082873240030458
0.01290774593681706
0.1108901373453834
-0.2307858629119824
-0.07750380739787874
0.004866290538402952
-0.2626981688087373
-1.003266871703529
0.004089665616369035
-0.02491694622463695
-0.003840413954696059
-0.2876408967692408
-0.01972493160542719
0.01221331171128849
0.009002432336159509
-0.008229737079117505
0.01326588434903262
-0.009212547923254856
-0.1735366984172892
-0.009112784520694309
-0.1125225237197041
-0.09721322699870853
0.002811029077618321
-1.18040457746757
-0.009498481984648501
0.01138702355576617
-0.9398832373843908
0.01740057589479236
0.005965614713241478
-0.6512832465221532
-0.07174557343800739
0.0004225174225844059
-0.03750551019413803
-0.2139656822614981
-0.1636179107221307
-2.000624579660712
0.004999830582633384
0.02290261365361382
-0.1720853239166909
-0.002600854530767182
-0.009313123038089821
-0.07416583686736392
2.212724869872946
0.02295557434776168
0.04809009209927233
0.01787503320063755
-0.008584321354716587
0.003533591382302497
0.04432549272134872
-0.115268529371987
-0.2265950262403776
0.01803561642264405
0.05281932427261908
-0.01235593643354242
0.04015742362507724
-0.00578026842358023
-0.4538894075489042
0.03125536722771099
-0.003188047505545234
-0.008489251598796462
-0.1070084157991628
0.0363345907753119
-0.3231978849416708
-0.001818510860834777
0.0123044182749727
-0.6790952232680619
-0.1815228772054649
-0.01943495513337044
0.03705861309849365
0.02451042204494847
-0.01575484681721865
0.02981079168938728
-0.07809666998301397
-0.01142961655387817
-0.07648670392940365
-0.009546701316319675
-0.0170266895134901
-0.001510844396453225
-0.06732754245921321
-0.214964339787358
0.03333351317960372
-0.1402163016866271
-0.09835136824822921
0.004967079186038698
0.005254090078066095
-0.001297999089635494
0.001590466264670025
0.009687510034225395
-0.02358035621937212
0.02086513616057789
0.003341797586402589
0.02503913265778172
-0.01828318040355624
-0.2122073035958174
-0.9836250641127062
0.005422047342347899
-0.001642313038870363
0.02302873330974428
0.004441717337672817
-0.007095725070558613
-0.01424630869876822
-0.1550977010330478
-0.06913615632144463
0.0489842454992242
-0.12751189815985
-0.01870165003054118
0.06092863586891987
0.0115722360527552
-0.01761335052605602
1.761411928729548
-0.04474013845588641
-0.1906385248697513
-0.01282838755243445
4.324356638564487
-0.0091391470188042
0.01732067329991503
-0.07766575478488053
-0.1693198393647074
0.1319529230241201
-0.00260013351122995
-0.6773745236647424
-0.006417488766811885
0.006168416709174655
-0.01136484680915679
0.007570863965756918
-0.01110382617445791
-0.1617317910191474
-0.3945819081767697
-1.007064663384637
0.05457913087818401
0.02744109681327535
0.02436807111115385
0.1464604300201999
-1.664750545130997
-1.316367519095628
0.06005148220771914
-0.008904092897274601
0.01341203601931661
-1.503167398133153
-0.09303715178140866
-0.5219387385587055
-1.693070468106502
0.007424116471607152
-0.007476133505002031
-0.02116172569586069
0.0415405067418884
-0.07347051142588215
-0.07955969290119798
0.01509738262961302
-0.1688795762342591
-0.07115151125147362
-0.01526821434889467
-0.005697634876510344
0.1018658383389971
-0.00538702502199661
0.01816811915423448
-0.01001625291582087
-0.009956379457565086
-0.5562244658892442
0.06434054751762221
-0.5339528221061272
-0.139529523036752
-0.2512405430943718
-0.1127967584223005
-0.005947176687456803
-0.1085921510245841
0.07689119129205334
-0.004566545848434234
-0.07982177238109317
0.03879261012078365
0.04087531171518134
-0.1603270569389547
-0.2264564629628934
-0.01346858334892846
-0.02593027037981261
-0.3168747211237493
-0.2195432533391888
-0.1632059897194248
-0.04383632724240561
0.009455362521644856
0.01058005092496923
0.178557850367092
0.05296092885779133
0.05029882871320456
-0.2889180123566246
-0.01707061145196198
-0.2484195215263728
-0.01862851193506663
-0.2944756544349669
-0.6411402584100157
0.08484625166254135
-0.800591398822995
-0.00855415750908412
-0.04411248276677263
0.01605025358308329
-0.007989476363159567
-0.2615594447975294
-1.342012173463078
0.001255104692170149
-0.005776830933092922
0.001956895068421005
-0.009289312471695481
-0.02308712836033906
-0.07079174399005955
-0.03697970428434912
-0.3735039779248207
-0.4836386019420733
-0.01388816118583143
-0.02049865610465934
-0.1343880687333273
-0.01003810518096766
0.003974434438164432
-0.2537429759041595
-0.004010304152047141
-0.3497787881580375
-0.004033968140947278
-0.07468570335598829
-0.6811535288263217
-0.06946108651096049
-0.5773374131375449
0.0004979034640920213
-0.01339906332661116
-0.3293319469205871
0.01274167791778641
-0.2252576814058604
-0.2459057836637596
-0.1895149803807337
0.006689477995347646
-0.03100863188573967
0.04600637467871865
-0.2761868865252309
0.003792146629929529
0.0009695284790878002
0.008694042285402567
0.007258166490035344
-0.02169935767739896
-0.2288666207253382
-0.04807202825506113
-0.05290794977480943
0.007128128153479023
-0.1568624178462898
-0.01998180301556721
0.5360429880140888
-0.1738646306687551
0.07852641702386901
-0.007536025759733308
-0.174701882432666
-0.008954638039013568
0.3977856200119114
-0.02363765645618246
-0.009427017383941106
0.007471893594488708
0.004657424727947907
-0.08542228519480673
-0.005956769355470284
0.04284297059262916
-0.00727610411928385
1.82986434859416
-0.07415311116728486
0.00670047170935699
-0.008797975518106306
0.1021020478916414
0.03281544521492355
-0.2236080067056498
-0.01685355507031128
-0.2673514262602132
-0.2639714825562138
0.02133542723474596
-0.5362109423775765
-0.01289319819640886
-0.3262927645376248
-0.02388600067926704
0.008371551378572041
-0.2536292698197665
-0.01161990109125848
-0.04877756719503932
0.4297224438094711
-0.01218869225396819
0.1998097618570199
-0.1295926819967262
0.02511876424495949
-0.1228653672123477
-0.1937256414200277
0.005410278701115127
0.0432657253792381
0.003529211689963672
-0.1413166510648902
0.003891573766225263
-0.02253792441297963
-0.7192209360415008
0.4481718543119009
-0.007773132681475186
-1.133976357934911
-0.5413912217659763
-2.089181686975735
-0.027720904754282
0.04335969054891561
-0.01270855220784372
-0.1087857587152914
-0.008999394884245508
-1.118646710997937
-0.02669568191756507
-0.437667179520884
0.01421806497415589
-1.656750857928768
-1.959352145878649
0.4724955511586063
0.01570875724323157
0.004213936092598766
-0.9001674978692348
-0.8196005559469327
-0.4497276986007261
-0.002006400990448523
0.09078182483920794
-0.01199245249487318
-0.2129360993861346
0.06817694765153288
-0.001443857520983358
0.8968713921821438
-0.2262431574467328
-0.04435434371365837
-0.6134175613962608
0.06019605023004759
-0.004198784811542376
-0.0008748083916787915
-0.5414596227405998
-0.5756980480453295
0.158056085727605
-0.1999753235261094
-0.314465474828529
-0.1964617930178377
0.06686738353409101
-1.272502671232848
0.0001627480151256551
0.0155379990613477
-0.5854984743110139
-0.2036992669607697
-0.2189463879852188
2.306585121540097e-05
-0.1927146486384435
-0.3478013541848585
-0.2321400631607318
-0.003120208467265915
-0.1323010665829226
-0.6264318420627887
-1.265152748765856
-0.165240902436573
0.007022323563203182
-1.405656864810572
-0.302663305907447
-0.02095764957437255
-0.09441239919130488
0.4180375170950383
-0.03830922236628045
-0.4230121520099951
-1.979733494026428
-0.4292880260247071
-0.03479370251247848
-0.7901194208012833
-0.2487488636969649
-0.2436332525484849
-0.2168498840707995
1.485293629213424
-0.7897228411640054
-0.03152971629701921
0.003453098593766013
-0.7114069010425499
-0.403756617641573
0.3000625291188945
-1.669511481194019
-0.1868725971318649
-0.008128304550217453
-0.1887901264433512
-0.4195233997321922
-0.4642953603633341
-0.01117805379137896
-0.005217138591122841
-0.6817657098776675
-0.005745272386956944
-0.03144981980822949
-0.402068177702778
0.01139233291803654
1.039967167827254
-0.1176410128701066
-0.3722426791572296
0.008307847886310865
-0.6432324646643662
0.0175921023248902
-0.2678220147266042
-0.3747332735766983
-0.5826147558494019
-0.6098466379252035
-0.003136708242121531
-0.07507309242854283
0.004504540491415022
-0.01692184577350097
-0.01322701450469007
-0.1225522147786047
0.008341160904320338
-1.127275919147113
-0.5956524869082911
-0.269518475107858
-0.5340908521940596
-0.008860030165010769
-0.231058958951987
-0.4017846654577653
-0.2434553415351554
-0.2548678961761741
-0.2317036971799964
-0.2573710782778735
-0.03956092263311012
-0.6769541591291729
-0.2559059517405023
-0.2156919620840654
-0.4098902243977544
-0.6490865859792005
-0.001844554459029744
0.016867087859812
-0.08654156480373383
0.5231343360558296
0.01065055045989699
-0.2277612302264535
-0.01659169201265854
-0.004938953293938322
0.02067018679119209
-0.03644394194566763
-0.7020514372267448
-0.1444386111698873
-0.2053117559560401
0.004899175852033804
-0.3652809894101915
-0.0224045312877698
-0.01574076180184966
-0.2801835663130131
0.05174802679978981
-0.006280513304885374
-0.02425050135357993
-0.2731848179802317
0.04349533373597068
-0.2492036875323847
0.01811664654901707
-0.0004473107297220044
-0.1221647349774477
-1.417376902273981
-0.1360413724336801
-0.02498246023216101
-0.1253355728646473
-2.059662577127421
-0.6915071706899334
-0.5791013008505322
-0.1991209693832248
-0.01004846336142014
-0.9026545259259575
-0.008861417794693372
-0.7762922476034754
-0.2507959074677815
-0.5820993796475549
-0.0474637983109259
0.02051219165950401
-0.2785071149839689
-0.002599245811045714
-0.1679531716185148
0.02186056442745057
-0.0004206990363872639
2.054161787228189
-0.02577924374928284
-0.2717460423617783
-0.02031669277859553
0.02081507804357988
-0.2399244170298654
-0.01590849850756454
0.01536346748502255
-0.9914957192646885
0.02065564880667727
-0.009908439367741571
-0.6829233577707032
-0.06681076869821351
0.02787150194297763
0.01808017481969709
-0.132111034624413
0.1771246667672644
-2.857149088257626
-0.3187805544293492
0.4129169391205083
0.02975644765242925
-0.2254870734691223
-0.3819333406022817
0.06754145300298689
-0.6386816657103972
-3.836152417867294
0.001305947485497965
0.02712569635094467
-3.174787704618133
-1.518659691563072
-0.5949909754399577
-0.1108839507499856
-2.333610777758087
-0.2076480302897788
-0.9703914390362975
-0.005131702754147103
0.03352563615589405
-0.01313193356857554
0.01900987601584001
0.02884650211349979
0.02436792071214319
0.006554531771993348
0.02274593269602767
0.07545504731965975
0.05586444730366354
0.04361511477317104
0.001958569878144007
-0.006574431752088235
0.02946966308993052
0.2311518879325845
-0.01121971944671793
-0.2088265686297809
0.01787099005720576
-0.1589318174327708
-0.05823981410156116
-0.06723981310329891
-0.008559213958397807
-0.002682265001443574
-0.003943140411049242
0.002431153362370601
0.05709413786511667
-0.04794474402499981
-0.05080852334110305
-0.1583676793027324
0.001530676577348075
-0.1977815471028925
-0.1528012729213109
-0.0395244505166718
-0.003095814427632595
-0.0127750463316472
-0.02286039448945584
-0.04078609386664486
-0.004322143052495763
-0.00622615563086034
-0.0119814484396759
-0.0003279834604021413
0.06725913303330079
-0.00327257971272703
-0.08352247261128939
0.08537312489996968
0.01193083919410268
-1.919134096557137
-0.04347425429520076
-3.702073273550961
-1.914754292229481
0.06648406310071266
0.0004500272665499177
-2.756026173120835
-1.127992734073908
-0.09927607456199057
-0.03325617051802408
-0.001326898234456681
-0.01032717209305631
-0.01098251134586918
0.004215463240502137
-0.009966330462524131
-1.63960266466661
0.004143994871942332
-0.0178746288895418
-0.003216622612738486
-0.008938513036561735
-0.06726009536891962
0.00255955031041686
0.00256098715522703
-0.004746762929160083
0.00172780317405036
0.003895919711628054
-0.008834093082189104
0.1033628573712234
-0.0173819860691904
-0.01775137576991903
-0.1484213691578017
-0.1588948348142969
-0.04199085311633801
-0.02724640249321564
-0.008536718409469395
-0.07026648693226267
-0.008922908017505117
-0.008580804912231493
-0.005425276278525638
-0.1798504380202629
-0.006647203481148326
-0.03708141367562607
0.01357255146418509
-0.009050103896320745
-0.007997863510546569
-0.01044811731345228
-0.0100148033847177
-0.2374408838156497
-0.151422257709363
-0.01002109882997889
0.03894257111021875
-0.01518204315454708
-0.08725010339058718
-0.007254524153110783
-0.004185868016437223
0.004063699676848595
-0.01144384089546171
-0.1536194381818808
-0.1138341060869247
-0.008532293443265606
-0.01107691455182922
-0.1087049239352188
0.1772031231221743
-0.1735071454450193
-0.04637450216668752
0.01142339818301091
-0.00496475880049593
0.01462414720356451
-0.0170579216193594
0.001640725867341312
-0.04475360263337285
-0.1552343966361312
0.02016734287640982
0.003929043706868508
-0.037622687598882
-0.04857879481582863
-0.1431695266441011
-0.01330501962865572
-0.170823079576916
-0.001285380976440599
-0.08373829846849255
0.06413934491388834
-0.6637850693870411
0.009546448923712069
-0.009663630034176666
-0.0292463545656035
0.01143619219101658
-0.009006688457129325
0.06608223554737133
0.005573638781043644
-0.03967410467457238
-0.009349620848795072
0.09273664766716742
0.01784604627344335
-0.02863593868493967
-0.007722889988431346
-0.1972569776048298
0.002547110597878514
-0.01246458943415397
-0.2130166690754308
-0.6358493713126104
-0.07025124616279593
0.01822503167448917
0.01587470640881059
0.003644780106142918
-0.00462574722716063
0.07894204933854236
0.005609214371047356
-0.009746394646478624
-0.010454217284303
-0.02020277587399031
0.04478379346592036
-0.01533543643367001
0.004011597132809917
-0.2722527566474663
0.00545359056700252
-0.008735253592725215
-0.04179029185651042
-0.1643784130092693
-0.01125654439781894
0.0006972610108753962
-0.01554433806222918
-0.1930954800285674
-0.007435963868828887
0.003246613104482881
-0.0415064847277069
-0.0297419798970452
0.02470960312114572
0.01290600657559025
-0.9376088311046128
-0.01043389139431411
-0.0186015545067285
-0.01320469399696305
-0.1767448861597725
-0.007867287329917079
-0.01150777714102257
-0.005015233099629502
-0.01471869911893472
-0.2243411868585342
0.004907073420003461
-0.1102831961671794
-0.008541910703945716
-0.01623036447713276
-0.03124226058308206
-0.03022745938421365
-0.01914934722655871
-0.009404796027388841
-0.2331901359697714
-0.08728688041391906
-0.015207584919705
-0.3359284418492909
-0.0009544619730382874
0.00197421461666176
-0.007806108251685572
-0.002526128371890792
-0.2237924308322201
0.005644182008837869
0.003505846861772795
-0.09583949157178956
-0.002073468313801955
-0.01400297253888766
-0.01657603595436712
-0.002994252915281543
-0.2097159634253146
-0.06740195289981854
0.1778522065285718
-0.294325801314627
-0.2275578972803393
0.008734627808021169
-0.1554523260626204
-0.008036983945275271
-0.01444068087216297
-0.01476588417602876
0.002532709154510887
-0.09022355297842317
-0.2485657025170853
-0.01651268627352141
-0.01021871747701657
-0.04612738568662098
-0.1047260729902123
-0.01020931599888123
-0.003701345245704623
0.02548571606797105
0.01047445422372901
0.008552662826951456
0.009538032328368633
-0.1864088900929839
0.006409519776114723
-0.1514878675295292
-0.01613331919270267
-0.002641442009316789
0.007348972095161668
0.007435165408371062
-0.6594252689152397
0.006993482699007744
-0.004548020237874854
0.006012005162451561
-0.01844825789502683
-0.2019746947556031
-0.01348866095444545
0.007281615195338725
-0.1637860492056336
0.00938709017598654
0.02105265549669118
-0.09451625597853476
0.1131773156745521
0.006839021886394917
0.009318162364205976
0.02168151317712723
0.005075474992848212
0.02453057558611049
-0.007641586182131822
-0.005731157911335428
-0.008555574154327263
0.3273825331080962
0.01058800565711015
0.01416870481045356
-0.01307311771061204
0.04468513498910489
-0.002745938483189613
-0.01060193560974613
0.0008648702094991269
-0.007100894092127843
-0.009970155752479068
-0.0198092848232247
-1.554298233930041e-05
-0.008587990754549375
0.06094015440630168
-0.004745535253529289
-0.009180770696534619
0.002719261239059767
-0.007457457893036377
-0.01343663770871591
-0.004458871559289411
-0.01246487418042737
-0.006384313647004814
-0.06996893159523118
-0.004890224903227696
-0.06696826903842257
-0.02639990513991431
0.004351290209578704
-0.007953055142413673
0.005304690845045713
-0.5323071370659197
-0.002956310497652749
-0.2457182579286578
-0.2658957318634686
-0.1890868367933887
0.02000067125435613
-0.004754761336713555
-0.1851840101730233
-0.1849573558462503
0.1177147967936439
-0.05832238957381197
0.199426535403083
0.001603454373420745
-0.001435167450506469
0.07668919148732774
-0.1820463090663099
-0.2258614146737959
-0.001819120280942348
-0.07986330857940639
0.02773606168794822
-0.05346199117529459
0.6457138002779491
-0.005005059020137642
-0.2005090956541985
0.02884502941831439
0.4191158585338207
0.001628282857152483
0.3499421986965292
-0.0006958290858314709
-0.265277956419327
-0.005023080180454028
-0.2417863407907536
-0.2432240530082917
-0.003029280170629973
0.125452722083429
0.004193196976022791
0.009892375389825158
-0.001175588464971495
-0.2823647217994495
0.02273663274057407
-0.01711488387977639
-0.3056211704296526
-0.02720213344081438
0.004499280697140244
0.01732670468181116
-0.2060860112707738
-0.01510667815478137
-0.01797687343224973
0.004001504279288005
-0.03164520384721708
-0.2143752263122818
0.04137277994075785
-0.01610461716662836
0.04913968752447353
-0.0004923782982501379
-0.002933389057873517
-0.009700408353758539
-0.2811027124292446
0.1553464662592991
-0.01689075256871666
-0.3249094467584988
-0.007696316324535543
0.01046149749092439
-0.1884432135284202
-0.1425525186256882
0.01191982312476313
0.003585128213709349
-1.353375537353616
-0.01095503237240807
-0.7918468917200093
-0.008889337389992919
-0.01838302558383099
-0.01189074722767098
-0.06394892236100781
-0.05165911071684674
-0.163250350274675
-0.1410267915852095
0.264198028106699
-0.003881314001563846
-0.023824158851938
0.01042628463909006
-0.01027315484484703
0.01395947733742002
-0.1764417065812808
-0.008629978105110323
-0.05465068633799779
-0.00383970501784496
-0.00559825615196672
-0.01356528428875832
-0.06417770901972498
0.1297885059093863
-0.03366315981624095
-0.00936037375035639
0.02119385986608112
0.008780777452997166
-0.006538833111153436
-0.01971565498415855
0.02142869521298655
0.008775491558595729
0.006607421694879914
-0.1025967304966685
-0.2113089507699813
0.004804672770443783
-0.8305547598573065
-0.2577467924163345
-0.3410398972381683
-0.1724048476191484
-2.213678176541512
-0.03548110992695502
-0.00602402252752915
-0.03334211947902693
-0.06019120608702556
-0.1472696718004464
-1.412238183539828
-0.1165742974151446
-0.0237224826746104
-0.003273364296146369
-0.01372981782399363
0.0001027533335235504
-0.02513646492659261
-0.8699749586429629
0.06238767261014281
0.004595107504305436
-0.01263881140366143
-0.04826414189890628
-0.00860486569317747
-0.01107492606577509
-0.06924298041393233
0.1168832950364669
-0.06533165386863601
-0.1315038341788231
-0.1454142131932276
-0.1247002638668853
-0.01351765194079387
-0.1119256636962951
0.3286089896843105
-0.03596239882051949
-0.01263972448513856
-0.01318076628907982
-0.01438384943083511
0.03828424438305099
-0.009019594864313535
-0.009275239591010002
-0.006934841156539536
0.03684284840406968
-0.00915420648736588
-0.1184063030429621
-0.04597681230966338
-0.0149240483738321
-0.7242298300103583
-0.01472161596351406
-0.2071184501497684
-0.1800781764272726
-0.6233933763171975
0.04050924992407741
0.03934220936966364
-0.2107450000969913
-0.06010042745913689
-0.01483930069168344
-0.01626104699821159
-0.06091859745091154
0.001458223692855182
-0.1478839263140219
0.0003332214071916784
0.007174902510218527
0.001095070753626015
-0.3352033348549014
-0.009851300626717125
-1.573000770776209
-0.1109956863448617
-0.07748822587544577
-0.02001964255508521
-0.9901498318792881
-0.008468237499098419
-0.1803091023202534
-0.01363681505594813
0.001029462394784946
-0.00796958343923454
-1.248230221815112
-1.157036111626952
-0.3477709418683589
-0.07386254955850481
-0.4778303422268843
-1.847676124138017
-2.791913434278378
-0.005766413825666432
-1.882881880899156
-0.00621249707353839
-1.865235663366801
-5.055915731939996
-0.007943479072451329
-0.01076614620701278
-0.1013553389360861
-1.81199009938439
-0.01435428780671452
-0.0637757622498915
-0.01011373995755368
0.04034296800745291
0.04178623737094736
-1.177006293109529
-2.512851006568611
0.002503576578938278
-0.01705445967289583
-0.01565950582037896
-0.009158973168203233
-0.01049140027144727
-0.06507276551294251
-0.01183971666427885
-0.03377008128867215
-0.08026953085287351
0.1264209205943392
-0.07979833305343507
-0.02244208409643569
0.04019224995678767
0.005605039629760165
-3.58268863520312
-0.01731847304046527
0.02177939165980437
-4.761070846294928
-0.1055211209146723
-0.1086333117266013
0.004078865806183459
-0.04049348483398529
-1.079784413470539
-1.760737806464126
-2.053042471476362
-0.04773318402461386
-0.09492992935671042
-0.1155473952745356
-1.285138780660264
0.01447000581353953
-0.03882739244802233
-0.04640240491814297
-0.07910345724734176
-0.02675771434970953
-1.537020827692741
-1.56177536790589
0.1412611526003577
-0.05087985567829895
-0.01690222025757974
-0.03092520672555871
-1.022066267258866
0.03838281849765592
-0.01000614139635473
-0.01022360541062967
0.003825380465216977
-1.471985940788894
-1.651931479397668
-0.006422595207046199
-0.9131990175284757
0.01248366316425885
-0.01642816359376861
0.02875500262041668
0.03803559981911121
-0.3824210963644364
-0.01668731192628409
-0.01713377949061102
0.03605300624782685
-0.1098689209192293
-0.005353482627105633
-0.002273529660163744
-0.2849644166412115
-0.1582739443403386
-0.03295371419777646
0.02223901501023698
-0.0003355111595724784
-0.002199016113435558
-0.02668703455975988
-0.002137386160185429
-0.04950696075114996
-0.03194000644490379
-0.1449615661315573
-0.01236466476267614
-0.009218145963170396
-0.476011888324114
-0.0658428067759414
0.01106966500349
0.002456323288145309
-0.1071707897785782
-0.1308417779089912
0.005033779972974722
-0.01279257944055769
0.03622964023430951
0.005355870921415551
0.0002047945086785077
0.01004160509864824
-0.1816187764019888
-0.04815884814783847
-1.131620914529069
0.04615433495736829
0.007496922978044655
-0.001184643805374849
0.003610110646110858
0.01628864416526845
-0.3105279152082976
0.01919487079585212
-0.3011812050599492
-0.03714424527592926
0.01249741743153486
0.001768228758594236
-0.03878614638844871
0.9399051951517845
0.007416264194206876
0.01230406797391971
-0.3955821182450318
0.009427069906204628
-0.04494973214088882
0.009492560798503842
0.1230976549180378
0.004763954564239802
0.002490866643080725
-1.3050561743121
-0.05883699281238648
0.005532961739436889
0.1763034177643674
0.004375900252450613
-0.1311050925952434
0.0006218787729387662
0.01252003965871536
0.004056131055154688
0.008842551801064641
0.006716014200301706
0.002322941892167218
-0.008974471631798989
0.02127087319632815
0.004817331150377999
-0.2262123450859633
0.02251618749328888
-0.007929996943176311
0.01318227637688474
0.0194899345731887
-0.003290193739042478
0.05370192680466473
0.003765846662767735
0.1121815695510903
0.0007842340385735776
0.2960602479875254
0.04131886552508703
-0.04094255955790739
0.05247701082139322
0.01322389212294691
0.005703468921249264
0.02023673883240687
0.1055471821264409
0.007601217595674029
0.02538040025673042
-0.02993218442374533
0.003732353434746414
0.02199761691727661
0.03430248987802473
-0.01684658873349682
0.002337823639814594
-0.3009801219546036
0.01554137886775509
-0.04043348830877506
-0.06588486749958387
0.04984408555597895
-0.0100689820370394
0.02633956813585967
-0.2694969219588575
-0.1689830532674677
0.03591036768886328
-0.01596954331839182
0.02440486106690122
0.003341545274535712
-0.009718202397044302
0.004621923636039882
0.0003686864216323376
0.009090083674260445
0.002581700828097042
0.03869676516760405
0.004289979676169498
-0.04249621192678623
0.04039136226729917
-0.1098697177140383
-0.01713718899263061
-0.6400236801390806
0.01514843048124283
0.01686859246943824
0.006516493537962796
0.002736190756355521
-0.01500930378116448
-1.009356870350804
0.005358485108090353
0.003975301153083698
-0.6531577186252536
0.003423460094193434
-0.0419238088949914
0.001908086792566741
0.005454211504534909
-0.03838648674910426
0.03161480431636336
0.02541817584708624
0.01090575741147243
0.2166808519565493
-0.24168088886167
0.001045780936531515
-0.01372338763651605
-0.02807260295700888
0.0001276881145323682
-0.02847277876538329
-0.02928253441206865
0.0009036913103005807
-0.02920203397098261
-0.01488492185210952
0.001329490256532407
0.06220082989488429
0.9214770729367601
-0.005381885945928872
-0.4099568005727069
-0.09919608174009917
-0.1335130272850885
0.03502645454225668
-0.01862761420201157
-0.3950220026974733
-0.03749250625474587
0.003633574308876736
-0.03493763142978752
-0.06642242857419488
-0.03773259612717754
-0.4953879607982951
-0.05763541740230139
0.001021478026187296
-0.04670963342208814
-0.01698444466712276
0.01792956380426294
-0.6382010169849719
0.1310645148250235
-0.1582703339682277
-0.01420839622628463
-0.03380996358660872
0.04736149069040724
0.001559407003233864
-0.1418056422067585
-0.007205499242582985
-0.1470882593834764
-0.02027593864792054
-0.5246544148852585
-0.287767615077565
0.0168059524882084
0.04108320912899403
0.05926479508846171
-0.01295691861952973
-0.02355789550081533
0.01978041448036353
0.004818184526741603
0.02080491690613542
-0.01424304121826288
-0.02670734079747412
0.002943006667938494
-0.04306049845486271
-0.03723160606282606
0.05126120658724394
-0.05268272858812718
-0.04145212523154466
-0.04712926921525058
-0.003549360983486628
-0.004643886172739457
-0.03410587513802568
0.002224650779982934
-0.02499854187308324
0.003346471109138663
0.004096431585759663
-0.1847490476895068
-0.008240195832032202
-0.05911828163609968
-0.01942779352113538
-0.008978998574295797
-0.01718147957552819
-0.07905253803524291
-0.01641836071658979
0.002872003418260409
0.01220048803805084
0.004150524457398195
0.06904461284391289
-0.0145490592122947
-0.008198010258046468
0.001230622094962997
0.002052317286940149
0.003958312987698812
-0.3979528254389854
-0.005389952439482083
-0.001495594783682804
0.002442115202966771
0.009696511463217048
0.05464685987577221
0.02107683624796301
-0.01714412051039706
0.006266420194723638
0.00107359234315348
-0.01695210173504008
0.1920410703780737
-0.6192128177189457
-0.01919310809047734
0.007215356260491565
-0.01747163578049988
0.08925974952028118
-0.01616218450630617
-0.1358148141511636
-0.01672975860066895
-0.01779619229350417
0.0146744369827389
-0.005617442464777241
-0.02143813822679082
-0.02102004682465948
0.01627839465822551
-0.3340210165369799
-0.1978431871341947
0.02844790858415356
-0.02015064540513976
-0.0362354442294974
-0.02583347018753806
-0.7562877793836934
-0.03391860468989755
-0.7367918715932228
-0.1176952443974283
-0.03248997184198853
-0.02409969432333495
-0.03506679051519458
0.1463749427795237
0.004330123802608584
-0.008471462928791581
0.002703570038437643
-0.004886814304494142
-0.03861285714186995
-0.02096799837072129
-0.02254944611588053
0.007264296916696138
-0.04038604695374001
-0.02901483704275199
-0.01148960210455987
-0.03055169238864651
-0.09306993960851705
-0.02338109564125789
0.009768724719466377
0.01910752432465318
0.0142894293808289
0.008091722777450426
-0.1574428908765184
0.005867123526676635
-0.04336712522940406
0.02458118647934808
0.02903302044088548
0.02609098836942845
0.01096648045553768
-0.00832586595771099
-0.01093639667817829
0.003665707953373997
-0.01069700603067841
-0.086411209572254
0.009608037277766391
0.01418063670345406
0.0353413467032989