/*--------------------------------*- C++ -*----------------------------------*\
| =========                 |                                                 |
| \\      /  F ield         | OpenFOAM: The Open Source CFD Toolbox           |
|  \\    /   O peration     | Version:  v1906                                 |
|   \\  /    A nd           | Web:      www.OpenFOAM.com                      |
|    \\/     M anipulation  |                                                 |
\*---------------------------------------------------------------------------*/
FoamFile
{
    version     2.0;
    format      ascii;
    class       surfaceScalarField;
    location    "0.5";
    object      phi;
}
// * * * * * * * * * * * * * * * * * * * * * * * * * * * * * * * * * * * * * //

dimensions      [0 3 -1 0 0 0 0];
oriented        oriented;


internalField   nonuniform List<scalar> 
153371
(
0.01600092540741029
-0.8050863327253145
-1.449537328451571
2.238622735772949
20.6188326934414
-4.648335725524425
-15.97021900837411
-16.55988420372122
8.219675497184335
-13.28937879325502
21.62958749979114
-0.3775516208288303
1.00316419463249
-2.77293534912696
2.147322775326221
-5.162552200328433
0.8059211342735092
52.37038222121823
-48.01375115516377
-18.28107996157805
21.92063932922901
-22.7954514683777
19.15589210073147
0.2268364497542531
-0.01023934061576651
-0.03771244597356643
-0.178884663169457
-13.9131844470039
-12.08008874317799
25.99368680757492
-0.1098534148852405
0.4250854845845637
-0.4549479564485275
0.1397158867491825
16.79832452139217
18.25951602543494
-18.54211054543811
-16.51573000138887
-7.327906501732327
-11.02415969763462
26.13301249946882
-7.780946300054174
10.85726371918075
4.885977195124327
-15.74324091428431
1.5885717585029
2.845629205233297
-1.486563727982715
-2.947637235760519
0.4987333967376697
-1.074194434954379
0.5754610381899501
0.1189815175876743
-0.1664137139662988
0.02853872296771807
0.01889347340623098
-5.078948726701688
16.72718889448103
2.823462571754941
-14.47170273953364
9.394577134074742
28.05305202146852
-20.95079938464814
-16.49682977089263
-10.1901892326398
-24.85913353789959
44.44389990461515
-15.08322435587112
-30.34700340726883
29.13143465088494
16.29879311225612
-10.51114648598907
4.567907852275947
16.43711587340702
-10.49387723967106
0.03649925094429195
-0.6168946173573333
0.8633399847956633
-0.2829446183850258
-0.1157617275855262
0.1421259079604564
0.000615130152338896
-0.02697931053004895
-8.943026984699577
-24.35499593421429
21.22604127195042
12.07198164697519
22.75519992987264
-22.15959706646977
0.5021051958278488
-1.097708059227661
6.968076661899454
-2.976540712163531
7.607245958124148
-11.59878190786732
9.64826975916808
0.4358388497562452
-7.43493006635124
-2.649178542569449
-8.910382208868244
7.610196369961891
-3.177335282410916
4.477521121298124
-7.541619868182093
-7.298147727473823
14.83929939909542
44.35079432452095
-10.63204488998222
-22.34045393964118
-11.37829549489623
-11.26728073402543
-5.807632995058761
17.07576865758873
0.163366325112276
-0.4813522259540793
0.3784669497883667
-0.06048104896396467
-0.09824352685193659
0.8361310771296184
-0.6970000058742236
0.5607564215692235
-0.6331538003031266
0.7693973845938051
4.852722068135168
6.942386749948487
-24.12889527998222
12.3337864618988
-14.94155833201488
23.74731912232014
-3.416688895210539
-5.389071895096623
26.58316100890108
-24.12361862044602
9.189605848570721
-11.64914823700778
0.04922547375610858
0.1447096476770904
0.3015410301674503
-0.4954761516145675
1.512525809601968
-14.62413374241774
-14.3099978476792
27.42160578050149
-2.280213232684099
12.38932569930651
7.178799875559201
-17.28791234214696
-10.10268385842623
3.661691267386377
-11.81593364864007
18.25692623968967
-1.429816602758885
-0.1316458981527001
-0.6482246796431376
2.209687180526478
-4.877240580186951
-9.486423003173426
-3.427956979540417
-17.13996660764595
14.55126429870136
-25.46240105900178
28.05110336795216
-1.497263581663245
-0.9650549129616536
20.45628532942427
-17.99396683478124
4.407582961943117
-0.01826563943873081
-19.33087565451939
21.12456476244869
13.41274182738437
-10.78998746751241
-14.87565785862926
29.44569976827983
-14.56905639583607
-14.15936766995568
-9.921368885737648
-1.581859431018434
25.66259598671412
5.336240362546427
-18.77943931457406
-5.077947294529971
18.52114624656024
-17.94922264324334
2.316325504779773
0.3151866819493007
15.31771045650377
9.159772461454759
-4.652272978468122
-10.85518694958913
6.347687466600234
-0.07582619512152958
13.59115643463402
-6.547253577621596
-0.06765732704818422
0.07305630052252607
-0.01010359503266767
0.004704621550056154
7.275768067653157
2.773377963349018
2.516968348865572
-12.56611437992066
-19.6023602338822
18.71647119640799
0.8861371022546203
-0.2046054984597685
-0.01505608899508285
0.4247731069225253
-0.2051115194749777
-0.8217266448014098
0.3072531358234148
1.124050981770825
-0.609577472808038
-0.2379622339946738
0.162722311767635
0.2089399859817163
-0.1337000637598567
-14.02962247768557
17.8539209097854
-2.56532382474173
-1.258974607332164
0.6033668717000694
-0.0183994717649464
-0.08686204504584814
-0.498105354894272
-4.447676122377905
13.58467241442631
-1.526799922125868
8.276184446811733
16.64719385921619
-3.798813543576418
8.636042038815305
-9.417465328222638
0.6831797625670238
-8.328668910429139
15.13469842034101
11.09836990310894
-17.90439941304367
-21.67242884890074
-14.97654974631549
17.04661836133435
-4.708316644268908
15.79275877027428
-23.88693395878771
12.80249183278314
14.84922047170902
-11.62228200022327
-0.3792401745168965
-2.847698296968447
0.08228197055440567
-1.606584010847243
1.573488717181049
-0.04918667690136416
-17.09402724734574
-9.020884611694633
14.70046902195077
11.41444283709084
-0.02954404263193587
0.01841825839073427
9.728294387221457
-20.24785721151797
-8.1887714984861
-0.4906210381993945
-1.392743955373186
0.4501209698665096
1.433244023699853
0.3019331501298117
-0.5526668652718559
0.7648968531170266
-0.5141631380053717
-1.039197312835047
1.36696775459269
-0.3277704417663438
-8.442933963664673
32.55759288036026
-27.41429181680448
3.299632900111496
-0.4552255475650811
0.4874913860599904
0.6055363234835557
-0.6378021620055603
39.66466366762707
-16.63463457324777
0.7796017089554056
-23.80963080333317
23.52463329292009
-16.29628171788671
4.254910352493014
-11.48326192752235
-6.219286567409977
-2.198211708399745
8.853337125554676
-9.729708788856515
5.605644608362296
-6.400635749818905
10.52469993027933
-17.21299109129064
-16.28297791371246
24.56196375111387
8.934005253908827
-3.234766098206666
-15.90409019445094
0.782333930568001
18.35652236208677
-0.06166712907395468
0.0007464372581511127
-0.1177206645909542
0.1786413564018155
-0.4396234759570902
14.37026664760401
-13.93064317163667
-7.681155957867564
-5.800465351875321
-7.842712356833081
21.32433366661041
-5.093616510541251
-16.72865264026209
6.427664221814759
15.39460492898956
0.1590205362718458
-0.2618368891783169
-0.4837811879118935
0.5865975408037964
-0.1203815636306635
0.1028699480717676
0.01130823642611029
0.006203379129085922
13.99442965543562
19.535217929635
-0.9033435517255743
-32.62630403334525
-10.20517245380172
3.514226029247605
-11.99006963080045
18.68101605540492
-10.15176663199381
7.73835853127963
3.934696533770701
-1.521288433055797
-0.4663813533617699
0.8127726227213447
-0.04445811924398294
-30.53969099379379
25.67179186594534
1.531686187929887
3.336212939923585
20.81387125610045
0.3755847197375777
-24.4242220740448
-17.5874004229744
-25.34583283874078
19.08025686683834
23.85297639488569
16.60554471673257
-19.01142222095106
-17.95790396052261
20.36378146474119
-14.33452729283272
15.42377442006362
19.7246241288711
-26.56125678580135
-1.125798860117544
4.119760131479514
23.56729551443996
1.786687424182438
-3.122434281572767
1.488356091971273
-0.1526092345923092
-3.482685519252446
4.908736178336742
18.21426397218148
-19.64031463126453
1.472747849700136
0.1889617191675532
0.4176196565464302
-2.07932922540676
-0.9389592862424848
-1.51949534746103
1.350184648191929
1.108269985510741
8.562321576296856
-8.748001778431934
12.97336105096148
-12.78768084882451
0.2016079414511133
0.05221053731313183
-0.1842312249595796
-0.06958725381460032
-11.21694786601828
2.014313673368689
24.94846926124807
-15.7458350685985
-8.057001673389959
10.60799963491502
-12.91247628129761
10.36147831977409
0.1027001549568543
0.02614348964321803
-0.001884754433738237
-0.1269588901725075
-23.75299522089861
7.418634866491305
-9.022358382328619
25.35671873677328
9.289995872479977
8.777955454932364
-18.06813613489649
-0.02309174087670783
0.06928232842451726
0.03325229181980555
-0.07944287937478141
14.27110674719041
7.285249128537509
-5.886394972477469
-15.66996090321972
4.579274424006684
2.628815294561685
-10.18463043074213
-0.2188853474945962
0.3816786268565676
-0.4254409321066479
0.2626476527402756
0.4070792481583473
0.672704356574398
-0.261535515029164
-0.8182480897242324
1.706717796853802
2.108975102138076
-2.705639187487781
-1.110053711475329
-0.029879561278485
0.001081147561130432
-0.03381077084422542
0.06260918455716474
9.073958708243071
-7.309918251137924
7.525955415375121
-27.40350452466496
1.955748467576366
24.24319318557089
1.204562871513905
1.103658730840563
-3.57535959653264
-1.010811331996086
3.482512197741142
1.460143208773045
6.969976932255398
1.295097676287194
-9.725217817227719
7.322071020432233
19.9789395474045
-43.18884678495785
15.88783621712192
2.862506302777867
-19.3312929296615
-3.917174753016174
-0.1176403662139008
0.127399881927438
-0.1111670230859219
0.1014075073657374
16.38511864189325
-12.80379040221634
-3.130257071178264
-0.451071168497988
14.79619502811862
-17.66781557795685
-6.354376412352535
9.225996962245757
9.110680300982898
-23.36365228046293
14.85896405100733
-0.6059920715272327
-12.72029963243405
-10.77402722369313
-15.57499475554026
39.06932161166743
9.209629891132533
-11.83649077248459
28.13123801367426
-25.50437713232082
19.29959012206431
-8.687238224039318
-8.235343459196164
-2.377008438819378
-0.8897840103357716
1.96051657385328
-2.767643746851059
1.69691118336338
0.5851161971002526
-0.06584466437019434
0.09113832897156346
-0.6104098617054647
18.88140094352384
-18.96437834138415
-0.8133339742560136
0.8963113721235956
-20.46495418497512
9.369415765354967
11.09553841962335
4.250771848866285
10.59986301900427
4.49794978739984
-19.3485846552923
4.824559108752385
6.974683254977168
8.361504727924215
-18.93578498172561
28.59395312548915
-5.703089312611636
-3.955078831150117
-0.01663792179016656
-0.1572039779060611
0.140157502187258
0.03368439750177613
9.447609161238239
-16.68861099301925
-1.053694837193405
8.294696668978791
-1.892278636539151
29.90116887729623
-2.918549282830309
-25.09034095792395
27.31978835148071
-27.16875243780264
-3.799883825535222
3.648847911858569
2.089765044086285
-4.634561672360372
-1.98573788646901
4.530534514784111
-15.5758486284711
-9.504398721519809
10.25828492847049
14.821962421522
-0.1828833784397813
0.1359680083394604
-0.4194659832738349
-0.1409769023805066
-12.27656808486204
12.41759703252605
27.86071158115341
3.220306017478769
-10.75866904286501
-20.32234855576678
0.08987542293120142
-0.09970557733811217
-0.1997824482705071
0.2096126026712094
0.1681248977208953
0.01296548441038752
-0.181273498877792
0.0001831167378529477
-31.88401141754652
-0.4880483772399529
33.6435936969815
-1.271533902150928
12.31368054725407
-6.314739712854843
-4.657177556895867
-1.341763277500605
37.09686634033137
-25.55195882885954
-34.52697247277532
22.98206496131114
-4.260782846063475
-22.44440201715277
2.757879222701926
23.9473056405906
0.1576284134112903
-28.51969288666345
-1.051747792202211
29.41381226545938
-16.55742302372265
13.07014788883496
-14.47961416802887
17.96688930292147
-21.59012802275043
-16.49537803536502
10.12416624020002
27.961339817913
-20.75814992742322
-6.664870691038848
14.16678191474444
13.25623870372712
-16.11848983327279
13.55585243179798
6.851446128660779
-4.288808727199489
18.59767012404001
14.1423171548149
2.997776371649342
-35.73776365050276
13.93679889115838
0.3515947251617261
-17.24018893150167
2.951795315193519
-20.22164767478094
-6.322742063247786
28.07501757912102
-1.530627841066929
0.2152423593797528
0.3969839996338732
-0.1530759333984379
-0.4591504256254907
-22.20340956794446
15.41799758598012
9.94272013288183
-3.157308150913701
-8.115851932727908
6.98297044741826
-8.240008890045202
9.372890375370973
19.97989231070307
-25.72675390254657
12.04509690858016
-6.298235316683046
22.83187538323369
-22.06669123818079
-15.37961230608999
14.61442816103809
0.3897059505801425
6.64604574733004
-23.83810023056666
16.80234853265789
6.200398667206557
-8.321765938302628
-16.82234433627981
18.94371160737685
-22.64018267610355
2.169808602720309
20.07278878685086
0.3975852865296658
-6.763213701863316
-11.4930775392407
25.64244366374646
-7.386152422641813
11.48323187429554
-20.38544618427682
9.051739400532261
-0.1495250905514427
-28.97676857291408
-17.00972286303751
16.95168594365519
29.03480549230049
-21.77886313673763
7.072170656351719
0.5976790670899086
14.10901341329674
13.88205712412089
-21.00252345169443
-20.28303819709936
14.56463219206472
-17.48410124259815
2.919939357500925
-0.07927809518711
0.7015997027208095
-0.05911443952645011
0.480530145575793
0.02791866371451445
-0.4493343697666536
-11.08824447342478
16.29824673336521
-9.213280618356283
4.003278358416208
13.58028193345041
-18.67527320353861
14.90732525873122
-9.812333988638681
-21.87079525717664
30.74967557262809
-24.9401544177613
16.0612741023156
23.1776427351971
7.011320928934983
-27.70184771997173
-2.487115944160501
-23.26519917784512
11.40154495837871
10.94365797529565
0.9199962441710102
21.60558797345006
5.186822843036883
-2.037144926833673
-24.75526588966157
-0.4502911700070491
-2.175657396250658
3.729607297128141
-0.01579771872855617
0.1091847079068219
-0.1063614213142059
0.01297443212943183
-16.79237751161557
-3.713783009379556
12.22328288245571
8.282877638541278
1.391196709565352
-2.663761425298954
0.3827807054189927
31.03865223602481
-9.160208260361447
-0.9272267111383945
-20.95121726451842
-1.32485138488002
5.210085143489071
0.06086514263439428
-0.6375580897871609
0.3332883936259862
0.2434045535139322
-2.969093072095674
17.53420114765906
-0.01458724776734857
0.06249073617142255
0.09491897624805318
-0.1428224646625213
11.3425926134718
6.697225382404961
-18.90885082808872
0.8690328322451548
-1.442909663596109
1.9196450773623
2.201372881718861
-2.678108295445278
-17.50525870284124
-3.566343387789327
21.07187917426172
-0.0336671180545333
0.004664646273495392
0.1215233899510236
-0.09252091817477849
10.31999694941707
-4.162495127011068
6.500680168996365
-12.65818199140068
0.2652100527425291
21.60309238978139
-19.51688036251377
-2.351422080007465
-0.486889319793857
0.08222377831376131
-0.8948470392177478
1.299512580678664
-9.823088416549279
-9.404363298506022
1.113265509704081
-10.25791403001697
9.327270388775275
-0.1826218684213163
6.169390303378674
-7.80940244678833
0.2547127632890113
-0.3077443509619624
-0.06138471207176424
0.1144162997349998
-0.09914463264966485
13.08152825219722
-27.28105461288267
14.29867099334433
6.975337391210855
-16.31269663852929
-9.491101765362513
18.82846101271296
-14.69451060266664
-2.093963381963416
16.78882484524674
-17.14702018610734
26.87662639698312
-9.729781671903533
36.66777812302036
-9.098320548013447
-16.74839482623102
-10.8210627487746
-2.291820427240127
0.4231786275771505
-0.02425366242750307
-0.04514588732710801
-0.1024754634280299
0.171875013175146
0.02818582681854245
-0.09824347813564993
-0.05032391231589256
-11.30972097979298
-10.44027399011871
21.74859080278318
24.59256198336215
-10.46732457403991
-0.2431802852026013
13.54640250810203
11.33780659836185
2.623044924946459
-27.50725403140772
1.619599786387942
-5.711089152695108
2.383336994688049
1.708152371586372
0.05141350578353804
0.120674675130511
-0.06921823284555242
-0.1435350855469416
0.01067423610975148
0.1577714328977211
-0.02491058346478912
-20.93139058208064
8.149580242810179
6.576700456732245
6.20510988257402
29.21710075395582
-20.03582898086548
18.46529095917863
-27.64656273227207
4.424399649894894
4.843046237592909
14.41629727076772
-23.68374315825721
0.1318815874830071
-0.1206959254657562
0.0001225744056243195
13.0908653856536
-16.18716678611461
-23.75818016737347
26.85448156779794
-0.1522531887765117
0.1285354058701762
0.07698558492003101
-0.05326780201841292
0.2162707073389624
-0.09105515140994029
0.0375067558363413
0.5536710385019952
-0.7027403869050435
0.1947466326891207
-0.04567728429151572
-19.972680960389
0.002340593426916603
19.97052071634807
-23.79343128851289
23.96330426136054
5.815465572591649
-5.98533854544205
-20.99223961154567
3.666058197506798
7.172304914988946
10.15387649907613
-1.561666571061525
26.57923600800071
-10.69728289148297
-14.32028654541554
14.48242233812962
3.53651205539358
1.925181585472296
-19.94411597898579
-7.854525134133767
-12.41402552911722
2.354210483971555
17.91434017930113
-1.546642279880519
-0.9976522151293965
2.094003325039238
2.287826335074993
-2.215237858657208
-3.679796954372447
3.607208477934361
-0.1429721138339729
-17.2849007638643
2.527509979281267
14.90036289841093
5.841697848307191
-27.41379243038483
-2.277749360050821
23.8498439421291
-0.2187092667244217
-0.9259069152863663
0.9981980704057105
0.1464181115740431
0.02265706576943769
-19.99520659816299
10.46087396761023
0.7830278127132584
-15.84651715432352
4.602615373997498
35.21615335637978
-9.092231778464978
-46.46704645445222
20.3431248765394
-7.244553903299551
-4.340573170781568
32.36278600343085
-20.7776589293497
0.3983706119279282
0.006214426153139317
-0.5312958368905963
0.1267107988094731
0.08088174236110479
0.661050142806098
-0.07859289392703132
-0.6633389912575328
0.2352840082636079
-0.01999439250078064
0.2044940021051364
-0.4197836178776906
1.324514415460981
-1.191338299578765
0.50546010975016
-2.036441647761401
2.722319837623894
21.44051844576815
5.088061403797696
-4.457473859873178
-22.07110598965001
-23.05736562276697
14.84808580419039
6.14046838547749
2.068811433098092
0.0513858794930744
-0.3098765489137657
0.1190992248846943
0.1393914445274116
-3.598513814835053
-21.71827410757188
22.59695771745664
2.719830204955616
-0.9482789013313777
-0.676834230340103
0.1775591390198974
1.447553992650451
0.5160900924715555
0.2488314977902673
-0.5194952616119179
-0.2454263286571224
-33.11801100376154
-1.722791221869124
8.336621426835169
26.50418079877597
-24.37705164472482
3.871756007047356
-12.61271536608771
-14.46048261657781
1.073474274295554
-5.758213550340628
0.4207303271041304
-0.1850841417676842
0.3702177661794273
-0.6058639515263047
-18.49111011765179
-8.564481851104587
13.80803987784299
13.24755209093442
-1.049571498873756
-9.874755129821525
10.92432662874547
-0.6510522027627177
-2.82782191342984
1.149706875452669
2.329167240634181
-0.2465289122027013
0.5879811441165761
0.8080270747102586
-0.5476478745855627
0.2054240779582785
-0.4658032780872624
-9.613977994542596
-20.24273039622749
9.225066583627521
-16.20793736545798
-1.054133504056922
30.44218464669873
-13.18011377718298
-15.44252718883713
15.93722085859216
-0.495102820387496
0.01425513130035341
0.1995036230529544
0.04757851035437929
-0.2613372647171728
-0.1317927020484582
0.04398770952587688
0.1070450398801039
-0.01924004736200892
0.07090372471222911
-0.1158647069926496
0.02903937476096349
0.01592160751465774
-0.5234256293390871
-0.1064136508430697
0.1107208586309631
0.5191184215267017
5.395402718412726
23.76470312510591
-21.51002992679327
-7.650075916714251
-0.09474375346703877
0.5890592358091052
-0.8648374933071246
0.3705220109527285
0.0510744204223418
-28.53191389253372
25.78974680809891
2.69109266401841
0.2971471845793688
-0.6053948327434504
-2.145775151119852
2.454022799265359
-0.04307372001163867
-0.2334163059861873
0.3907300802702755
-0.1142400542798401
-4.147873429988998
-12.64836339855725
-1.652703290885523
18.44894011945238
-0.06272992794664435
-0.05483421929070983
-0.003035639555610916
0.1205997867886089
2.399286041079257
-0.3933345956533009
12.56941479810784
-14.57536624353358
24.20870046310127
-0.2580267872113332
-5.279973272274039
-18.67070040360674
15.51907441994509
-3.138700255315504
-1.416097821152228
-10.96427634348275
-15.8767574619326
-0.1655171573932713
-5.630154229573807
0.2628033216859244
-0.07589135519274168
-0.02499253219051461
0.01406834036417336
0.0868155470153979
-6.992869302465539
-3.217152750919436
10.77154619455083
-0.5615241410991009
-6.604984135779785
5.86691563613511
-0.9727276929038856
-4.920266248240549
-0.7119901946451246
16.45260471069436
-18.38782115103676
-24.62604034545855
-3.060157505475381
7.248523421902449
0.05183393006208832
0.04488787904890766
-0.03517954687322877
-0.06154226224211469
11.78383653364336
1.860344902961481
-15.06758722978906
1.423405793200098
-0.4977823270578729
0.446484850653573
0.2983028437896126
-0.2470053673925988
-0.01192144554602332
-0.08893114369668992
-0.004896652913437316
0.1057492421534828
5.887534520906419
-0.2115326777690397
-25.42132713054054
-0.5508618453732533
0.6521020420377724
25.32008693387672
0.8940373110224196
-0.9491473218060923
-0.3233452527336395
0.3784552635089966
-13.11567544812679
0.2210379155279727
12.8948789996259
-14.55790801224559
15.03521161585383
-12.69911437055037
12.22181076694308
-0.0573812054893803
-0.409859577723253
0.6473862413195914
-0.1801454581225642
-0.8067734891511733
-7.70447038599464
3.920115475578967
-2.538107021079912
2.401098099442248
-3.783106553938731
0.3888970237447291
-0.3770917647984762
-0.1341344494067059
0.1223291904489062
-18.24995012651571
17.07956077658682
-17.07632912597891
18.24671847594064
-0.1552966020590326
0.03473179126479854
0.02542909526344369
0.09513571552577561
-1.725472917495606
0.243190849995379
1.456372546014223
0.02590952148825777
-0.03496879174080883
-0.09160073401835138
0.03242424460156315
0.09414528115041404
6.229964255489011
-11.03607902727585
-6.397088809718991
22.850124549729
-0.02440537010551702
0.1146770059788552
-0.1426775056205701
0.05240586974368905
-19.34540636245398
-3.463133386307675
6.600602383303886
-0.3131793141885106
-0.1598775111918063
1.145761181934964
0.02982497287375624
-0.1067177637872982
0.007691350965598935
0.06920143994039253
0.1158052362672343
-0.2987247912334695
-0.1578498490722619
0.3407694040300652
-14.25478212077214
-0.3033342875462046
12.99980643759956
-24.85763166065984
25.29404380393362
-13.43621858091543
-3.367919188568377
7.953957653608773
13.09447104449323
-17.68050950955089
1.954690431234094
-0.9756338454343253
-0.2498501169513706
-0.7292064688528951
-0.4338502136565043
18.54379222101731
-18.11002119485087
18.95402705990417
13.24544710839949
-21.82576740412449
-10.37370676417775
-38.07117986191405
0.07001539780348701
20.93160849505253
17.06955596905977
4.402263619211103
-30.71927146382408
-1.865437593373925
28.18244543798893
15.69661916700797
-19.43677541145723
11.03919752838153
-7.29904128393107
0.3381904234117561
-0.7848100802212098
-0.6626568840666448
0.1832584860018065
0.3238928761978493
0.1555055218476494
8.865889053161506
21.10749949784529
-27.42792525379981
-2.545463297203784
29.20935199382446
-25.17494201243063
0.3678536378183779
-1.250801782654556
-0.08408086347187715
-1.370756541347829
27.80281744656819
-13.26413007803298
3.666976871064711
-18.2056642395804
0.2166216543206267
0.3638493754822011
-1.144639302830644
0.5641682730144564
0.4765189029823658
-0.1306572931990542
0.09436865287003052
-0.4402302626577921
-0.08784237607739424
-14.3654975095551
-10.7540125006816
25.20735238633155
17.65420834266051
21.89984813181771
-22.27367946955709
-17.28037700491906
0.8292138069981663
-2.154419981415826
-0.9666142528006164
16.75416414030597
0.9002869837471729
0.1504924403521488
-0.0009196404673828505
-0.08748356930793802
-0.06208923058177736
-8.542673758746512
3.965298968231237
1.517217285055214
3.204604967132253
-4.777301793682952
-13.39111083487526
-2.599192059120628
18.28309506213495
-2.292792168138802
-26.79544366411747
23.42784399864881
-30.65394806990006
34.02154773537274
-0.2188395503582762
1.53217360380864
-2.10131044900766
0.7879763955399191
11.85599378741271
-5.762429679159266
21.20437057524517
-18.59008396612304
-29.63140830867691
27.01712169954862
1.843784156245959
14.08652132123342
-10.871895255013
-5.058410222466019
0.08186796221823345
-0.04567131941664848
0.01351118222590934
-0.04970782503545987
2.797749905412771
1.385450794571667
-1.425617053886836
-2.757583646130068
-7.694275159438133
-7.459032303601023
15.15305965595118
-11.65684029810849
-5.961216411742561
-2.598281849849562
20.21633855970289
-2.391204157043716
1.026726959417575
1.110397079936966
0.2540801176738507
11.23949281092868
-13.51196018914664
13.95579729081891
-11.68332991259902
-0.5285173694209925
0.5329503627572043
0.09103319308068081
-0.09546618643356883
-20.17753548228766
11.56131956661847
5.854181466474937
2.762034449182892
0.01455431828697245
-0.2792844883771963
-0.3659634740060458
0.6306936440934611
0.0070354190290535
-0.124304477561844
0.03380362930579811
0.08346542922312858
-4.960024960775271
20.56242304091206
3.258610466081155
-18.86100854622066
-0.155881084839829
0.215125899255983
0.001338482422259226
-0.06058329684486123
-17.00354453427066
12.54229008322318
-5.139722971660569
9.600977422687226
-0.2338069296533409
0.1240320945687795
0.16781676868175
-0.05804193360338699
-9.910040154504168
0.7875090734174236
12.2201958490796
-3.097664768001603
1.03772415727745
0.9956119265909029
-7.25258194912856
5.219245865259738
0.3483064203253275
0.07149587809236428
-0.4148461659287829
-0.004956132493872912
2.467573321528666
-5.915265424012722
0.004590592108616947
0.553457595258261
-0.5774344192741804
0.01938623190149818
0.1149249920409687
0.07324870850462692
-0.145199167140191
-0.04297453341269599
-13.23244103946602
1.678711047847939
2.967180208548023
-0.9479377519364089
-3.697953504513278
-0.01899714619544043
-0.3896467040540365
0.7152175055116103
-0.3065736552935046
-17.6730998248043
29.31928530196133
-10.17104354305489
-1.475141934098567
-0.9005578106308378
-0.5244539371537298
3.158362151985837
-1.733350404264497
-0.7651239223806052
0.6931701467025716
-0.6004988686869699
0.6724526443418241
7.062139955475013
1.199978618664404
-7.224394416870542
-19.52905321317289
-12.22295868930476
16.89996948916543
14.8520424133148
-1.719990184216536
-0.05018734710621904
0.3251601641188441
-0.3172210027182243
0.04224818569616739
8.15633927145603
17.77566781312561
-37.31361752659677
11.38161044201596
4.977785377758608
-3.326505965667813
-0.0032478136300919
-0.1236074377580657
-0.02617358650746658
0.1530288378882975
0.6769215171731225
-2.016857863683161
0.3799166891348352
0.9600196573566431
-26.03347278977616
14.37617244229967
28.41146448778434
-0.008095608121433706
0.06420308144036388
-0.09532320577739052
0.03921573245427177
0.006302283214744819
-0.1342668675805029
0.1213245153659769
0.006640068992798891
-0.03392998198309793
0.01583738784362203
0.01809259413539257
-9.167729357850215
0.3032107249979582
13.84230401062215
13.82710471844551
-1.130879420590272
4.760793739817657
-17.45701903764275
-13.88240175106122
-3.601284601684588
-0.02542331015020187
0.1534549919378823
-0.1290566240663119
0.001024942275060179
24.20883625687646
-23.65339599158861
-3.524533337383115
-0.06885510138151318
0.07034454594396797
-0.03785527477264121
0.03636583020681149
7.999761076133431
-13.58286408974879
23.76719800173418
-18.18409498806621
-0.2419896966893917
-0.2255443500730726
0.4587004538525372
0.008833592897270507
0.7333191936435703
0.07372665450835705
-0.01083425826369275
-0.7962115898973762
-0.1266262395915353
0.08274550496289133
0.02786152791034282
0.01601920671474298
0.0206048405232847
-0.04150942356616685
0.2371752903786788
-0.1804750165830612
-0.529156288850737
0.02639093996405846
0.6832403654598239
6.808208664956383
15.06235987862808
-14.13644042771723
-7.734128115870471
1.560786786214229
-7.558044162076738
0.3237572006315594
-0.1489092402658958
0.103795188453343
-0.2786431488305364
0.01051411695869701
0.1154338921759244
-0.09811284057430943
-0.02783516856631529
0.04901248812952368
0.03516178007344588
-0.08417426820672097
-15.79860015940261
6.971388264001877
15.45618072581288
-6.62896883040687
-0.1066630698975157
-0.005351302520617813
0.09533756767137169
0.01667680474301253
4.272811253110338
-21.77774844446566
-0.08243124436498107
-0.5252018930501153
0.3611042252109455
0.06723064079879656
-0.04507565814199616
-0.1087403259650623
0.08658534330182401
23.13590912800058
2.75729553511689
-18.85670099942951
-7.036503663686409
-0.08541153803452325
0.0885721958363931
-0.003160657808446597
-1.929590196902971
-1.152875937488832
0.04965106151701605
3.03281507292137
-19.92428149217954
19.8120158567962
0.112265635389453
-0.1856772940226597
0.0539584527739236
0.09830092603049526
0.03341791521204775
-6.834722358166029
-0.5707941328442331
-13.52587409104933
17.85857025893124
-14.76277426289225
-15.22485987524011
12.12906387924554
0.05896153886587164
0.430607656155695
-0.06000385440888866
-0.4295653406229528
0.09994093865445794
0.02628909003892509
-0.09368753995461689
-0.03254248874709249
-0.1487868590619609
-0.4901501601541015
0.4355359924047399
0.2034010268021324
0.0652652180297081
-0.03513186528868691
0.1515904908459977
-0.1817238435915978
-0.116686389671738
-0.2287080149867075
0.4611996409205616
0.1258460433351333
-0.5800464363510948
0.482413808216115
-0.02821341522423184
-0.3069795540228371
-0.2444161595341434
0.4077824362980084
0.1436132772490297
10.77536588762837
0.7901803857110593
-5.74022619222992
-5.825320081117785
0.01168973550130224
0.1716053577632246
19.00370221193208
-18.38869488573846
23.11459181476862
-23.72959914096132
-6.078088655703038
-12.15792573990435
1.552108080105854
16.68390631550837
0.1563464487002112
-0.0852238249035536
-0.09872499458506168
0.02760237078045394
0.2942492476560467
-0.01395163770118824
-0.03443426405528931
-0.457644487215757
0.5361123776117703
-0.04403362635240193
-0.2502623074404037
-13.09402423220202
13.34428572801172
0.195379931877264
-0.2209017520571354
-0.1542407613556432
0.1797625815253015
-0.05560711252812828