/*--------------------------------*- C++ -*----------------------------------*\
| =========                 |                                                 |
| \\      /  F ield         | OpenFOAM: The Open Source CFD Toolbox           |
|  \\    /   O peration     | Version:  v1906                                 |
|   \\  /    A nd           | Web:      www.OpenFOAM.com                      |
|    \\/     M anipulation  |                                                 |
\*---------------------------------------------------------------------------*/
FoamFile
{
    version     2.0;
    format      ascii;
    class       volScalarField;
    location    "1.1";
    object      p;
}
// * * * * * * * * * * * * * * * * * * * * * * * * * * * * * * * * * * * * * //

dimensions      [0 2 -2 0 0 0 0];


internalField   nonuniform List<scalar> 
19632
(
-0.02904299391767524
0.01340394533750745
0.006689570522883451
0.006741197103814232
0.007706303264628204
0.03513977347719902
0.03198556024920038
0.06667092036133347
0.07749211301381806
0.06901578592548321
0.0184066383705445
0.03789905755565255
0.08008149430946102
0.006219432673020685
0.01105350908158554
0.02532360904162034
0.01080718548969381
0.01098232809262386
0.006646784239693565
0.05802106848959657
0.06146913144528503
0.09108416204413466
0.05784342673189151
0.01043442979112076
0.02545130483305515
0.07071590531604545
0.0511052440450572
0.007810808310477602
0.009169329304360752
0.004479567689440137
-0.003024187401830878
0.007331667662769119
0.01522803691077399
0.01705332688264785
0.008224969867252841
0.01679247405052629
0.04964531396777156
0.006489702954324773
0.0721487040265375
0.01184805060053637
0.02845629192560072
0.07967417390974725
0.04380336996790665
0.02407733473945136
0.007222800570290765
0.06774662930005501
0.0186793847798959
0.05676577804462613
0.002443872016046001
0.006354273550248506
0.05812097917138695
0.01274624900724831
0.01658575708651971
0.06265117189354723
0.02844884744888774
0.003183478471794822
0.06439823725996506
0.00819504165421259
0.04490390949487176
0.01136532144604269
0.00782436428807789
0.006732156752444253
0.00887887654838548
0.0193666074247959
0.02131798457219821
0.003875665333501011
0.02442968682698692
0.01000727510519035
0.01985737823480945
0.04257582252462847
0.01265610223120334
0.06991404144973966
0.1027626852788744
0.07044651128516079
0.004858058495210598
0.0341437622413651
-0.001070275227453869
0.02236624192571499
0.02842621954213582
0.02935838722515327
0.08505769988592267
0.0009007606455484386
0.07501937848675713
0.01780895064139101
0.03935554439056589
0.04575191131147772
0.01490617408585797
0.0178672293154333
0.1435599328261668
0.01522232080757505
0.06588005184377092
0.07236903712960084
0.05468485243090819
0.004005129755110034
0.0692837071999519
0.07439940676504307
0.02398757365752609
0.008787436751456365
0.04085666683837741
0.01634858687167832
0.008094590782687401
0.002177703960161098
0.003914602837158152
0.005820644605525674
0.08102680309147027
0.01856377347291644
0.01090026440700053
0.061200981872873
0.03789766601006796
0.01197736129615702
0.05555953683678898
0.0575428530450695
0.02017127049641134
0.05467226817833697
0.05313100427724877
0.1038315320304588
0.05720000401635084
0.06207380295606577
0.03193067565735587
0.0847533740650198
0.07753447179203982
0.07335621607834233
0.007965339850190068
0.0491970994921044
0.04149366155362375
0.02029134791192317
0.09319149664447104
0.01503494246245919
0.003682130427876018
0.08834538031207544
0.1013418999567401
0.00735496870052584
0.01839215461720861
0.007958824941686699
0.01194329506652516
-0.001102216071380729
0.05311000184581819
0.01659130477626836
0.008678484294086023
0.02097908986547332
0.00148325121993218
0.1182411133005515
0.002387409445576629
-0.1886571462648545
0.004216689820357976
0.1010123096640639
0.0004576405496943933
0.05407499834801992
0.01090729878969607
0.02714972975223458
0.008013117333941215
0.01741252235708098
0.0243676042860814
0.003053278344190373
-0.1325967999387953
0.06378590617173736
0.06069409698719071
0.06505603794781409
0.1210476602899839
0.002901186942839551
0.05217894895094602
0.03732679299225063
0.03794631809707835
0.05520669148137197
0.02742585592631529
0.1041265703410729
0.00428891230722032
0.04986757763912873
0.001303904828011978
0.06701950766258737
0.007682853378590236
0.05552370881889296
0.02604039888780885
0.009859629060160096
0.02411462843972998
0.07392775607372067
0.06343983537998173
0.005519090826822436
0.09185713350288692
0.02647686007865693
0.0002466264215356555
0.001083568625266885
0.01457765801764981
0.08682784191737833
0.02967671118699265
-0.000289994318068318
-0.0002286522027789952
0.007379310396027102
0.1008156096253947
0.00527316822788979
0.1102920037738844
0.02466046189239626
0.0161328429213336
0.01193945777464724
0.004740946432121801
0.008973796925837987
0.001267557996278639
0.01046811889231558
0.005601998329996009
0.00378410446756692
0.00158236555602495
0.008668866510453498
0.0001214349480304834
0.035198192979406
-0.0009593782526692692
0.006881670331257752
0.5370365484962809
0.02057154904225545
0.0400338065070354
0.002311648453206954
0.03400142445017507
0.01577085715607104
0.002341523019949898
0.01928916191072365
0.0158725539316621
0.008695234274220478
0.01489473916419339
0.010173201297847
0.0509853573441763
0.0220116855170066
0.007056357079462798
0.01212523683619907
0.014178916933926
0.000473064583340825
0.01110361888417469
0.003914312533312563
0.05519771401613875
0.01124419035470699
0.04310734352608579
0.01562993597515073
0.01996739054701177
0.003362128741416782
0.003321280902722489
0.02274076415546761
0.00636192367042291
0.01560877589793707
0.01489014156434478
0.02170455906193525
0.008963176651434155
0.006176573104957351
0.003039706329124761
0.009050774281223336
0.6425515477806536
0.0142981549361626
0.009710683977786976
0.009491888542997847
0.01564949552096232
0.01319339603500348
0.03154063580234129
0.0611231917757134
0.00245259086685623
0.08434962369298833
0.01253431719887656
0.01141618694882941
0.006883813008845487
0.01020301008520847
0.01201666319862245
0.01792637199145243
0.04187484086346946
0.01630775884373179
0.01513463280267187
0.1242024233284154
0.02911337045923433
0.08523718000156662
0.01999943270325154
0.03500399640293568
0.02160280772136026
0.02639966510349069
0.00589383347017354
0.04438231259786658
0.02638996087968317
0.08897689768622279
0.004382682171286329
0.05001872704029757
0.08617137716352258
0.07364052730660978
0.00440885619347238
0.004026591762439006
0.0721782766843784
0.0809726921536259
0.08257277194831256
0.0381701337851938
0.009354917808564392
0.01466319817978107
0.001390669814070823
0.005348989904154832
0.03866197047303609
0.004079292943421044
-0.002022055007104286
0.009595037864153869
0.007352009773156084
0.007830430751182203
0.07668271883900239
0.007350071223328212
0.003815115745127513
0.02957549592353902
0.002250386572432484
0.1240917091770096
0.04619426140117602
-0.00163068233081275
0.03201697119829208
0.1345905322560031
0.003681986101743769
0.002496484648308606
0.02109889874090132
0.04116398620335512
-0.001092620243309348
0.07604581108409206
0.03733564240669615
0.02924179237225288
0.06630488738076923
0.104669981240471
0.01690464732085981
0.07261340428638993
0.01499590581286938
0.00208482282364718
0.05895964440412653
0.03597199776121029
0.06555850655896875
0.05267580005299855
-0.2930145360385853
0.05515404921561395
0.05524048000577626
0.05085343358462891
0.03309965031903387
0.03168019641198704
0.03586435296874955
0.007135676221848544
0.005448179819628109
0.02236488573775403
0.004147636139621349
0.02025281736006196
0.04980932543224795
0.06179517880627107
0.005085730678187299
0.05196727206526231
0.007045679421188175
0.07345712944930297
0.005873797409006819
0.01511243783371051
0.0516579296910644
0.00733277315471566
0.01154325739584864
0.04616971352712583
0.04877518062796337
0.06578366926459643
0.004639513481684033
0.0335998555277253
0.004127881574901132
0.00411599547001445
0.01007698502210582
0.01360212510843953
0.003091896067509875
0.006348019816568088
0.03346995643991035
0.01148658712475444
0.00411424384094055
0.01257594945006022
0.04601548041404373
-0.00114569216757672
0.00932632399120588
0.007263359617599201
0.01660125429476459
0.0172226288690681
-0.0005559759128739296
0.004970176093342219
0.01185453620401367
0.02022858594324278
0.01723315301185456
0.01055521386963142
0.009048158232554188
0.006393575699101188
0.008410442461701296
0.005746836412799248
0.005685816349253468
0.01549617737667544
0.006323501194858652
0.01050716034835633
0.006084000966461387
0.004748420392260494
0.04250624773946447
0.01074963374221146
0.00819063470300475
0.02154689461064318
0.009544469891813283
0.0269823904799551
0.01768752987968888
0.01179587699875249
0.1366728382955389
0.05464421650836798
0.008301120137222064
0.004373788128569586
0.03479691710445879
0.009439121411919852
0.01613498516065355
0.0162671650547538
0.01696487778590635
0.1000745398468907
0.01706815625790883
0.03220119997316538
0.0165033420940397
0.004314316954649899
0.006901163001978025
0.008264765666644788
0.002977037801380178
0.006118185866075377
0.01897139772191569
0.00820038094317406
0.01777178581723128
0.03237223755765842
0.03703232779674789
0.004230557727897744
0.008233585849764392
0.01942085991790977
0.003270738614218775
0.0218700825684616
0.0224066635020215
0.008476614466312682
0.01976933016376569
0.01292704921448974
0.002931838903756206
0.01806543710364999
0.004780786139697447
0.02312108616053669
0.004808274398351796
0.007912417435145692
0.0511534980966149
0.02060546976755343
0.01705246573709646
0.01589851700816667
0.01796815626089523
0.01902645860099547
0.01803523914659563
0.04284624608437104
-0.01322873385532533
0.04485092642026425
-0.008266355551614752
0.02438354647511441
0.005564780507451026
0.01843354272990338
0.007001440993385493
0.01336876250614793
0.007134408265151918
0.01658617587922249
0.01642396046027152
0.003233735605639848
0.01932146950388072
0.004492060581300024
0.00817083109120573
0.007056871750502971
0.003084721211883793
0.01375483309253837
0.01500790008291289
0.004501002286331337
0.01946002158172968
0.01736379277798473
0.03363535420728469
0.002717291393075158
0.003337462594807028
0.01116754564586521
0.2111562338579705
0.01522792121489027
0.01514372388267793
0.02280031742925079
0.03567989550176652
-1.166983686043252e-05
0.007177725163186917
0.01295033759885057
0.01559428393420559
0.03471765278192943
0.02239596686862429
0.03187556671210501
0.03864102725217074
0.02022670861876965
0.02237495557537207
0.02768508269954043
0.0247784455305884
0.03864300056677302
0.003900330706347978
0.01197164322768107
0.01970583497484221
0.01444383130539695
0.02893882784507651
0.008524381724547361
0.0102560442108092
0.002807801535210645
0.01068792689384212
0.02353048620917086
0.02320402542766123
0.01451187027319384
0.01044164488362318
0.02092696729653569
0.06070080991473111
0.05713316461475557
0.003764749119340616
0.05971691127767598
0.009548722940226259
0.01009216503973215
0.009934974918062276
0.05811906985911648
0.2486995571956233
0.008082517489343783
0.028924107980745
0.02500347381678642
0.0213949841053982
-0.1658093780724482
0.01065398436526152
0.02819112740650879
0.01207458549353627
0.02639224458205456
0.0247087289618759
0.02195498334886331
0.01015939531400878
0.01291487353563221
0.004636755606544763
0.0467279898375788
0.01727142565298487
0.02369296880125578
0.02721642820236573
0.0111905841941567
0.01532488274136381
0.01161573026211358
0.01249527216505357
0.01655237355647081
0.008900253441294765
0.007642144981261843
0.02699525190686128
-0.1667951391042921
0.01774018705480646
0.007821434767158934
0.06411359267581399
0.02042979693977994
0.01929091044802238
0.03995671847678571
-0.026919663995326
-0.3756518945301167
0.02210003457595787
0.02365105197679667
0.09580648167462177
0.02399359227281327
0.03782029304063223
0.006078353897908262
0.01183141630239393
0.03994469856098613
0.01281231359447956
0.03532722987033616
0.03586941626516565
0.03740153212252768
0.03564423211981748
0.03382310867123088
0.03784342581840906
0.01671836765173423
0.02010541891219153
0.03279665538518273
0.02266892534847109
0.01974139625124181
0.01124641809937598
0.02630746695930968
0.02897734574833597
0.02660436328533282
0.02664478298400083
0.009945553361420825
0.01310041191897588
0.0188824691425595
0.01328982453128121
-0.006222611879627325
0.01451372615180555
0.01366443410400688
0.01275992160649476
0.01439410550875214
0.01563010687081058
0.01832254010159334
0.01599628408407774
0.01130145098269259
0.01923608389768556
0.003971478382386372
0.019124177982209
0.01777940603233053
0.0183418537256065
0.02097142463783049
0.02406640045197866
-0.07065461012518781
0.008597119967013152
0.02002254105604016
0.02617341980698811
0.005432917354525072
0.01730856901386731
0.01230650878746899
0.02721642968858945
0.03107495497868511
0.01209387467233095
0.02881620526942343
0.009443284338388308
0.01120949313921049
0.01411387571489335
0.001305758784207553
0.02986298756849328
0.1191079506924078
0.0145891219069374
0.01516973983769631
0.01352151352275834
0.01338378520598353
0.01285565888722789
0.0143816566551328
0.0375449284187679
0.008402401224578828
0.002351778215756623
0.03973681583753781
0.004967582862408622
0.0747840646310127
0.01144654580997586
0.1355322418973707
0.07310794261370289
0.01079880648977474
0.03317512888742685
-0.02151199777175063
0.0174571526187184
-0.1627689118522463
0.01257727452958096
0.01112220615236176
0.02592044929587329
0.0072704840072295
0.007171375950447091
0.008029780566488308
0.008961589248354475
0.06178637524943573
0.002883636214993218
-0.1522136024955426
0.005588793056791559
0.01492693547136291
0.01315551908576885
0.01297737327800344
0.01529709175413176
0.0056702330623985
0.005395093503765562
0.008216022096590229
0.01885732706663548
-0.1388053415226932
0.09926661788194453
0.2122505556108022
0.007396513026341403
0.004756584127934089
-0.0963486664230921
0.004996440156260407
0.02019825082342342
0.00549468652531815
0.004528591904402949
0.004790405389304082
0.005917478447786933
0.005421336393419878
0.04185003406261639
0.008962429273868665
0.009082320850347689
0.09359627371948526
0.08203053727202234
0.00928499477695483
0.01013643151558321
0.007809339793990551
0.009889052100309591
0.009881521743398387
0.009551721227240904
0.009281204290701969
0.01006478060448024
0.01805103764445996
0.007120636303222963
0.07028086256217991
0.01073504609133752
0.005824197991323386
0.02296303841933366
0.005544418473411779
0.002597710578265384
0.002925752313861373
0.03963969775983425
0.009995903239651868
0.04607136365029084
0.01101810769522956
0.01120827499547349
0.01130937033234188
0.01878224283475242
0.007880390909647856
0.005600628144624608
0.01090241845850204
0.04440238785435278
-0.006478510915465733
0.01418986730483232
0.007980778112155784
0.0199858035875044
0.009294387771010234
0.02092759462244046
0.01189405068804539
0.01310807683327257
0.04144640125134362
0.01035797472766153
-0.003973627438131865
0.01215946690693846
0.01382135521095848
0.005655733317733507
0.01119995666378332
0.01415472820583888
0.01477306364148643
0.01806049170987213
0.05936752219984501
0.01974248875271113
0.01447664818755186
0.01500657080263238
0.01373446824631742
0.01347472021037907
0.006873606916943818
0.06710083159411658
0.09120920627984007
0.02112066362574533
0.02677661634977644
0.008580302406689021
0.006994027607963476
0.009620761153519021
-0.003060168706434528
0.04692913220230734
0.01169886877045053
0.05000633892540714
0.01125751723296103
0.07306022275285463
0.02593750813187902
0.006566242871387701
-0.01872657567663492
0.02751014886085027
0.03216838729884735
0.006717597902328267
0.04522059063177411
0.02384037685773342
0.06133704092933431
0.006892622197769624
-0.0003171085590588821
0.01462872325953029
0.04067327726946548
0.008595386213800063
0.0002403868047194068
0.01564229163118644
0.01750933336941592
0.01892532604626489
0.007992749757833043
0.0540855163519664
0.007440397947312096
0.006866976427582828
0.01818940956745092
0.01727552260740178
0.002996967504532861
0.01853149507538643
0.01374187933018679
0.03273826341214432
0.009321823064162167
0.01168460703005451
0.008035346640874342
0.003988942431697382
0.002027025557142768
0.01530022488796283
0.00854937387035659
0.01248150141004122
0.004498807759108652
0.007614943647529981
0.2992194501722955
0.01141977940080829
0.01348370390210167
0.006889037415364038
0.03860640822915428
0.01227866271445711
0.01254284302362751
0.0393987222865084
0.009641649731889218
0.003234839029600965
0.02095080270968574
0.05071193049171497
0.03255267925036567
0.003863292953807407
0.003596483192705754
0.002763703296213274
0.01951717767508154
0.007243310137293929
0.005384217024180166
0.005746973526230213
0.006200594899083851
0.06005154382081103
0.00446048538265008
0.004823828011828507
-0.003538215874583942
0.1518601835597413
0.02224251456905223
0.04045952835804846
-0.003219469443199796
0.03766376948166542
0.0330411704928931
0.01876674426876079
0.1911416148168314
0.04419001954739789
0.04936882707548464
0.0448289898624227
0.001687344073961247
0.007896389855105117
0.007298309643200138
0.04929419078645867
0.06514686153494287
0.07824766563874257
0.05420469594694359
0.09703487712256889
0.01808067440167347
0.01066526082560698
0.01274117345591835
0.01473880096930946
0.02243679439057533
0.02211783286491295
0.01246555753545975
0.02299408218747443
0.0129431059205835
4.22304571755522
0.008233474136733603
-0.02155373930938058
0.01002806051252076
-0.08664188371738699
0.01366983586702603
0.01468027489036633
0.0581029714717646
0.04320617099035183
0.009677778013183145
-0.03132604614855216
0.006116874714124397
0.004618625007817173
-0.4996997989499037
-0.03454678067786388
0.008030741233134183
-0.09568852193750628
0.1244197874451438
0.0815619408047374
0.003497154721955396
0.0695891429312499
0.1055020625954899
0.002425445963336431
0.008500655021543619
-0.005890117735508311
0.0497580919718185
0.01194667869710659
0.03225133793553427
0.005623971597086774
0.108015464593136
-0.09924289164338534
0.0002734537832621353
0.001781355333061232
0.0008447990803303842
0.005405049378563506
0.002062970154030799
0.001500043718136491
0.112227812052785
0.008997444521661496
0.00504476563676942
0.006489734530319636
0.006595361516343903
0.005255677476018693
0.02800802273688988
0.01120068480910905
0.01262201222883233
0.0135596149950715
0.05794079146187462
0.024430116977451
0.1583989092953177
0.06620515763718575
0.7966010427161223
0.08611976804431939
0.01687953983107698
-0.007581169647603623
0.01317019684108352
0.05253296778186512
0.01366739282728872
0.04062673173652748
0.01127745382393802
0.03177817006303418
0.02642258839501226
0.02700210720252645
0.01823397829644767
0.0113103943917231
0.07667014985742183
0.0322967371299471
0.04329084485657612
0.03772730438782505
0.02029185925618756
0.05794261405344268
0.01555673169317863
0.01686019401561643
-0.07919003593921276
0.03864080050959125
0.05339226099182767
0.0009142921160332076
0.03392899259449123
0.07038412977123756
0.009873052954595342
0.1598162853045436
0.03884263544189539
0.01694996888785765
0.004921304399634415
0.01049211985524634
0.001572127687068971
0.002831392252154317
0.005763266305868289
0.005829193098776671
0.006454588563440928
0.006168524123696092
-0.01257867300394373
0.0350098978731191
-0.05297776911432183
0.02858147293482335
0.1184373616439675
0.1144405068995105
0.0978135282750158
0.05006021745199509
0.005009120148959953
-0.1399086692579469
0.01753168819260645
0.007589030541368808
0.04827336608642525
0.00946991718000853
0.01003599085407113
0.01868986164845599
0.01418409498588738
0.01318639499667683
0.01187358737808631
0.02000517567959981
0.01138129888641623
-0.003109895057768791
0.008923039381324284
0.02341583695561964
0.09913892579412774
0.006195077659022113
0.1773421419354795
0.0588167509512186
0.01370744535804279
0.001696355173607108
0.009398308670073264
0.009250994222723538
0.007615067292900153
0.008599558184401225
0.01223273617304676
0.00863411723021857
0.007832983363524232
0.005389881550280575
0.002683205855097449
-0.003364020915920004
0.005553746718187713
0.0246038699640824
0.06829140284963084
0.007068441959331532
0.03124824972421397
0.01879311995758602
0.006720318084628346
-0.09248469067653595
0.04441125716896032
0.01659179433532607
0.006315954950011097
0.004017307252137955
0.005437430216107109
0.008356049256982179
-0.07398030717568926
0.009047510100651251
0.008024041061963789
0.0102123734511336
0.006835687992943638
0.009683108090568188
0.04991782887697011
0.007820465580416956
0.001871723332054383
-0.1098187515404335
0.008239088115112602
0.008908012754151222
0.00979294565432993
-0.1788392142445196
0.006946923641163315
0.008524756926571302
0.008039370153504066
0.05883147741564622
0.05157902981929228
-0.1051708069799901
0.06218444946965457
0.00889634805980243
0.05698465270777118
0.009260514508503502
0.0613590288105389
0.000853407177898689
0.06534066875527636
0.05059681979461796
0.0436147331970719
-1.556250846319317
0.04933273093229225
0.06593203083256313
0.0265390178366476
0.05329113908349007
0.002794400494823764
0.0008282253834800146
0.003328994451394522
0.004503797250574764
0.003129596256946871
-0.162657083347858
0.003714551427555718
0.005956979956780883
0.02626169238182462
0.03573361069443411
0.009307661668440577
0.042382873477423
0.04964845773452466
0.04412679874557054
0.006129161799064657
0.05024952050348475
0.00886452976482778
0.03937556447050686
0.005666248602978883
0.01261696990159551
0.04157653263226153
0.04431393456235599
0.01274321451737047
0.005097922716344231
-0.07083788420442257
-0.06787880814234387
0.03720800082836902
0.1417653927863295
-0.01587054412788181
0.01247601568114391
-0.01265065807239221
0.01750753302161905
0.01322102324815412
-0.07423040019055423
0.01213758346995076
0.02832286446888311
-0.201235514707804
0.03760199481728023
-0.9346633124100807
0.03583634022221581
-0.0009419728550854889
0.009876769097053265
0.00994075258269023
0.02806041735627761
0.02971518348388164
0.02483682927695268
0.04917315354107114
0.07561700680082292
0.06118374052760682
0.05326476617677627
-0.03307169419097
0.05830009116609174
0.002646108505380548
0.008749897228131864
0.01168963614031513
0.01180463301735597
0.02467225213618399
0.008887080436232393
0.01331329221079046
0.02922949742505968
0.02981484895312251
0.02848897488564209
0.02943832014255154
0.02930114973021412
0.03008790219927724
0.03031528708438795
-0.07416726625317172
0.0362061520772671
0.03823936148882447
0.03351081013724286
0.04409818577717481
0.04264226076027854
0.04110950222357687
0.03951586992787578
0.03906621895694894
0.06372963380016569
0.006590349014700747
-0.07026753709648545
0.08170812049396824
0.006355496567831462
0.0056298572297328
0.005440355571672646
0.04930539528801543
0.09407625494609752
0.006736239519058009
0.01159741821443582
0.01467421364614304
0.01726718893024516
0.006540005223638489
0.01214965701128814
0.02328726155558139
0.02308277773283254
0.01329000573807273
0.01182597739130396
0.00432441573582202
0.02133315434594475
0.03085704339854296
0.02122511854960044
0.02242566530419038
0.004538911398596928
0.05593751970313325
0.05822214139004171
0.04865527701535182
0.05001792890089692
0.004473253848065743
0.004686753434439812
0.02454317361731871
0.01422437349260581
0.005148617832448166
0.001842646272016844
0.009757107844355852
0.0294496786933795
0.00687211277791726
0.007212222654914521
0.006361733546151095
0.00739923674896337
0.00911012090670155
0.007599804610473654
0.01861205346673477
0.01850425081020388
0.01762397294101274
0.01911510779580869
0.016961040030629
0.01992470846498748
0.01991425428053935
0.01784309372420801
0.01678532067881223
0.01935646800972899
0.01768992678023069
0.007981950365889674
0.009255353861096667
0.007551113676656643
0.006951017715221563
0.006574389646194447
0.007162935438808066
0.02599764249525224
0.07873788415293835
0.02711774954166092
0.004750129341063913
0.02514536270318131
0.02476107809246241
0.02631255734990796
0.02731613259490549
0.02313616611883793
0.02394233080798509
0.02301764985082367
0.03366510195655273
0.008963256379940497
0.02589656858571062
0.08056166160684755
0.02550499475927431
0.03296921749329166
0.02829826843689224
0.02689919332901651
0.07164343646078004
0.03075915168629646
0.01306433423566612
0.02420170818135007
0.01198625544221614
0.07555677380840442
0.03013633590491893
0.02813602324171714
0.03695624779797725
0.03582797546385443
0.0235092214933263
0.03553429279092554
0.05171236014285621
0.05389967489757137
0.05252319950859873
0.05118934503679964
0.05231120078304432
0.02510820624710933
0.05034108177195661
0.04583589432449314
0.01046900688333015
0.007814253582316839
0.007689537015493977
0.008843273163987975
0.009081707129018974
0.01184374221748729
0.01124937550221284
0.010090932341154
0.02156328133241104
0.1545042804319186
0.02307149664803536
0.0114243566157366
0.02160265582476813
0.01754514701751209
0.01960164937670845
0.005123184556488156
0.000105604041965923
0.01624851659328342
0.01883977404699353
0.01785313082282261
0.02000690997564813
0.01971832445257874
0.01661292260836068
0.01708462737950306
-0.05066407616304894
0.03988098713087605
0.04179872091668679
0.006004232763205723
0.02921060923822084
0.07501469996108702
0.04768067059170542
0.05905645146460844
0.04871452787282755
0.0554111856512807
0.05723749250002261
0.06218841003766858
0.07411650025605798
0.0216087863369417
0.02328497992417852
0.02135667618664909
0.0188601355845476
0.02040865557827361
0.03007053724617037
0.01876351091157774
0.01939289403741432
0.04982307988201876
0.05093589417698747
0.04685773894103665
0.04323332608873439
0.04272463334848997
0.005226445376834307
0.04481435348314184
0.04719611376417337
0.03294956679249741
0.03255548274887472
0.03525474788319459
0.05446070418576476
0.04736378796604683
0.0424881913592921
0.002571448787475852
0.04548015943892372
0.0465997137833172
0.04509179769938561
0.05442800908201087
0.05477319877072784
0.04010889553319046
0.04462196055338792
0.05160835398029098
0.002977271273160941
0.004000407315492745
0.0003333308890054753
0.02848955462345072
0.02479748545019074
0.008028225660524226
0.01886592330306984
0.01988488954499187
0.01723427148531585
0.01821224148005221
0.01884554209622283
0.01910144387816951
0.01400874764939252
-0.02800935107319919
0.01103590905239711
0.01209959437694691
0.009347946675803319
0.01075962363164984
0.00942578170745848
0.09022175140408366
0.04062955218863382
0.005287844113777104
0.05286681384895912
0.00997569067214138
0.09698843318716208
0.03428750304139579
0.2860888271131912
0.04233868787084006
0.03779403197663432
0.04197708635829698
0.009270127366116142
0.01466388452136783
0.0252209509402065
0.004445371764420683
0.05318776976230404
0.003565654658822875
0.02219205305338866
0.02015732328541492
0.01086942593824924
0.01523854071014216
0.01835688035324819
0.017296836130502
0.01816477835124978
0.04253393919082032
0.04450599609975376
0.04281936416540467
0.01851129917469599
0.01980592108983087
0.01997680403541224
0.0229678474837331
0.02268505027829403
0.02439551458108185
0.02192566870925199
0.02414072927851232
0.02487564453050266
0.01976436161587669
0.02011772612242684
0.02123589206563684
0.01935274798421203
0.01818905975668061
0.0131864858801522
0.01411754975379685
0.009023488014755063
0.008480162064460407
-0.02182277987905021
0.01178873083863404
0.01185093571371402
0.0136456923801696
0.01377625958670961
0.01541184419494425
0.01550989038157946
0.02944402990721601
0.02591277235135071
0.02723800216187053
0.0103206345831531
0.0352149908025333
0.03893231835433846
0.03883458860684901
0.03873801258526225
0.02261187743044265
0.01975671151268434
0.02315595548454416
0.02430896950945946
0.02399977336727675
0.02473623560866263
0.003968682243884527
0.01223472607903722
0.01351309685430863
0.01473382761596191
0.008474375358139543
0.008395680500787855
0.006557417310929097
0.006903188789767938
0.006515453313684326
-0.01692915799689558
0.02659915213856268
0.02279077653218005
0.02281762181634946
0.02254862687378779
0.02292878602922595
0.02275294535117322
0.02429236831084992
-0.1232569456013987
0.002598972911063158
0.004480915126009453
0.01730329394118741
0.02367681915673144
0.02213950310251762
0.01587668541778188
0.01308426716171016
0.02650111636953809
-0.07151017194644113
0.02220053731530147
0.02213428701584336
0.01650181034665636
0.02003826562804521
0.01627242641050745
0.01862728956176077
0.01870193622288475
0.01404639819974091
0.01209376910121385
0.01267907080511518
0.01471053137726856
0.01439499390309232
0.01653099678413929
0.01409134920799958
0.01272613008693052
0.007872846750967185
0.01273586575069814
0.01258761880517769
0.01653417699638511
0.01776332582925189
0.01143721961260981
-0.009056375999009022
0.0164934313491675
0.01541145314099784
0.006582416840717001
-0.03538428566675032
0.006508315485338426
0.008422067924794181
0.009090328691652017
0.01118782950560797
0.01124736737897562
0.007297401294028338
0.006921674549692418
0.0531033372086096
0.01848981204628913
0.01820136594380519
0.01636084971739222
0.01557572405948545
0.01952619250048252
0.01583100339742741
0.004532839949291869
0.002345261670977271
0.001341164778130417
0.002889761578134015
0.007707733830310043
0.004955151497901145
0.001696416155283692
-0.002933419030226791
-5.923836333725636e-05
0.01155292584377936
0.01435009607000786
0.01416391305780321
0.01391913555739314
0.01408774798267624
0.01236704879749347
0.006652703263109998
0.003912613012518339
0.007169221118293619
0.006426846185324316
0.02836133049319606
0.002712842092115191
0.003425775860116863
0.003700442914782202
0.006101439875568181
0.005112356204779001
0.003623180868470944
0.006098238619783745
0.005174966719476339
0.005333881512693111
0.001697377299753446
0.005263320103897505
0.003245520897527935
0.00366415887598452
-0.1400393355880937
0.002498720580049766
0.004178101513473256
0.008136376509644898
0.01204395213432538
0.0118743640243802
0.007592157355629813
0.006048166326814076
0.07290792092300566
0.008313835044431983
0.03466290508261106
0.0079437863904899
0.03810777195123941
-0.003249360918836517
0.004969334319869147
0.0044962601040439
0.00840186529345288
0.005073343249702849
0.08210938907622781
0.004318864067666081
0.02286412325579532
0.003752173797098476
0.003388803901384778