/*--------------------------------*- C++ -*----------------------------------*\
| =========                 |                                                 |
| \\      /  F ield         | OpenFOAM: The Open Source CFD Toolbox           |
|  \\    /   O peration     | Version:  v1906                                 |
|   \\  /    A nd           | Web:      www.OpenFOAM.com                      |
|    \\/     M anipulation  |                                                 |
\*---------------------------------------------------------------------------*/
FoamFile
{
    version     2.0;
    format      ascii;
    class       surfaceScalarField;
    location    "1.1";
    object      phi;
}
// * * * * * * * * * * * * * * * * * * * * * * * * * * * * * * * * * * * * * //

dimensions      [0 3 -1 0 0 0 0];
oriented        oriented;


internalField   nonuniform List<scalar> 
37380
(
-0.3770591236234715
1.001181384470156
-2.775852717428837
2.151730456570172
-5.161013207839371
0.803628454275287
52.37026653367614
-48.01288178011058
-18.28098187644873
21.92287245176976
-22.79788770185204
19.15599712651627
16.79571722154054
18.26624272278261
-18.54352362044328
-16.51843632388024
-5.077903564747831
16.72686796888448
2.820331174014506
-14.46929557815318
9.383509094833475
28.05554348361787
-20.9449273571504
-16.49412522130845
-10.19813586641633
-24.85821035785662
44.43985531910331
6.969781496940167
-2.98138542767785
7.608457989805067
-11.59685405904798
9.652545014369618
0.4399373381448363
-7.431736856279063
-2.660745496250334
-8.920674957016868
7.612636288143816
-3.177057210240983
4.485095879170006
-7.538575971599697
-7.295868340372046
14.83371383061787
44.36387207180941
-10.65893881415119
-22.33651775621714
-11.36841550144525
0.8440134019253899
4.851381974839606
6.943926889217995
-24.12707319812776
12.33176433406939
-14.94182559895902
23.74701394642494
-3.414119428305271
-5.391068919154845
-1.497795253596991
-0.9611407798684545
20.45301122030359
-17.99407518689389
4.408205923523232
-0.0145852742334891
-19.33544624824839
21.12672010859662
13.41290380535403
-10.79260996752732
-14.16150562671483
-9.921993354458232
-1.579530319946309
25.66302930111205
-17.94926521710077
2.306620270198308
0.3223155189530554
15.32032942798133
-0.08131580783670289
13.5980270797948
-6.546929774993814
7.279468567509087
2.76267318678917
2.523474936769558
-12.56561669090855
13.59801117068909
-1.524943687781861
8.274889743017614
16.64848568401746
-3.796655318447341
-8.331954186357347
15.13557447339135
11.10112491862029
-17.90474520558492
-6.215814798947759
-2.206396727823223
8.862148864948077
-9.719903309363298
5.607097394321468
-6.409133587438562
10.52193950258401
-3.229345367905979
-15.90778299732368
0.7838025728993165
18.35332579233882
-5.090905292973978
-16.73082132185731
6.425701082616949
15.39602553221134
13.99462368192292
19.53499911513802
-0.9050379933176762
-32.62458480374264
-10.1521517493547
7.738037381365786
3.935474453925866
-1.521360085939146
20.81197188448901
0.3788122708493595
-24.42012952324408
-17.59079703735429
-25.34362621999399
19.08148478890502
23.85293846841601
-14.33558125424526
15.42622688055865
19.72132625817072
8.562000375216826
-8.748886905991794
12.97403188430942
-12.78714535354023
-8.053086678824808
10.60281169625218
-12.91693356980295
10.36720855237085
-23.75732310903161
7.421843804130113
-9.019311305276204
25.35479061006403
9.292315278251897
8.776751063944504
-18.06927515503137
4.578574925613535
2.628786165680769
-10.18874651894381
9.077434263761742
-7.306702392342672
7.52158340683193
-27.40621506902513
1.955684666919056
24.24226086525506
1.208269536863102
1.464121781175779
1.294214974714219
16.38146320033989
-12.79692146241677
-3.132988414611001
-0.4515533233141271
9.117027110534339
-23.36855119273432
14.85721267191214
-0.6056885897121165
9.213618943260839
-11.83705291678443
28.13065087634453
-25.50721690282522
19.29836802772228
-8.680695990086544
-8.23860615448816
-2.379065883178352
18.89025775153874
-18.96751973250053
-0.8280316550765963
0.9052936360163539
4.820011856919897
6.9693608548801
8.371005221532842
9.435347617945897
-16.67564936033461
-1.057426781769239
8.2977285241447
-1.891668212978477
29.90317293966713
-2.919868586862497
-25.09163613983489
-15.57346456065738
-9.506973628658974
10.23707077267208
14.84336741663945
-0.1408259866369899
-12.2783363921881
12.41877862680415
27.85779007202935
3.222321212222532
-10.75665994009623
-20.32345134415681
12.32116457573158
-6.316637342472069
-4.655899796997002
-1.348627436271237
37.08459910361162
-25.54239845734427
-34.52430566456373
22.98210501827293
0.1586007882468273
-28.58361691067125
-1.044120668606871
29.46913679101571
-16.12108421639148
13.55770064430531
6.850052032165732
-4.286668460040142
13.93605053908982
0.3550706018318394
-17.24364305286604
2.952521911907468
-22.1911105798516
15.41317732966688
9.943248904267968
-3.165315654094726
22.835146452601
-22.06718947520404
-15.38093320271391
14.61297622531399
0.3909880047504833
6.646805458819739
-23.83939353114794
16.80160006757337
6.199593156883704
-8.322179883957142
-16.82221764461896
18.94480437168939
-22.6406770953465
2.170643335393197
20.07369602130482
0.3963377386565468
-6.757803857137231
-11.48934675126132
25.64268218275355
-7.395531574356917
-28.99757467917393
-16.97116049505897
16.95102754569525
29.01770762852516
-21.77884137274813
7.073756795633703
0.5959596009639962
14.10912497614817
13.88233594751439
-21.00665229706437
-20.28189871945097
-11.08559932734681
16.29860019268865
-9.214940437497972
4.001939572155015
13.58049890049598
-18.67590630975683
14.91114548308994
-9.815738073842263
-21.85471674228246
30.73230553795852
-24.92051400231681
16.04292520662271
23.17858798056129
7.009916257274283
-27.70147384895654
-2.487030388878585
-16.79602636642135
-3.723681729603967
12.20841466130253
8.31129343471698
-1.324885933217118
5.205151873284884
6.1773688217579
-7.814608695075096
-0.1007628352664851
13.08289141626973
-27.2831421996992
14.30101361866773
6.989429438030319
-16.31162254853468
18.81708346301399
-17.15321849072436
26.89723139322557
-9.743987798989641
-11.30567223850288
-10.4145432685212
21.7196238504189
24.59248786192017
-10.46828666941842
-0.2418652449833625
13.54091512167831
11.34654905308478
2.626821278552073
-27.51428545332354
-20.9366638932033
8.141967682355903
6.582946646592051
6.211749564135634
4.42442633530318
4.839794991815532
14.40884221061494
-23.67306353772847
-7.842190864351054
-12.41931656159057
2.356872078061146
17.90463534781078
10.46084533106408
0.785303770830137
-15.84667901632372
4.600529914437437
-33.12025575428716
-1.711248682130645
8.332971911764606
26.49853252471339
-24.37556742367741
3.869210076710957
-12.61389840730996
-16.20958847519472
-1.054242984579624
30.44678533959096
-13.18295387981924
-15.44538488451808
15.93805717837733
-0.4933813990839246
-4.158227000087081
-12.63490819799332
18.44730604777363
15.5191643455772
-3.141325383911683
-1.415412923840437
-10.962426037809
-6.599630945786213
5.857355999193755
-0.9658743443094128
-4.922047557621459
-0.7117090438283975
5.89086545823105
-0.2057738035057005
-14.55567841176127
15.03527773963459
-12.69989755888681
12.22029823101053
-0.8104084809743288
-7.702217745621997
6.237172542631913
-11.04012323324036
-19.34397137762146
-3.46478982157229
6.599172723998364
-14.25074001717972
-0.3052222557431108
-3.37233978457152
7.95248132823713
13.0993069833703
-17.67944852698692
-0.4346911177981126
18.54334727439741
-18.1090114192021
18.95552522138553
13.24594679245511
-21.8274159234405
-10.37405609040458
-38.06430405384035
0.07008121447049691
20.92350790157643
17.07071493778803
4.405530537756034
-30.71875954824961
-1.869606709813587
28.18283572030086
29.2112259337111
-25.1745055412653
0.3688101453068092
-0.1183326671744111
-14.36059904079302
-10.749720150924
25.22865185883836
-13.38643789162844
-2.604906537965199
18.28525752979253
-2.293913100199701
-26.79387411307724
23.42900171797378
-30.65576091923588
34.02063331432699
11.85887365000362
-5.762820636073148
21.20502126962694
-18.58535520932949
-7.691769787765313
-7.4613642693796
15.15267867464243
11.2503307602565
-13.51533107301494
13.94655313128855
-11.68155281853601
-20.18587765933082
11.56706698214458
5.856762273531775
2.762048403684761
-4.961362018790337
20.56429075369695
3.254696674817982
-18.85762540971622
-17.01439840022476
12.54856883716907
-5.143790910751004
9.609620473868432
-9.909755422431235
0.787681439926018
-3.108010131439968
1.044873762456659
0.9981029378058945
-7.254681802334808
5.211705102067899
2.46236875238107
-5.919066508266085
-13.23841302776456
-17.67315869199838
29.3191452567356
-10.17402603882043
-1.471960525927648
7.063386864186374
1.203698956873815
-7.222212058580881
-19.52232740245757
-12.21739331275516
16.89367507612244
14.84604563908248
-1.71709617520201
8.15783867342828
17.77467380802442
-37.31410003043899
11.38158754898379
4.98764368169137
-3.330332121906109
-9.168719554075711
0.307656954326356
6.806625475622638
15.06471710931138
-14.13401158715957
-7.73733099776448
1.573144743489097
-7.555905565754754
-15.80018236047175
6.970973458715424
15.45726706506142
-6.628058163321044
23.1358314397164
2.758959825938812
-18.85883299105564
-7.035958274604329
-6.834353836194333
-0.5866423402025123
-13.51566771687527
10.77338798743966
0.7833882002693072
-5.738784210235573
-5.817991977447072
19.00576546697595
-18.38877217253129
23.1142563820618
-23.7312496765092
-6.079275838902221
-12.15649822085212
1.550746561986765
16.68502749774654
-0.2500353983995648
-13.09552574334989
13.34526303173329
17.2884485416762
12.66463096927206
-6.991869248464052
-22.96121026235994
13.11928434074473
-1.799124611717519
21.67652294836954
-32.99668267740305
-14.52027649501602
4.266319666511409
-18.3629805226065
14.12087706192306
-0.02421620569342384
-24.70671556432309
-11.81066847355861
-3.024270602479667
16.66620640008797
-12.84651885862565
-0.7954169389450831
20.66931261540987
-16.43378592135519
8.8837576466854
-9.053072917850017
9.121976789350128
-32.44416918217873
16.83944040596882
10.60676603021785
4.997962745990606
1.723214049189323
-2.558693596943841
0.3501857211790929
0.485293826562503
17.5649535758369
-10.62487229913057
-24.69959374611803
17.75951246941069
-6.418243588123075
9.626459137937678
-17.67356511543115
19.61266848882839
-11.56556251133589
-8.709438151685344
7.688431534337209
-27.6936580599446
28.71466467733025
-7.713985277816544
23.54101667952427
-2.680017397521859
-13.14701400419542
-9.708985521221162
5.744474795503343
-24.255707708231
28.22021843397665
17.95831193042315
-9.181817194090035
-21.1345737768643
22.24625363446428
-18.31544271901515
6.240023553554061
-25.72530453211056
26.09120163609597
-6.605920657531772
6.520392843540164
-29.95159672654899
7.880486401745629
15.55071748126402
-0.4544743907669436
-0.387854292879445
0.9189925198801997
-0.0766638360938232
-12.13799693160646
5.749635935982214
7.948956706061977
7.833285855051739
25.30951486591898
14.22081172267253
-19.64461496381092
-19.88571162480165
-2.104785712751507
1.368018306906857
-8.316305511985929
20.2797523173216
-0.2732947118159149
-20.00653116983781
9.236611556623259
18.00230617418504
-12.97206499221107
-14.16546399571716
9.135222813735396
-16.55841234669739
-2.209371227672989
24.42496619106113
-5.657182616695212
-8.661987998720255
12.23101952307723
-20.1274438710584
-23.45530524126316
30.49750515349125
-2.76327739430375
-4.278922517917279
-2.669145334641917
-5.043920130493703
-1.64536549285633
9.358430957991434
-1.311768074788049
26.73583780450906
-25.42414757996957
-10.65675259993823
-29.74351424294048
16.94496160161178
-10.13453727366346
-4.884676955954237
-6.271325717264523
13.81814852126279
10.36722623235416
-20.82010832957686
10.45268136323976
-8.877507336841061
20.48628463043102
0.6232014675670324
32.50677428639641
-15.57537572146565
-17.55460003250327
-9.764320275722701
19.87723812758501
-10.11320516790131
-13.1305119714964
28.20368256260451
-3.632877572328169
-10.07147034693075
11.0352025846262
14.9357336459898
-9.902672444741381
-2.386421172077478
-2.646640029227865
-6.419882304051856
-14.34392058675605
21.67152239061607
-0.9077194998088118
9.379938757794214
9.181858182752196
-5.750818796403798
28.96390394201133
6.005712233601769
-29.2187973791412
-24.53468994355356
0.1391190837105928
24.39556584060841
20.10893020621194
0.7472070972528468
-1.535979152776084
-19.3201581506907
25.52152120098403
-16.99868960905763
7.125996141849354
-15.64882773379339
-4.090802546457502
13.51457327745643
-4.427575108075629
-4.996195622917234
16.71510184571343
5.945973221018163
-10.3435073607813
-12.3175677059363
-4.118741327435385
6.516550980971668
15.12133235697206
-17.51914201050985
12.44186647833718
-10.80104393301593
22.36723175775989
-24.00805430308225
0.02468812913663169
-0.0331104893011966
15.5255004595817
-15.51707809942149
3.177341899272438
5.918119885405086
1.677926202764324
-0.0169467928417204
-20.10438103938516
20.1038500605985
0.01747777162747302
21.64949553725508
12.92251656232039
-22.76028820172723
-11.81172389786446
-8.417479777068809
-7.636325437055746
-2.014188130905866
18.06799334502949
-6.437562385566894
25.17411190127784
-15.68106824409032
-3.055481271638689
-11.31818437428631
30.63963386819744
-11.4018596747197
-7.91958981921038
16.20085828357903
-15.22349441169928
0.7319224316899137
-1.709286303585871
-1.920828034171757
-1.297440062627453
19.41912638036746
15.93828299566188
-22.13396810226049
-13.08782745173451
19.28351255833376
19.12267855063542
7.099099934412245
-23.69770612256999
-2.524072362487255
2.965907701604487
-20.02361148574418
17.05753805361244
14.30557194077916
-16.59931472349945
10.65045616574207
-8.356713383041129
22.3596322395352
-0.6321707204642856
-22.31337730984583
0.5859157907736277
-19.05354379918486
19.92899622458016
-2.796280459580367
1.586296454070949
-17.9379491877908
15.86847796729667
0.4831747664299302
16.72827273855851
9.198557661293467
-8.93158897433926
-13.09964052657613
13.16223412524282
-0.06255668892291176
-18.6659709304615
5.595776248805351
15.0410684117444
-1.970873730089536
18.84441662587032
-8.627766007652012
-10.23232779310824
-9.661894752979325
12.84246803813774
10.36093670050323
-27.57753056613747
-3.262263935790739
2.758187312024337
28.08160718985967
0.02027348094781663
-18.50728339213373
18.486950197174
15.00198976861593
-26.44065219236608
16.82915365954207
-5.390491235795245
5.749185534037017
-5.464651669032598
-15.19286666942581
14.9083328044083
20.10125263972646
15.08596054225543
-14.90746086466251
5.775648145531227
1.724379527831986
8.699007801091605
-24.87490540459259
35.72519470130398
-2.818187511683527
-8.03210178504791
-14.62668700746983
35.7173273780794
-32.57137508127504
11.48073471066379
1.188528789648535
-21.71067063501738
3.001802510755937
17.52033933460969
-13.56975735001376
-9.101521528677447
30.79741142437764
-8.126132545677368
8.739891539124846
8.051718856525202
9.229963619692084
8.25776452939097
-17.48849826405806
-1.43329466538401
-27.39062241762939
29.43612991627436
-0.6122128332630554
21.78486814498065
-0.1435098213231321
-21.64154585230667
-20.02641203814392
14.20469280111769
6.50723932574591
-0.6855200886587419
21.06030958789783
-20.35317650159307
-11.6861329404863
10.9789998541814
-17.93052841431689
-15.30686918284105
20.12333508999058
13.11406250716669
-13.92248000506124
8.625488448975199
-14.8417880235199
20.13877957960628
9.966704010319736
-21.72493210171034
7.764483390438618
10.31763218247671
-12.23624367016295
-5.845871902755584
2.412326074118181
7.855352974604918
-25.61036113582184
4.947093366974913
1.182493772485395
19.48077399638139
3.840461344402565
-19.31276663216956
-5.63708133727192
21.10938662504619
-12.62209502325288
13.23969573869635
-15.15337556058937
14.53577484513288
12.27728846003735
-12.1343610675259
8.662723735887544
-8.805651128416269
-14.82683385652627
-5.605451858066584
6.249258101645681
14.18302761293461
-11.69677353342048
7.383730141350792
27.44887483178243
-1.669202312312672
-24.76560880339302
2.475848475547037
23.95896264014804
-15.50437874710123
-0.01886386926553476
15.52292017500158
-1.468031058861801
13.46642718394353
-11.99880840319459
-26.44442769800633
22.41733882638996
-1.090819695054327
5.117908566667817
-17.16345179345439
0.4918041228114446
17.42531345529216
-0.7536657846596203
-20.98768069742674
0.06936011088001039
10.77670666277472
29.24813945675952
12.4536494868142
-25.61652656723587
-16.08526237635709
10.21071780810485
9.089343382019623
-15.73246823129248
-18.37102213541208
10.79346427557934
23.31002609111806
13.45017464845726
-15.94362812771702
10.25793686969463
28.09902243589074
-22.2806717314108
-20.22520544893092
14.40685474444852
-17.59357061966169
-10.16053310344857
14.35978873465235
13.39431498848202
9.507282243409138
-22.24307333718117
-2.996677137532417
-10.3195101363469
-6.427210834783149
16.74599496366985
-12.74670761722422
14.96303374938982
15.61573694709843
-17.83206307924648
0.3856566645562649
-0.2390638349343786
18.69116897043424
-18.83776180005855
-18.83607241934095
0.1202110096816902
18.71388429834985
-1.308682662907033
-14.93231016018112
25.74827506648411
18.74176716476466
-7.346885230859379
-12.70356459683176
-14.92973869631074
11.47829054358287
30.28235786880093
-23.01888124765052
-18.35537876975438
-8.586661958214911
12.00973056778168
-8.745956578046606
1.838825596978011
-7.071752359328965
13.97888334039686
-21.37047216877072
10.77312826283982
10.59629557917764
18.55510661403051
-5.851904083738693
8.057202944577217
-20.76040547487233
7.518047626467109
34.54197110400365
-3.034862996564601
-39.0251557338589
-1.012445413262078
-3.430715460116892
16.89978593559454
0.8515662448562936
-14.32063672034028
6.129163744524151
-2.434634955679078
15.88986666155015
-19.58439545037923
-15.77471959964996
32.05043586928922
-2.150269068049413
-14.12544720159061
0.6319992974499017
-0.8597331804598261
31.20772470352161
-30.97999082054937
9.633086904071725
-0.5680395278300727
11.36381728602413
1.715331679751622
1.751832788910727
-14.83098175469502
-3.953013936558492
3.278389975259404
6.56548941954092
-15.61464103750189
18.68360079807564
-1.357359046800559
-1.711600713816856
-20.63899491277807
22.52085020486374
-5.7345022416436
18.53855830794136
-19.54444708134233
6.740391015036136
-1.433912142054362
7.113985109638118
0.6292556467104874
31.25396901853874
-3.267803224666644
-28.61542144065335
-12.31618783294951
1.022204303213038
13.61843508983953
-1.123007455914135
15.24292070802433
-27.7383483419882
-25.19356905065455
10.81545118243852
1.962695236590541
12.4154226315794
-6.889423771310437
-0.2789511572520821
-8.706096404813106
-9.745929647021573
3.861125284431082
19.82807526919567
-4.288638869985975
-29.54179814088541
-10.95754077111157
10.85701177966289
-0.2447154826790213
-17.17379721873169
38.87802918427022
-21.45951648287191
-33.27173564400484
17.80723510707669
-1.965342633991764
17.42984317092181
-0.06488139307823915
-20.25773372131859
0.05883610830061844
20.26377900609441
12.85728121934689
-34.89318762257155
12.7611275665934
9.274778836614264
-17.62730821593735
6.052174255098244
-15.26196869328245
15.26209048936564
11.45188773200396
21.97919220277198
-25.95259168464253
-7.478488250140447
0.08836743334322603
-22.61329473904524
-0.07556918716451856
22.60049649286011
-9.744017501118183
25.23615321576459
-26.13998814200237
10.64785242735447
2.869589927138414
-15.37863805688919
4.666081791692866
7.842966338035476
1.45438649179863
31.16170531183367
-21.16420407163266
11.99497152197586
-11.28833783043925
-6.574780250663145
5.868146559124208
-5.699877182607401
-4.056529394960153
24.56400258947414
-14.80759601190584
-35.54504589420829
5.730192539154195
2.526796705812415
27.28805664923828
9.382846099345262
19.34487098416874
-9.3172149351218
21.98201211515963
17.99390816166488
-25.68751385258002
-14.28840642422993
15.17405304364574
-15.49445429173689
-5.241003947167288
5.561405195258014
-11.50708993791045
21.38082558236357
-9.874368637927393
28.20247960311685
-23.04424675698672
-21.75193267703482
16.59369983079358
4.90733914662389
-18.99629290878059
12.44479045783957
1.644163304315629
-1.033791510996701
24.01105754661283
4.121722305225516
-27.0989883408436
2.136681798002719
39.72330823819103
-14.96554045795581
-26.89444957816309
-0.2685842695005105
3.022379865487812
29.06530837628195
-31.81910397232836
6.599728795801988
2.752580860343912
-14.70578724988718
5.353477593740212
-4.886718271829711
15.25595756755376
-2.195321584423278
-8.173917711412448
-15.97915674630075
-9.642683568742408
3.318339549224275
22.30350076582256
4.744861261264349
-19.71776308536383
-5.450911523035889
20.42381334713632
6.915911326088698
14.10693507976088
1.077503942561466
5.34567879835553
-8.52796845364629
8.681301901108515
10.87354832781337
-0.6737769512165658
-18.88107327771818
-0.5356675817885329
5.451043877798237
-6.632472471208408
10.51111878314172
2.938670166811876
24.48526229372863
-16.05243734039297
-12.48644649811115
4.053621544778554
0.7597857858269281
-0.7884913949387339
-23.50045952897258
23.52916513806034
-2.663308373555633
11.11698822163644
-13.13700562684791
4.683325778738927
-10.26974851837637
34.53593621332285
-2.616692157702635
3.976886766972691
7.676213079533927
0.07482982112049945
-0.08188955397272005
0.5811850234227762
-0.5741252904988052
11.6558473385105
3.667512521221212
2.844543906544519
11.19252570483233
-0.1580727389633342
-1.424832492010647
19.38610249547542
4.870036453882537
0.3066386262128956
-24.56277757548483
2.83956861495595
-7.436690747350273
33.1588589076453
-28.56173677519061
-4.913465431981709
-17.14705739914048
1.083662926361578
2.720862749017321
13.34253172375313
17.036947319759
-0.8911453046032928
-16.14595265856014
3.542376459151189
-17.68194666945793
20.90789776892429
-6.768327558648418
-14.88048696451289
17.20170998782559
16.58683912390736
-18.90806214723094
-41.74721674509311
-10.33218068097793
24.44694283959166
27.63245458646231
16.49932737866533
4.595204806155575
-20.72814002070134
-0.3663921641871606
-37.28789368794155
27.8774513729966
9.630544993248499
-0.2201026781659675
20.14500255760523
-4.183616697061026
-25.04530890931333
9.083923048765936
16.98986705742387
18.88091854712426
-19.37145822601587
-12.05854781722848
4.932419637418135
-11.36690643676231
18.49303461656935
4.307589872807688
-3.660354795239733
-1.732820911133181
1.085585833716141
-34.26381019304944
37.49427818142659
1.374526375658495
-4.604994364033673
28.97152281061241
-21.62849775242833
17.2946801032749
-24.63770516146598
-15.24365940701292
7.564157127224033
24.66936933714982
9.963845583400721
-16.27700058209321
13.52928285818841
-7.216127859498158
3.415644017660197
-27.07818565558722
16.82135266415818
6.841188973781771
4.771235209303227
-3.691862455752256
-14.03824928546456
12.95887653192043
-12.26479972399469
1.616345123127706
18.94203407676879
-2.676837114640945
-24.08092383842542
7.815726876298781
-6.933204246559507
-20.23068124266404
0.06630178579118824
27.09758370342864
7.344786824117318
20.67090921627419
-9.073661963634018
-14.32654479143433
1.901977156422731
12.42440296290031
17.58827293820771
-18.51700901567175
7.40524759921918
-6.476511521762021
-24.03265027452918
15.74108712443319
13.30178710576853
-5.01022395566988
-3.669494820347101
3.06176190579836
-19.24883021971155
19.85656313425118
0.6907053644191268
-12.16178764816532
6.5988708195303
4.872211464212522
-15.66939427418643
6.515978816334558
10.52691010608311
-1.373494648231151
-14.47590012705571
23.87036487159695
9.991637750949746
-10.09019549660032
28.04705926019733
-9.523224383490264
-8.43363938010846
-5.269799500655571
4.024846381813895
24.46269121033231
-23.21773809150304
-32.09500662118811
8.292303567313956
20.65988021315464
3.142822840718685
-24.34924081545979
0.1460216730884469
-10.16562746016562
34.36884660251151
27.55386734607828
14.93944181183513
-14.46215140319348
-28.03115775473223
-1.568253842092081
-7.685008647152054
21.57026577358553
-12.31700328433337
-9.505936721057775
31.50838874609874
-21.39002595653356
-0.6124260685094743
11.74421436236808
15.50527865037874
0.05211436683006872
-27.30160737959603
1.66563718797489
-23.41636803827836
-1.576351526204128
23.32708237650598
16.16306986257905
-13.2816442195202
-18.78920864037994
-0.4448550110182141
14.26709579092975
-13.82242842875222
-22.15061779973199
11.00079898634676
11.14950673726315
12.1244503212613
-22.62812438516172
-7.73264691118196
18.23632097506086
-16.71441644724676
13.86402009937989
2.849931239531214
-9.075910939669033
12.43236551218059
18.07638627692695
-21.43284084946298
-15.99438427778515
-2.811951988294072
17.5088962034341
0.8009168219389249
11.92172488082767
-24.30741141240072
11.58476970962917
-17.64557860011302
12.74077789519976
-11.08958357288813
-2.990137063681912
1.247373105815235
-18.42732406398382
20.17008802183435
5.784151835729721
11.84519939172761
12.9980156603878
-30.62736688785728
18.75166210111024
-2.133869862138909
-8.171971573801065
-8.445820665152825
7.497679705355647
-2.471586790930039
-21.3902100314092
16.36411711698311
8.914394475077106
-28.68229118606552
10.69198577130221
-4.790190621804845
-13.04150545523926
-2.724279180358103
20.55597525737458
-8.001840506636016
19.09306168121905
1.88690428768695
-12.97812546227561
3.020250888954898
13.85117396939825
2.049153129704615
3.930760280802851
-23.35529240844261
15.16149607015813
4.263036057476325
18.80725746108315
-15.09394697501456
1.553111000898632
-5.266421486966645
-14.4647603871085
1.142160620626968
-2.053953438760081
15.3765532053428
17.39864369628637
5.842204494720369
-19.06218246447704
-4.178665726536102
2.641654435105113
5.129537502215372
14.47314769319125
-22.2443396305014
20.66946591790805
0.1902011338137568
-25.46785413433275
4.608187082779601
29.35947850950614
-18.73804969045732
17.98377651208419
-28.60520533110613
4.616026663730639
11.39017978512456
1.7802724740257
-30.02239912166912
-3.229210118379698
20.45728450916116
12.79432473085761
-4.141399899529412
0.3541232151733678
19.23981088969306
-15.45253420533879
6.914007278098441
9.382029838655864
4.823282156019559
-21.11931927277877
12.1544951109554
-7.084729200375613
-18.07912207101123
13.00935616041744
-18.49597795911004
10.04409203969654
16.12792403615474
-7.676038116744087
-18.56688526673694
19.88300875638379
9.096921936874324
-10.41304542651771
-7.957405608669091
25.57035309601543
-0.4067415922405566
-17.20620589509762
-21.06296387559808
-3.364832255772887
22.78512954364464
1.642666587718621
-2.330923552622501
19.30346393300966
2.828159327110003
-22.38323370550085
-6.833400783019773
3.606273352724071
-26.92704464672442
26.25345222737073
-13.80230770767349
0.8977354544474333
-41.84785442669156
6.878867649735608
-18.67260561231021
34.57683162587745
-22.78309366330586
17.70794960803076
-41.65004789932345
-13.69972328324031
37.64182157452808
26.4429054681363
-3.631164836420142
-22.39848247166733
-0.4132581600531004
4.323620774627766
-1.433604754069093
27.69785189603617
-30.5878679166002
24.21640526934849
-26.40120722589243
-1.143188182535248
3.327990139077932
15.53951877875527
-12.5260347940957
-24.39646721817165
21.38298323343914
-5.595397982428391
-12.91579935033278
14.29698145292652
4.214215879834597
33.38499033150477
-16.98717623264733
-19.77492311615964
3.377109017360761
-11.47027510292738
1.618851132172572
12.46625684585041
-2.614832875075836
8.006942107947701
9.721610009901951
0.07177300089202755
-6.279552734790625
-9.834629736228724
30.85931004382448
-14.74512757280835
9.918765418228981
-20.30918636529401
9.020324623279157
1.370096323786967
-19.44860048080179
25.25460508029
3.445338114508358
-9.251342713985988
14.29324834206193
20.46779433629714
0.8225841290228554
-35.5836268073793
-27.20494455480897
-8.573667153373311
-11.61565030193393
47.39426201006802
37.76094707226547
-11.31334333720274
2.567609647364684
-29.01521338244664
15.63216337845099
-36.03085682531349
-8.401860064380241
28.80055351123347
21.47415052933127
-12.4038682892668
6.014652126510362
-15.08493436658327
-20.31945679454599
0.1087971488520321
-3.006246378348203
23.21690602403353
-21.25212188027591
0.08451617696477359
7.467910853628857
13.69969484967646
-10.94576705237904
-20.11274027202873
18.79346164604332
12.26504567833516
14.02357960485575
0.2335296563521544
-14.2572797751243
-14.45333718647583
18.7862384935062
33.42804576524126
-18.0681850220624
26.03348071478313
19.38228172760968
-27.34757742058112
18.90535141975502
-0.2269385313234429
0.277112332952679
-10.62505878842899
-9.695970113631635
2.450396756596948
-23.02756488445697
-6.627776426964437
-21.15693544910098
10.52101373431733
-0.3098453376072101
3.464881074985395
14.95802934388832
-17.2343816292315
37.01817540302022
-16.98237960788284
-15.11069122177478
-4.925104573443692
-4.207478029042301
10.89553089943446
-26.80079314243865
14.21235647596494
3.808275004080778
1.699609797186332
-19.72024127724794
1.282629179925545
8.800240822644954
10.57949766040865
-20.66236766292793
2.260082062189223
-3.675785545737366
0.5403962760857944
0.8753072074539032
6.402988064515855
13.0063029135576
-1.270551631528134
8.747034677422983
7.960848745647223
-0.3264202227302255
-3.648839693521264
-6.718765675169948
20.16498257766334
-9.797377208957238
-42.69623370557528
9.538677476837432
15.08937120653692
1.652151211628125
-19.68778132658329
0.9312403649553578
17.10438974995543
-10.83527734295122
20.94522648429123
2.361217713955555
-12.47116685527592
27.00955887551051
11.54469706461112
11.16084427112942
-49.71510021127791
11.34039036365011
5.469540101959613
-15.81033995813311
-0.9995905074754131
-23.53335829454848
-5.929400620155728
1.33572562635034
28.12703328833928
1.213489555377889
0.5877667721951384
-25.33461462213411
-15.30270086449773
-5.592261169205098
-8.045129487651135
15.43202359688912
-15.93698695174233
2.157114566429283
16.24501596229616
2.756428055024774
0.8612300421596726
-19.86267405947654
38.53874980167253
-20.81161716164159
3.582857466244175
-21.30999010627689
20.4340989013515
-27.22465171483802
6.79039660343154
-9.09796714766015
29.68407716395674
-1.457724283193417
-19.12838573310502
-17.34793141246736
-5.429219802181658
14.93784903914798
7.839302175495085
6.842695007991909
-6.663142264084065
-2.536202609009929