/*--------------------------------*- C++ -*----------------------------------*\
| =========                 |                                                 |
| \\      /  F ield         | OpenFOAM: The Open Source CFD Toolbox           |
|  \\    /   O peration     | Version:  v1906                                 |
|   \\  /    A nd           | Web:      www.OpenFOAM.com                      |
|    \\/     M anipulation  |                                                 |
\*---------------------------------------------------------------------------*/
FoamFile
{
    version     2.0;
    format      ascii;
    class       surfaceScalarField;
    location    "0.7";
    object      phi;
}
// * * * * * * * * * * * * * * * * * * * * * * * * * * * * * * * * * * * * * //

dimensions      [0 3 -1 0 0 0 0];
oriented        oriented;


internalField   nonuniform List<scalar> 
37503
(
-7.335228916786507
-11.02060112754654
26.13348880074351
-7.777658756480194
-10.51070701734296
4.569180245450264
16.44941056652207
0.04021385876470392
-0.5989671024091207
0.834852836767637
-0.2760995931205956
-0.1095193056118369
0.1341073068287908
0.005891586919898343
-0.03047958813260103
12.38903145460359
7.179200446500832
0.6044146306972675
-0.02090474057444867
-0.08604552048624589
-0.4974643696288511
0.08365195522643414
-1.608454969233106
1.576096904902548
-0.05129389087365473
-0.5659443764196227
14.44709919227836
-13.88115481587362
-7.677528210961534
-5.802342192089938
-7.84775226198671
21.32762266498743
1.790486003691642
-3.125173487952167
1.488700532513211
-0.1540130482354565
1.471619980596397
0.1882060377660709
0.4146642663973151
-2.074490284769951
1.714853975108229
2.107482250818304
-2.709141687473593
-1.113194538488906
-0.02824636445275805
0.0006318780510295081
-0.03108618396759668
0.05870067037557195
1.104593580717658
-3.577987355616592
-1.010187874447466
3.483581649280963
-0.8892005787363374
1.960603550033272
-2.769381491672581
1.697978520335059
4.25008402195661
10.5991466991848
4.510005154086613
-0.01375022184363776
-0.1620714591743471
0.1453437073712141
0.03047797365729021
2.090455451606148
-4.635296542840926
-1.984870896140975
4.529711987319984
-0.4617954562727015
-1.276971416461296
-16.59423066787673
13.10052186292066
17.97015579523826
-6.661103210666345
14.16665089904379
-8.123443659682325
6.979446834385525
-8.209286406969243
9.353283232242839
19.99923049757168
-25.72319699905672
12.03646270191742
-0.06187057681634492
0.4655374169055548
0.02422014411708581
-0.4278869842015622
-0.449792299428888
-2.177241687949091
3.731627568058783
1.393425637649264
-2.66620974661164
0.383583530198621
-1.444793539779796
1.922788319975
2.203796296684954
-2.681791076932674
-9.773895947954697
-9.45652655756027
0.2744467730425688
-0.2989036723160765
-0.008550209576992266
0.03300710886638716
-2.293983255035041
0.430849874507553
13.09541067926266
-16.18557478875023
-23.76469108495456
26.8548551944966
-0.1468298223815037
0.1165466740309743
0.08692458839574159
-0.05664144003798984
3.572724977194453
1.945450166268416
-19.93636313802372
-1.548181840952089
-0.9967398126783611
2.095129354152457
0.229154963669104
-0.01812208928170583
0.207717109540253
-0.4187499839151103
1.323666200508091
-1.182524280472815
0.5082219174962556
-2.043802960573877
2.718105323511158
21.43645786975207
5.094767783480005
-4.457046818870892
-22.07417883442141
0.05142683697568395
-0.3101070387228927
0.1187429858258787
0.1399372159340256
0.2977662981670491
-0.6087405021457254
-2.154518282517539
2.465492486521822
-0.04870010938915151
-0.2281970690336629
0.3837680996427651
-0.106870921209535
-0.0624394872373512
-0.05031880000317528
-0.006440305747299256
0.1191985929929703
-0.4986562197043705
0.4465453313179173
0.2998551807380482
-0.2477442923401706
-0.0534777402849651
-0.3860439944607631
0.6172022996623013
-0.1776805648953117
3.894108121746834
-2.530654094315198
2.35591453267258
-3.719368560103817
-0.147286617192269
0.02816325000175604
0.02656068313051506
0.09256268406628709
-0.02836553355355033
-0.09786276552035254
0.0303394697990911
0.09588882928245437
-0.0241850408409983
0.1143808383051237
-0.1403204906302906
0.05012469317293222
1.958348549266791
-0.9811125328642812
-0.2477656525858537
-0.7294703638085839
-0.6615297612647142
0.1816609139776828
0.3258632835605534
0.1540055637550877
8.841515622328847
21.09002897479716
-27.38108422908491
-2.550460368045257
-1.249403831754253
-0.08467861225373716
-1.375059243480725
0.4711138726791636
-0.1330485203501786
0.1025942933252135
-0.4406596456481952
0.820355547098812
-2.1580580238084
-0.9562807783521644
-0.2173342927365911
1.526730323932905
-2.097983711538214
0.7885876803660073
-0.1577040967339247
0.215730793491027
0.003687174522002773
-0.06171387127062485
-0.2328532846560743
0.1242719916781927
0.165454409214753
-0.05687311622734034
-0.9022845281992439
-0.5225775184392393
3.158916627008836
-0.05026304705976167
0.3256058060164948
-0.3173364008105625
0.04199364186847523
-0.002519197424255273
-0.1184762429522212
-0.02793594432861659
0.1489313847147137
-0.007075163292279394
0.0649050653138336
-0.09109858097709522
0.03326867896101966
0.007755344527402059
-0.135084351326851
0.1194434654209732
0.007885541387445856
-0.07145084618834403
0.06934264196718722
-0.0373123767576671
0.03942058098329961
-0.2406217281920873
-0.2272943028213322
0.4585512747162086
0.009364756314860573
-0.1769804859269556
0.1274779000747371
0.06415229347019011
-0.01464970761047578
-0.1070770957217181
-0.005961153453087294
0.0982821367961369
0.01475611238501815
-1.932367746205367
-1.153058342236298
0.05045282636389924
3.034973262020798
-19.93018098740632
19.72245178286935
0.2077292045279064
-0.1816259975113531
0.05021964966497951
0.09467810693756507
0.03672824091753265
17.82379057272758
-14.75861956283306
-15.19442803120104
12.12925702124808
0.09704488611815532
0.02681260417012084
-0.08869249835226603
-0.03516499192548642
-0.1513613029408234
-0.4896777391448013
0.4365295957333766
0.204509446364921
0.1262109836217959
-0.5824607807729411
0.484143247713992
-0.02789345053277167
0.1463437359771094
-0.07667377556761884
-0.1022205790478202
0.03255061864952508
0.1947220783890612
-0.2227717226073773
-0.1513311182444474
0.1793807624766847
-0.05780054623141585
0.1911854910857821
0.1873834339947225
-0.320768378839289
0.8420505110533655
0.616240739235745
-2.186718802046262
0.7284275517712638
-0.01400317175711061
0.1241707486935422
-0.05526998336813631
-0.05489759355930211
0.07032842391911107
0.006797591584085072
-0.04511888911498473
-0.03200712638025763
0.8062246461716664
0.8431111174114828
-0.06425633741404219
0.02528617452428959
0.03897016289296744
2.854514365654655
-1.709785088818299
1.027962441967891
-2.17269171879041
0.2375356115803796
-0.1024167128625322
-0.1145333669140363
-0.02058553179006125
0.1128493556227425
-0.02752857778537551
-0.05811909576350143
-0.02720168206601214
-0.07753064798997104
0.450935362508382
0.396407440767694
-0.7698121552608995
0.2554061275778396
-0.1850809619358498
0.1574519534492213
-0.2277771190847661
0.1148617762886549
-0.1677712555090146
-0.2472142584538383
0.300123737688773
0.06472005993232183
-0.1402300216631374
-0.02816399620386929
0.1036739579400571
-0.1041791425012893
-0.01901572598532716
0.01367556287746718
-0.0807391543171455
-0.1165712106367665
0.09544902155803116
0.1018613434044432
0.1909467613601241
-0.1101113983214103
0.02119765006367608
-0.1020330130995361
1.004826098309963
-0.6594946305890843
-0.394260238181134
0.04892877049407337
0.06498367855184897
-0.2844308397648898
0.3006715554539656
-0.08122439422337832
0.2551142683754642
-0.0388553915416855
0.0202544339685494
-0.2365133107914897
-0.06303652195112722
-0.2395276797926718
-0.1906450898957157
0.4932092916441141
-0.03196446363513578
-0.1956182410455162
0.4094045900582366
-0.1818218853694033
-0.1234352611406041
-0.2787934666762699
0.09874689467894729
0.3034818331453959
0.02808712977030158
0.1448538468593013
-0.1961119975488134
0.02317102092860981
-0.1011814882408633
-0.08919282030778783
-0.2528790899341893
0.4432533984912106
-0.2023692707661464
-0.2826003066177148
0.3422830733070125
0.1426865040807846
4.793109265074398
-1.508839514548881
0.05049506855456862
-0.05463188100969023
0.004136812459824429
0.980259726125278
-2.209248461175413
-1.437221011584995
0.04248718375563924
-0.03018448271523119
-0.01230270103735988
-0.1959442745112121
0.05369678035412232
0.02244449089226299
0.1198030032724108
0.002968220974417987
-0.06584637373367287
0.1600123751175253
-0.09713422234772452
-2.327856064388729
-0.8081404400250601
2.599271989398023
0.5367245149724633
-0.04026568636877067
-0.08583229533014872
0.1387636396750328
-0.01266565796962508
-0.4324497838606565
-1.176798298473075
-0.8646069041636821
2.473854986490091
21.0998908400446
-0.0206421869520992
-0.3469603203130395
2.973619902124895
-3.809183862294466
0.06798998156794896
-0.1018703387022309
-0.03170702122664094
0.06558737836605259
-3.047406979425952
4.852962204104075
-0.1453648412156618
-1.660190383409769
0.1262150479133719
-0.06062321805504037
-0.3302661303294811
-0.3027696913554935
0.44666034254718
0.1863754791485067
0.1915105148957648
-0.09843167860589168
-0.02868036324651286
-0.0643984730361766
-0.06997418263779032
0.2521321552621689
-0.2372126044313845
0.05505463182583404
0.1824502344480239
-0.2883978854999208
0.3023410580613402
-0.1963934069973897
0.03674310365369368
-0.01585566547772384
-0.05403120713152711
0.033143768959014
20.19467804911631
-18.63332581915105
-0.4136349686551536
26.75635219043233
-26.90866159822352
-3.344634335086998
0.256107019768305
3.851016424100702
-0.7624891088231293
-2.043277921480401
0.3427458003885693
0.9170748114094377
0.7834573096819503
-8.029572358352514
-5.016661186149991
6.994957702188301
6.051275842429847
-13.76126658826342
-20.81912062961796
34.58660218700071
0.7635227480759222
1.583943591576567
1.384161228374168
19.19534074975579
-10.92248036871336
-8.272860381036942
1.195739276768512
-2.360337587540054
-0.05972740824889957
-1.729394357298678
1.128582155486978
2.318488085836628
-30.28912695614684
-0.9173439633103827
1.227174641573247
29.97929627782349
0.1128861074120789
0.00432135825616045
-0.1368227341636154
0.01961526850436174
-0.1738397957812785
0.01702600322781523
0.1568137925602822
-0.1024282813262775
0.04178160575221204
0.1314065819249119
-0.07075990634440532
0.5408084829740626
1.425828825066765
0.5330897879847873
-2.499727096080632
-0.6094510608706929
0.2043833164586465
-1.773357902405864
3.10193536696614
2.028539001995226
0.8176898296653281
-3.658741960907368
0.8125131292696169
-1.895111100930629
1.913987651547535
-3.153200076023618
3.134323525340762
-0.3777020457441891
0.19074979989213
-2.001700794748327
1.704327276659003
-9.514280528287246
-9.229001581107394
-0.05640842633111842
-0.1519026985469546
0.1153585983966823
0.09295252648897055
0.1169797280826068
-0.3415043856659765
-0.3539808872333403
0.5785055448377457
-0.5167429035730239
0.3564287795440896
0.1175363680135144
0.04277775604454711
0.4585339579735964
0.2137028869653916
-0.8239382721194273
0.1517014271955682
-0.3568763828976528
0.4838235126995555
2.211997678058833
-0.1487111648797499
0.06125016504615065
0.006403090514814442
0.08105790932135634
0.01148973981071299
0.02312051688570231
-0.1286827875704941
0.09407253087849206
3.123836106870054
-1.081721371316339
-2.564350738125849
-1.165344917945993
0.605379514108633
4.747336638460625
5.572823872420634
-10.92554002501187
0.1966363915744977
-0.8758028229391204
0.5522764222856579
0.3235264006571283
0.07318927012104076
-0.2756401513630938
-0.2120855790746325
0.4145364603303127
-0.6406077209788789
0.2482481405191948
0.5474901164054601
-0.1551305359293985
1.799168568279461
-26.13394426519403
1.878529963491734
2.879170778118906
21.37624352356215
-13.8771156116794
7.842992479760463
6.639502645971253
0.1935056169571902
-0.06423437630920607
-0.1374281542052913
0.008156913564102843
4.799771431584098
6.613635604787331
-28.88053260116479
17.46712556471213
1.656564108370548
-0.7752970341257899
0.2821373936475836
2.676832427373434
-1.763230544285283
4.070571365583538
-1.72592773872639
-2.96909621238089
27.61202327510493
-13.64535465838003
-13.96666861677065
-0.09002082457014345
-0.0007343416132520949
0.1059831093313
-0.01522794314184233
2.383683928210135
-3.686925026875335
2.142209450052379
-1.993095065100739
2.824505517140703
2.392715806334436
2.280623420774876
-2.289655298927687
-18.75982524118382
8.436360759927602
-8.669914182892162
4.426382743710053
-1.602817062893452
4.422832870810776
12.55802402273441
-7.738239246314618
-4.268097726525238
-0.5516870498511545
-0.01423824612396022
0.08388659760237638
0.009207307059428772
-0.07885565852969588
-1.280152940299823
-0.7460468408566069
-0.4555127043922166
2.481712485580776
0.4050396911989949
-0.2315516101143608
0.1293805917482532
-0.3028686728202185
0.04445277245258485
-0.06189823886687269
-0.2154078182350886
-8.112601875869235
9.068579222271634
5.275296871606983
-6.231274218020586
2.692001786359838
-2.058965458556311
0.7182624890483
-1.351298816808943
-0.05776450565610496
-9.067025549222528
-1.728373050761643
10.85316310577528
0.2778485095867452
-0.1729968795614052
-0.1048516300219878
0.1102673592150184
-0.2094327138837346
0.09916535467541074
-0.05769333902470828
0.3194880282261149
-0.05759729185693827
-0.2041973973363942
3.707583142898838
-21.79632592310946
-4.092347889729806
22.1810906698975
-0.1558262636396271
0.1560586660416312
0.1679431569246555
-0.1681755593114148
2.624693184788566
-1.262292066646047
-1.794850902012795
0.2310530402752732
-0.1207856810550659
-0.1470060361615971
-0.05443517217534952
0.2337891371015642
-0.03234792874893781
3.01517007305602
-3.569898820784822
-0.01240233129588078
0.5671310790795351
0.3641947657379667
-0.02424712400329675
-0.02028227947068255
-0.3196653622327185
-0.0133309420115521
0.01338896080237106
0.09188685558069931
-0.09194487436383333
-0.4349249564033272
-0.111644344031001
0.2676823943488656
0.2788869061064314
-2.307331276854833
-2.12028133741161
-1.441919531728546
5.869532145980421
-0.09535261848669192
-0.1654974966957265
0.1108855663457006
0.1499645488416748
0.05270843896107534
-0.1804909686170979
0.1277825296636692
0.06894858601986102
-0.0197098405731474
-0.0902024175896764
0.0409636721512476
-8.032566726834101
-0.1340553344376425
0.006858537669198576
-0.01613464361891278
0.14333144039721
0.02421501143330398
0.04170900045393702
-0.06592401187921733
0.02865493765616836
0.06149953774713911
-0.1069093638099789
0.01675488841439988
5.866597194399262
-4.045092388076048
-5.298382207780063
3.476877401522059
1.986471540097134
6.073562286082286
-2.406026083047583
-5.654007743106292
10.40383329052883
-6.640123834310772
-20.85359532432101
17.08988586805373
-0.06949698620972986
0.05440960594899013
-0.09423793792515475
0.1093253181968871
-27.56684826509285
15.29373127750746
-4.321113680299043
0.7127237871702522
-0.356295704015213
0.7029172974960689
-1.059345380661123
0.7278931418526728
0.1471296840282531
-0.7177569730653411
-0.1572658528034234
7.420878222895881
-0.9039965232424133
2.071397916265028
-8.588279615898296
0.09921916815570404
-0.1234195846004181
-0.3425501966163506
0.3667506130711058
17.03125074993182
-13.12847263500508
15.29256263483174
-0.6451281057888577
0.1851479961947139
-0.05912216190208265
0.09527906789494499
-0.03615690598862897
0.06611224652960467
0.1283407488362555
-0.1783374238874181
-0.01611557147305128
0.1122184168862908
0.03009914458145379
0.02076881427358388
-0.163086375727945
-27.13720053301921
14.97676509989703
1.190952734753732
10.96948269828402
0.3266011091229432
0.4508607668151032
-0.3805591716285616
-0.3969027042988528
-12.70558078233137
16.41466126638134
0.09574004849927091
-0.3864772992572946
-0.1274344981264854
0.4181717489018991
-31.41946914607263
9.230896504206122
6.85439819033448
15.33417445149902
-0.1627624306134486
0.03794380068637025
0.05632971905240797
0.06848891088262528
14.46189293401271
0.02293886415328376
-0.06112310402184399
-0.01818268097313598
0.05636692084746034
0.4436322118855729
0.06785159521093199
-0.548206723255985
0.03672291616142955
1.42526374730668
0.1571256286907345
-1.013890719844772
-0.568498656120011
0.007578703542484594
0.409006822743789
-0.1251526821755596
0.05777567518504592
0.2118391016658822
-0.1444620946627414
-0.07387814143448121
-0.1376226355360159
0.01735619763913588
0.1941445793362771
-0.2213451218377031
0.02193765339120471
-0.002566446844589807
0.201973915301272
0.1635458734640964
-0.03045619500249337
-0.1330896784534262
0.02340299190782432
0.05407503998997597
-0.07747803189211309
9.775968070329297
-14.24305095662102
4.467082886309942
-0.0560162946319778
0.07733568824113067
0.1768865930696804
0.213304678317031
-0.1391228669194614
-0.002281639760033458
-0.07190017162012645
-0.1051608526904495
-0.3029427202803383
0.8349690811923133
-0.4268655082123492
-0.1571875513402668
-0.3779529623399437
0.1982315594338669
0.3369089542680064
0.2042838935702684
-0.3887573764853074
-0.3682952669119035
0.5527687498327917
13.56740341898292
-26.15778501911219
-14.54681893295858
0.9135825520155867
0.4215466183936253
1.764225067356255
-3.099354237752348
26.90377993350861
-23.83897679310837
6.872262395769441
-9.937065536197881
-13.19531923203544
-16.11704477538646
10.15165334454708
19.16071066281507
0.1566517988748299
-0.04314117866685674
-0.1135106201975741
-0.03023114195759901
0.006116594883300867
-0.1339766999231634
0.1580912470115364
-1.30055960775937
-4.789244997540227
-1.013673775395967
7.103478380701794
0.4037461977811138
0.09398974628679704
-0.5749637350644871
0.07722779100007975
-0.04399630267294587
0.1471917155248582
-0.01817103040468481
-0.08502438243871943
0.04733386435734397
-0.01959848502279967
-0.0798900719796955
-0.04458621795398636
0.07884511157507054
0.1128451779822924
-0.1471040715892499
-0.0509067132365352
0.1142539738685222
-0.06334726062684387
-0.04234215771645672
0.04439205465776292
-0.1310705490566722
-0.05102404859805496
0.1982988000215322
-0.01620420235417911
-0.05573492333985404
-0.03923463666459617
0.09496956001383852
-0.4361618610957831
-0.06593810974623915
0.4129820888523325
0.08911788200124318
0.1986619107348303
0.1790919940302578
-0.326327067779587
-0.144700867544009
0.09406463473253623
0.07612704601687957
-0.0254908131954979
-26.39536680457096
25.38507718740721
-3.701587191719439
4.711876808814031
-0.5149612878556866
0.1034409393825905
0.3330395019276649
0.07848084656351526
-0.4692355868431909
0.1822267603061707
0.6110476445116799
-0.3240388179626461
-0.1667614911361082
-0.01391207181537362
0.1070114340367273
0.07366212892351447
-0.06591319175555897
0.2807481266758702
-0.2457672154770406
0.03093228056888728
0.06951739737662754
-0.2205662296636623
0.05801213053926759
0.0930367017584262
11.37132103685681
3.074412262400325
-1.142670013607789
-13.30306328567213
0.1199148868153973
0.02268399018458055
-0.09951455319140427
-0.04308432379859879
-0.08733467042837524
0.2273563391530587
-0.044990780880529
-0.09503088783263861
0.1499311858418969
-0.1678834286288847
-0.1914804710893397
-0.04719756745007857
0.04017514790221657
-0.04099739720308675
0.04801981675677146
-0.06628729906912098
0.4341035190408204
-0.3095391577216102
-0.05827706224259802
-0.005546529506002722
-0.2690598045074979
0.2095025614161455
0.06510377261179537
0.1693882371007324
-0.05243458932973905
-2.36829799313096
2.251344345404275
0.1444515930618626
-0.01797741674560787
0.02949857389357298
-0.1559727502012562
-1.384959822892232
2.057697196466814
-0.2170683517912192
-0.4556690217803611
-26.58549790794402
1.480889975635866
26.78583197311458
-1.68122404083726
0.07561043423138697
-0.3170006788636344
0.331629353641664
-0.09023910898646822
0.121313908914095
0.02416533304443896
0.08484402427334126
-0.2303232662224144
-0.09039368807957723
-0.01677912741547483
0.08538238323898757
0.0217904322624432
-0.522814261690416
-0.60352159749988
0.5845128072226388
0.5418230519723122
0.05645071756457794
-0.2592476141384275
0.2034792406240054
-0.0006823440351407587
-0.1917258817510647
0.03242034015446484
0.2164648959568721
-0.05715935435220423
0.03033392373623889
-0.1168701532794837
-0.02003565219044188
0.106571881738019
-0.3786121386685047
0.3695112819084466
-0.6723005764595849
0.6814014332399453
0.2525358621184318
0.002069825823190187
-0.6522280658042864
0.3976223779043278
-0.0752135921509159
0.1500489380429426
-0.05303505366808683
-0.02180029221789924
0.1400763397349382
0.2764776823508192
0.01330603918733781
-0.4298600612650419
39.26508261948918
-25.18991532985741
-18.14731577547295
4.072148485822403
0.3494707085168025
0.104151526199368
-0.1655668733816318
-0.2880553613209511
0.00959526398156905
0.01314069627333701
0.2244767967672965
-0.2472127570110635
-0.6547007359036342
0.1279301379771157
-0.09568330547408127
0.6224539034154252
0.09054636558493576
0.04218130594027376
0.05349801537889588
-0.1862256868973743
-0.05307007814663189
-0.05208727690369931
0.02178770018865988
0.08336965486644184
0.0482433707938014
-0.4086875728778739
1.714621498219775
-0.8461137265907085
1.276773619725457
-2.145281391317809
15.51721709999347
-10.95407612272866
-0.04279209530997705
-0.1275169979014665
0.1292426128988585
0.04106648032137758
-0.00527865600211502
-0.1341682903373084
0.01240747110482673
0.1270394752398893
-0.1489551777248356
0.1453303068475265
0.04903177915010537
-0.04540690826337079
-0.2720038421646796
0.1119378595294444
0.3568420852262107
-0.1967761025785594
-0.09739622730302065
0.04253993259621205
0.02393993874689495
0.03091635596633808
0.09276289175374022
0.03303870279101613
-0.004219302625558885
-0.1215822919080887
-0.07338913548943435
0.05475383120517335
0.09993703080297718
-0.08130172651077948
0.5717659812063185
0.6949063046217746
-15.26985814491984
14.00318585899529
0.1595039303342113
-0.1725046326884058
0.00901693764080695
0.003983764722232568
-0.1787594631483458
0.0521805286197781
0.04114164476349987
0.08543728977781924
-0.1899885556150566
0.3414458648124252
0.1327722486649439
-0.2842295578458131
-0.0519153978463968
0.05768924409820989
-0.005773846246367081
27.68812573279245
-28.50787681893659
-8.464777262992408
9.284528349163093
21.47178433455205
-2.714213906335118
-21.87943146192583
3.121861033711862
1.957766798522938
-2.181326534418289
0.3012616704693233
-0.07770193453961557
1.806159392304557
13.06443340308995
-8.367478772529612
-6.503114022856842
0.1812512954949416
-0.05132682054592811
-0.1299244749388447
-0.007037617830941987
0.01372593505962567
0.08782615595142115
-0.09451447317640607
0.2779838261914176
-0.1173568276175144
0.4371746898269682
-0.5978016883880356
1.82669356914793
-0.1445063834839559
0.2885018091648522
1.199956464306897
-0.4534793206839274
-2.032265108380321
1.285787964772028
-7.318301154491937
-0.2547024674999449
-2.464261364948538
10.03726498684844
7.66194763618467
0.8967381224772134
-8.230011765412433
-0.328673993214944
-0.3450907857422406
0.152651770312218
0.1346384692064413
-28.75650192542992
22.25311679039672
4.499536510236134
-0.1099376270105865
-0.1615207442498101
0.2394939076302313
-0.005777292965679554
-0.02898086733966268
0.03475816030823848
0.09769813101853785
-0.04995594518136262
-0.1508464648887772
0.1031042790571718
2.713682460964332
-1.789098191818618
-20.14396517763546
19.21938090842597
0.6073449379567979
0.09946251037760208
-0.8481769004965083
0.1413694521782135
0.07958504000098432
-0.0480857640708973
0.1596862151612284
0.3504979809102022
-0.04520217132207324
-0.5015744318222332
0.1962786222387654
0.1425879912070198
0.05655258934453757
-0.1008817918420954
-0.09825878870384541
-0.09208786937242376
-0.4138375351047379
0.2003965241119621
0.3055288803725273
0.2780643345692981
0.01727959685739597
-0.2668787584808467
-0.02846517293198687
0.03429102314880759
-0.1951533916862597
0.02851364839265809
0.1323487201618586
-0.03650106037423944
0.4675848463053348
0.2625135288070408
-0.6935973147231262
0.1992405105549575
-0.2519317668684335
-0.2711865674259475
0.3238778237580164
-0.06336928719419561
-0.2870271249648543
0.3029721185762365
0.04742429360727667
-0.0409391234473025
-0.1485034201293529
0.1894425435844759
-16.87638299308815
15.56420570604527
-2.634994382127508
3.947171669250474
0.08184344985550238
-0.1227825732994833
0.1272138947932913
0.08492765553172245
-0.07944484823168124
-0.1326967020863589
-6.857768304354885
20.01282303667826
8.281403137381206
0.7146248524168416
0.01909682379668241
-0.4557378500163204
-0.799139816373363
-0.3177920642738609
0.6580904812896463
0.4588413993859161
-0.03439271669737115
0.1204389425737141
-0.08304233242485566
-0.003003893444048463
-1.058617421732146
-0.4028464147031947
1.353931737933409
0.1075320985534394
-0.001095489602001431
-0.01359234982766416
0.05143094308651516
0.130072335749903
0.04897800554030694
-0.2142565315907944
0.03520619030756734
0.0699515198984864
0.141964265710234
39.24042316918737
12.1079384390539
-37.21427343172459
-14.13408817657114
0.04561781563114015
-0.08623489965752049
-0.001273331344498468
0.283939241436955
-0.4850351808521815
-0.351886974121048
0.04929453392363047
0.3586150604113367
-0.05602262019724395
-0.2703976636029468
-0.2685555236958156
-0.1731275416483572
0.7120807289708546
-0.136706975614816
0.180837683311727
-0.0861464897269069
0.04201578203697086
-0.6649876943364484
0.5573075034914697
-0.02054363088178354
0.1282238217357526
0.08764842607762043
-0.001915965369959476
-0.01821104120789762
-0.06752141948916414
-0.6561106945640255
-0.1030464821379178
-0.1510889957201728
0.91024617241977
0.1156956477236083
-0.006616076660860331
-0.01615165392882802
-0.09292791712482482
-0.3629669018533819
-0.1112912995316629
-0.0424847021712992
0.263909855303114
-0.1670798867225091
-0.09682996857328667
-0.03903650089603303
0.01956295431802953
-0.1142207024873416
0.1336942490747526
0.03467018072520407
-0.1168950398859653
0.1054174844309322
-0.02319262526126653
0.5359957879955336
-0.7363120958688468
-0.1215993665124519
0.3219156744029256
-0.08928020737777698
0.1175609097209833
-0.0766664022729161
0.04838569994332994
0.1409962689833306
0.06686286104720159
-0.003033795409052984
-0.2048253346124166
0.5859778098581017
-0.3668537424399156
0.03250315406420465
-0.1530362084656973
0.1104650363610162
0.01006801805029835
0.04341872382448392
-0.0004720684480161681
0.3369964735777112
-0.3799431289371181
-0.1032444231886917
0.005992187403318433
0.006858547710339527
-13.6990907494075
-2.156579540499106
-3.499115276510246
19.35478556640019
0.4634332247190456
0.07787368285934261
0.001031968153863642
-0.5423388757288125
-0.06544496194640051
-0.1890936439707848
0.1822087557820685
0.07232985015017795
-13.29744281844562
5.300490762582219
12.95450689044264
3.307306911981117
-29.55925662087471
-0.1332742954821887
-0.03768830389606814
0.02395656322624448
-0.04879472449135598
-0.09528097827596421
0.1852075015194709
-0.04113179874101673
-0.3533090193353028
2.280819688031209
-4.3305810849913
2.403070416275486
-5.643674499774643
15.83233658392636
-8.382502691857677
6.838243530188897
-9.144019916529471
15.05719538812528
-12.75141900180004
3.230044610122444
0.04260891447924241
-0.6734957358717558
0.7671613858945784
-0.1362745644859894
0.09690864386158057
11.02388341241935
-4.662208633933922
-6.458583422352556
-0.1149215617506067
0.005476183942597638
-0.08832255194480432
0.1977679297699858
-0.6241423820402024
4.043490455759623
-5.145275812419589
-7.719129656603694
3.316043316920844
-1.176965521497789
5.580051861185193
-6.655621334959444
3.904617251743814
-6.82405603473492
9.575060118000778
0.002891744700590571
-0.1648691994556382
0.03550442777350311
0.1264730269910186
-0.03791868428931734
-0.3445690381893821
0.3688883441693709
0.01359937832312439
16.83964052708408
16.4023956279932
-12.48702314101682
-20.75501301408841
6.487269989527649
10.3523705375365
25.86688370110541
-6.649958662968613
-2.814529410167014
-0.02563767719301202
0.1737145549762775
-0.07201344430921357
-0.0760634334649132
0.1492925024439337
-0.09434926807124358
-0.0805809115565687
29.77549011804499
-40.45417590702102
2.959645789132495
7.719039999826493
-0.07109349813115233
0.06499976404292378
0.005414062582293067
0.0006796715171315681
-0.03491255652715695
0.09694309587458021
-0.06203053934190619
0.1417550348638357
-0.1727665551927441
0.3226979743546515
-0.2916864540057802
25.79285094514877
25.91958366286207
-0.1058667090125575
-0.0006848937763304985
0.1335323029144909
-0.02698070011719379
-14.33411175981598
14.35235868767282
0.1206557361212006
0.01929632986217897
0.02805212690612733
-0.1680041928786951
-0.03933887360124601
0.01598488902782504
0.0233539845793136
0.1668743190660115
-0.01726238458902149
-0.1787407439711936
0.02912880949954333
-4.68727876533022
4.703840943633172
4.796173233937526
-4.812735412259107
-0.01906940892126194
-0.063745445501487
0.02177070236615427
0.06104415206421165
-0.05807363000345575
-0.04131421826425225
-0.04777870492455463
0.02870929600564538
0.02603571496609801
0.06750841735183863
0.004361200540608214
-0.09790533285247151
0.07844135588045109
0.1203077151416609
-0.01741675505109389
-0.03036194987060634
0.07524314089203782
-0.1178912922829848
-0.1047626206780165
0.1474107720769535
0.05808085947683285
-0.02411168648710814
-0.0339691729852912
0.01979393952479501
-0.0713472882387039
-0.1149763963752403
0.1665297451014481
-0.3034499446593117
0.1277206939119745
0.3171970610801835
-0.1414678103031289
-0.7458670751197998
0.09317383771695224
0.4909979031360288
0.161695334276484
-0.1054263397490614
-0.2009262264417627
0.4236722506396108
-0.1173196844276544
0.3023338488763076
-0.02947350761957356
-0.5065704024841859
0.2337100612297239
0.09079857958084808
0.02273850722867533
-0.02771666849345391
-0.1405178565926612
0.3280369286662916
0.09793061110283492
-0.285449683156879
0.07278245918550913
0.06734769105187433
-0.1401301502333662
0.1026665646203969
-0.1163746094461902
0.07517035137306026
-0.06146230654102584
0.7888946698261469
0.01274141688831263
-0.4621939788583178
-1.267553177507123
-1.292467315574758
0.9302343263417286
1.62978616674554
-0.1100007815094972
0.03194219254219729
0.1105617430360301
0.0713220111658341
-0.03410523131227317
-0.1381504205299271
0.09979698484977362
-0.01562042498964782
0.05397386068348068
-1.167398543946881
0.7431774787759475
0.1911661104663415
0.2330549547315898