/*--------------------------------*- C++ -*----------------------------------*\
| =========                 |                                                 |
| \\      /  F ield         | OpenFOAM: The Open Source CFD Toolbox           |
|  \\    /   O peration     | Version:  v1906                                 |
|   \\  /    A nd           | Web:      www.OpenFOAM.com                      |
|    \\/     M anipulation  |                                                 |
\*---------------------------------------------------------------------------*/
FoamFile
{
    version     2.0;
    format      ascii;
    class       volScalarField;
    location    "0.1";
    object      p;
}
// * * * * * * * * * * * * * * * * * * * * * * * * * * * * * * * * * * * * * //

dimensions      [0 2 -2 0 0 0 0];


internalField   nonuniform List<scalar> 
19632
(
-0.05292878125646201
-0.002755540382784447
-0.01051511857025447
-0.8574936094447028
-0.009290196047892035
-0.006045747127085116
-0.04194567800704446
-0.001168987444208522
-0.004449097758174555
-0.233325258517572
-0.1802201458164306
-0.01004133142671687
-0.01174525463207865
-0.01906126799714581
-0.1217669169831636
-0.001754275413511108
-0.02402303534249892
-0.02257249330416523
-0.002346902840822163
-0.001754596575030967
-0.1472596367214807
-1.945182580059106
-0.07681871332235637
-0.001636677786499208
-0.003081511483413433
-0.001623805318799955
-0.002081726849269265
-1.340852904424948
-0.01758633603384652
-0.01627030331102784
-0.002755340698134544
-0.07152158542237709
-0.2493267871940214
-1.950739474359277
-0.02290942833928508
-0.01116807568321661
-0.001209166261693772
-0.002415410023348911
-0.003310570494097886
-0.1139467772969918
-0.003330356420904343
-0.06904957643783792
-0.002392638388857555
-0.06143893345004946
-0.003149586875861814
-0.0005993833601232263
-0.002620373121131229
-0.005287800088842067
-0.008425880030098507
-0.05497544252212542
-0.01043486046811769
-0.002389583096701508
-0.001561534188248526
-0.02034970358587167
-0.01054956264051283
-0.002444995189127703
-0.04696375675432363
-0.002640137550100691
-0.003293564762460195
-0.1785681990742838
-0.001984379324541192
-0.003823197758642849
-1.883543257227869
-2.62255371620103
-0.003035197945749798
-2.459037631766309
-1.860680066715851
-0.0002821055647984348
-0.01582767861941136
-0.06857108438717439
-0.06421469533191068
-0.008846735690229868
-0.0007095857629060266
-3.63337135434224e-05
-0.003832278941881189
-0.003276495428347946
-0.0008054571433251465
-0.09828707200005046
-0.07240022297825363
-0.1769692062567246
-0.03887932292095265
0.226062307314549
-0.007627129962524173
-0.01031900257601586
-0.001322224542935869
-0.03786000721411335
-0.001545216646220274
-0.002301533087225741
-0.03885792972065829
-0.02450971224896845
-0.1271785220924317
-0.001993925859110993
-0.07829973075965889
-0.06275655320888339
-0.002409164717382949
-0.03510270193853644
-0.008651251641997208
-0.01199591729196009
-0.001689374879772982
-0.001725094800070872
0.2475321548298264
-0.001549079850521821
-0.07700960493551819
-0.002070292825791849
-0.1896410762175766
-0.2785687507679067
-0.1086403181396741
-0.1968600868160101
-0.001911171878063034
-0.002350061291548748
0.2020736212724206
-0.00260308929350372
-0.02562001782588945
-2.308271173457815
-0.002616986806657446
-0.2441668453851028
-2.612322570735164
-0.2941445855575674
-0.03091786179391463
-0.001886985563119012
-0.002492433075725151
-0.02390514276748588
-0.008925219614890737
-0.006800930945848689
-1.145562304105952
-0.2144652814457
-0.002284657609496518
-0.0327010393437526
-0.01080499629846787
-0.0001188671646054897
-0.01200648370948184
-0.007300197482416814
-0.2295528933370915
-0.001001199787460841
-0.01196083529216876
-0.1269163992209164
-0.04509246910955417
-0.02324976815275433
-0.00258707194282935
-0.06918430479748755
-2.621439972155666
-6.026539454075348
-2.01085519926743
-2.268445464301301
-2.978006297513936
-0.001232859797835653
-0.00402296978877795
-0.06774906045741574
-0.05665598977623595
-0.002148125695541577
-0.03879115462262696
-0.04064681822485378
-0.03048434670232469
-0.002930840244966655
-0.01611652128337709
-0.03198660553790733
-0.0007137654222776702
-0.002184298057262097
-0.0733288086177304
-1.824036686335047
-3.073022815530844
-2.642995600983392
-4.778572589830321
-1.724724968068015
-0.02731228794640166
-0.00226009113342735
-0.002559181779339398
-0.01807049435436535
-1.385136158368237
-0.01808616225136441
-0.001791871111554463
-0.056415443609968
-0.001434056967936924
-0.009549543890415754
-0.009868143668095592
-0.008710961067960809
-0.001264625199637024
-0.05937395656549232
-0.001600303031863697
-0.001880705072573377
-0.0003523098796671226
-0.002114196686553206
-0.001331926461160608
-0.001314149781431038
-0.00204269212539705
-0.003714403231385369
-0.007540085662269469
-0.001267866210870588
-0.004450736975646242
-0.001595868960161575
-0.005973229923534031
-0.09741117609874089
-0.1762491989796189
-0.0199513976147296
-2.963362658965441e-05
-0.01061118686979864
-0.0359166092404886
0.05822461819376432
-0.02554430753253993
-0.04023298234649152
-0.002358131072202957
-0.07277238294753703
-0.00338960832574132
-0.02064069456395646
-0.001574063022299372
-0.01698064355302772
-0.002465480676992714
-0.0169132072495626
-0.002102433831283298
-0.005696423997374743
-0.07303324773434028
-0.004095688578831046
-0.004234427222924669
-0.0270260732306314
-0.002945370149588003
-0.002038306244461545
-0.04379450748851826
-0.002821637444442063
-0.002409891661807546
-0.03296133951637735
-0.002691435591385985
-0.01063214520654797
-0.005272627169515338
-0.001713300766384238
-0.006498537371060061
-0.002661244887828713
-0.00709450123682619
-0.02025916486815506
-0.02543799972164625
-0.01034892027976597
-0.002557990461706631
-0.006445386528972519
-0.002286142998562807
-0.007723112703100156
-0.06421797350836636
-0.00339496034756669
-0.007101911868345032
-0.004153041720215022
-0.07016731994791635
-0.007153228676733974
-0.002861147711682905
-0.0250135912617596
-0.1106836156768639
-0.003911109688223963
-0.009308953826557038
-0.009936428450842923
-0.001710225708971805
-0.09403831449245464
-0.002222057084610455
-0.004485649087499875
-0.002875191394419483
-0.006314296222804393
-0.005159614306322473
-0.06023322727649925
-0.06782120567178943
-0.01546086319420553
-0.001971789918726535
0.01081758327748542
-0.1746226163937262
-0.05711516415088862
-0.08795192248621431
-0.05230008193943842
0.0003543406951170626
-0.009360667417819372
-0.01002327411690383
-0.00765013847050402
-0.009909867871981516
-0.02760901697605694
-0.008083481768165077
-0.002714235968751158
-0.008669460345876194
-0.002032083031377876
-0.002686832692871623
-0.002215960649693197
-0.01020906634456934
-0.001306999576663822
-0.0497462016265712
-0.03379926238808465
-0.004102996016505715
-0.05370104440294895
-0.0009298514816125623
-0.005693383787836691
-0.02564173926469087
-0.01318119658634699
0.1250087640077741
-0.01683407101995155
-0.05985058793565527
-0.02021717540215768
-0.05448512285934933
-0.06230531939731471
-0.006955856735493602
-0.02676508760598949
-0.004347729521164137
-0.003089653035246099
-0.001340092965972026
-0.000697255078757289
-0.002103336707831573
-0.02919807501506663
-0.007501856234900357
-0.00689691944262786
-0.1643689037951901
-0.00695123311463986
-0.007918292121096009
-0.003062592708343267
-1.298739465947006
-0.07386783571963369
-0.01010255742994935
-0.002107731422839287
-0.006709009571957371
-0.002032807461714168
-1.632686231412919
-1.370929820844406
-0.3663358740938809
-0.07671881849555513
-2.056596086223364
-1.622151218563958
-1.569682900977687
-0.001019832243123363
-1.539472777166202
-6.803595644159975
-0.001734137700510715
-0.00275267907838533
-0.0720346971820003
-1.669403822973819
-0.006802743412348421
-0.06174928255746694
-0.0035926890084575
-1.331221374719557
-3.022398448816752
-0.006657835512533686
-0.01096462895754228
-0.002888092009329167
-0.004189571308183561
-0.07021205698840069
-0.00262220820174674
-0.02156406629287749
-0.01273015336770395
-2.991790805572131
-0.008362906436840732
-5.494512618863941
-0.03168544740187177
-1.838531815633633
-2.42722493181216
-0.04119656476899646
-1.471927288455837
-0.0311456792711007
-0.01950951929081093
-0.07769124435957059
-0.03285198416293553
-2.507216657074511
-0.04749369007935508
-0.008353755302361508
-0.01496546966493265
-0.6923006775913967
-0.002284157269753246
-0.003584271289166679
-0.0007762513756287276
-0.008263772617870238
-0.007438110166290863
-0.004955911026665582
-0.06427545155893197
-0.0003830320086866397
-0.1557724774776068
-0.02785805068413518
-0.03520075616796625
-0.026759574753934
-0.02113511571329727
-0.1407997758888969
-0.002043969815264436
-0.05810542914197835
-0.1024656040701713
-0.002267468745405846
-0.03189799986359847
-0.02814614545335664
-0.03068901747516202
-0.03831487012877565
-2.535682818823764
-0.002438973822295459
-0.001753774064013227
-0.03274734634282222
0.05597842837140556
-0.009526314622208269
-0.03500397242984046
-0.003323024642471453
-0.1295354106213252
-0.008838854888910379
-0.003334425190624296
-0.0323721432214662
-0.1543124937203982
-0.009810597137990592
-0.008114462192551039
-0.03420226734538991
-0.03139999418962512
-0.006151221338654275
-0.01989613127490161
-0.02014105691798589
-0.02056980242069212
-0.02068014391725981
-0.0004322116513226972
-0.009547847679096321
-0.03237102971605848
-0.02973503452319595
-0.05945622314713369
-0.03321148053435018
-0.03578639031967897
-0.009578873557179445
-0.008076184721551714
-0.01739333161251278
-0.0709766123335549
-0.0006245487638125095
-0.1105922425217616
-0.01370524646585923
-0.3075637103916271
-0.01742300189083667
-0.01079409745303259
-0.03855056542984164
-0.0309791294325518
0.08441746258824291
-0.03584000518713851
-0.04050996316986751
-0.02748703458567082
-0.01507420603783055
-0.002580339567939053
-0.06704251894907046
-0.009539720914918835
-0.002295579932858008
-0.008441638394628768
-0.007348251801416582
-0.002449917753079942
-0.3686683293746422
-0.009052887060343988
-0.008672671207466204
-0.01048053585081031
-0.009351924578908212
-0.009902452219622689
-0.0105614853787004
-0.009549785500631324
-0.01273636283298486
-0.01224293935338783
-0.01144018640374109
-0.02418815702587433
-0.02908511003264562
-0.02225474925977187
-0.02642670198623153
-0.0152476412166988
-0.02459109793541746
-0.001231882102591288
-0.02911829733500722
-0.01200547477567679
-0.01372912093077138
-0.03010175080349781
-0.0192969160975437
-0.005589052823924281
-0.02008799463047163
-0.01436220532692917
-0.0379153729430158
-0.002030799362374412
-0.007492668555502662
-0.007707941138134753
-0.07328474590093766
-0.06344056041156093
-0.01629234815074086
-0.0211301025172728
-0.01010033435800153
-0.006009214946185555
-0.00565372193690173
-0.004715061054100478
-0.04086617515802545
-0.0004422517694697211
-0.002528548956150855
-0.003799824438562666
-0.1622345675723807
-0.03650094193728658
-0.007331355861838322
-0.004508465533832272
-0.01690613516510125
-1.269674351527237
-0.003350188497252529
-0.04477199303095917
-0.04837080076946568
-0.02272152372599963
-0.05939203378334684
-0.003078254162509658
-0.02464613945315791
-0.01990985369572892
-0.8893551219100799
-0.02000031597742058
-0.8815675555867697
-0.006515455961327834
-0.0191207559196127
-0.004268984759404771
-0.04519313911297691
-0.05343937163454778
-0.02025283693640385
-0.0188172128566329
-0.01293458122221163
-0.002724179070120936
-0.02377965567554366
-0.06317260927567087
-0.06234403790411
-0.02833026073562489
-0.03036347116826485
-0.006457032382676668
-0.007147903290782106
-0.02391060809533817
-0.03121049968754332
-0.03458223259552375
-0.02837345060605541
-0.03047446479208487
-0.04582852278855669
-0.0258812491832513
-0.3597838876374847
-0.05519572494912196
-0.3584297831010566
-0.06037855006884407
-0.007911347280419522
-0.003880665431746799
-0.3247303698836635
-0.06469361053692244
-0.1416752843774574
-0.002021802872872327
-0.01269429958221232
-0.0124488942108817
-0.9525624538446904
-0.02923325746419183
-0.03380621238837039
-0.02114461692187429
-0.02843512168967984
-0.006202798519468423
-0.04204217969581605
-0.01648149876522026
-0.007471896557808149
-0.0145516377104831
-0.006870280669663048
-0.06066242295275072
-0.04861443251291801
-0.02954515799507067
-0.04709977566061596
-0.06470687186211384
-0.07643325905798298
-0.0748677975410327
-0.007581278398027744
-0.0080009787416631
-0.008216239915289429
-0.02477875558682793
-0.01320374724887002
-0.1038837870616595
-0.009089417970881359
-0.01073413628742187
-0.02139342951092214
-0.0761496142318507
-0.006811474012887153
-0.002837492496900666
-0.003679767181898247
-0.05696965965513841
-1.239661801773908
-0.02646551114956728
-0.003328948801591737
-0.007050600764040433
-0.004017333863489933
-0.8375298983087003
-0.05032938370682769
-0.0916465656583145
-0.04405620691546715
-0.04573577428263206
-0.02934575473543029
-1.260948897657825
-0.004271368849221201
-0.004259742947900484
-0.002038867449226644
-1.282069043861052
-0.004161607677387194
-0.02079470975482943
-0.04010005318940419
-0.0007566287254947404
-0.1736406698551623
-1.333504116191678
-0.224342816416009
-0.09144479407384243
-0.002883184087793566
-0.01384673688444727
-0.04846993551594429
-0.2054030386232987
-0.01294165830061798
-0.01913618933890274
-0.01550541681229732
-0.01046176516060653
-0.01534895252510514
-0.01050375149240267
-0.02091695669345735
-0.301862129456223
-0.009431874856961044
-0.01676042788436775
-0.325801832065661
-0.002597869731206293
-0.03108714262512152
-0.01168530780552019
-0.004358791716702284
-0.005414160410912089
-0.06184506674998032
-0.05529918041797642
-0.01241949281407722
-0.005588759338384569
-0.03406305124321341
-0.02425007504250216
-0.007553548104784439
-0.05217454767526262
-0.03079479599713865
-0.0555688742831026
-0.07311252462689788
-0.008984110517210793
-0.008373504655625207
-0.00740065677643149
-0.04886828402776578
-0.008164377781602946
-0.2938195247864386
-0.007505452154599915
-0.1453354765143855
-0.6340703672180675
-0.007199200920953988
-0.007103066892142188
-0.0083635067323823
-0.008746245717169759
-0.003085457213879047
-0.003078596599127359
-0.3655348868714681
-0.009605641115752434
-0.008062368285720625
-0.006825442654457654
-0.007274722746851507
-0.008601177543282462
-0.001915568149037504
-0.07674309183276469
-0.06541665854201734
-0.01028622069063495
-0.009549841097599631
-0.0005027756433975136
-0.004735737885143691
-0.02082116917983912
-0.003161970839556894
-0.007570993737668182
-0.009234068314543412
-0.02030279529223768
-0.05046282463878583
-0.4266633673324715
-0.03254032502299216
-0.005209613959281442
-0.01568983910498003
-0.005933351240100539
-0.005710291663721715
-0.07283720700061067
-0.005707009058702911
-0.003142634051303302
-0.003230899776748346
-0.1638639141258684
-0.107407448335728
-0.003537999356775338
-0.004321400879267961
-0.01005494812505315
-0.001035828216622161
-0.6705201532991285
-0.04827576503613677
-0.0004442549607820575
-0.07508794809511414
-0.0401357569656797
-0.00152717677419314
-0.8111910937166661
-0.008687087335554124
-0.009345933165806246
-0.006203054921045239
-0.02170410886270125
-0.004821431802335591
-0.05327978584267224
-0.05116537553172953
-0.1169269410242454
-0.4749824462411771
-0.3648720285429521
-0.04691935422741855
-0.02358380348584838
-0.0131818490599127
-0.02660595425741274
-0.0009998079111125367
-0.04328076353020795
-0.001172609077649323
-0.05863304217098721
-0.002624340929176106
-0.01946149735048156
-0.02302969033138327
-0.005012768179196433
-0.865174520069898
-0.004423331880142824
-0.01001522742333284
-0.00541023153506146
-0.004881650187768085
-0.01490011193673407
-0.01070569976859496
-1.414853523936319
-0.01131556232218387
-0.01368227935984829
-0.2457883021897473
-0.07386679663624555
-0.007761146297737317
-0.3586838224832848
-0.4725605165652515
-0.0329431411241785
-0.01089590041853833
-0.07015754513227938
-0.01017051776878226
-0.04124537598001688
-0.06990166593741844
-0.001334356883384035
-0.07196079580086023
-0.05033333808969238
-0.001104441178088844
-0.008792325149153596
-0.001175701142315085
-0.2100538532948812
-0.04540729435175943
-0.1478663304508155
-0.07360837032660791
-0.02764930307168317
-0.06328818906666905
-0.01218085891287916
-0.07479502183993705
-0.01920373495103015
-0.06686707638883566
-0.00883686780917913
-0.02775078139642734
-0.06231815032370512
-0.02075713632365157
-0.05488119858554929
-0.02421584894800017
-0.6792931466283084
-0.05122171546175973
-0.05264027033233282
-0.3101829935026592
-0.698889981829437
-0.0390314375109131
-0.01217961679452228
-0.02505221550321544
-0.01898209124490453
-0.02986304485958811
-0.02655831613692435
-0.7340204466869815
-0.05822848074496669
-0.6179199824046864
-0.03999497282645503
-0.05011461663467727
-0.03631967087283052
-0.08317718538191064
-0.04140285329226044
-0.0323583492539841
-0.04708239698608969
-0.05322675191059113
-0.02780457335856609
-0.04428253724105533
-0.0398896109777377
-0.003858172649860953
-0.005155133976144389
-0.03830931116078425
-0.005620646377060653
-0.004348518258245128
-0.00212121351515129
-0.001955923166193308
-0.001996929040644598
-0.08866620826177442
-0.4228373318666648
-0.001906648515705962
-0.002086419402158214
-0.002193039792056656
-0.003352406154325051
-0.002454401024871012
-0.01475174609443121
-0.0296152963152485
-0.03838161054142479
-0.002567009406133894
-0.003358442416381734
-0.004937493580470262
-0.00475911206303184
-0.005086939528453376
-0.03851071529064697
-0.004271962451683425
-0.07700723312367226
-0.03489517410197185
-0.003928997110989781
-0.0004904275748470028
-0.0229613466902116
-0.1642193916675332
-0.1806716733275223
-0.005432816800687111
-0.005081822276817082
-0.05800188817531377
-2.087114609605281
-0.06827319617914053
-0.03363884315512825
0.0253366330348421
-0.00303085296854387
-0.09069157517442934
-0.04760670138974359
-0.06776845904502446
-0.0325987630533045
-0.01867680245865519
-0.2027266741570745
-0.06245346586502732
-0.08665775504595338
-0.229943735850936
-0.1183502090912071
-0.04477356512732737
-0.1272988861514493
-0.03429836141881585
-0.06969294729411238
-0.07758424415806166
-0.1359129533086151
-0.02772955297664541
-0.1025703831226834
-0.06979606921362139
-0.05076113739810856
-0.6691103352249498
-0.03299077327506103
-0.0227601113745658
-0.003625188125748312
-0.06865279251881166
-0.0107091279077932
-0.01432943762181346
-0.0166505929567533
-0.01295138602331867
-0.0138355126326127
-0.0603888058087973
-0.09508317402860872
-0.08416378795615344
-0.07312598398113791
-0.01181001020662
-0.08082202212786109
-0.06883099691455541
-0.007265223761718087
-0.05291775433940141
-0.115517814189555
-0.07129017878339425
-0.09110510844176604
-0.03224347729709234
-0.00555045568030113
-0.6003939986468428
-0.2173543909330263
-0.01621449658913385
-0.01666023909571103
-0.005183397223028339
-0.02877548868295641
-0.07290392279570085
-0.007244501870359251
-0.005435930019819766
-0.0127109736907495
-0.008099961553729648
-0.03147600291792752
-0.02715269403815921
-0.04115288542028643
-0.01860154910775046
-0.03424515148525482
-0.03118637306481939
-0.1897665762702476
-0.01910327533660413
-0.003513085400329291
-0.03395728224352745
-0.0267793539790374
-0.02710931181757468
-0.03102412282239664
-0.03499764325616659
-0.03162442021450158
-0.03623628284640059
-0.02854611354694733
-0.01817763794479972
-0.01759007296104737
-0.01638521335727533
-0.0353422320103881
-0.01534775167143527
-0.03284912486586571
-0.07294796502202372
-0.003366662694471805
-0.02923056704647255
-1.095400278986104
-0.04701296962738673
-0.04478193028469096
-0.02168445143771576
-0.048508950977064
-0.05013073886294622
-0.05478333285291551
-0.0487039434444181
-0.05741718937361704
-0.04015821581279415
-0.1358251822082979
-0.01627222809336686
-0.1173095518624529
0.6696683796741192
-0.3408992067696136
-0.03809839135928422
-0.3291063694322792
-0.1022868290968645
-0.08728622898535836
-0.07161265688068054
-0.02953931929627939
-0.005865319134042378
-0.01005095240516711
-0.09017743525118037
-0.02618785651345054
-0.07546444887939227
0.2729125679398371
-0.1813674154875615
-0.08100555877259592
-0.06773064649028546
-0.00296321526219174
-0.003486589502374654
-0.0102851257276927
-0.003396434963258212
-0.02270420166897234
-0.009992980864818365
-0.70832663273065
-0.0815901578100568
-0.08219162068754712
-0.02886551165182324
-0.003142189941876275
-0.07382353065678972
-0.07449711114189712
-0.01433180184166758
-0.06685443484586297
-0.06936122801316047
-0.1133282378754911
-0.01461965283108531
-0.1694055320209138
-0.06416331904748772
-0.04020769550217739
-0.03673763270832982
-0.002799975707896404
-0.005962987923606424
-0.00425844651702696
0.340022780346822
-0.004774574802402322
-0.01363288644664529
-0.005556548147084858
-0.00509971181052471
-0.005014597819765011
-0.7059959143469459
-0.005149401061229164
-0.06081866132026395
-0.925005218621178
-0.03813880786597641
-0.03600389839836566
-0.04642262844833459
-0.04760928949580297
-0.03960631542197721
-0.08060692377838068
-0.1976899001654874
-0.03110020747731201
-0.2365139262987156
-0.07545112099728507
-0.07863285569417387
-0.003841554428202118
-0.06645648027290127
-0.02809144194059456
-0.4558531412800584
-0.06037710337446818
-0.07837609593004224
-0.07239014465709506
-0.08071998622508257
-0.05270870651303353
-0.01298164272325249
-0.01495548783922286
-0.004236729429733407
-0.02814855271099023
-0.02593425805959267
-0.003166210392594873
-0.00353373257639662
-0.6294760945096748
-0.01398365749574102
-0.02536685876615052
-0.0156625495939969
-0.0009303544608179954
-1.791974432790156
-0.07963730166406958
-0.00492589636459431
-0.05828203521255376
-0.005551043583379938
-0.004747012299516139
-0.005520625134774437
-0.006400387362477758
-0.001843170372887943
0.1791778604402886
-0.003865237330257035
-0.005478049065086962
-0.1056133765354294
-0.05375800835436377
-0.8743395071627318
-0.001869481301029938
-0.01495379778189558
-0.01716667116514236
-0.005604779730114658
-1.175532894168195
-0.1711187920272612
-0.03093408810909149
-0.01127134062337047
-0.01269859796598462
-0.0888812862535642
-0.01632995565650301
-0.01217929044163934
-0.01110145612303031
-0.01205748253130435
-0.01323020388123273
-0.01022826740601324
-0.1289706477567028
-0.01108628508039593
-0.1281150701397289
-0.008224269359564218
-0.09151386704380715
-0.0108110631580899
-0.01382668840249648
-0.02473330215709307
-0.004059072680609707
-0.02763735715421368
-0.1377704381814333
-0.1971374186838656
-0.6355322107535416
-0.8970828588467591
-0.0687452237711154
0.02675734579869098
-1.547960799696865
-0.1978606328614462
-0.01374508361635327
-0.0712008902110136
-0.04101430381041128
-0.1295885639568457
-0.09202385063918654
-0.02893008844410489
-0.07609582123067811
-0.4262625617321048
-0.199088957714543
-0.3043332350799587
-0.3643836719002624
-0.1166048022108282
-0.07268438464111511
-0.1535408534591494
-0.2435606030519107
-0.3538512109638887
-0.06492131402645494
-0.1389459732103445
-0.1545791141635647
-0.1032747455757979
-0.03989662935552721
-0.2980223843726957
-0.0888452557993849
-0.06129821725800785
-0.115808994110785
-0.591283254550534
-0.08654580641133115
-1.077408597985245
-0.1715018777934783
-0.1774526708337403
-0.08318019970982503
0.219815951523359
-0.001559571204866481
-0.02237955533209635
-0.1040272518465557
-0.2978701844756198
-0.3428159520055009
-0.07043690911243869
-0.1416676788451951
-0.3798557154665264
0.04660129383915556
-0.1031899215486511
-0.07528908095392386
-0.002216615647281687
-0.002830652142524582
-0.001941972546951211
-0.001847786182914021
-0.001812926332190986
-0.07238160445288769
-0.06313632322630995
-0.8007041942126835
-0.1087991746645551
-0.05636820290113297
-0.2813935802223783
-0.1324118891103428
-0.1306361483715459
-0.06377691271503823
-0.0565176808012804
-0.01983530939484174
-0.2494161229477206
-0.01488722094298933
-0.005163376566207197
-0.06360963781489737
-0.05828640812314986
-0.1065605574561005
-0.008949380262988398
-0.01038530835911601
-0.04333494163097246
-0.04485653402456031
-3.978979625645643
-0.008486483269870049
-0.02508932144893007
-0.07980876533267341
-0.09106379718246554
-0.0136495946312876
-0.004906519110152875
-0.009969342301273075
-0.002310797756582215
-0.03548017890613852
-0.02659602076386103
-0.07153271061533056
-0.08758822417607877
-0.06577916032115036
-0.01043557305312272
-0.03784338698946954
-0.06098700087183104
-0.06208164982917953
-0.04536949622880906
-0.09250236063680431
-0.03211444948101861
-0.1354045369774427
-0.1078313757115706
-0.08642468383528752
-0.09838744543498278
-0.07276167633610392
-0.02418335130166705
-0.001335271047227009
-0.05086383727058805
-0.03754935693733089
-0.1035156667028876
-0.1098863496255484
-0.1742646456950091
-0.01376374809131481
-0.08204713116937885
-0.1269953785405463
-0.009877618195599737
-0.01438196683696179
-0.07148331779189672
-0.3650606028303571
-0.01402203115635117
-0.3289141998120034
-0.1613118149788126
-0.0004453073841210602
-0.3156278473491481
-0.04207540309830719
-0.03839048776472789
-0.03859769116842062
-0.02905317550487869
-0.02955997250116907
-0.03022096416241205
-0.03298391401831831
-0.02987405561718623
-0.09213438124434323
-0.03637400773872863
-1.524245825377573
-0.02301851008745273
-0.6544917526555252
-0.0231404777734536
-0.6232180600245325
-0.0195317375297311
-0.4612524043004446
-0.009937552738165654
-0.009576686269846165
-0.008832815281927225
-1.371111661298807
-0.007518462981602034
-0.008998147202175722
-0.04280006760842082
-0.04270311007783152
-0.04565503544641877
-0.04839576729656308
-0.01136022759066211
-0.01286154161665654
-0.01550912036089288
-0.01835381103924431
-0.01729091178395309
-0.02593466633698945
-1.609246674492542
-0.02351615215912886
-0.09251509882658605
-0.07282674294912708
-0.04358611040335911
-0.04377816640278509
-0.05984729372853684
-0.1109884329720314
-0.2880411269570293
-0.187993850450217
-0.05767039102988449
-0.04487959747075119
-0.06320597064151354
-0.06908141052602861
-0.04981545654081505
-0.0503031415742809
-0.12726205995091
-0.05251858201058927
-0.04323141370986299
-0.05323623004217241
-0.11252447141235
-0.03654293483327539
-0.3521122482156931
-0.07162064669250807
-0.02455877351464659
-0.03076926161842973
-0.03847719116279728
-0.003938013055654071
-0.04059266929843343
-0.001893592375324193
-0.02876630494022166
-0.1048601705227361
-0.004162846867626782
-0.5272421465750194
-0.06816912101274188
-0.01819695079244965
-0.1983270324932292
-0.09362998006015412
-0.01463742717503899
-0.01245137735647901
-0.1861152163267963
-0.03881451105344191
-0.01110375468970078
-0.1119843669860536
-0.107157725280615
-0.02945090868369417
-0.03537173733786198
-0.01485112479595388
-0.006986561399811239
-0.01762381080557997
-0.06998423814374084
-0.01214552267332378
-0.0853587749675583
-0.1271059829472208
-0.101516638118327
-0.4256456330669861
-0.01864914363247229
-0.05392216578809153
-0.06250153055242286
-0.01711294294811418
-0.01789350864929134
-0.009445651653288053
-0.00165598207944317
-0.01205986959986999
-0.006558693672462077
-0.004426934485390685
-0.02618276556186569
-0.4268049820152322
-0.6088069779869204
-0.06364262301882416
-0.8012055802864657
-0.01932298792301919
-0.0732178622607802
-0.7389847705675312
-0.05466000555563377
-0.0103489539039363
-0.01758553275757917
-0.01106980357474946
-0.104464117948394
-0.01910624742154514
-0.02353574518224885
-0.02884843795082615
-0.02809306167181632
-0.2329424067910351
-0.05615539474640945
-0.01762211400910621
-0.00556473137308984
-0.03502433036925291
-0.01385947932356731
-0.05689882656291292
-0.08988907078701303
-0.06813131860740709
-0.1181227480754008
-0.02894244971446413
-0.05821209967551507
-0.1152845361079852
-0.07958099394387837
-0.155307487715887
1.037636226636686
-0.3628653876306717
-0.06311169836972559
-0.2735696623930314
-0.4599519311687355
-0.3393245104865388
-0.4530965562172489
-0.2088165378509789
-0.7169417410565366
-0.5296355196641079
-0.1050802776927299
-0.06795897866207219
-0.1139035162172337
-0.419023093109341
-0.2821817989071155
-0.4354863662712561
-1.14434065302613
-1.070663458069228
-0.1017399796812587
-0.261237020455226
-0.1224989554382586
-0.1560599254990565
-0.03908374024295319
-0.1607751968915233
-0.3979354704620913
-0.02054870957375418
-0.05888526813273579
-0.5615105530948696
-0.02796844012045108
-0.002946472014150704
-0.7764457152673651
-0.003395300384143027
-0.001800103511420671
-0.03411820043128117
-0.06798361734855732
-0.006708937789971626
-0.01937100675370946
-0.002270200283708569
-0.07628828414596112
-0.07830544934470667
-0.2429927848252811
-0.08553072516072549
-0.1070165049053892
-0.1482117356782728
-0.04759466410113637
-0.08126124777090718
-0.01961088294877121
-0.01961983051273159
-0.03240349934001219
-0.06457431648754054
-0.05686993686421696
1.886453094574172
-0.09485335945277844
-0.5102623146320274
-0.05514802376595966
-0.03184443573112725
-1.783491117171772
-0.1292342758755119
-0.02038411968631372
-0.1314751018227993
-0.004166106225315502
-0.03015557975871526
-0.00459132357933077
-0.05662878088921053
-0.050419828091506
-0.005921327149171781
-0.007813441601269009
-0.06271781540229109
-0.1935882039925781
-0.007778955540263826
-0.07866045814980269
-0.08421624148097505
-0.2733121511501816
-0.8018570761765975
-0.1089572816474578
-0.2460973964958944
-0.01509254051660836
-0.05600688832570952
-0.01354544468031161
-0.1140429880512399
-0.1160127759941193
-0.1308697888966055
-0.1458066588158277
-0.09899690369978742
-0.4014211334341913
1.11832090679407
-1.508897709677098
-0.507037173636618
-0.7066425529382118
0.2038759232636742
-0.02546449943164774
-0.05900101890261945
-0.008946613890741618
-0.5319499173776459
-0.1536939827943914
-0.09395629160919342
-0.3217612610069683
-0.06012968967875883
-0.5905431093169579
-0.1399879047522462
0.0238960959034733
-0.4416263342803342
-0.9600115925352936
0.4917888646040262
-0.03661362489647139
-0.2024288907115259
-0.08220431383939623
-0.4687650710436305
-0.114136161877017
-0.5187970158391128
-0.2917497954812482
-0.5815240629380219
-0.4938781473239503
-0.274405630330292
-0.06084260449027521
-0.02684256749791164
-0.1978672009973874
-0.08823500181077715
0.02802557497708166
-0.1828572731882473
-0.0006476994716250609
-0.004519318281736315
-0.01728703755746695
-0.002326376677319309