/*--------------------------------*- C++ -*----------------------------------*\
| =========                 |                                                 |
| \\      /  F ield         | OpenFOAM: The Open Source CFD Toolbox           |
|  \\    /   O peration     | Version:  v1906                                 |
|   \\  /    A nd           | Web:      www.OpenFOAM.com                      |
|    \\/     M anipulation  |                                                 |
\*---------------------------------------------------------------------------*/
FoamFile
{
    version     2.0;
    format      ascii;
    class       surfaceScalarField;
    location    "0.1";
    object      phi;
}
// * * * * * * * * * * * * * * * * * * * * * * * * * * * * * * * * * * * * * //

dimensions      [0 3 -1 0 0 0 0];
oriented        oriented;


internalField   nonuniform List<scalar> 
37377
(
0.01420897142809367
-0.802951278064657
-1.448198399671304
2.236940706314346
20.61822866964187
-4.648336696946903
-15.96983936402039
-16.56086288200614
8.220130595698935
-13.28721469621986
21.62794698252629
0.229234068823964
-0.01681729108439111
-0.03032632320042734
-0.1820904545455759
-13.91037282559614
-12.08091705754629
25.99147029899518
-15.08110386448842
-30.34614515812069
29.12935695146545
16.2978920711449
-8.935651283180068
-24.36517852655049
21.21837118547964
12.08245862426424
22.75407557151047
-22.15897076308928
0.5019527539705425
-1.097057562388318
-11.26684598062229
-5.806717180209102
17.073728121559
0.1647679787738026
-0.4893897975443118
0.3928437760483621
-0.06822195729674874
-0.6928959901987241
0.5555947521563614
-0.6270693813887942
0.7643706194119357
26.58065114317607
-24.12164709826757
9.188430597529909
-11.6474346424188
1.513147660006949
-14.62666802440389
-14.30652371634214
27.42004408074638
-10.10343668840896
3.662162095118386
-11.81246994268662
18.25374453598848
-1.42474895553257
-0.6501611033682645
2.209850919759978
-4.875886138270881
-9.48698174124884
-3.4288797282532
-17.13698627039685
14.55253653761435
-25.46264872627152
28.04709845906055
-14.87471255125485
29.44237455320394
-14.56727247811762
5.335746816867611
-18.77891111339471
-5.077770547375142
18.52093484390518
-19.60225047713931
18.71614069774814
0.8861433193396749
-0.8202475446123778
0.3077005359418989
1.123092800158168
-0.6105457915049487
-0.2388137250027971
0.1597791693734122
0.2201239895539826
-0.1410894339301942
-14.00544802689587
17.81401421472652
-2.567885216746975
-1.240680971054658
-21.67276849806429
-14.9752796350228
17.04579765594813
-4.708154935201702
15.79299031011547
-23.88599964152234
12.80116426660946
14.84908287046203
-11.6222172816545
-0.379197548178599
-2.84766804062849
-17.09321614549734
-9.020516753699958
14.69964621742875
11.4140866817699
-0.03439507279372914
0.02481541661383361
9.732031361220898
-20.24629197351304
-8.194026266115118
-8.441374389931829
32.55757693077075
-27.41276199007357
3.296559449237513
39.66447599043472
-16.63407480156034
0.7805137260085008
-23.8109149148812
23.5213327545006
-16.29840688543917
4.262731005091962
-11.48565687415015
0.1575990556634347
-0.2588611750924078
-0.484204525789993
0.5854666452030396
-0.120444251313547
0.1131975243395194
0.01044051105750293
-0.003193784088038985
-10.20567110466324
3.515298821995207
-11.98620164881771
18.67657393154064
-30.53898242125699
25.66947771174
1.532854422520149
3.336650287002448
16.60517437066274
-19.01122031882355
-17.95803751241084
20.36408346057175
-26.56090149211018
-1.126446126028284
4.119748736429258
23.56759888170985
-3.483277893744906
4.909473346479133
18.21398598890539
-19.64018144163822
-0.939229414328123
-1.517525084349319
1.348703531643329
1.108050967035634
-11.21559089401297
2.013215075710321
24.94839300490202
-15.74601718659936
14.26745207092026
7.281726644023399
-5.879171616518356
-15.67000709838932
7.321763752316787
19.97924291536204
-43.1884658691538
15.88745920147586
2.831938566411779
-19.31770931359667
-3.900882014164501
-12.72038407317234
-10.77499813773299
-15.57516677349543
39.07054898440075
-18.93520997245059
28.59316127742049
-5.703230183495563
-3.954721121472351
27.3185747779345
-27.16818622877589
-3.799404044957098
3.649015495800094
-21.59008506044056
-16.49424025453113
10.12424228828265
27.96008302668644
18.60014089447235
14.14321476262562
2.994573108427719
-35.737928765524
-20.21582835512637
-6.328876924184853
28.07263968635397
-1.527934407013738
11.4824548966476
-20.38664671245633
9.05387043645778
-0.1496786206495611
14.561145426256
-17.4819802987692
2.920890588795024
-23.26552444974122
11.4022137584395
10.94286290180036
0.920447789501633
21.60121032768737
5.186794810073443
-2.037567500723036
-24.75043763704667
31.04001851512182
-9.164618915975961
-0.9279817744116095
-20.94741782472699
-2.970021093190101
17.53122633848385
11.33495406881177
6.701575768213487
-18.90941614335422
0.8728863063663764
-17.50280694339344
-3.566836970571119
21.06969557787896
10.32052482260805
-4.161781153343603
6.499871580947253
-12.65861525020979
-0.4841647930200551
0.06220800673198111
-0.8894556554978886
1.31141244176455
-14.69452158581609
-2.093385941545931
16.78796425226195
36.66752677881333
-9.098689624424086
-16.74890716812452
-10.81992998626326
0.0329638894409741
-0.1020228221740384
-0.05138531858284998
0.05650027420430444
0.1308658732007023
-0.07416862306929529
29.21537976543528
-20.03545862063554
18.46523583594671
-27.64515698074989
0.1420011042159147
-0.1216083839205817
-0.00995220924132947
0.2248671972443664
-0.09924894119642118
0.03416091332316504
-19.97121115234961
0.001258913424703582
19.9699583492624
-23.79194080692707
23.961694768147
5.816715353652982
-5.986469314876017
-1.569301797311233
26.57846442620384
-10.69120953692087
-14.31795309192452
2.286106618054443
-2.213384919071639
-3.6759989371147
3.603277238107885
-0.1415441679270528
-17.28475872967157
2.526924189627003
14.89937870796495
5.8414821231395
-27.41300473792157
-2.278067297102065
23.84958991188486
0.02336688094351753
-19.99457724329795
35.21580341422295
-9.093194292482217
-46.46572224511005
20.34311312337156
-7.24365001971613
-4.340891120132096
32.36270162323701
-20.77816048338875
-23.05654891297808
14.84814893674486
6.139819973443696
2.068580002788408
-14.50614460090349
1.109869483133944
-5.751169322243791
-18.51773123051519
-8.592591104962709
13.84797196050865
13.26235037499246
0.80650799813677
-0.546115579458477
0.2067664182158237
-0.4671588368981059
-9.637698255109591
-20.21225664360453
9.218070499264176
0.07524416305640465
-0.1165635207725989
0.02681846743879242
0.01450089027130983
5.395364936195937
23.76027588626971
-7.64840026544569
0.05159234775619491
-28.53253172102808
25.78843408221142
2.692505291067171
2.399821296679025
-0.3936256937585459
12.56957679920178
-14.57577240212201
24.20772897076399
-0.2532921237651131
-5.285194644497882
-18.66924220249103
-15.87665260236758
-0.1657257146726345
-5.630390181022906
16.45265040731408
-18.38742464799234
-24.62612725143148
11.77985854742145
1.864439304291641
-15.06654178345838
1.422243931762884
-25.414215823769
-0.5545364918335269
0.6516987860885679
25.31705352951487
0.8918276029764243
-0.9463200768058515
-0.3236123523884675
0.3781048262082952
-13.11549453879151
0.2212951864514631
12.89424330856444
-18.2516935667949
17.07145441786251
-17.07532703915244
18.25556618812094
-1.727154256176877
0.2419790188460446
1.45575091271289
0.02942432462496037
-6.396329450858914
22.84904975682372
12.99462279948664
-24.84694368306857
25.28715921850303
-13.43483833496626
15.69611391703684
-19.43565391671373
11.03858848816083
-7.299048488482554
27.8009181396427
-13.26516976763558
3.668417399679808
-18.20416577166487
17.65326976877148
21.89979594738911
-22.27298653225938
-17.28007918389891
16.75273195432235
0.900580741437824
0.1561154468413176
-0.006697617879947534
-0.09192129194335873
-0.05749653702424764
1.843494294492589
14.08764609346005
-10.87203875191393
-5.05910163603831
2.796679140270269
1.382254655389697
-1.42574310307827
-2.753190692617429
-11.65628526901963
-5.961444927114931
-2.598805249111716
20.21653544524882
0.009626302876777001
-0.125221488769974
0.03285293116504176
0.08274225472321772
0.3464806641086468
0.06880942790695446
-0.4151818070155671
-0.0001082850065564804
0.01493268936265864
0.5873218194222566
-0.605375944104976
0.003121435312615912
-0.7644508971340266
0.6919434121059563
-0.5995313957370034
0.6720388807372923
-26.03365603878636
14.37572008154104
28.41066791156981
-13.8814671412274
-3.600443949482377
-0.02567246450133338
0.1548281692475858
-0.1277582667287988
-0.001397438022373415
24.20938967479294
-23.65412077476645
-3.525289993216124
7.997112274474934
-13.57960864829503
23.76393865776534
-18.18144228388681
0.02116840694610344
-0.03528257642075055
0.238981366715571
4.273569553409171
-21.77631263562456
-0.3099427974916002
-0.24183699531022
0.4134977088767661
0.1382820839140973
0.02774782142737284
0.170753556990587
0.08362389866809532
-0.1285863847732817
0.05146831497546674
-0.00650582887758182
-17.78836638632009
17.28954869057637
4.543171866345627
-4.044354170605626
-15.79014536041643
23.34294952207042
-3.566765453503473
-19.77614104816402
4.776539708508741
-19.92722344143528
1.992433940603639
13.15824979224355
-27.28483393578715
-0.7039606178236161
31.60415771000295
-3.615363156387833
-6.579410363004475
-23.89599319056849
23.80511406523294
6.670289488343624
0.1053471811024932
-0.08221802240081136
0.004127571805942011
-0.02725673051330389
0.5040308188002525
-0.7242240944365651
-0.01140561463602813
0.2315988902554103
14.92243571476753
-0.1700664397564866
7.204807998215252
-21.95717727322543
-0.4495818046771957
1.08582404584799
-9.370074457303565
8.733832216146435
-9.638215100667388
-16.78208290162603
19.61919997278428
6.801098029515111
15.5624492759367
0.1040941030902048
-15.55048913121279
-0.1160542478137354
19.76936530423384
-24.19547971270924
-8.449217880812485
12.87533228928694
13.16556243550453
18.19024307896808
-7.822788573922556
-23.53301694054948
-0.2105296109175889
-0.5400033919897507
0.3495707592474607
0.4009622436542301
-7.314595268531986
11.11994405577393
11.60148617208243
0.5275428859520291
22.03997034009754
-16.01002712114035
-6.557486104910313
-0.1007782657245765
1.428866346255848
-1.320652070813975
2.411891475577597
6.053549003771482
-9.713415602283439
1.247975122918618
-24.92969091987842
14.357664784581
32.17323646296527
19.06901175784463
-8.149461562104754
4.002885519028236
-6.791550565194616
-1.402701656273766
9.518866835763063
-1.324614614327061
0.1269525117955746
-0.1424109231081596
0.01545841130912445
0.0748730141288413
-0.1481332895987851
0.0948583181635662
-0.0215980426969619
0.09351268690071968
0.1006116576099989
-0.1289286878298207
-0.06519565668467034
-0.08789833046078588
0.1342414032132179
-0.01337918331454756
0.154700333221736
2.905101889398982
30.42712586626384
-25.16879335577103
-8.163434399892578
-5.746479682495902
2.591719245098941
-19.39667706130485
17.14324181871153
-10.0721144490973
-8.324549397873518
1.253422028262148
-1.752106390162081
1.882980182331406
4.43954573794318
-4.570419530170586
16.01449938863095
14.20153141250227
-17.08717778481158
-13.12885301632041
23.88333706316045
-8.363804084530331
-1.221895438034083
-14.29763754057771
14.39914476847907
9.371611262841355
0.1125810318547558
-14.86749119735441
3.031414927992897
-4.510859651130303
16.34693592051271
-16.93569059622606
20.58712116414138
-16.37181464108736
1.809550742106934
-10.51734998019446
-9.383139380131198
15.47296964055401
-18.27945088323283
12.18962062282299
2.773609869738235
23.11922529789447
1.16978814740393
-20.46463880828005
-2.428320105892108
22.89300899886836
-16.92835238912252
-13.59475775648563
5.862509616349288
24.66060052929236
0.01488705317681539
-0.1135061406612228
-0.02298929643875075
-0.1472513278271824
-0.00414941127830611
0.172569146048878
-0.1476032945731114
0.07522498087347151
-0.09162544550156598
0.03700484280040874
-0.2536669094517208
0.006814673680558858
-14.49051095259532
21.83768959632305
2.994678295978271
-10.34185693969543
10.48736710744444
9.268347386540519
-8.604448014697578
-11.15126647928717
-12.72516386234122
15.2966113366566
-19.07156668469918
16.50011921038447
22.33127280331335
-22.34669386536014
-0.259704109685551
0.2751251717390658
-0.1414053466971503
-0.01164990514618938
-27.08990564268208
16.41447871040488
1.940896516473909
8.734530415824464
2.336096245726087
-26.29654979642392
3.141335545036502
20.81911800566161
6.156732249895493
-0.9943177186388655
0.3453904838014779
-5.507805015108755
13.83621669117117
18.06900261877481
-17.32898569389423
-14.57623361605158
35.42117080058689
-13.28501227477047
3.236599464249939
-25.37275799006287
2.396103389569765
19.63817384107496
3.502869644374459
-25.53714687501563
-15.1489338242244
-2.794615633773779
-1.940963050432226
5.729109079955999
-3.107417715693381
24.14598088744816
0.5065161807218178
2.394421629822223
0.2284872105774937
-3.129425021170133
-20.69868084313137
23.99557484661025
2.432215076477939
-0.9909265481736129
-20.03957565393578
-0.1390572884845016
21.16955949059321
2.424670729397227
-13.06714173086883
6.667638475294281
3.97483252617841
-28.48538249238266
28.5250673416178
-1.030611397410004
2.504185213641046
-30.35636173021465
7.812600862637338
-16.61888957241674
1.095249241651146
15.52367184096316
-2.324586251736534
-19.2807205306079
21.60535482845971
8.102636122890958
-7.836856003711254
22.03915560934959
-22.30493572852717
6.124850960652677
-12.12109530715817
-17.19922760656315
-11.567641369108
12.07925675266535
-5.427127751895134
4.91551236833864
15.57870211049972
25.16565701227333
-44.83843058608692
4.094071463317416
-21.62894259177362
22.7009365126397
-29.55737641325109
-5.539211681368822
5.517456687549181
32.48090622421753
-32.45915123039396
-0.7081757298625269
-1.128347215303911
0.02211289253087239
1.814410052624139
0.3778405455492707
0.5853020600504883
-0.7151543987962269
-11.8091462279993
-11.07904550126498
22.88877476589711
-2.733312050587926
8.184985813108884
6.683154940139918
-17.07338057448584
10.6257335501606
28.41521226389725
-21.96756523957841
0.5678233148513785
6.663791699109964
-7.68119681859441
-0.2642772190600612
-0.1620899630713937
0.1897278416148994
0.2366393405054469
15.22786284697897
-8.462428265262638
-14.80326291519138
8.037828333478485
18.83288091019799
-26.92723524616112
-19.17718365010978
27.27153798608422
-4.195010272559268
18.6804883742034
-14.4854161447524
-1.885147818639999
1.667528006964547
-1.296152771151419
1.513772582806027
0.498451207992778
-20.26105631219404
1.312342203047938
18.45026290115536
-3.987312606624843
-20.29167186017088
24.04810567418884
0.2308787926054912
8.222666090736446
13.84059026930385
-10.05497258106442
-12.00828377897568
-22.8719107485593
11.06327185286693
6.782322241053823
-21.17974479185585
14.22735611104596
1.694180657735772
21.99756271843353
2.469592923409591
-26.16133629957652
13.05408024247376
-33.6074844529072
18.08832683376612
2.465077376668289
-34.72860414823097
-2.037918982248716
22.58266483231155
14.18385829816344
13.45330028372466
-12.66605330496776
5.303890331905976
-6.091137310713581
23.74072351961883
-20.54092044791183
-7.213818416484036
4.014015344782321
30.25948369547321
3.413747349932728
-8.733312662846433
-24.93991838255731
-35.13291430680702
24.89696041904605
18.43625822027142
-8.200304332538186
-16.17657376644058
24.54419976832645
-8.367519245450325
20.76979692622184
5.946835090974242
-19.51182401898054
1.169505062789185
-7.144720185751622
-4.777691609850694
10.75290673273236
14.72987923120658
3.196186683307783
-15.52260618940361
-2.403459725109783
26.10539846504404
-3.607945844881327
-29.07493768534223
6.5774850651806
-28.80527487461272
20.07765264999975
3.846489588736765
4.881132635890316
-3.228003087301531
-20.36379444168386
3.204790604855912
12.51600401210255
-8.378132344021781
9.744908535176457
-13.88278020325427
-12.19708096960124
12.15511810438652
1.54699968331165
-1.505036818092213
21.44758147200535
-4.274603489789897
-18.39246777607679
1.219489793862393
-0.5359276469196826
-2.601990376353254
-16.31236380913802
15.07777959840368
4.733664521453063
1.346248210583997
-21.15769233043982
-17.54864465311597
11.3530333111393
6.667890634073649
-0.4722792920972295
15.11353138327731
-21.1028657998192
-10.66541354783984
16.65474796438961
29.35815974077039
-8.921376962318584
1.364960835047479
-21.8017436134703
-22.11700513481053
-15.08338222558062
10.77427064319945
26.42611671720065
20.24968057493893
-5.432145627184075
0.2602446506493177
7.584109570456645
16.4248030993727
-30.27882228338281
5.929864269379615
13.87168465886872
10.47727335513538
-11.13613902963375
26.50518016727001
-0.4810258942384275
-14.88801524337475
12.58214562213878
0.7538352194281359
-17.77650231409223
4.440521472462192
30.73826125877017
-7.232657938047541
-21.0563613682554
-2.449241952466897
12.68436286731832
8.437872542506387
-0.56363461232501
-20.55860079750017
-2.958699184871484
-1.180380063559464
-17.05934182690043
0.8209061174966584
-5.154794537142815
-1.433257556637761
5.767145976185608
-1.277594897703664
-22.13139595050775
22.88888402160675
0.5201068266107027
-21.64331967388127
-3.429186519048038
3.68291663219183
21.3895895607382
0.4872932351367267
-2.22042081455589
-17.45544947305785
-2.439412612006949
0.05053303518459693
0.03474210176866748
2.354137474970261
-15.53734023335463
12.04638903367293
-11.71781951427622
15.20877071395943
20.11164027060346
-18.43058328077066
22.66091562268194
-24.34197261250673
32.62219581228567
-12.85295507363694
11.27077777647698
0.008697261957117739
17.56072654220524
-17.56938423892389
1.920067431808124
1.714379367906089
-1.802455933641813
-1.831990866116566
4.264484250981941
-3.538181477823548
26.01624119593113
-26.74254396908702
22.5949958963043
-23.33218403406404
-4.797300816665278
5.534488954427808
20.59651273176855
5.668226821782374
-7.041483113543518
-19.22325644000382
-14.01144086071968
9.119669167506329
14.10720624033765
-9.21543454712355
18.67049069711735
-10.99413935135381
15.03222994444769
-22.70858129020977
4.260584104003794
1.236924527060949
0.6592236187744314
6.538602522874829
4.671129024044348
6.196914315905754
-17.40664586282851
-2.21519429105548
-10.23125908568175
-6.634167413726115
-20.47040191397581
-15.29818631506932
50.14430831058807
0.02306693283930008
0.2782405519893321
0.2996828813059401
-0.600990366159163
0.6257598167877633
-1.34494174893053
0.4422158348771728
0.2769660972510949
22.52397788700082
-28.6378569273538
-8.858865991873671
14.97274503223152
6.681039395686575
-4.881708282617074
2.51911741134382
-4.31844852438676
12.74985263463744
4.632077798715682
6.543548465006283
-23.92547889836617
15.01649541414677
15.67556275606646
-15.76327998593491
-12.94460458025054
12.26546380237771
12.7978544856929
-12.11871370781996
-22.8952298162843
10.66625873311862
12.22921227860936
-21.95606838381486
10.01579955188658
-1.004335748323016
-8.967488168505108
-2.583243649991865
23.81619562088155
-23.65659527935899
-0.4314332191795841
-0.5745188873473149
24.66254738590799
24.44023551279229
-5.404719180100725
6.992468683033127
-26.02798501572253
5.881263737750773
15.25433630172214
-21.29504231557607
0.1594422761045799
-11.2852337931482
13.18920976914428
-19.94520283786694
18.0412268618721
15.72515825865616
29.44096670649924
-46.36844535794928
1.202320392795111
20.45383126699541
19.47549999714714
-32.60756751182514
-16.73109887607273
-0.3306140504911388
21.32619717754734
-11.16164591264345
-21.08241470595668
25.65220030678179
6.591860311826039
19.94580682540932
-1.336431929354554
-18.60933648624005
15.76069819256043
-0.6531892023932376
1.604515822199346
-16.712024812401
-6.113980489584594
32.34531207904703
-22.51731864322996
26.46047370758216
-15.57351020899979
4.613295410886248
-15.50025890946404
30.08794670928354
10.77631381853877
-38.8022117402417
-2.062048787551704
6.040892122762697
9.47313132282239
8.446076213995632
-23.96009965957948
22.61475985170168
-20.83478470443687
-1.77986152573722
14.83423006654296
8.908407011240689
-10.35450975518513
-13.38812732258742
20.44292304561585
1.920085901670138
-22.31323154213222
-0.04977740515476441
-0.0513955803058995
0.09533027232183219
0.140693710963315
-0.1846284029873114
-15.8431740154997
10.31745840804471
5.526053803477757
26.72652280392862
-10.60577923655117
-2.095809796425662
-14.02493377095133
-9.615545841056955
-9.914043800469216
19.53022631544914
1.602653564927219
12.21335583828239
-16.92115449536263
3.105145092159964
-23.34287481894718
19.70793989537702
-14.85685010788204
18.4917850314836
-0.2549329917010281
-31.54149878835105
7.777256435361055
24.01917534469872
-16.26147366465926
-12.82576568314277
-8.14797417639943
37.23521352419929
-9.153809279606469
-32.40497309219594
10.62901760582389
30.92976476598002
-2.932340731230046
19.60525266787633
-17.6442348091403
0.9713228724935219
11.9991119260792
-13.86069663441194
12.40228209995614
-10.5406973916227
19.60529221210551
0.1968143956352858
-19.80209218098506
6.022420644583873
-6.239447368647041
-4.634199037681119
4.851225761744734
-4.092987929942558
-19.4533155066909
4.538463694806459
-8.500071803830771
10.46561365248625
17.41774741943446
-19.38328926809192
-1.726717557817575
19.57635630268138
-28.32227686977275
10.4726381249092
0.062175402059904
0.8519679582748202
-0.2883835435623502
8.101471506747759
-7.714586977734142
-12.21252326887286
11.82563873985937
17.82487845618508
-5.81935859025582
16.94931250565575
-28.95483237158542
-1.653537526482439
14.42187353550421
6.663673104347308
-19.43200911336677
-0.01377151921911937
-0.1620289002743475
-17.68743988867934
30.38559016228484
-8.797503726983246
-21.78952357754458
12.19880938657795
18.38821791795547
-26.86763404347556
-2.856977918360895
12.99351308576481
5.700761749553585
5.807204957762687
-20.47142634170222
8.963459634386533
-24.19827030498296
-12.81127705959645
10.14191332110532
0.1019191390281799
-0.07710372241581574
0.1093488225459047
-0.007429683519368618
-0.06856376382594824
-0.2341113782133497
0.1295607965380199
0.1731143454860843
-7.158997101079214
6.517480698435622
-0.09664603162476886
0.7381624342262132
-0.0203876908062243
0.2052291039369402
-0.0987527868105898
-0.02877108312244596
0.08896113173901302
-21.61297849161916
-16.4321212929699
42.17660525878244
-4.131505474192768
0.1440316440266488
-0.1087791728592758
-0.01979405986159454
0.09070890688356159
-11.43762663315353
15.46276565706115
13.41561205254164
-17.44075107644762
10.07958797542531
-10.30983100742133
11.79564328145992
-11.5654002494635
0.9176020867588923
-3.793318738795775
-0.008083690139166646
-0.08354175536525826
25.00105307373025
-22.57588640890054
-6.240063081086699
3.814896416258501
15.58758717574824
-13.19683785257014
-5.66343549892235
3.272686175656206
9.624550506400123
15.54107673231329
-40.70296747206698
-0.1507838971893765
0.01924886826921542
-0.02170134535184374
-0.09957034509503573
-5.571142353753872
0.9222578410926109
-15.57974313549196
4.55436223595758
-16.80109547110284
12.70563446777911
-0.4589012326402273
-8.672046737752122
1.511835253947342
-10.37897731869308
17.5391888024979
-8.24028658421163
-12.75722757718441
-16.46238955730987
37.4599037187084
3.566181660183348
-6.689581444266204
16.46134418905669
-13.33794440500296
-22.57608547825862
29.80765702793832
-7.231519272040727
-11.14810791397196
14.20391657733332
31.41140844389011
-34.46721710723695
24.1205234971875
-17.51118806380449
-9.777710605696505
3.168375172319048
0.008043879927028194
-0.1023011523211894
-11.98195668341843
-5.301837801335019
-5.17361045452248
-14.20430557257626
24.19910769827903
-17.3904159352114
7.395613809499823
-0.04740711347773101
-0.04049121698514191
-0.06910845883069176
-6.053725526464484
-0.07812608222980728
5.397554873218459
0.7342967354691751
0.006187315238506935
-0.02899762242467522
0.1536761803838529
8.469233100167354
-12.84231130063139
7.846938334888327
-3.473860134431573
-1.03837090701628
-14.68964691467213
-3.669709753997516
10.66712837810265
-4.29829076786997
-13.60500264536783
7.236165035100397
2.635167082803612
-2.701413026366914
20.82241979951804
-20.75617385595244
0.06007278014204273
1.119994292563684
25.54976017089409
-22.14494810042919
-4.52480636299602
-24.54524967337091
6.482183686627343
0.2268920091014457
17.83617397764361
0.7129259999062658
24.0126176990242
-24.72507266317087
0.12038975166276
0.1783422255829842
-8.415399206259259
11.52877291730714
20.22957581102296
-0.6562155541023429
13.27070320956625
-24.56871590842942
11.95422825296766
10.32619627699832
-0.7392848359709787
-2.046921973710972
-7.539989467315396
-20.45838291540018
7.656039763610305
4.302271347957023
-2.735737905295561
-0.9981407210858347
20.98959543046167
-17.25571680407359
11.80319886301991
6.332116528871551
-18.13515099606023
-0.4658129397500617
0.006028776072359247
0.5120673455251604
-0.05228318186109532
15.22681689534208
-9.334334839712236
9.669967220307223
0.9713387257798224
0.144096278408128
-0.00501624345139175
-1.110418760824883
1.219669387371427
27.40185200688005
0.7366383465526881
4.149826341677715
-1.260211255823408
9.418189097330922
-12.30780418317388
-3.897535254567653
-9.035290983197852
-0.4120638034416629
0.8926372489747281
5.199393942887228
14.21089936624716
-20.30293055810488
-0.4328197730523908
1.448310247817221
0.9424559382320405
-1.957946413045679
17.57419594962866
4.741143211459573
7.593068704297691
15.52249536345637
-19.72765046393677
-3.38791360381771
-3.687818036268779
-0.3698714765548279
3.308612364043892
0.7490771487777061
-1.378726845718005
-15.05957814074499
16.43836011309991
1.134226220340629
-11.1434376787433
-7.185716872069944
-0.5884503803027501
-7.858497678751009
12.50506971170615
-4.058121652646433
14.47954057092164
-9.863272954298546
-5.204717996921377
4.979653600299921
0.1896713698038467
-7.481884764502943
2.312559794391879
-0.07629232697143798
-0.001696811690627314
0.02859972103647403
0.04938941762206518
-15.88172977900215
-3.02747259589305
18.17652415078679
0.7326782241107351
21.17393570372469
-22.24166828290829
2.320194477240041
-1.252461898053366
10.95548669033972
-6.640332855774023
10.16438673635575
-0.4726091701959987
0.3750148231269763
0.09572068787331889
0.001873659159133981
24.16293091962208
-5.667289825460569
-0.9865128633660324
-17.50912823079079
5.015589814643476
19.14923375166761
-0.9968184995034302
-23.16800506678345
21.92992308161525
-12.22596031098031
-0.9446736465390742
-8.759289124091524
1.24978944772619
-0.2008836746058703
-0.9762434621449327
-0.07266231099294325
20.95572640390264
-13.35978526789406
4.157974221641975
-11.75391535764511
22.85155228032369
4.231273307867208
-9.349334603795258
-17.73349098439364
-16.92713860494167
-15.4852111108619
30.70686772104684
1.705481994749276
0.3262779005259028
-1.006961805522162
0.5461087697392657
0.134575135235847
13.6919049845519
31.4267523389759
21.79424872994274
-3.365974681933647
-12.99532721062266
-5.432946837381034
0.3689548123999245
16.53925119395094
-18.41239343093182
1.504187424599
-31.34051990889854
15.48110291376085
8.206253521788229
7.653163473364556
-20.23219916060232
-25.09470819520738
25.91260681085558
19.4143005449539
-2.355734227171931
-8.11576236509169
19.45455352254445
-8.983056930280265
25.16539032552217
-12.38389071437142
-15.13723383831945
17.5352779245192
-0.5773623660809359
8.207474767088158
-2.616054192973829
6.626123630321634
13.5252084871776
30.49322862301529
-39.18487172935187
-14.36490580664239
-26.3199713367486
-7.583149175772685
29.69163072199315
4.211489790531912
-13.4965530045779
16.64334161151483
21.47205088114069
-24.61883948805821
29.01014042521135
-34.6793731106515
20.2786294006803
-14.60939671522326
-18.54857638978728
-8.347749675386263
22.98897080875189
3.907355256478187
11.47787819280119
-29.62635446800944
4.651923270672207
6.442181276608253
-10.84492799293998
6.995741132742106
-2.592994416498231
32.94675051138692
9.608119014500723
-1.660554223129439
36.35098059137475
-13.24243862886731
-21.4479877393704
23.20879484034089
-11.89827533716378
-11.31016676798876
-16.39148943691384
19.11448939603542
-3.057571896531095
-16.05690158574796
-1.064733084598394
0.5613050835231196
-0.2602398997769866
0.7636679008630791
-10.95052588223531
-18.67330375210869
6.140983969980995
23.48284566435028
0.1597269994310103
-0.1722648273249759
26.07343099183904
-8.892000449565034
-3.897211209185008
-13.28421933309425
12.45641947314705
9.71719747437934
-10.69116205087922
-11.28590272322195
15.80655121085547
-21.38436527844796
16.86371679084715
5.424659624157714
2.848048643591729
19.02593314937687
-27.29864141711905
0.29203502640962
-0.4056754457895153
0.3154711882578688
-0.2018307689042699
22.18860999409397
8.883553239376063
-25.64750360928723
22.40334503195148
-18.15693397180266
12.01139546318479
-16.25780652333097
32.31676978953529
1.083434055493587
-9.527841975546641
-23.87236186948949
2.434606030520642
-27.77733493765361
26.51180918744147
-1.169080280295867
-12.24250022006493
24.39767872895928
-18.87898681517778
6.723808306280731
-17.17793264580654
11.93535494608573
-4.829536749366922
12.70139439528852
-30.63796164201486
22.4988713892152
-4.562304142491588
4.410497263389878
-5.173061808253546
-21.19461272836133
-32.78533052588509
26.64952790706969
-3.607299014392922
9.743101633211326
-4.558884538733445
-22.2719773100024
13.57409515701477
13.25676669172187
14.21398983899078
-11.92320275926488
-5.805949886974479
3.515162807249078
-0.2873417223934452
-0.7204579292171194
0.5666522857157025
-23.80063540899019
26.12075079607062
-35.10544591296102
21.70695531255724
-2.198436816735211
7.141009411250241
-2.900088570148151
27.99487864596679
-2.617242314618833
-22.47754776119598
-21.95765001082399
24.56158481703908
5.385625539419595
-7.989560345629422
17.11220351152774
22.29870657338007
-28.95575490868576
-10.4551551762272
32.3263316352051
-30.13593357023735
3.545501457550706
-5.735899522525983
24.29161733563722
-14.48883595969924
-13.99537322391091
4.192591847976347
-34.38622177898309
12.18966150596071
32.9049043074176
-10.70834403438636
-24.23358061127242
12.35029271367734
-22.50293388138146
26.85659576663921
-13.15378660066869
0.3082837288459863
20.15240706111203
1.5849141291418
-22.04560491910082
-5.879772576164567
-19.77408299973246
24.83302599366101