/*--------------------------------*- C++ -*----------------------------------*\
| =========                 |                                                 |
| \\      /  F ield         | OpenFOAM: The Open Source CFD Toolbox           |
|  \\    /   O peration     | Version:  v1906                                 |
|   \\  /    A nd           | Web:      www.OpenFOAM.com                      |
|    \\/     M anipulation  |                                                 |
\*---------------------------------------------------------------------------*/
FoamFile
{
    version     2.0;
    format      ascii;
    class       volVectorField;
    location    "0.1";
    object      U;
}
// * * * * * * * * * * * * * * * * * * * * * * * * * * * * * * * * * * * * * //

dimensions      [0 1 -1 0 0 0 0];


internalField   nonuniform List<vector> 
19632
(
(5.009180010495108 0.003636042571857429 -0.006009048484925701)
(4.999994792443712 -0.0001766741969255109 -5.314064402548151e-06)
(5.000059782396875 -0.0001087215692636132 -6.535986495902215e-05)
(5.214779020038579 0.007004496262979895 0.1801977052618401)
(4.999995472245704 -5.833841997978973e-05 -0.0004719591464625728)
(5.000064687316626 -4.555026157029636e-05 -1.967464351054571e-05)
(4.999905593966901 -0.0003407420304902749 0.0002943855643345467)
(5.000028416429554 -3.656303823837858e-06 -1.040475510643407e-05)
(5.000017327447207 -1.821116400700065e-05 0.0003497438589857426)
(5.032320317665584 -0.001285608045812229 0.003220327299672826)
(5.016832122442499 -0.01261472125526495 0.005337436919228539)
(5.000205846663368 -3.667586973321061e-05 -7.110158609965417e-05)
(5.000004620983567 -0.0001258471422301594 8.479116660199706e-05)
(5.000211607756298 -0.0002825235116352996 0.0002316926490799679)
(5.00318285404022 -0.007295984589049336 0.009707867141373954)
(4.999914866613169 -2.127864302909185e-05 -7.729603131633348e-06)
(4.999975409738311 -9.041704232495535e-05 0.0001639326012533354)
(4.999909346914767 -0.0001088046962660718 -0.001244295677981041)
(5.000017273862538 -1.456564410479741e-05 2.567147709731698e-05)
(5.000008415631627 -7.499316558262627e-05 5.674390570899047e-06)
(5.0126567154082 -0.01020014964333857 0.002545840228643254)
(5.403071794738034 -0.02056100606851543 -0.145396463143381)
(5.000596473904213 -0.0006237011111703304 0.0001497200228510664)
(5.000015143057523 -8.687095133801553e-06 2.861030051524331e-06)
(5.000006450963252 -2.848103304694474e-05 1.092764104895256e-05)
(5.000004978891843 -1.661011173467007e-05 1.490827490653114e-05)
(5.000011406578976 -8.321921082248839e-06 -4.24378183393015e-06)
(5.242426079042022 -0.05362265766486866 -0.6617682785157065)
(4.998507389519748 -0.0002479938287146383 -4.642574215394946e-05)
(4.999981325658105 -0.0001680605737012243 1.335011644855483e-05)
(4.999985328219705 -2.006982756485316e-05 -1.508203251998224e-05)
(4.999201487164571 -0.0009908551940925156 -0.0008947318214865438)
(5.046834238595614 -0.01391508153979766 -0.02419942463447554)
(5.288093563633924 -0.1199175262882074 -0.3055229411085787)
(5.000415460235605 -0.0004401061835007845 -0.0004165052568344884)
(4.999994726233483 -8.166262065166514e-05 3.104504371426569e-05)
(4.999996634115051 -3.784069175303601e-06 7.029549755754012e-06)
(5.0000035452511 -1.728069416476114e-05 -7.965525259703722e-06)
(5.000000138486587 -3.694386227998196e-05 -9.022956416081179e-06)
(5.008333216058309 -0.005913051055749604 0.002034884813603685)
(5.000000372746962 -3.600131565269896e-05 -1.650206703786488e-06)
(4.999681460427817 -0.0005229197932880249 0.0008832823931097935)
(4.999989902726035 -1.392363998368695e-05 -7.515061923660839e-06)
(4.99130101415504 -0.0007454770057493933 -0.0003862293029745154)
(4.999995063177792 -2.346141130193633e-05 4.561942931042129e-06)
(5.000024589880418 -3.410238840889721e-06 -7.159291634105995e-06)
(5.000026121988697 -2.167862935461685e-05 -5.96067694741175e-06)
(5.00004986868719 -4.090954928221637e-05 -6.920220725013829e-06)
(4.99995045752719 -7.532621462050875e-05 4.23580548821955e-05)
(4.99987090478244 -0.000339097344380841 0.0003930777660329216)
(4.999968640801361 -6.044589788367663e-05 6.136825909830431e-05)
(5.000003288113732 -0.0001609501199744803 2.621372403040627e-06)
(4.999991178521713 -8.996723939701505e-06 7.721232464891603e-06)
(5.00038965690764 -0.0001084041292042548 -0.0001995574259363865)
(4.999978399310933 -7.875087893867936e-05 -6.126904213718197e-05)
(5.000001489792922 -0.0001677264091861978 9.601223640804802e-06)
(4.999982786147711 -0.0008677041458761645 -0.001282881597179673)
(4.999994767207959 -0.0001615168149968302 7.788463656226403e-06)
(4.99999163529729 -2.990214958236447e-05 1.378943181218649e-05)
(5.009772502820947 -0.01978036262410881 -0.008205957792956792)
(5.000018038447995 -0.0001179037937096058 -4.427699258972831e-06)
(4.999991824145514 -2.428514662959112e-05 1.32490196118347e-05)
(5.172038650853858 0.02391941188786612 -0.013428974121281)
(5.013735315476266 -0.01731452771425486 -0.144405744428229)
(5.00007838703541 -1.989430861217569e-05 -4.848219711032109e-06)
(5.292563606676344 -0.2999804822693671 -0.6038856329001896)
(5.388109818045666 -0.1087035504944483 -0.1210627850852063)
(5.000018760781401 2.35261971974199e-05 -6.52236696123944e-06)
(5.000070944341052 -0.0001526098636672387 -7.51973833306331e-05)
(4.999553244010509 -0.000859326210732675 0.0008895136692062345)
(5.006132398034986 -0.002267994176560662 -0.000792570213525484)
(5.000033453778745 -0.0001024697659237258 1.757793349012097e-05)
(5.000010134222676 -1.126514505855514e-06 -6.594436723570177e-06)
(5.000017251438403 4.084512527415153e-05 -4.016002025022738e-07)
(5.000010705739866 -2.475156987676495e-05 -1.207879444891259e-05)
(4.999993517062196 -2.268418779165282e-05 5.734712554451672e-06)
(5.000017304235336 -7.832592462192796e-06 -1.132186134500217e-05)
(4.984218145930803 -0.0009960751412851098 0.0002923437868624914)
(4.999554763416669 -0.0008572283470235471 -0.000194641145511143)
(5.023206848121145 0.0005999128573625173 -0.0005586942126535298)
(4.997364159792003 -0.0002781890779117926 -0.0003601099101954756)
(4.97300419863374 0.2643560892207124 0.2221201172845318)
(5.000291287772194 -7.414242247770917e-05 -1.825443286041055e-05)
(4.999996750552416 -9.238272492920783e-05 5.369861501803303e-05)
(5.000002484306687 -8.91179213739171e-06 4.720282372251451e-06)
(4.999862900370553 -0.000265980943651987 -0.0001764074445484118)
(5.000006770313039 -1.227500366628478e-05 5.983947781215722e-06)
(5.000007028841134 -1.044070840718683e-05 -5.105001024442054e-06)
(5.000154189349799 -0.0004001622888305653 -0.0005052224412949727)
(5.000196939220277 -1.946575765009133e-05 -0.0001047415645614277)
(5.02002266627956 -0.000592294958567845 -0.0108371933386485)
(4.999999205649248 -0.0001435249071375682 7.858354523556665e-06)
(4.999012259308518 -0.0007215357215009072 -0.0002486739136080897)
(5.01035745447319 0.001828848107871162 0.009837837633191291)
(5.000003425582539 -0.0001307502546374919 -2.156852235124015e-06)
(5.0011685411423 -0.0004175234056855676 -0.0005519763063674717)
(4.999997204342809 -7.365916854212224e-05 3.037119456109373e-05)
(5.000081710627292 -7.614459598769842e-05 5.738030968680695e-05)
(5.000019575415047 -6.245413440940794e-06 -1.581556404124334e-06)
(5.000008080963906 -0.000101053813853544 -8.913569218328061e-06)
(4.856180300770129 0.4635926697827374 0.8002301997856645)
(5.000003569362925 -1.265783768090118e-05 1.346275839298847e-05)
(5.00400529939378 -0.003074914585776996 -0.001147792269541708)
(5.000002743330056 -1.308980589177216e-05 -1.524688844462613e-05)
(5.063924794545087 0.01249292936452876 0.1770513204617214)
(5.046002444728726 -0.004881113534294018 -0.008267199301667492)
(4.972619458428428 -0.0524858008175819 -0.0156985376933796)
(5.01836415904816 -0.01350230211839022 0.007332377586767452)
(5.000015057982555 -1.00428490843225e-05 -6.031265937936121e-06)
(4.999995173606811 -0.0001604792534709709 1.117726191854607e-05)
(4.974189041937358 0.2013574518445135 0.3508611609407973)
(4.999996965727338 -1.044637482006306e-05 6.943804164841504e-06)
(5.000498598449888 -0.0002196419326720575 -0.0002989409541719337)
(5.358454411419924 -0.1283543606858431 -0.0150369870128938)
(4.999992903118367 -0.0001588567286553338 6.34578241834971e-08)
(5.013279992938827 -0.02917862656978399 -0.0254257126206443)
(5.176142833148278 -0.234520587861603 -0.7331647669386215)
(5.060583506629557 0.2151809576238896 -0.04984575898231494)
(4.999883492951464 -0.0003670210913948947 6.836449657085286e-05)
(5.000013941631315 -8.423694505107506e-06 -9.672905812140218e-06)
(4.999990792357191 -0.0001343770596844958 4.489421114728802e-06)
(5.001054226490636 -0.0003562005303982317 5.72457052183401e-05)
(4.999983927251043 -9.518536584943377e-05 7.042960461872701e-05)
(5.00003331298947 -7.34044042884328e-05 -1.993576171656216e-05)
(5.155100525842022 -0.1004998593315728 -0.06736584372645708)
(5.033622958627842 -0.004844355737940425 -0.01356107494576402)
(5.000000896567811 -1.66803484897877e-05 1.812231518194973e-05)
(5.002191381241293 -0.0009727348728589491 0.0004604659310734206)
(4.999962112454164 -0.0001042719399752113 -5.119608577790523e-05)
(5.00001261746626 -1.633389510788063e-06 2.391771831312188e-06)
(4.999958353436023 -8.455289862054462e-05 4.960705643448979e-05)
(4.999975644503855 -4.466423569568654e-05 2.899697430261123e-05)
(5.026173496855241 -0.007788955421836241 0.01038996685167484)
(5.000032138811975 -5.234056284521822e-06 3.384555980998356e-06)
(5.000045477702077 -6.775514801858548e-05 7.227370398458165e-05)
(5.006474914085088 -0.005939833009030678 0.006652730513717599)
(5.001840272572178 -0.001328203073751937 -0.001095568602876247)
(5.000298522109236 -3.648423414110743e-05 -0.000213905200517425)
(4.999999714600502 -1.65356967935122e-05 1.330497430726888e-05)
(5.000245687459751 -0.003327590254962966 -0.001471044438143627)
(4.964706690585097 -0.6938675809176476 0.06720158031139013)
(5.571915163401125 1.119724475099249 -0.02932154180985465)
(5.510175930823189 -0.6278341096718794 -0.135713464354688)
(4.771373606365556 0.04594367389443664 -0.03366212399667195)
(4.406458566575282 -0.9856918094323811 -0.936908237214096)
(5.000034617427974 -1.266353740879738e-05 8.252833387182293e-06)
(4.99978787599144 -3.887062244645018e-05 -7.485662176787653e-06)
(4.999696584263951 -0.0007111073310735632 -0.0002982835726588865)
(5.00743406881541 0.0003027699606933805 -0.0006591578805475395)
(5.000006519984078 -9.196943387011409e-06 9.921754576974503e-06)
(5.000102744941011 -0.0002002846084716509 0.00029733773258837)
(5.000063145035332 -0.0002631348076619696 0.0003280976975303556)
(5.000182328044134 -0.000383760559522781 0.0003562261612329777)
(5.000001080035234 -2.798325173206027e-05 6.775093986931687e-06)
(4.998251539283785 -0.0001864641081559469 -7.350451123618893e-05)
(5.000248767440532 -0.00015827407882039 0.0003754061622489433)
(5.000036752206139 -1.05322984968432e-05 -6.183800524646646e-06)
(4.999994488561748 -0.0001053407173770401 -6.118639736160222e-06)
(4.999936591762491 -0.0007181622802834052 0.000332327725972199)
(5.291682707145557 -0.2581022898763742 -0.6262306946922851)
(5.317541956298635 0.01117849177178946 0.6585921396468319)
(5.372146643768207 0.3475233896441953 0.2809695576500562)
(5.003961129608991 2.419170550332578 0.4961146228309119)
(5.327067860653625 -0.09786503997330781 -0.294170651703679)
(5.000158441271958 -0.0001815355308743642 0.0003783363794366993)
(4.99998984287641 -2.265982704047107e-05 1.014627264643851e-05)
(4.999991069882737 -1.44035549404124e-05 -2.62407292049959e-06)
(5.000273958620714 -4.019036549521366e-06 -4.825947023253967e-05)
(5.302089213516736 0.04178845339100217 -0.0883064189730811)
(5.00043995566857 -4.492845865011536e-05 -0.000304775633071753)
(4.999988378494916 -1.803679617426332e-05 -1.222527569134468e-05)
(5.004540682518192 -0.002525217784889807 -1.77067229999608e-06)
(4.99999646426482 -1.166361558075837e-05 -7.605037308932859e-06)
(4.999971913785873 -8.518508131872216e-05 1.241875180834483e-05)
(4.99993354610389 -0.0001008579720420002 -1.149215390578385e-05)
(4.999272177337053 -7.945921652818022e-05 7.464391479892124e-05)
(5.000056932188713 -2.855971976975239e-06 4.236502666212597e-06)
(5.005203304482891 -0.001016675372287801 -0.0007090645662153129)
(5.000060117269249 -9.364928920098552e-06 -1.425960407474744e-06)
(5.000041888398381 -1.695146257198615e-05 2.927592707331644e-05)
(5.000011365659137 -4.947053255892052e-06 1.792944454354794e-06)
(5.000055991945158 -6.039859002020413e-06 5.587480129193005e-06)
(5.000043950496505 -1.095899980469192e-05 -6.509150092410574e-07)
(4.999996452128808 -8.850449032616179e-06 -7.258712821704679e-05)
(5.0000017884282 -0.0001015995351851823 -5.105571746196173e-06)
(5.00000849839529 -3.148100818686262e-05 -2.059949577778589e-05)
(4.999470829047158 -5.921503115220788e-05 -3.217044794813425e-05)
(5.00000916726801 -1.011091244930937e-05 1.34141977862486e-05)
(4.99998652524992 -3.154327155282051e-05 1.237832104183361e-05)
(5.000094594752081 3.425782767743391e-06 1.133151045210422e-05)
(4.999991746029762 -2.771068260650396e-05 -2.652998012054189e-05)
(5.008566476583846 -0.00403686561062595 0.002160766675177764)
(5.017122552789906 -0.01304449160685507 0.01055198039681056)
(5.000036892887842 -0.000162445283096561 0.001680114759783061)
(5.000020713765033 3.699566891613295e-06 -4.044120494825907e-07)
(5.000064158788563 -6.98434122049137e-05 -3.895524224096717e-05)
(5.003366585999394 -0.0007160942265003829 -8.608009555470891e-05)
(4.929569992324896 -0.1506423301857014 0.1145477787749813)
(5.000024014296744 -0.000212037199456018 0.0002482884106208771)
(5.000009322001958 -0.0001849584363388972 -0.0003648861278602905)
(5.000017910799626 -0.0001410550922708927 -5.571530164604872e-06)
(5.004733653287089 -0.004815919501928794 -0.0002204582069411191)
(4.999996925337608 -2.733562007246737e-05 -9.763253917187546e-06)
(5.000049728128205 -0.0001196205766152421 0.0001450348293192362)
(4.999991784852777 -1.32656229128634e-05 7.956531263259436e-06)
(5.000075883564349 -0.0001146621594211826 0.001382176163745029)
(4.999995609419379 -2.170833569565047e-05 1.964225514527912e-05)
(5.00003021502864 -0.0001085714705337724 9.899964691755482e-05)
(4.999995053507092 -1.458477843487011e-05 -1.482737716443864e-05)
(5.000046007132298 -6.171973919805911e-05 2.039511553017441e-05)
(4.998517307391115 -0.001663278796085241 -0.0002543341489974029)
(5.000072690632595 -1.423747383174281e-05 -6.838366235191946e-06)
(5.00000965929371 -3.35247863509424e-05 -1.952696031734101e-05)
(5.000382033654893 -0.0001466339645194578 -0.0003242233847666456)
(5.000042027489834 -2.800107888630932e-05 0.0001868984282752151)
(4.999989974218949 -1.634901918492414e-05 2.576034315252949e-05)
(5.00082642854591 -0.0009728414096656368 -0.0008067584523557617)
(4.999980813102071 -1.342010672087078e-05 9.87744974359414e-06)
(4.999988407826311 -2.408494647623267e-05 -8.085935361153391e-06)
(4.999845276108401 -0.0002555568539600505 -0.0001250962610486006)
(4.999786745198897 -3.087781163344561e-05 4.956013299985805e-06)
(5.000095492704681 -5.233630945436374e-05 5.511972502774773e-05)
(5.000007741146297 -3.27505089088518e-05 3.825978558793981e-05)
(5.000014918906183 -1.0630032206346e-05 -5.012863487771151e-06)
(4.999572382816719 -5.035686113558756e-05 -5.288113233334649e-05)
(4.999992019339363 -2.019311992527333e-05 4.878200839669449e-06)
(5.000003482335778 -0.0001069383512523602 -5.329143505228847e-05)
(5.000007249326502 -0.0001126096598425062 0.0001439534033492952)
(5.000374347963918 -0.0006045165037936298 -0.0001506967632820632)
(5.000267177151009 -9.159584244361631e-05 3.885217238918948e-05)
(4.999985783701424 -2.662722052980825e-05 -4.799906431992712e-06)
(5.000369266403649 -4.075321413379243e-05 -7.528186406966155e-05)
(4.999990741254313 -1.631603336182673e-05 -6.456683573261073e-06)
(5.000282539021179 -3.726767368165087e-05 -1.503236968422693e-05)
(4.99895606961721 -0.001314971262486253 0.0006636029132898126)
(5.000008816160934 -3.085674013884883e-05 6.366180375865001e-06)
(5.00000579695248 -6.905363057134701e-05 -1.100400635640439e-05)
(4.999703544885428 -4.110373661092125e-05 4.252582291602268e-06)
(5.00469460180136 -0.001385811572014767 0.001192897240783048)
(5.00002015270328 -4.412789207362626e-05 5.148297494710148e-05)
(4.999978400179725 -2.286303149031465e-05 6.985510286969592e-06)
(4.997992318471436 -7.287797009772868e-05 -0.000197089069095276)
(5.007361013588995 -0.004823805635682674 -0.003129611168011892)
(4.999993125153946 -1.956960130663319e-05 -1.78220563555441e-05)
(5.000097625292367 -0.0001172008225359534 2.539138825653075e-06)
(4.999994286635393 -6.562240224115701e-05 -1.918119798389132e-05)
(5.000022237517157 -9.01233308551966e-05 6.487961540500291e-06)
(5.009932621092161 -0.002462457419519574 0.0004030402000732086)
(5.000023876752786 -9.667506180491771e-06 -7.495797553171348e-07)
(4.99998141024817 -2.732089179485284e-05 -3.951479163365265e-05)
(5.000049324995294 -1.151010386546317e-05 -4.698758950440958e-06)
(4.999987677859013 -5.609560343467264e-05 -1.219201136401224e-06)
(4.999982815400069 -2.739219364453831e-05 1.016104286928876e-05)
(5.004086592225534 -0.002618138960534807 0.0001935074521064801)
(4.999101626677592 -0.001130578822329488 -0.000228817672247613)
(4.999151478183665 -6.968930309582681e-05 0.0001193531542124277)
(5.000013148641044 -1.029038615237416e-05 -4.646336659055171e-06)
(5.002540430205065 0.0101027056478764 0.009516630644903636)
(5.016450987137708 -0.007870601957977928 0.01382169449055072)
(4.999430680346731 -0.0006099054770579634 -0.0001241189992953167)
(4.997151593593196 -0.002782253120005845 -0.001713567501389785)
(4.999853579201467 -0.0007030389829099022 -0.0005093191036756277)
(5.000011356842712 3.464898277219697e-06 3.025995273317277e-06)
(5.000134481505554 -9.424924576199897e-05 6.990254201207933e-05)
(4.999970607293324 -5.098831702273172e-05 0.0006060298254584427)
(5.000138928503228 -7.862440979585794e-05 4.521625806996645e-05)
(5.000166305756218 -9.821877843936768e-05 2.529967668595131e-05)
(4.999986889340629 -0.0002391353240617906 -0.0002747853347995911)
(5.000086987670072 -7.732276250168292e-05 2.057787518645831e-05)
(5.000008583629954 -1.240726111642951e-05 5.311987598127449e-06)
(5.000183952500277 -7.293941830280246e-05 4.943982835937792e-05)
(5.000005174381613 -1.784940264327699e-05 -1.154907050165104e-05)
(4.999985388209602 -1.382834298866575e-05 -2.459164594247042e-05)
(5.000020735967506 -1.385179179447845e-05 -1.962406603803985e-06)
(4.99995369623448 -8.638714785500547e-05 -5.564168253877266e-05)
(4.999997226250767 -6.330988492734559e-05 -1.27540227968403e-05)
(5.001012585635285 -0.001267069238724078 -0.0008691288622555638)
(5.000290678669081 -0.0001306599567715314 -0.0004337000606351993)
(5.000029369901445 -3.189904740081443e-05 -2.165540230912356e-05)
(4.99984558737577 -0.0003859889811608606 -0.0002613371495317584)
(5.000009755936461 -2.913181899974313e-06 -5.572797479416578e-06)
(5.000174467800661 -2.886700098221076e-05 -0.0001604056408647012)
(4.999964802761315 -0.000455055880885155 0.0002406718382493164)
(5.000041890263709 -0.00021714017240795 -2.033516810815849e-05)
(5.008222045609253 0.5546830404779896 0.6121467385791574)
(4.999976101742903 -9.309614990475861e-05 -0.001364034576824777)
(4.999819931817814 -0.0009878265507622999 -0.0003168578108297908)
(5.000033537444574 -0.0001082285205699834 0.001661906071286237)
(5.000042674327296 -0.000155869499046842 0.0004950291811129991)
(4.999310506149114 -0.0008632036435561071 0.0004256285244502967)
(5.000114343983571 -9.477600784344196e-05 1.105869611283345e-05)
(4.999986110311816 -0.0001643417458981763 0.0001567879705139222)
(4.999986858049881 -1.986344283348096e-05 1.486685770802944e-05)
(4.999988791839094 -2.74767911133042e-05 1.551178317748327e-05)
(5.000012188751081 -7.110194645513081e-06 9.735567531580985e-06)
(5.000009270503496 -5.322785747041616e-06 2.414945344472945e-05)
(4.999993749129382 -2.394871437498046e-05 3.06636934521899e-05)
(4.997983644012555 -0.000226414480690086 0.0002438025154175949)
(4.999959314759738 -6.659175317343832e-05 -2.039373816075428e-05)
(4.999970116739267 -3.304455028662589e-05 3.605492083882716e-05)
(5.008808201828932 -0.01690181059451336 0.01445556336334705)
(4.99998041991422 -3.633437025632163e-05 1.763961505244658e-05)
(4.999985137517498 -5.084824294898493e-05 5.358319401318381e-05)
(5.000017438425925 -2.777688093559048e-05 1.079384169316013e-05)
(5.228738468184603 0.3703094160051674 -0.271135574027007)
(4.999809760487014 -0.0005784843882530069 0.0005869679995839647)
(5.000064037783384 -9.029103754688758e-05 8.539145315354169e-05)
(5.000022315469304 -1.298513034575115e-05 -8.83732876362293e-06)
(4.999975739811385 -4.920185156547205e-05 -1.090023845987325e-05)
(5.000029464090374 -1.055449560222872e-05 -1.524035248313804e-05)
(4.873001836544969 -0.1051553279293049 -0.1542339970085352)
(4.617380039991629 -0.05927867009047076 -0.1461924073780135)
(5.063249820494145 -0.03147278441260844 0.01941788718773447)
(4.999479550226 -0.002660124651826918 -0.0008822910038821022)
(5.299513591809985 0.1078913422492586 -0.08755513197778471)
(4.674690066022399 -0.6259553230713397 -0.2736462615853128)
(4.660048015142767 -0.1670244242582895 0.04115350024027862)
(5.000022736075088 -6.06512684573463e-06 5.622001551446803e-07)
(5.298872558636884 -0.3084772954390794 0.6447713677640378)
(5.581356394448555 0.4023093724812296 0.325555115640159)
(5.000023206752725 -1.118357993420094e-05 -2.051760623058064e-06)
(4.999992077612919 -2.804179282410946e-05 1.79326027208587e-05)
(4.988240753223294 -0.0007891082729623842 -0.0003518715359474547)
(4.413388302093662 -0.2477137349197577 -0.4134915838193658)
(5.000011024637034 -5.983335456476543e-05 2.053878303459457e-05)
(5.000059968122472 -0.002063610863783945 -0.0001375849222636673)
(4.999993099446832 -2.242935714646776e-05 -1.292029390981021e-05)
(5.106474440911123 0.9101714265848935 -0.578653844344878)
(5.150361729432003 0.06149131318118885 0.0425508807980479)
(4.999550466781275 -4.725784377096566e-05 -2.255012962556602e-05)
(5.000203558154063 -0.0001040298017182116 -6.102958182851878e-05)
(5.000003518619461 -3.056841242317929e-05 8.077860306352976e-06)
(4.999977128971477 -3.503641787541637e-05 -1.479984826731875e-05)
(4.999222414393612 -0.001712957447094045 -0.001703477639087807)
(4.999997870998949 -1.778883974187214e-05 -0.0001151116553524016)
(4.999914140642833 -0.0001946328548638279 -0.0001237626742700808)
(4.999950335692556 -8.383441034131446e-05 6.62097074628386e-05)
(5.321538943997451 -0.1919303072303314 -0.7628696772690104)
(4.999433702028083 -8.24752820846043e-05 -1.613642429178487e-06)
(3.954028336317358 0.857076209977123 -0.1297292174182395)
(4.999811837542139 -0.0002759052145830474 0.0001807640813805473)
(3.495331962422378 0.2296690976662765 0.2930707599904875)
(4.636936587712833 -0.002463181679211654 0.2514927609363628)
(5.001710055638035 -0.001015351718216592 -0.0003458329500133112)
(5.036870119547793 0.02164965508877554 -0.2227104952684518)
(5.001452575530728 -0.0007472447916021427 0.0003866529009750815)
(4.998506725581499 -0.0001164156926073889 -0.000150117669894328)
(4.999841048167385 -0.002689429472152137 0.002183543288241656)
(4.999969393871246 -0.0002300128058416532 -0.0003212946385828189)
(4.310550313700618 0.166606883535591 -0.03127773949102435)
(4.999573897508259 -0.0004852366052176053 -0.0003629954212422061)
(4.999984619368275 -6.946730329226964e-05 1.713119565327729e-05)
(5.000139937001184 -6.137471864639037e-05 -0.001068351961940313)
(4.590504982521707 -0.6906409706584494 0.1176701068600953)
(4.999978961924551 -2.360150819124423e-05 1.089407932420468e-05)
(5.000012302945468 -2.957482008030919e-05 2.589329051574243e-06)
(5.000016937133118 -1.36376847918688e-05 4.570170552598226e-06)
(4.999943106827176 -8.652646955121711e-05 -5.899908111213796e-05)
(5.000129037972068 -2.01209092942898e-05 9.435887993590347e-06)
(5.00000362822764 -2.812099058722869e-05 0.0003464109058514665)
(5.01584804958103 0.02796399067983174 -0.0001459315949019433)
(5.000015711347318 1.92775783710173e-07 7.292901830490769e-07)
(5.012200535627565 -0.0102921645726105 0.01356171308354395)
(5.000340977165251 -0.0005793787881520977 -6.797291742678538e-05)
(4.999785915021832 -0.0006202994241558347 0.0002913596062053481)
(4.996854638754356 -0.0003158830215818675 0.0001994415278023146)
(4.999934130281482 -0.0001699577238998049 0.0001399676564142616)
(5.012601300389973 -0.008186800333351946 0.005571291518019869)
(4.999986533904855 -1.725721015288675e-05 -2.298436560619483e-05)
(5.000000171187498 -0.0005603394298108222 -0.0003647462427132126)
(5.008118432812499 -0.006838786368338031 0.004277006874920151)
(5.000024681853858 -4.56463329474238e-06 0.000145505619227913)
(4.996222437832717 -0.0003716050723085869 0.0001277584571743851)
(5.000013041533461 -0.0003685221695716404 0.0002123380248756664)
(4.99996136464313 -0.0003877959062274382 0.0002164953510667695)
(5.002050021877102 -0.0008136565282401763 0.0002149545257559732)
(4.619330385481815 -0.3480267257885089 0.4758737777294582)
(5.000007234785214 -2.11850491331655e-05 -3.168769413834582e-06)
(5.000017605127189 -2.41415633395147e-05 -6.692319528427827e-06)
(4.999928088411398 -0.0002810140242402316 0.0001710684256992992)
(4.996301888162261 0.04119588339429484 -0.03388054155864412)
(5.000054311386791 -0.000100784938930212 2.334013020586421e-05)
(4.999837384063011 -0.0004517621312178111 -0.0002539246937444148)
(5.000020607912733 -2.195055081720853e-05 1.185449737373084e-05)
(5.014979615117308 -0.005534517205962482 0.002563468883770479)
(5.00004915949521 -9.592277585544569e-05 -1.795878207615726e-05)
(5.000017465996609 -2.75076167767851e-05 1.115001637907795e-05)
(4.999955678228153 -0.0002580505855932065 0.0002542640106768316)
(5.022051292206856 -0.008754774912389763 -0.002896754479501229)
(5.000071523771845 -0.0001014190080817608 2.61547950438548e-05)
(5.000104968977027 -8.223564691366879e-05 9.159920423679941e-06)
(4.999810129488146 -0.0002867422911600293 4.658612134540959e-05)
(4.99996138593199 -0.0004934008351278341 0.0001607294195191872)
(4.999989016882674 -4.094041380166662e-05 3.164084837736834e-05)
(4.999986784009483 -0.0002606240988039164 0.0001247949096655345)
(4.999986091813924 -0.0002661524583596336 9.502098580984234e-05)
(4.999990123756484 -0.0002359218070963258 7.693490555796906e-05)
(5.000001671944771 -0.0002713504400222407 4.089399470389336e-05)
(5.000030027310943 -7.907131689276414e-07 -1.726857125636332e-06)
(4.999970908741649 -7.318797569411997e-05 3.222483590696154e-05)
(4.999979070488731 -0.0004173515875228502 -0.0001867630736695438)
(4.999820992886496 -0.0004113690834813921 -8.070700555904564e-05)
(4.999620477830445 -0.0006817325849684425 7.398678536506514e-05)
(5.000034758431878 -0.0004054781570925314 -0.0002362403212295828)
(5.002201272707724 -0.001481172873570711 0.0008112689001338269)
(5.000741056416023 1.338756355016671e-05 -3.200337089498629e-05)
(5.000053193978716 -6.514053884248225e-05 -5.901341303121836e-06)
(4.999959757634891 -0.0001038493980795364 -0.001026362736041704)
(4.988615385140086 -0.0009165914798161399 -3.389598322995376e-05)
(5.000027974354261 -1.724271164403066e-06 -2.228900589211355e-05)
(5.012318351179332 -0.0021232165949691 -0.005729906927222854)
(5.000037987764063 -0.0001549942838054314 -5.004679814192898e-05)
(5.02604824387539 -0.02280177580874113 -0.03261885142842669)
(5.000070062917909 -0.0001940060099324301 -1.91935711338834e-05)
(4.999969525826931 -0.0001150288580086592 5.623255462130608e-05)
(4.999770820644741 -0.0003910575299603948 -4.043337443272115e-05)
(4.999817293971472 -0.0005185270572361958 -0.0001132767475610825)
(4.990725564416811 0.04621637177269717 -0.02568672379866487)
(4.999831445319319 -0.0004079922398644485 -7.923814663105792e-05)
(5.000098849298617 -6.863282105817267e-05 0.0003281937891407607)
(4.999906552776328 -0.0003542349004456337 -5.8817008621646e-05)
(4.999992859330292 -0.0001568268928620398 0.0001232791715673069)
(5.000045397261527 -3.133271102717628e-05 -2.859697963330858e-05)
(4.999619815473387 -0.0006480444936674323 -0.0002832969726307918)
(4.999987965562588 -6.202946877810372e-05 4.434129746567621e-05)
(4.999991059024662 -1.821503085439547e-05 1.139222041198155e-05)
(4.999978742661325 -7.867831609119477e-05 3.539733959877441e-05)
(4.999979908750301 -5.969924735986144e-05 -4.034269602081309e-07)
(4.999992300205057 -1.336022526109124e-05 -2.378290834774713e-06)
(5.045627548727433 -0.02570345743340414 -0.01531424123910092)
(5.000011659529602 -6.452084204563711e-05 2.656960903870713e-05)
(5.000008771581077 -6.584816027506515e-05 5.195738255862022e-05)
(4.999971791776397 -7.973856964975529e-05 7.342306631249101e-05)
(4.999989478025291 -7.072898976684481e-05 3.540725604321983e-05)
(5.000039867261683 -9.460354797129947e-05 -7.988640273601686e-06)
(5.000046396477221 -9.52886163406931e-05 -7.821055150861708e-06)
(4.999978541710013 -8.038505355685608e-05 7.104624587302569e-06)
(4.999989876664137 -0.0001020202596399084 6.173072888585019e-05)
(5.000018045912393 -0.0001056983391158093 0.0001233036301988863)
(4.999998471069813 -0.0001245531606006478 2.986264207508025e-05)
(5.000025102022837 -0.0001320303805309823 0.0001702404125103813)
(5.000170498994697 2.652325200340217e-05 -0.0003065666867363901)
(5.000046900603478 -0.0001929262960157337 0.0001494593589184553)
(5.000017645160796 -0.0001500296160625984 0.0003107167585104731)
(4.999955249547493 -0.0001597858463145012 6.857694931209171e-05)
(5.000010863833261 -0.0001791077416648764 0.0001965935094373318)
(4.999999148126254 -7.841367665633041e-06 8.42816703678498e-06)
(4.999928626600058 -0.0001506615244744789 0.00014735431543661)
(5.000065143555588 -0.0001551098012400146 7.746778183861565e-05)
(5.00011067747785 -0.0001073169632322684 0.00015096275357851)
(4.999966781248834 -0.0002398918639477612 0.0002816146307327358)
(4.999951762600801 -0.0001453594924688005 0.0001626296418090121)
(5.000058460091329 -7.443062871866065e-05 -2.371493244194964e-05)
(4.999940309043445 -0.0001324492642846619 0.0001524922108588016)