/*--------------------------------*- C++ -*----------------------------------*\
| =========                 |                                                 |
| \\      /  F ield         | OpenFOAM: The Open Source CFD Toolbox           |
|  \\    /   O peration     | Version:  v1906                                 |
|   \\  /    A nd           | Web:      www.OpenFOAM.com                      |
|    \\/     M anipulation  |                                                 |
\*---------------------------------------------------------------------------*/
FoamFile
{
    version     2.0;
    format      ascii;
    class       volVectorField;
    location    "0.1";
    object      vorticity;
}
// * * * * * * * * * * * * * * * * * * * * * * * * * * * * * * * * * * * * * //

dimensions      [0 0 -1 0 0 0 0];


internalField   nonuniform List<vector> 
19632
(
(-0.0007536259105423216 -0.003371225397636353 0.0007347476155918548)
(-6.702434714959358e-05 -3.74739869632245e-06 5.183505495106577e-05)
(9.083812698726572e-06 5.646684140796399e-06 2.322512230049166e-05)
(-2.226081680291275 2.424803032408157 -1.578529936830662)
(-4.757676934184308e-05 0.0002859596405283592 1.449044655630935e-05)
(2.403701217458451e-05 9.988442978024667e-06 1.283213708404321e-05)
(-3.32855878793204e-05 -0.0004532721172657824 -7.522086255837419e-05)
(4.965731376788711e-06 -8.392438981784099e-07 7.829957266590288e-07)
(-8.77450179186824e-05 9.675257177692203e-05 -3.444288920302919e-06)
(0.04121753956183342 5.362076710602702e-05 0.0318250170729749)
(0.006275786089948453 -0.005847888547412044 -0.003827509704406122)
(1.163863057570499e-05 3.409115662525216e-05 -4.666694519264862e-06)
(-1.888891010032349e-05 -1.138842909163548e-05 -1.331143250382677e-05)
(-8.951408881481078e-06 6.038500787130669e-06 -4.270490605063583e-06)
(0.001649530443232428 -0.002125339130571932 -0.0008769764659383731)
(5.992821043144201e-07 3.018669309779845e-05 2.552841516632378e-05)
(1.815552140602989e-05 -3.452753773868686e-05 -2.027042340637966e-05)
(0.0001452860532214485 -0.0004181757265457189 -3.203750770899235e-05)
(7.017956875978224e-06 -1.01298402818751e-05 -9.649694561530704e-06)
(3.870755709314158e-05 -3.364570565324081e-06 7.713567099529109e-06)
(-6.604303319011559e-05 -1.894435648084324e-05 0.001329635279401499)
(1.173727565775899 -3.370400215443404 -0.06320929015985521)
(0.0001387464211650184 -1.050854375097156e-05 -0.005897048006999564)
(1.654630618701361e-06 4.804326319423528e-06 1.754317534011434e-06)
(8.055477239180303e-06 -3.304474429480094e-06 -3.670982487872944e-05)
(2.293799925014158e-06 -3.667621862679268e-06 -3.344701289330022e-06)
(-8.394679629968602e-07 4.293389010645038e-06 -2.835798591512752e-06)
(-2.814810152628621 0.529985012357201 -2.976554976794872)
(-4.677973785901256e-05 -0.0005091795898110144 0.000990884517864721)
(-1.345911572857029e-05 1.229995319341164e-05 -1.804310649876706e-05)
(1.512073098009339e-06 -2.537130546705067e-06 2.95665922831293e-07)
(0.0001159961355468063 0.0001198535211435333 0.0001543954277326358)
(-0.04844916996807077 0.08792604021383629 -0.03327448775522791)
(-4.024609332588851 1.415681028834436 -2.080565128987566)
(-4.682941476896681e-05 -0.0001531203069414676 3.634926907490567e-06)
(-1.896325599493325e-05 -1.027419079471214e-05 -1.802279226485096e-05)
(-2.564813826104669e-07 1.833307275312967e-06 6.084893250712709e-06)
(-2.693782011571936e-06 5.859020580627563e-08 -3.726275946948239e-06)
(2.00000885006713e-06 -1.517822225966949e-06 4.599494276383182e-06)
(0.004926603372966679 0.004154596771070516 -0.002170009153020028)
(-1.477921792690094e-05 -1.114379624963467e-06 9.676646080864806e-06)
(0.000190306148944833 7.162034509781387e-05 0.0002264760850178574)
(7.674034090854328e-07 3.243858694410722e-06 -3.342334195492533e-06)
(-0.0002994533486767405 0.001026115954427595 -0.005036307497998836)
(-7.465650833803768e-06 -1.323501894578167e-06 7.74296570765521e-06)
(5.489528590885531e-06 4.05822091251387e-06 -2.837276610350509e-07)
(-5.126553441008511e-06 -5.640955917981908e-06 2.173864667781601e-06)
(2.719491111949554e-06 -1.287286147547177e-05 1.339831643413074e-05)
(1.153814597053248e-05 -6.324255202859632e-06 -8.701665040149761e-06)
(-4.785448347391197e-05 5.110885867116962e-05 7.069424147829847e-05)
(3.564142904196905e-05 -2.674900292441154e-05 -1.287886266535506e-05)
(6.595091657286683e-05 2.879801359678867e-06 1.45190289973377e-05)
(-5.077553656241058e-06 -2.869603030568965e-06 -4.635695040429649e-07)
(-3.11763287259261e-05 5.830481248523688e-06 2.880133080208975e-05)
(-3.981404110945209e-06 -2.974298640769773e-05 1.976238152531795e-05)
(-7.477517982472704e-05 -5.057549734549717e-06 5.946448215302316e-05)
(0.0001880674347523936 -0.0003423161747286558 4.477042603105137e-05)
(-9.334872540618688e-06 1.89351322826605e-06 -1.003753417459268e-05)
(-2.731081421752534e-07 -1.547245491085796e-05 -1.607626609917306e-05)
(-0.002474149820832142 -0.004482309801325791 -0.009595353114409389)
(4.569858526862466e-05 -1.188694255421081e-06 2.337755307593119e-05)
(1.015267557612831e-05 -1.599232407522174e-06 3.265280339331521e-06)
(-1.075409890425244 3.269238336498746 -4.105709908147675)
(-4.623764367909297 1.244663002995161 -6.736413802623238)
(-1.076599519461132e-05 -1.083626490914336e-05 4.1665847020464e-06)
(1.429443483593132 0.4897011755264866 0.1848289370813522)
(0.8246980803516782 -0.9501307140430539 0.5941563040039473)
(-1.482915152465176e-05 1.377090717599672e-06 -1.573795355119415e-06)
(5.008800204965056e-05 -4.310666822055641e-05 4.900086633662691e-05)
(4.064022686470938e-05 0.0002289696236679052 -3.044207928181454e-05)
(0.0003270655687008883 -0.001378248475364547 0.003035484272344109)
(5.567514330975202e-06 1.565789005095694e-06 -1.412580512939411e-05)
(-8.05539806234955e-08 1.293337547417803e-06 6.111326433346732e-08)
(6.958550269015375e-06 1.543405173978004e-06 2.559862832799838e-05)
(-6.384675212144336e-06 -2.943910726489597e-06 8.526345111664423e-06)
(7.631938773943426e-06 8.366290920491874e-06 -9.35709762726057e-07)
(1.044970430923981e-06 2.442540521629796e-06 -4.237095227918138e-07)
(-0.0002248089929120254 0.005798512363605002 0.004457373985683421)
(-0.0003510105684166267 0.0005409873286895075 -0.0002791765874268621)
(-0.002539785368870845 -0.0229920791945035 -0.0242864463509927)
(-6.206164253143133e-05 -0.0006236671434704048 0.001358457241701422)
(-0.2885546681751514 -0.211003462174871 -0.2777305545213166)
(-5.467593057808837e-05 -2.118797733522025e-05 4.027967726073729e-05)
(-1.438459363838618e-05 1.186149295784361e-05 -1.321009192188652e-05)
(-4.256187073291803e-06 -5.556616300281232e-07 -5.208372279063081e-06)
(5.110587233137726e-05 5.954639471633949e-05 -0.0001080639242567875)
(-7.634306296756274e-07 -1.021597704752611e-06 1.080100338889273e-06)
(2.668316584229553e-06 -2.998352833264088e-06 3.95346758063823e-06)
(-6.673123019662795e-05 -4.07399861737049e-07 6.639288496850805e-05)
(-2.348736283888048e-06 1.644094038947486e-05 -6.148462259781135e-06)
(0.007441316401101499 0.001385185122156612 0.005792090382767031)
(4.697289637375057e-05 4.120742955670816e-06 -5.987041783237641e-05)
(0.0001293700825201306 -3.837104383734022e-05 -0.0001105915904939103)
(-0.01076927682268987 -0.005984659694240138 -0.006743351594473816)
(-6.755208304899251e-05 -1.302880392922915e-06 3.480409528972829e-06)
(8.259214126000924e-05 -0.0001578136288840517 -0.0002170365244907624)
(-2.981459315460391e-05 8.473787370739986e-06 -4.651732310906244e-06)
(1.974919833053545e-05 6.050575814479158e-07 -4.122867243682854e-06)
(7.210148815423258e-06 4.763416390396136e-06 -5.481542382708094e-06)
(4.691909618756664e-05 -6.918903366588385e-07 7.169506228250938e-06)
(3.228357523190186 5.925855084278155 0.5230949100493165)
(8.621042028599855e-06 -9.022998523177202e-07 4.613649686379244e-07)
(0.001272633854105579 -0.0003809926594352341 -0.001488769908980209)
(-8.684966749703403e-06 2.20031373365757e-06 1.007682379114873e-06)
(-0.557510110987162 -0.1837357671278579 -0.07245594114722344)
(0.08069990012081377 0.03054939671678981 0.0420606898506868)
(-0.08167622790705009 -0.01256123456985947 0.06261286435280149)
(0.008970016454938976 -0.007410184645822149 -0.02346063670511057)
(2.824619772817571e-05 -5.240701516248412e-06 4.567524526722381e-05)
(-7.123616410712973e-05 -5.490295969949258e-06 -1.891482022649378e-05)
(-1.640254688354891 -0.3902797750797448 0.4180767841529653)
(4.377130128319007e-06 2.378006153823097e-06 -1.547624321785483e-06)
(-4.759934127325751e-05 0.0002139058431690822 9.744359512654255e-05)
(1.456173101068714 -1.834735257453157 -0.05650405249261831)
(4.431339764085678e-05 1.73950671435971e-06 -7.033819861517117e-05)
(0.02513493900595816 0.02679272124785007 0.009539807388344522)
(-7.687107003439754 4.886821356506282 -2.206437364494174)
(1.286567636579879 0.2528106788986063 -0.8070791357704844)
(0.0001145462901791515 -0.0001259644522138232 6.318414621518523e-05)
(3.010646547635137e-06 1.200369669395652e-05 -3.685271375306834e-06)
(-5.371386853881721e-05 -3.995330926657395e-06 3.651055313538522e-05)
(0.0002459833905432424 0.0001140646643156137 -0.0002438074049547817)
(1.425259458575268e-05 1.226457068006332e-05 3.196052206909313e-05)
(3.125936842337478e-05 1.648815063488903e-05 1.346052063326378e-05)
(-0.1001395658952149 0.3472660360831591 -0.1177996803543443)
(0.03915354777219526 -0.04703343488858036 -0.02053153647972011)
(9.061885740700555e-06 1.434775260590634e-06 4.870414675308723e-06)
(0.0001228765999536447 1.973661747919575e-05 0.0004342331931019969)
(-4.978332440867123e-06 8.425403550330471e-05 -0.0001578411436960898)
(-1.008058130403322e-05 2.005559578944503e-07 -1.231314771758268e-07)
(-2.99958759452327e-06 -1.294833001565837e-05 -1.673303025348852e-05)
(9.578091575355337e-07 3.98746044406591e-06 -4.855351576571184e-06)
(0.0236487794800093 -0.001428122036133427 -0.01225647400459569)
(-1.754406426721766e-05 -1.092203789886977e-05 -4.917317934050129e-07)
(2.494119829055406e-05 -0.0002174450058500117 -0.0003787667240390518)
(-0.01916746113624373 0.00767815728405158 0.00337043192442019)
(-0.0003836497749327483 -0.0001131854518910725 -4.083096696865357e-05)
(1.534230944704818e-05 1.585266515229609e-05 1.550945216288354e-05)
(3.694267375725522e-06 -8.733847640516096e-06 2.857246432659372e-06)
(-0.0001627219787556783 -0.0002358105180002302 -0.001144474005344289)
(7.749421026165113 -4.718661104932586 -52.98755832722463)
(1.166618469553624 3.186925190803731 -16.37056966324365)
(-15.70010591714799 -7.61139790541903 1.589625508590234)
(2.535983383597297 11.16990515218756 0.4493427179943443)
(-8.697639081946114 3.671344023326087 -47.6099968606127)
(5.773283486496171e-06 5.824251122402092e-06 -4.799394337386183e-07)
(8.525257151253085e-06 7.952824338600838e-05 6.316606868443966e-05)
(8.042801497679136e-05 0.0001305337499721099 -0.0006399708084557351)
(-0.000271180359244355 0.002112082789343291 -0.000222290246289898)
(5.510341702912645e-07 5.035927376128922e-06 9.330083062723719e-06)
(-0.0001391933880584093 8.180990613143916e-05 -8.51685945715238e-06)
(-3.769497212567962e-05 1.439255339478217e-06 3.458296092224605e-05)
(-0.0003023938909881194 -6.73489428899023e-05 -7.918048792902125e-06)
(6.236747110174318e-06 -2.805218318288023e-06 4.698511803824248e-05)
(-1.787773660596311e-05 -0.0001849505825153737 -7.261774435174086e-05)
(8.512758261577607e-06 6.84469671101977e-05 -9.388486215431322e-05)
(-3.652865789616342e-06 -4.056934586032213e-06 1.972596758319565e-06)
(-1.864656114159805e-05 -2.020733730300127e-06 -4.000661423401454e-05)
(-0.0001391448831035429 -3.516188954398085e-05 -0.0002304086313470865)
(0.5688133243005931 4.163146938850732 -1.301623885056959)
(-1.094906360037111 -1.988985941071189 -3.820067993923789)
(-9.754779733746531 -3.340113111315936 -2.656007406321469)
(-3.66710988955773 -3.686780044224624 10.05006781836895)
(-1.69119535938077 -1.361974861481075 2.188339031873435)
(-3.602845867209508e-05 1.439134975851247e-05 -1.631657502434567e-05)
(-1.18700222610833e-05 -5.421530428722821e-07 -1.270526818009995e-05)
(-1.080046528628715e-05 4.125843157998295e-06 1.529992961631994e-05)
(1.696741235062964e-05 4.330059933977727e-05 -4.325713489772847e-05)
(6.787652376879126 2.106948290926006 0.1816975050145279)
(-4.338519850789292e-05 -0.0001133124280965975 7.046156986154172e-05)
(1.117841011999698e-05 -5.930794346669897e-06 -3.894957668755891e-06)
(0.0003646840875167983 0.0003849895961371156 -0.0003214178510487929)
(-4.706705163949438e-06 1.962647917447089e-06 -1.699476312638009e-06)
(3.303405682216608e-05 2.167955024654339e-05 7.204734284920379e-06)
(-8.054871794517113e-06 -2.226728275016547e-05 -6.882940163044395e-06)
(8.917088643439763e-06 0.0001097380512353924 -0.0002285272268070347)
(2.24621783857961e-05 5.878001768587495e-06 4.531647919776495e-06)
(0.000163993820479266 0.0009225414861257123 0.001716651957554828)
(4.007225660602045e-06 -4.949674040514033e-06 1.04146655046426e-05)
(-8.917429233861707e-06 5.254573104614094e-06 1.053746284732121e-05)
(-4.511284998984966e-06 -1.754074516391005e-06 -1.47823661875827e-06)
(4.309815864893869e-06 1.409876137223468e-05 2.699296095844177e-06)
(-7.019812324063029e-06 -1.666169307650918e-05 -4.192917785590439e-06)
(1.922385443061098e-05 2.679875759380676e-05 5.755532514859559e-07)
(-2.343861500423113e-05 -1.262617749139877e-06 -2.768799893485649e-05)
(-8.541930367215606e-07 -9.755457326055249e-07 -4.345068842357331e-07)
(-3.57969494783199e-06 -0.0003189675872453673 -6.459397936022352e-05)
(-2.988214324934443e-06 1.981811129699898e-06 2.081007668564354e-06)
(-4.065254946033876e-06 4.107715594578939e-06 6.625531277860897e-06)
(-3.187642790305385e-06 -1.483722106547194e-05 -1.036105525738651e-05)
(8.144182684279402e-06 5.440924706837484e-06 5.538492095422142e-06)
(0.001468797499391543 0.001496567381199495 0.001903733131240362)
(-0.007206279900577579 -0.007094067193025047 -0.01287778476459475)
(0.0006922995921363658 0.0003404994732679693 -5.178532259167211e-05)
(-1.764273408945177e-06 4.101492859400739e-07 -2.321502977016126e-06)
(1.280671968085844e-06 2.607458190070333e-06 -4.887579513648837e-06)
(-0.0003881947444157634 -0.001741189945643144 -0.002045404619311994)
(-0.284305403391128 -0.1360550435746699 0.2289799174442977)
(-1.94709574607059e-05 4.014634923524946e-06 -1.883991566299375e-05)
(0.000133535336533515 0.0002136725947073258 8.6009134856248e-05)
(6.771259085564894e-05 -4.911147722511198e-06 4.410396219569619e-05)
(0.000138561612132904 -0.004528158313447458 -0.001244585385973038)
(-1.813058428454742e-06 -2.334972676045455e-06 -6.194670882859597e-06)
(2.600885450244722e-05 1.064762087369037e-05 1.138551567900006e-05)
(-1.893895508114772e-05 -2.828351107904489e-06 -4.08588701916126e-06)
(-0.0005645406827619434 -0.0003180771941821307 -1.663029876463103e-05)
(2.247994768461577e-07 -1.398921225686109e-06 -1.808154789976977e-06)
(-3.540295045964415e-05 -3.551095738800447e-05 7.421658437999486e-06)
(-4.10662204425164e-06 -1.045965314840823e-06 -1.902329352882528e-06)
(-8.822723104396098e-06 1.544295848410699e-05 8.420520554840785e-06)
(-7.051346049988662e-05 -0.0001567656418288287 0.0001896356114142858)
(-1.943867544205484e-05 2.900157361482187e-05 5.511167715945927e-06)
(1.077811883433994e-08 2.229863929912811e-06 -3.043145291440188e-06)
(-5.706516852000463e-05 -0.0001030602439855337 -0.0001112021139003809)
(5.318166625339853e-05 5.914182281847316e-05 4.12209421706291e-06)
(-4.272105407030262e-06 1.462233272561704e-05 4.562644104990276e-06)
(8.401716025108716e-05 0.0001156364017129811 -3.630189692350381e-05)
(-7.139625411039174e-06 -4.845378556062206e-06 -5.601739939423892e-06)
(3.865746223337348e-06 -1.636166688995455e-06 5.683907374241773e-06)
(3.268226725889936e-05 3.960903152287593e-05 -3.785682916946688e-05)
(-8.876885847244365e-06 9.299834574856172e-05 5.303825334660375e-05)
(-2.17069913584296e-05 -3.70976243572936e-05 -2.681719997534257e-05)
(-5.675352977672656e-06 5.020318241036169e-06 -4.905567384969501e-06)
(-3.322646664445384e-06 -5.827487000332211e-08 4.547583371076802e-07)
(5.170299104223614e-06 -0.0001083156716741351 0.0002047260635791059)
(1.106548420952612e-05 6.200654354896728e-06 -7.206913976093536e-06)
(-4.604885754566115e-05 7.453142678209804e-06 -4.18647496102567e-05)
(-3.03094836021728e-05 2.728772045192192e-05 -3.740071940165343e-05)
(6.015543765605408e-06 -9.95148981880814e-05 4.858025801023012e-05)
(2.065224919928293e-05 5.504309106719855e-09 4.859263104699627e-05)
(-1.31827813821615e-07 -4.933367660296335e-06 -1.653500630164576e-05)
(-9.270200721567097e-05 -6.869834757718524e-05 -6.501761021763237e-06)
(5.873876618468822e-07 -1.298387452767293e-06 -6.044995370982876e-07)
(-1.793906025770857e-05 -5.656457284456969e-05 -8.64954090605102e-06)
(-0.0001574216790749003 -0.0003402266553990486 0.0005898529031940785)
(6.256341736210667e-06 -2.199828322197962e-06 -1.729522544812039e-05)
(-1.107593571263151e-05 -1.324486512263052e-05 9.839133776237307e-06)
(-6.803173729325226e-06 -8.34308769841388e-05 -5.937887056626301e-05)
(0.003959223501909102 -0.0009497381727890077 -0.001461801112376035)
(-1.861752934798493e-05 -1.830846829650109e-05 1.371786068039061e-06)
(2.007111328188559e-05 -7.625300691106102e-07 2.06734207831233e-05)
(7.511210435020992e-05 0.00032444087763009 -0.0007534251922490885)
(-0.006217804730847685 -0.001352218302332168 -0.0009124938861640094)
(5.565183994514444e-07 1.024725764032989e-05 3.316151467233744e-06)
(1.681417272194405e-05 2.434769596218593e-05 -2.78965264571843e-06)
(4.723738211126749e-05 2.285536113281202e-05 -6.689662374877553e-06)
(-7.979078268592229e-06 4.474818597468036e-06 3.630693674487897e-05)
(0.001704067529614764 0.005418630615017973 -0.0003030550175750783)
(3.00777301399692e-06 4.333380170393135e-06 -6.111115756356237e-06)
(-1.214686406808072e-05 1.185421821311232e-06 2.161615009093137e-06)
(1.066827144256819e-05 3.373581487104646e-06 -3.302310866354338e-06)
(-5.617253044500101e-06 5.050422148046731e-06 -9.188909761431861e-06)
(1.157554174649148e-05 1.902190788985545e-05 -6.57654293547528e-06)
(-0.0004983058379911125 0.0002397101237184991 -0.0001505566393398159)
(-0.0001274522983624297 -2.481965024412317e-05 -0.0002507799658114504)
(-1.295782450301502e-06 4.121343732962411e-05 0.0001245027147460577)
(-6.082158760189882e-07 1.743273012248683e-06 -7.293225066871274e-07)
(0.013094665310001 -0.01029196568615478 0.005034508213622477)
(0.01747167348774346 -0.006502437351128559 0.01612162020383538)
(8.6250011580543e-05 -1.307615467418973e-05 3.002292797468169e-05)
(-0.001032811789717461 0.0001838574158804421 -0.0003269527743646056)
(0.0001844320421610283 -3.304183705515674e-05 7.816859791898127e-06)
(-1.092168841738566e-06 6.838540011972768e-06 -7.389311994012531e-06)
(6.787764972568805e-06 2.654367997001876e-06 1.120342497699629e-05)
(0.000107395271049692 0.0002566961937090691 -1.833063928046034e-05)
(1.594073711963438e-05 -1.20609833479751e-05 -1.379409701865298e-05)
(7.037151683593675e-06 -5.65414654080836e-06 2.130813789916093e-05)
(-1.241011616820362e-05 2.961518815111913e-05 -5.156241051870633e-05)
(-4.583685611813589e-06 3.209982376589956e-05 1.978291828551027e-05)
(-6.113948900645903e-06 2.63145084688318e-06 -5.788093638755832e-06)
(-1.039842955804981e-05 -1.346780032354862e-05 -1.125861393491444e-05)
(-5.588248899813884e-06 -1.368188039996641e-06 4.567885723206831e-06)
(6.349920948025208e-06 -3.164491849677392e-06 -2.514277504069532e-06)
(-2.642754825470727e-06 -6.61624740550954e-07 -7.120629600927287e-07)
(3.031979420781835e-06 8.240234968599384e-05 -2.527586700744242e-05)
(2.818747002818224e-05 -7.860947518995784e-06 -2.87616929416131e-05)
(-0.0002289704889207221 0.0005702855342712471 -0.0001639662983662404)
(0.0001304743553064051 -0.000106619806533481 -3.913420398734121e-05)
(-3.728645362519513e-06 -7.30679870070433e-08 2.461189890400498e-06)
(2.237277981959954e-05 -3.679278756605896e-05 4.91033519392554e-05)
(5.41669999412247e-08 -3.516211549213257e-06 -1.71935660559798e-06)
(-2.543813068295461e-05 -0.0001621401444856932 -6.135927703536917e-06)
(-2.961807490336804e-05 1.849231233048351e-05 2.973486532511667e-05)
(5.45515614433175e-05 6.618214712985408e-07 -2.227322487331871e-05)
(6.157146206448071 3.61314336179241 -0.9780009681658062)
(0.0002056625154008416 0.0005717145684229123 7.156266399823985e-06)
(0.0002222223533498218 -8.829986738582139e-05 -0.0002816329379809232)
(-0.0007443323383916678 0.000448205032403132 -4.611896214675277e-05)
(0.0003030163072846296 -5.47416763528513e-05 -2.4811636589892e-05)
(-3.140575953874768e-05 0.0001813359923241301 0.0003779503916210231)
(-4.799902805442228e-05 3.667225250653815e-06 -2.879511439043398e-05)
(-2.735434784060358e-07 -5.607743990556865e-05 -7.507435965484386e-05)
(-1.347927456478212e-07 -7.888620343823794e-07 9.705337310227868e-07)
(1.33076067218739e-05 -6.885892995359354e-06 5.144094078943696e-06)
(-9.11423073397093e-06 -4.617520313577553e-06 3.158525755098783e-06)
(1.298333354167102e-05 9.501518782826008e-06 2.420096174614831e-06)
(-5.674063086877712e-06 -1.82119724765489e-05 -2.209758775691618e-05)
(-1.988203172892605e-06 0.0005228009756062595 -0.0008265985937822099)
(2.238996828441354e-05 -4.010610745460011e-06 -7.765145920810182e-06)
(5.591674266585551e-06 7.246494112730872e-06 8.292054933450182e-06)
(-0.02301853296647625 0.008790858336346737 0.004654524005078174)
(4.894121835935527e-06 -1.197185089067593e-05 1.742954774131453e-06)
(4.842217566711441e-07 6.381383724343604e-06 1.389188336708675e-05)
(5.36297452870879e-06 2.77833298833441e-06 4.97669967622052e-07)
(-3.502684845865574 -1.534667390467503 -1.466270833900234)
(0.0002317657798771371 0.0001481255718024601 0.0002640508053497861)
(4.31490368627507e-05 -7.177864955685251e-06 -2.757818929269245e-05)
(6.379327168045442e-06 -6.795648751911591e-06 2.909305747276885e-06)
(-8.196429726070323e-07 -3.199285322299276e-06 2.344897781845482e-06)
(-1.131521088043468e-06 1.364492833680981e-05 -7.816901470371481e-07)
(-4.675829166179502 -65.89055940178079 -1.893827086739491)
(-0.8426466095344848 -62.55807008483104 -1.968317213259752)
(0.04882557814717779 0.04399630531044528 -0.001850089661517063)
(0.001584718057600625 0.0005915546515004436 -0.0008010470610379705)
(0.6327750786571309 -3.399504597236171 -3.363692607547953)
(-0.08382324382450124 1.385930271964914 -13.2747496480218)
(1.90274898296533 -60.55453000003253 -4.793131185638096)
(1.878900059197229e-06 1.157955557167546e-06 -7.119834002163344e-07)
(8.759862374702166 -6.938199480040954 -3.227676665136787)
(-0.5404943035924603 -10.94916202687675 -78.23004237510756)
(-1.04910651911092e-05 -3.614008295363733e-06 -2.074030397471943e-05)
(-2.050496560602644e-05 2.692978688030261e-06 -1.557753249865552e-05)
(6.653029213935473e-05 0.0004737332555988443 0.005545203050103926)
(-4.116754017773422 -7.995768719895592 -58.69094000964064)
(-4.511394531079477e-06 1.295924618160323e-05 6.868157021168417e-06)
(0.0001698772708655286 0.0001778588212711216 -0.0005800898650945158)
(-2.64564454853798e-06 -1.250713252568001e-06 -4.020673247975499e-06)
(5.750270071304426 -7.160053243715693 -13.19673319617998)
(-6.379169957693108 3.885837575193686 -4.414068656668271)
(5.566454823636413e-06 5.868629130531346e-05 -0.0001402508561981926)
(-8.045949759688282e-05 -2.902069434231288e-05 8.303341550926575e-05)
(6.656947757673379e-06 -4.410260520062547e-06 -6.304356406139372e-06)
(-5.91367862856547e-06 -4.266960273774813e-06 8.289118517485529e-06)
(-0.0006118838141832869 0.0005207656551730452 -0.0005774961990961188)
(-5.778711634153398e-05 2.279318182110321e-05 1.417222213788346e-06)
(-0.0001116433829444964 -2.51169208619503e-05 3.189826554330062e-05)
(-3.478986423635455e-05 1.028816433513607e-05 1.604914166390579e-05)
(2.833769703771345 12.07231352772494 -5.76658151680847)
(4.760348150141158e-07 0.0002325374325986935 0.0001765072767278294)
(2.629028683439467 1.835590092007338 -66.27831055394982)
(2.033559941254352e-05 0.0001196087879418437 5.890876626512477e-05)
(-0.9772789746745161 71.44571317878136 3.054617029468448)
(-1.181367643910932 81.61715995843471 -9.555640878129566)
(-0.0005069840440578812 4.382786789828832e-05 -0.0001373681865375802)
(1.509939244006861 -1.532702229748043 1.851690120865054)
(0.0001488670194098699 -0.0002031551030985706 -0.0003024240231695076)
(-1.487790682390644e-05 0.000492273595340023 -2.119541848766519e-05)
(0.0005312690912419619 0.0005584175258737112 -0.0008172494342612085)
(-1.722546113760983e-05 -0.0006608809447310081 0.001101056878441589)
(-0.6652629984666227 55.36835102693363 1.081540378160387)
(-0.000194325648355004 0.0002066701050396054 9.774424002504815e-05)
(-1.78390174687608e-06 6.669072932889789e-06 2.557268459897976e-06)
(0.0004151572908700316 9.160650760316763e-05 -2.915300727040207e-05)
(4.490036212300844 -7.853476752100784 -0.3199146984199585)
(-2.507150835164296e-06 5.565496792268731e-07 2.579923130003075e-05)
(-3.236530758096372e-06 -4.1319949024012e-06 -7.205175016753575e-07)
(4.159544861781745e-06 7.489759448058481e-06 1.254280363870257e-05)
(-2.853160799529626e-05 1.123071232436695e-05 1.253577772383123e-05)
(6.926809123715217e-05 -1.846287374653842e-05 -1.63199301110345e-05)
(-0.0001567211157576644 -4.191072051783895e-05 9.13858791217766e-06)
(-0.01338525574644217 0.009372938281383443 -0.001712645377147064)
(-9.919294600789809e-07 1.456446201600385e-06 1.188906291813357e-06)
(-0.0006266106930699102 -0.006386574627436018 -0.008422062451693529)
(2.812195079813701e-05 -7.886427690583268e-05 6.812048962637658e-05)
(0.0001133325913064152 -2.118776090000751e-05 -0.0002986723865311353)
(-4.253156552810166e-06 -0.000414913739607735 0.001398561402071079)
(-7.861551156990215e-06 -3.860268414373949e-05 -1.571713388354698e-05)
(-0.006404269577916538 0.003332499122964057 0.01987957366393925)
(-9.393829534068686e-07 1.686895390236691e-05 1.131205380911222e-06)
(0.0001820487590576314 0.0003559396507759588 -0.00091070899736988)
(-0.002823769919263691 0.002039206909760038 -0.0005652963967715731)
(-1.837234672788688e-05 7.335778275699637e-05 -7.222090129608888e-06)
(4.005376291763701e-05 -0.001348610627787798 0.0005271336489800246)
(-2.343544569295857e-05 -3.355153265740216e-05 -5.098811270786234e-05)
(-3.875286574221915e-06 2.110703181452836e-05 -1.617990381740987e-05)
(0.0002825541464062929 -7.95889561275941e-05 0.0006514734917356583)
(0.7319556819534916 35.27788071705855 -0.09564659215028248)
(6.211252748001948e-06 2.842148476461127e-06 1.040028360159401e-05)
(-1.305959358214978e-06 -1.809044094662927e-06 -9.876538720751533e-07)
(4.352333956442763e-05 -9.148822089309643e-05 3.234532795047741e-05)
(-0.05227625741431139 -0.02963326894709342 -0.01437517718297507)
(5.060285491526426e-06 2.88262200383774e-05 -5.056462752281433e-05)
(4.666898700526233e-05 1.474518395122149e-05 -2.132211724080049e-05)
(-5.368983982181323e-06 4.128789107114783e-07 1.400575492473127e-06)
(-0.01025303505076852 0.01041143914955084 0.01481953370583508)
(2.557415397714893e-05 -6.805318642023723e-06 1.894831076322562e-05)
(-3.091035893299023e-06 6.743047447035427e-06 8.398918684583718e-07)
(5.692520875930311e-05 -9.134948569527059e-06 1.679194611354243e-05)
(-0.01684831013706617 -0.006946961734512378 -0.02029851428374075)
(-2.558297395021422e-05 -2.854758783498045e-05 6.516194567448773e-06)
(1.322695467926311e-05 -1.099876051539933e-06 1.797279900258017e-05)
(2.046300997344233e-05 2.620603748459199e-05 2.681406240850435e-05)
(3.875093545144357e-06 2.450986735347557e-05 6.2294593347502e-05)
(-3.840304352691916e-07 7.809961686347731e-06 -8.106631154744018e-09)
(-2.145681444807665e-05 8.20364097683811e-06 -5.728571614275875e-06)
(1.651878867637794e-05 -2.636356072893593e-05 -6.974900814844204e-06)
(2.30427998493242e-05 3.297484370959048e-05 -2.14317923053416e-05)
(-2.222095707359791e-05 -7.678874027541951e-06 3.523606271804345e-05)
(2.60051733456258e-06 8.276114911939149e-06 -1.948770090731204e-06)
(6.495014126296835e-06 -1.389178285978901e-06 8.79222455687693e-06)
(3.061363017188379e-05 -1.093187630337186e-05 -6.866362799706379e-05)
(-0.0001328060289999229 9.730379717212767e-05 0.0001384220303438542)
(0.0001849730031419104 0.0004665889841885429 -0.0007097788648290093)
(-0.0001647957509869296 2.093153577664333e-05 -8.619038223279805e-05)
(0.00053738669527927 -0.0001628987370999607 0.0007735796320201959)
(7.566888096310124e-05 1.634386456932442e-05 9.194124105464569e-05)
(-2.279800776949088e-05 -5.779772008348313e-06 9.497890730782961e-06)
(0.0003530138459357301 -0.000280929212592085 2.022340550331252e-05)
(-5.687223244205906e-05 -0.004787592006242573 0.001793428596183856)
(-3.702439155274609e-05 3.584047207253229e-05 7.069718503457109e-06)
(0.02769305561995959 -0.006445091072771098 0.01326721151795089)
(2.12964039404958e-05 -2.20103349588397e-05 1.04153926311091e-05)
(-0.02268222430519214 0.0114701952652102 -0.0008565230551108236)
(4.431938889712994e-06 -6.933943754360888e-05 -1.171145855158501e-05)
(-0.0001472339427144515 7.539223353246444e-05 6.239269646356459e-06)
(8.756445539021542e-05 -3.315429107670729e-05 4.054314236536138e-05)
(7.752099389422063e-06 1.266192590773538e-05 3.584179166605759e-05)
(0.005773058026578987 0.006444954999968222 0.009718542153281846)
(-6.100078492953977e-07 -1.7844939788598e-05 -3.422294732996995e-05)
(6.678479312137141e-05 -8.839783928823297e-06 -2.749219398527263e-05)
(-4.574864202434406e-05 3.979187853924024e-05 -6.31510991897247e-06)
(-6.482801966622627e-06 2.465250377037605e-05 7.964476342059296e-06)
(-1.785673960888908e-05 -1.230342513123298e-05 3.139297059230494e-06)
(-0.0002384440223858702 0.0001356039296857907 -0.0002303725882121334)
(-1.04245503956881e-05 2.837160797670034e-06 1.922944841497536e-05)
(-3.376722420100432e-05 5.88526152960034e-06 -2.388759010715028e-06)
(3.795820248312247e-06 -3.480084194141958e-06 -8.570699694835048e-06)
(2.146114279858524e-05 1.520263161310624e-05 -2.075924918480015e-06)
(5.897021505025365e-06 -4.603588562019225e-06 -1.268472297751307e-05)
(0.03517772615479167 0.03421119818144596 -0.0332029973966142)
(3.684589632972822e-06 -1.438912441707184e-05 1.749078288778259e-06)