/*--------------------------------*- C++ -*----------------------------------*\
| =========                 |                                                 |
| \\      /  F ield         | OpenFOAM: The Open Source CFD Toolbox           |
|  \\    /   O peration     | Version:  v1906                                 |
|   \\  /    A nd           | Web:      www.OpenFOAM.com                      |
|    \\/     M anipulation  |                                                 |
\*---------------------------------------------------------------------------*/
FoamFile
{
    version     2.0;
    format      ascii;
    class       surfaceScalarField;
    location    "0.1";
    object      phi;
}
// * * * * * * * * * * * * * * * * * * * * * * * * * * * * * * * * * * * * * //

dimensions      [0 3 -1 0 0 0 0];
oriented        oriented;


internalField   nonuniform List<scalar> 
16104
(
0.005361357744100391
-0.003639732646528885
0.002131103524750608
-0.003852728622358115
-0.003414000743619127
0.001999674231630006
0.001414421537606407
-9.502563893051298e-08
0.3657799259504396
-0.06928115200895159
-0.3993374600308175
0.1028386860892565
-178.8716727679303
178.871630560482
-0.0002684884758933743
0.00128168401493945
-5.414832699455941e-09
-0.001013190124247975
-0.003266092593676072
0.001550454043544079
5.457495216521956e-05
0.001661063597944885
0.002192921726165527
-0.002187188969263926
-0.003419733500540578
0.001163723325850575
-0.00268977203419469
-2.478340287325599e-09
0.001526051186664981
0.09989575486479162
-0.08815035189479888
0.001146770277051164
0.003983540476378525
-0.003712574125728964
-0.00141773662773636
0.001135285292166944
-0.002451316609562507
0.002479754643226176
-0.0009389651705772643
0.001567438379538571
-0.002476900516867284
0.001848427307877584
-0.7229552640212498
1.558352871258105
-3.905391398703632
3.069993791466847
0.001481120343008223
0.0006044618317311852
0.004136270455850475
-0.006221852630623644
-180.5910193943052
-303.4030587042711
374.7283745007831
-0.000154955427975813
0.0002121058943514235
0.001035674090028453
-0.001092824556439805
-0.1683551771337727
-0.007139911450680372
0.12253082875818
0.05296425982611249
-1.268257016664991
1.555790580159097
4.399552165960114
-4.687085729454283
0.004285101478308777
0.00931069596418369
0.002912431938857406
-0.01650822938139627
-8.814799118118148e-05
0.003646737131766913
0.001802768603494494
123.1627698253088
57.30383623413794
-135.0007563993913
-45.46584966005535
-0.001457316314293187
0.003373237033348795
-0.003398184160461827
0.001482263441374558
0.02663866384534653
-0.1843840574913611
0.0811008405868052
0.07664455305902751
-15.16255110800869
-6.877991081630071
21.49083289464712
0.002960048235057711
-0.003214375796110572
0.002474365278953831
-0.0009768549418484546
0.0008192556961492117
-0.002316766033287453
-0.1869524654364388
-0.0335086886903813
0.1618714841851007
0.05858966994153925
0.002860496750661945
-0.002078129066071423
-0.0007827711352206349
4.034505834845264e-07
-139.3832095930161
71.98376075349358
91.93611320690749
-24.53666436738476
0.002973777929755218
0.01130880460029912
-0.01295214610897783
-0.001330436421125655
-0.5650366248199007
0.07375565629487961
-0.1657433785156794
0.657024347040527
-0.001083386743011407
-0.000491477930951977
-0.0005646540976230897
0.00213951877155142
-0.001187515136920852
0.00170046312173972
0.001050467014739528
-0.00156341499959318
-63.92937377055954
-54.81209695204826
40.07020685629816
78.67126386630966
-8.363651480567229e-05
0.001102647456568924
-0.00266686995381377
-0.3364545433371135
-0.3763583419949697
0.3846858915896822
0.3281269937421275
-0.0003727178840536864
0.0009397565368783099
-0.0005098718168107682
-5.716683603322733e-05
-80.06608146216804
-17.88205976143848
45.53604553309722
-0.0006362211332964006
-0.001599345663661593
0.0006532026579455828
0.001582364138984268
0.004131118740442759
-0.002299477263121003
-0.0003918117141063492
0.002052736226142493
-0.0005969419174456672
-0.00196277571780338
0.0005069814090634754
0.002131316816736758
0.001634496818001807
-0.004704778805347954
0.316782016491526
-0.0840182185106319
0.1048107953278978
-0.3375745933087999
-0.01157761806937262
-0.009235045459827096
-0.1814559552839727
0.2022686188131476
0.002345157932052407
-3.604378944948935e-06
-0.003985951882832335
0.001644398329699433
0.00243792121833266
0.0006768584711623882
-0.0006404144105838023
0.001469150851901267
-0.002559895764079747
-0.0005816093851279348
0.001672354297286409
0.0003809553593121608
-0.002177897101101756
0.003255018562480661
-0.00242234705580271
0.0005228125621766425
-0.001355484068894052
5.812112945463558e-05
0.0009719768421552763
-0.002496663236560792
0.001466565264925842
-0.002728713289713987
0.00286640894860799
-0.00426082941411811
0.004123133755199325
0.004166440764539689
-0.003313568310623933
0.001492285478112275
-0.2799045428110467
-0.4650698883953771
0.7049861546720477
0.03998827653416986
0.1889995268594405
-23.5255522266199
24.4438151191282
-1.107262419367767
0.003095845722876649
-0.0005874728576962012
0.001658067899345019
-0.00234349847169445
0.01213031515564386
0.008992499476626252
-0.01877931616064206
-0.3054187361356313
-0.06079749368072596
0.2948386482789034
0.001180537021307965
-0.002809877423857011
0.001687461531984314
-0.2142644093602048
0.0686830986551602
0.12439834809625
0.6377891850175255
-1.159388518932747
-2.046439668490664
2.568039002405334
0.1515360400459146
-0.1278857820556316
-0.2005480081455384
0.1768977501549862
0.005041369647001332
-0.003894830371768313
2.310017935351997e-07
-0.2499927077409896
0.4204056266548821
-0.1883079158499504
0.02982966740553054
0.1120811405017091
-0.01795020500632128
-0.1239606029010284
0.2416035126250573
-0.076815775575145
-0.1346622529027905
-0.03012548414729613
0.003204404055829579
0.004401394089751922
-0.004514565577610147
-0.003091232568001429
0.1505080463987766
0.1469848164099965
-0.04526896845402301
-0.2522238943547898
-60.72281107439024
-11.83117750924253
150.8885441094077
-78.33455552577479
-0.003167880300109364
5.379077034916796e-05
0.004539514162751015
-0.001425424633015788
-27.94709454928055
182.2235104892432
32.02032354432736
-186.29673948429
9.204406968512918
0.1066972232034654
-7.241909419838355
-2.069194771877617
0.0001500521935662383
-0.004542114445487924
0.001663348962184778
0.03114648184355301
-0.348242832827438
0.09111435978538299
0.2259819911981104
0.4245265180134556
0.2641790869012616
-0.07515657447935638
-0.6135490304353647
-0.001126706870273686
0.00166265682905668
0.0005205847968985521
0.001462608496286435
1.018982335265002
-5.993312830829367
3.02080600234583
1.953524493218435
0.2832479241782484
0.07177173345069683
-0.03823764113741833
0.7186264459034852
-0.8627889175283449
-0.6030072499032797
0.7471697215278128
0.0008760654087362508
-0.0009646672900050945
0.001179888650577805
-0.001091286769347864
-0.2028339316114989
0.2491324751013692
-0.04379921233160051
-0.002499331158497285
0.351675716402843
-0.1456940241648437
-0.2060858436067205
0.000104151368545138
0.1524265201506312
-0.003212489617743759
-0.005607723435553815
-0.1436063070974984
-9.874605470673746
-17.14254975891325
35.32034488462499
-8.303189655038301
0.0004888997780441898
0.000148760523535963
-0.001825175438539536
-0.1075847482106126
-0.006686318469830573
-0.007223013416522444
0.1214940800967596
-169.4312115236846
169.4310909529229
-0.003630615331250056
-0.004519968407470817
0.002360551264525251
0.005790032474166299
0.02080640237275092
-1.121863778772713
1.010752556001469
0.09030482039846155
-0.00148830657181292
-0.002691789927362128
0.001489315585814148
0.002690780913342817
-0.001222086721218805
-0.0008814833002410791
0.001730852137388117
0.01005600854544236
0.02206699935107297
-0.04865005723230659
0.01652704933563325
-0.001165741473808359
-0.002981702728970822
0.001222540533357822
0.002924903669386608
-25.68865544960359
27.74497107276689
-7.106109239617298
-30.6970912980911
-131.1916691751833
7.305175344382609
4.953305896400511
-3.517259114998738
-8.741222125784407
-7.95884706238352e-07
0.07560635580304916
-0.113092170685497
0.03748661076713709
1.653177550621014e-06
-0.02392590295978147
-0.05757939814228338
0.4898633041806411
-0.3310666779863677
-0.07688339925557167
-0.08191322693899192
9.41798653571162
13.39462561667024
-9.64460677092182
-13.16800538145975
0.1424043674865548
-0.03298437885529101
-0.01880616479763545
-0.09061382383365907
0.0008955223928532074
0.001458762310643683
0.01165451679274451
-0.14378231504702
0.08208732152902422
0.05004047672510323
-0.002185360900479542
0.0006768203519440928
0.005374642095569676
-0.003866101547070986
-0.07586681447136821
0.01305203462075512
-0.1660475812275365
0.2288623610780989
0.01339431378071079
-0.06019724324850311
0.09583881671396412
-0.04903588724618337
-0.1639996747413408
0.05207910490179183
0.183923101720232
-0.07200253188072385
-0.0199494893861217
0.03612630405475533
0.02029610832676422
-0.03647292299552481
-0.004820925540349647
0.009079822563735141
9.162165280876087e-05
-0.004350518676228246
-0.003404297266187269
-0.004458533182759693
0.003322958126764239
0.004539872322155344
-224.5087268580267
-0.08739621533707673
-0.1524702738756665
0.00456947243779111
-0.003136539398055034
-0.004600813339868795
0.0008236900724574025
-0.002389790328638521
0.0009628478574450745
0.001426972455676994
-2.998451239880789e-08
2.917072973010928
-2.1045779985112
3.598517795013901
-4.411012769514067
0.00540910237660193
-0.172135433412759
1.341597919051035
-1.174871588015019
-0.02947357742135174
0.01220773262756755
0.005692856181499551
0.01157298861222492
0.001636813088932286
2.592918666420891e-07
-0.06521830893447408
0.002653253470838861
0.0365527762492238
0.02601227921427637
0.004589382990014912
-0.003594244765991399
0.0002987877915650339
-0.001293926015622894
-0.001401761909217453
0.005123776350493297
-0.005445635790734652
0.001723621349421493
5.490008859159413e-05
0.001303838814229393
-0.003031541849080153
0.001672802946234764
8.517730770724766
94.63446258004065
-4.5276242470263
-98.62456910373891
-0.03619116638838107
0.00432827411101912
0.01338630206875468
0.001233693721591063
-0.002700385855825153
-0.001223079899972418
-0.00510113133495946
0.001268558593043792
0.01157529399010496
-0.007742721248225341
-0.005699368977784849
0.01047330860900942
-0.008680712318675482
0.003906772687371095
0.00424945435582467
0.002947227450084998
-0.002958815397352366
-0.004237866408583647
0.334129103516866
-0.1336550339867913
0.2481084023095293
-0.4485824718397633
0.001211447613886037
-0.002717333944037518
0.001505918270906085
-3.194077939627094e-08
-4.864471875638919
2.358456437518718
-15.18735238788363
17.69336782600333
-2.475412240907663
-21.8556352206688
2.327660199671715
22.0033872619049
0.0631641037548564
-0.01074752728542688
-0.09703703769674378
0.04462046122718645
220.2676720443002
-196.8747336014741
-3.484854421425527
-19.90808402140014
-212.9379357088714
-135.0824320259054
158.3787201128907
189.6416476218861
-0.002220204525667881
0.001878004776454846
0.0001872443211423991
1.096951288509259
-0.502780959019576
-0.9915764854091409
0.3974061559195521
0.002308824594324144
-0.001173525920486107
-1.338168500553372e-08
0.001149916817563862
-0.001624909523962277
-0.001785300761362861
-0.001189549411060336
0.002974903787887149
-5.361549232236494e-08
0.002925630143697699
-0.004980059426312465
0.001466956424894879
0.1447351609667744
-0.5725722449471117
-0.1908601715399867
0.6186972555199579
-0.8861997816681857
-19.06329241008554
20.13849171861312
0.1582103376284781
-0.5925980979436943
0.6000113607185603
-0.16562360040332
0.003646861587050957
-0.00362464403255515
0.001458902788494125
1.098298220093143
-0.1373859309569612
-0.9555031867596376
1.269155819302975
-0.01572892827638166
-1.095216553397957
0.002180626980164696
-2.553940094011025e-07
0.001466490000868275
0.002481480179773318
-0.001255480127082377
-4.211218828867185e-08
-0.001225957940534087
-174.0402249840589
48.38038835230179
125.6597322998857
0.001063666693287817
-0.004908975294963633
-1.821215144292277e-05
0.003213847184615767
0.001713340261762655
0.00419050400803072
0.0001115281155112006
-0.001435623174953412
-24.29025916890972
208.3166428460011
35.17637484718779
-219.2027585242791
0.003534260831402953
0.002395098737669376
-0.003599851890121959
-0.002329507678979642
143.8211140827311
-83.51888655347334
-199.6854371222738
0.00031015559425832
0.001352405278273624
-0.0003696770222388552
-0.001292883850313524
0.0836841029398326
0.1331856319811634
-0.1141625018581081
0.09583275417597797
0.2738287859403697
-1.107105486745883
0.737443946628825
0.9868281898585715
0.5300057587884943
-0.2476781293439531
-0.03729658784820675
0.04312844753115815
-0.03217938345857461
0.02634752377552022
-0.0001817847035025595
0.002057494908564602
-0.0015655546108194
0.001673078942294741
-0.003083386558993121
0.001410568566628362
-2.609499620571238e-07
-1.006931927903198
0.6631455472504375
1.157982911263396
-0.8141965306110143
-0.121322488398285
-0.02817525886301986
0.1744999013357166
-0.02500215407458206
0.005178711737429177
-0.007071096173990692
-0.003914990512043051
0.005807374948571802
0.002536135620848415
9.613716014287604e-05
-0.00409500821840674
0.001462735437386111
-0.001951258392375385
-3.066979004280589e-07
-150.6794234852806
62.47160648900845
121.0888078964186
-32.88099090014645
-73.97013979818078
220.002503351664
69.38905477625528
-0.001458466954564886
-0.003078304404382631
0.001453384799926479
17.5162782150382
-220.1720150733945
-12.40725449917888
215.0629913575352
0.003346684726080635
-0.003453515323408228
-0.004802144697659219
0.0004373340506767829
-0.004081161905730307
0.005575830582488429
-0.007286998197851668
0.1321863041603171
-0.1304751365450617
0.0020100544269
0.001524343688629782
-1.372841551528553e-07
0.009049716677525799
-0.0006019058989723758
0.005480193183369632
-0.01392800396195393
1.978925738134973
-4.116060812274885
17.79399755265419
-15.65686247851455
130.4205076482541
-117.3935542166113
132.010127508745
-145.0370809403878
0.002571658957026907
1.725658501900278e-05
-0.004382976623672684
0.001794061081600835
0.0004839146049813237
-0.001096164151709953
0.001964654824992902
0.001868281342780165
-0.002328434185193596
9.047582010182285e-05
0.1083409230586474
-0.04814620328922629
0.2230532044088452
0.2254332786364406
-0.1196378540882056
0.777211827403658
-0.8830072519518093
-0.1287702997064502
-0.05115626378116805
0.1579990301297595
0.02192753335782691
0.002539345584371773
-0.002798284669335189
0.003557673786057513
-0.003298734701125437
1.547381430953944
-0.3458765561857883
-1.271440896664124
0.0699360218958589
-0.001772460980417582
-0.001465603710260066
0.001452763929290107
9.414401983954182
-267.3357065128502
275.4375827439345
0.0001182020734749106
0.003523790967456373
32.88465546673465
-61.45994916597437
-1.387376735308726
29.96267043454883
0.003393586988059146
-0.005201289029386979
0.001719554050110195
-0.005182688414306009
0.001509268859939457
0.0008751348849965626
-0.00316404554153705
0.001143342876284878
-0.003161985749083004
-0.1033307379443486
0.08741731297952866
0.09909217452392963
-0.08317874955922545
0.5576561954578054
-1.081852588571461
-0.4367472916647952
-0.0001764649243628937
-0.0001818575669130916
0.002058785612979896
-0.003073889389273933
0.001484300451405566
-9.613844115446938e-05
0.001685727379002299
0.001936889307556517
5.58739777160124e-05
-0.0009992163301238161
-0.0009935469551607943
-62.92934613828657
-3.178675129084076
138.0917820208643
0.001559177051196777
0.01177008482793794
-0.01652597187398449
0.003196709994785451
0.5343437856923617
0.3451010600285042
-0.8964962753652234
0.01705142964418292
-0.001767397693378544
-0.0003147139277797756
0.001905646696780039
0.4300646893265655
-0.2502466720729389
-0.04994442943949513
-0.1298735878143291
0.009700892300361953
-0.08455709861480934
0.06823515547005911
0.006621050844309339
0.001309681418740747
-0.001279433091319895
-0.003111144934712901
0.001587709588972827
-6.819606715786414
0.442686952747394
-17.98196102816093
24.35888079119956
0.007117771661421004
-0.01565478569506182
0.001557378917604478
0.006979635115929749
-0.08857145862262571
0.03755014528319388
0.08145092332419697
-0.03042960998487234
-0.00204582398882003
0.003906613331076053
-0.001861084938992281
2.955967014035574e-07
-0.1269641066982159
0.03486715346674223
0.3529517420941432
-0.2608547888626729
-0.02146228558019064
0.1302284345140147
0.2352497005374088
-0.3440158494713053
0.09725492935648249
0.1324653083803369
-0.1556473675901006
-0.08667541810156847
-0.0899885258573922
0.02806114010231891
0.1486028038565245
-0.00526753112768183
0.005743334334622008
-0.00252162719578147
0.4367188916621462
-0.2769893765853187
0.9372217734324496
-0.001044052372357325
0.003480472642583898
-0.002318218196776099
-2.063419957375778
0.6377318014691107
1.268987299884329
0.1567008560228148
0.1305938548337292
-0.1377426098039917
5.234980764781842
0.3207053983984439
0.8720180579936315
-6.427704221173967
4.59844338609686
-1.653521143147638
2.551606491781145
-5.496528734730402
0.001699562373023762
0.004507463566396531
-0.004075709122704069
-0.001633320530297905
0.001645103489576229
0.1099941169738411
-0.06072969734897129
-0.6174188868450465
0.56815446722008
-0.2432885760705027
-4.829350024824212
-0.4549093440041388
5.527547944898558
143.0811475524584
-270.6565232891864
-85.36255997214323
0.001604125677944264
-0.003287253221305218
0.00153312475666463
-0.003513402663065306
0.004521602958035048
-0.00448349613510227
0.002958384481574706
-0.002996491304540304
0.001032884026546065
-0.001938675920175477
0.00284543675518289
-0.001939644861577594
-2.577393970066803
-122.4143003745033
133.509425115295
-26.21876790441428
1.197619030470043
9.924689093491001
15.09645978045298
0.002525470949660805
0.004243998725887045
-0.004197810718545315
0.1701881146579752
-0.8533265842670986
0.1907089617304681
0.4924295078787262
0.001665982554599586
0.0002538644732164871
-0.00258109198348816
0.0006612449556348855
0.0001112135284042998
0.002540695749757132
-0.001367673605420343
-0.001284235672768167
-0.01134573434357219
-0.01347386741062977
-9.823991365067474e-05
0.02491784166775016
0.0044829104983351
0.0001274665748700625
-0.001405973017398532
0.132302741717762
-0.07744000243015688
-0.1361380030479854
0.08127526376025208
0.002793970111574557
-3.772959266432267e-05
0.001493213836899353
-0.009957406698254826
-0.002353924912001895
0.007262187492318647
0.005049144117879135
0.3744970382470894
-0.4978247126891271
0.1390659648136395
-0.01573829037169545
7.142035352160814e-07
-0.01229061635720414
-0.01901529843869037
0.03130520059229282
0.001205589059113919
-0.001351266564418015
0.001811660059895046
-0.009075515128776244
-9.118688184970638e-05
0.01434541374802189
0.01268196718921751
0.01297755689011869
-0.01838126986284318
-0.007278254216556258
-0.02632037983709103
0.04856569817584882
-0.04224529368589112
0.01999997534709946
0.0008999244768499412
0.0002937812844068419
-0.0003176403525255287
0.002799165837155879
-0.003852844305067992
0.003589814088742908
-1.123031844719543
0.4881032455969617
0.3378712372419029
0.2970573618803964
-0.02058513455203469
-0.002128567308653282
0.002895595751657216
0.0198181061088772
0.004456663316472147
-0.06310083589967513
0.06607942725611336
-0.007435254673031567
246.3374007114116
-211.4138904625181
-18.31290187030885
-16.61060837858448
0.1474829511350622
3.021208377115587
10.24819394596928
-13.41688527422043
-209.9374767213055
10.26381765138825
331.2584885594013
-131.5848294894839
0.002066226753028979
0.0008172118678207423
-0.0009465493133014785
-3.332756095032936
-1.238230835584923
4.755481686116493
-0.0822558920442657
0.09564527873123117
0.03956507200666157
-0.05295445869381936
0.0007140025640244411
0.001606088662212717
0.00286896881688585
0.001626024751760978
-0.008415972391398545
0.0009793554907771974
0.006034854991369624
0.09599651946614948
-1.120349371767527
0.4489811724242176
0.5753716798770231
-0.5117808170812888
0.5393239396372647
-0.05218750037420862
0.02464437781776095
1.285120978529962
-0.1392825153341213
-0.9118267035513079
-0.234011759644483
10.19947235794659
-64.40057814436356
57.6462662641828
-3.445160477765486
-0.001217825198449819
0.004484825950995992
-0.001697305548860568
-0.1835457880681887
0.02902329200945768
0.0004232998888728289
0.1540991961698492
-0.0008341703021910952
0.002218009383997179
108.795179737034
93.43034653042906
-60.84745684068555
-141.378069426777
0.05128135623184947
0.03348670448234348
-0.09737179270251051
0.01260373198816192
-0.0003942368833573457
0.001967601447942415
-0.0003742146897254812
-0.001199149874895338
-8.296057486179852e-09
0.001416523388895554
-1.993485487331305
3.191613547849976
-0.5603388755014246
-3.055646368663473
1.26976627774506
-8.224957294786766
0.005404759785921934
0.002109092102507935
-0.003006388322062588
11.66357540026419
-98.82234693665878
333.4961722478063
-0.3486281644211711
0.2651335231497947
0.01616638682792343
0.06732825444314933
0.06401823972991748
-0.03511838269713556
0.1188652456828634
-0.1477651027158073
0.123265861535793
-0.2147530918571225
-0.5895162874129547
0.6810035177341631
21.10705481113003
-139.872075923734
179.4033769887688
-60.63835587616479
-0.000867351105747643
0.003328522351286272
-0.1176462683981195
0.0200454498775757
-0.02372166987786132
0.001398859104658443
0.003505225026905824
-0.001978453987895693
1.800490651101037
-2.803025690118369
6.257969696072447
-5.255434657055113
-0.03424163457003055
0.02441573150821267
0.007578208625438658
0.003206119349337025
-0.001182998169069237
-0.002023132506683967
1.13263862991928e-08
-3.741116374530556
3.457696714570861
-0.4134310758085844
0.6968507357678226
-0.002458552225797714
0.002490968662971761
0.00415808757083481
6.37271507257534
0.1492463283532254
1.762356243190106
-8.284317644118955
13.49132425239357
-1.454979192240836
-3.409407210664697
-8.626937849487996
216.6429862042867
-82.17565153507934
84.65621504464507
-0.8475746660902461
-5.022693678566601
0.1145348344058522
-1.048111057286309
0.7912055759832546
0.1423706468972908
0.0006601902503181018
-79.15244776945991
260.4734617450981
54.48763277153873
-235.8086467471769
-25.01040134289642
-18.98563760134668
43.47080690577957
0.5252320384637693
-0.9565918885936727
-1.29575086784425
0.001745628238947851
2.099128108730468e-08
0.001460470119089149
0.001711873727946735
-0.0007640034527788147
-1.240470892765135e-08
-0.001456188668197439
-0.001483587882106155
0.002258550715534243
6.227547995350261e-05
-0.002333198516019315
0.0006044693363931046
0.001666453699648477
-0.2385035917338076
0.02628276865174317
0.1982869255819253
0.01393389750004683
0.9507347582408322
-0.2324306032226504
-0.2759037614597978
-0.442400393558639
0.1324323681123827
-0.1000204115515614
0.239966200421045
-0.272378156982105
0.002982629190211879
-0.001508047838514105
-8.40452170281182e-05
-0.001390536134690399
-0.001967978710503057
0.002014149590869067
0.0009166769770559213
0.002845200480654877
-0.001347982540635405
-0.0013860044116377
0.0004013227400766194
-0.002648681174419456
0.0008037252787054497
0.00144363315560255
1.152662665663341
-0.9584531291862146
0.08274124918447044
-0.2769507856617632
-0.0005960161181546059
-0.1779710261407808
0.1613830902220797
0.01718395203682565
-0.001458011931517823
-0.001670213399750525
0.0001264852406465645
-0.001030797257872782
0.001479483153368637
-0.1428799731854525
-0.6359079337188963
0.5596952295057438
0.2190926773979337
0.002739346957348474
-0.00374836936442966
0.001669212657375712
24.797218604424
51.75868816084741
-220.8023163765977
144.2464096113264
-0.5572241362113032
0.5356394208410341
-0.01372612297172486
0.03531083834176735
-0.1269147581471116
-0.03391799795304514
0.1685383453313622
-0.007705589231270914
1.071249836439506
-0.9279133636487555
0.1311120414109713
-0.2744485142016189
0.0002398037706760235
-0.001714342877519602
0.001626152894264985
0.001683440620365408
-0.0003974396785951394
0.001881483382539977
-3.725172319496194
-7.577382802515621
2.459344718958144
-0.003043976792118534
-0.001254357224548127
0.002591856457379761
0.0017064775592626
-0.0007839595666109006
-0.002168398389954607
-0.002027701469763338
-1.238195129604952
2.886377837684546
-0.4020559151790069
-1.246126792900497
0.003493840871722803
-0.005844779859600595
12.08199231574526
-32.19776898836891
-5.24812708076635e-05
-0.002695633429313093
-0.001512714714022776
-1.041475414505212
0.1251022215682063
0.2332799683636475
0.6830932245729099
-0.002901997629350996
8.018895555134761e-05
0.001656067199975077
-0.000420962011556472
-0.004441690745924039
0.001818675965332987
0.00137845634176483
-0.003020968838031426
0.001697412584838229
0.4037892567834294
0.7581621398728868
-0.434170548307211
-0.7277808483492305
1.709794201319843
-2.207099060542268
-0.3022138560770872
0.7995187152994006
-4.782100275984978e-05
0.002754837376465917
0.001694377716022092
-4.268357252728475
0.3052915283277082
2.694808707735859
-0.003847684447992315
0.002374500995506845
-0.002348424674511396
0.003821608126972681
177.0601918134163
-93.92537430379922
-247.7821477156887
164.647330206072
-7.359130668413677
1.911565948000711
-4.866622914272207
10.31418763468467
-0.05257040997465566
-0.1798200380281637
0.1616779888933353
0.07071245910929522
-176.4310764359646
129.1615172305029
101.329656999725
-54.06009779426315
-0.002826551323673183
-0.001773692833251328
0.003661060188227419
-0.001318442721384796
-0.1388995606826777
-3.319688739583048
-2.085752185144941
3.981160236911294e-05
-0.001257434490348522
-0.0007814424533041808
-0.002118403723434518
0.001677759455484674
-0.002341179382890577
-0.001756348494359175
-420.2829070706528
115.3708095964668
192.6678195993946
112.2442778747914
0.0003329527379762176
-0.04804546584372263
0.4134924390560218
-0.2311135660612615
-0.1475912936626879
0.03007669530259954
0.001330194144859842
-0.00285373543245458
0.002704377980873634
0.1289938949733358
-0.2827530035980795
0.1510547306438629
1.250581615628894
1.784033851479349
-1.484102521824871
-1.550512945283357
173.7292493662319
-57.12202549008239
-179.536570014436
77.98486154447234
40.70146204491773
58.37386822402652
0.001369663537649238
-0.001408003185475371
28.26270836662801
131.9172487347884
-0.007255758720040526
0.001634501973912922
0.0002667934587542604
0.005354463287329929
0.00411596950258164
-0.001168871869220765
1.298167046985899e-07
-33.05094919869958
90.48676502638551
-130.7897466797579
73.35393085207232
-1.72254829260142
-0.2519012049278542
0.6500130449180785
1.324436452611145
9.756580070982139
3.827988647707944
1.878691385961218
-15.4632601046517
-2.54435725490828
-6.022747764080074
-17.65166288542573
0.002794461302896835
-0.004795613074351157
0.001580189759852612
-81.0991638465358
225.5248045019685
63.24018792421165
-0.002078772271891749
-0.003375271853355461
0.003285645735276111
0.002990727128495191
0.001728797502846393
-0.001335134006494099
-0.004057131041300528
-0.002655629269197526
0.004166772165832487
0.002545988144636943
111.0485008784429
-0.002120794154114237
0.0006384369858799733
-8.303668519109174e-09
0.001482365471873239
0.0004207123570277662
-0.001699210272394963
2.582636392676621
-1.661759874369525
-0.3316333732926092
-0.5892431450143343
-0.0001371919503357792
0.00176349336646808
-73.90454513911526
-254.1893805185095
47.27904446500261
280.8148811926227
211.2805320602835
-8.530020947909431
17.8888747300297
4.137633336354305
-13.49648711847433
-0.002736704391311382
0.002588174411799852
4.798525445991496e-05
-0.00358484401242048
0.001458086486049059
-0.0783290280639848
-0.07203167996268497
-0.3392274378495478
0.4895881458758956
0.001801028473447142
-0.0009838047178088978
-1.188784149391663e-08
-0.3354052848055809
-0.298088748912292
0.4070022137300372
0.2264918199877966
-0.001350829151883606
-0.001458869552248091
0.001975528401899853
0.001289507443590045
0.001579139127301004
3.222459656046947e-07
-2.029853233068431e-06
-0.001529630238417198
153.9494689430769
15.67224722712977
-169.6217558281527
0.1858756476614377
-0.08276086073469942
-0.1010119061662984
-0.002102880760540875
-0.002937599895716038
0.001449286825924116
6.497959686002871e-09
-127.7293975002696
25.13190044736687
174.0291849897541
-71.43168793685132
61.2207749112865
155.5132752151875
-0.09106392218722917
-0.05624702970421395
-0.05601590306729791
-0.231211970905948
0.3434749036774029
-1.385859224633966
0.3282094338233735
0.1010579022169304
-0.0003162011288769032
-0.004031425989676645
0.002418703403360367
0.001660707840751163
0.07537498567800918
3.571872575003297e-06
-0.1151991710585976
-6.833847004716875e-05
0.001656707926725858
4.072767677153399
-3.957200750151652
-13.1288390351702
13.01327210816884
0.1368988022737959
-0.08532988049999378
0.1373024236834112
-0.1888713454573767
0.4184988169752168
0.2638870140602225
0.1249868335225948
-0.8073726645581237
153.9493793899262
0.477171720834599
-0.005756062542151666
-0.4464318994875363
-0.02498375880517011
-76.7375605773051
-247.508081403966
114.3081652599657
-0.08881818231230292
-0.009594065565146106
-0.007594285842583593
0.1060065337199661
0.1300129621489645
1.127951862543693
0.027156153837497
0.06518826565571546
-0.1285246439015481
0.08904621051164063
-0.02570983226591643
-0.005207615418503181
0.1349954420534751
-0.1299333557574264
0.0801723356807426
-0.08523442197688963
0.00244564001679643
0.001717527770076561
80.51019661881776
375.7907987527703
-258.2817169938123
-198.0192783777758
0.003883303481340418
0.0004825853510823459
-0.001819900687817131
-0.1203377078481542
1.281529465734776
-0.5661115884772828
-0.5950801694095514
12.15133655846289
-29.07605856065726
-0.2784893241582357
0.3194685186593575
-0.06540476854384809
0.02442557404250893
-2.039485121126015e-05
-0.001631113732910528
-0.001302677472422036
-0.2165633449350344
-0.01922384120557992
0.07518558792335049
0.1606015982171935
0.1784403424033867
-0.07203892092919803
0.02603094663806598
-2.377079075425351
69.82276544407947
-86.46982269123792
19.02413632258382
0.0547060792796349
-0.02923206841820191
-0.05971564543154956
0.003631183581018505
-4.483782158015356e-05
-0.001393424033291735
7.339202107746329
-1.190441507896509
0.002998916286272221
-0.004573896522382285
0.001671117396222266
-0.005643220474341951
0.001173164076721549