/*--------------------------------*- C++ -*----------------------------------*\
| =========                 |                                                 |
| \\      /  F ield         | OpenFOAM: The Open Source CFD Toolbox           |
|  \\    /   O peration     | Version:  v1906                                 |
|   \\  /    A nd           | Web:      www.OpenFOAM.com                      |
|    \\/     M anipulation  |                                                 |
\*---------------------------------------------------------------------------*/
FoamFile
{
    version     2.0;
    format      ascii;
    class       volVectorField;
    location    "0.1";
    object      U;
}
// * * * * * * * * * * * * * * * * * * * * * * * * * * * * * * * * * * * * * //

dimensions      [0 1 -1 0 0 0 0];


internalField   nonuniform List<vector> 
8464
(
(5.003877274857364 -0.001093510494253887 -0.0003221563593886907)
(5.003687583725059 -0.001446043912960514 -0.0001213223043460873)
(5.002272522226457 0.001471382903736098 -0.0003730464121469422)
(5.000035570976007 0.0001553514247197056 0.000138304966256562)
(5.002859117361652 -0.001940346425510536 5.883089340989406e-05)
(5.003348628697713 -0.001761159405495531 -7.481718197974098e-05)
(5.003724852660724 -0.001426022540003629 -0.0001503878347392245)
(5.003310733002858 -0.001768211586649539 -2.81616609008005e-06)
(5.004262338821666 -0.0009488133269518679 -0.0003946050512251289)
(5.003801620581682 -0.001014294508936459 -0.0003064401621169095)
(5.003304774395803 -0.001758723913316224 2.446446364528133e-05)
(5.004003223197479 -0.0006277429665528106 -0.000581434563640551)
(5.001078947895102 -0.0001189760595292097 -6.339543518509587e-05)
(5.004048132769209 -0.00109939787756773 -0.0002529704225531893)
(5.000004521599921 0.0001327437924360862 -5.784340015351688e-05)
(5.002928573469651 -0.001997393234761089 8.977798911073761e-05)
(5.002022527340839 -0.001620690760618063 3.278605908772838e-05)
(5.001227443889634 -7.853865433487321e-06 -0.0002043372753489205)
(5.004340079428772 -0.0007435819857215956 -0.0004737399318130949)
(5.003871265526832 -0.001086932704997618 -0.0003306661320427462)
(5.000036045918846 6.20104903533108e-05 3.744149053006044e-05)
(5.003878070216943 -0.0009774029818826284 -0.0003963398327820174)
(5.002420053883496 -0.001729240410780142 0.0004233620509632598)
(5.000673010529255 -0.000162885846559028 1.44329258223093e-05)
(5.004438465312811 -0.0003968153721137047 -0.000687496873954725)
(5.004419078042278 -0.0006843316351097866 -0.0007442971579019537)
(5.003395077552105 0.0003289526388564339 7.453342464594035e-05)
(5.003868747782442 -0.0008412548086112842 -0.0006655268131511569)
(5.000056435009313 9.82156796661488e-05 -0.0001131658002415553)
(5.003835187412985 -0.0009432533131340201 -0.0003105128108053939)
(5.002198642337496 0.0003022345557694388 -0.0004899079083501946)
(5.002869105437648 -0.001991934047104833 7.745075511308588e-05)
(5.002991421772549 -0.001867841063178354 -2.906238441557905e-05)
(4.999971595718908 7.081935008877104e-05 -8.307030710165046e-06)
(5.004089680521998 -0.0007087346178641693 -0.0006104806481905039)
(5.001967765124371 -8.633890084637743e-05 -0.0001581391973168302)
(5.002979799408008 -0.00191250653461044 -2.370555239599012e-05)
(5.000250487334422 0.0001715505583987634 -0.0002392201216760819)
(5.00307027720693 -0.00186219308544876 -2.231232276720066e-05)
(5.004121460008438 -0.0005087219460499176 -0.000802942977186874)
(5.003143164778307 -0.001857179601614876 -4.578431962549101e-05)
(5.003840836413894 -0.0007784868981883933 -0.0005791313152187008)
(5.001689790205215 -0.001661081088305338 -0.0001626661304305402)
(5.000703639506554 -0.002388403858804453 0.0002365345900205773)
(5.003586286270877 -0.001561742461115669 -6.45059845266004e-05)
(5.004391124951426 -0.0006909784710125839 -0.0005642974307718705)
(5.003449641808289 -0.001652608807369904 -9.562859226064314e-05)
(5.003392781046309 -0.001700273815666639 -7.819982377361581e-05)
(5.003376736125732 -0.001776888293780065 -6.239205143088778e-05)
(5.00327782800859 -0.001845781776095838 -8.427785620694533e-05)
(5.00370404916224 -0.001319720275427745 -0.0001488391840898232)
(5.003535083930534 -0.001540191584727923 -7.572326167865495e-05)
(5.003209417146183 -0.001557102259699254 0.0002562631484251261)
(5.000428862871551 0.0002227457412468299 9.157740975679896e-05)
(5.003543887741621 -0.001607964027864381 -9.481700144170152e-05)
(5.003533404959271 -0.001243041462918112 -5.826894620535961e-05)
(5.001915960563978 -0.002657015477475359 -0.0005568565583832281)
(5.003259766076287 -0.001769463444224113 -6.044071331164341e-05)
(5.002799440141069 -0.00251062817124809 -0.0008733012905025537)
(5.000737865102738 0.002761222203821254 0.0004486980216370188)
(5.004092448391594 9.353419600150278e-05 0.0003713593188518954)
(5.003823847611097 -0.001081834759346054 -0.0003436373556188901)
(5.002008029449454 -0.002227923749047827 0.0008271988390474376)
(5.003256055708293 -0.0004007944832194746 0.0004155570910071918)
(5.003535577891265 -0.001832273179758196 -0.0003157162004562963)
(5.003820433263874 -0.001288939110616846 -0.0001930926321436612)
(5.00149987863783 -0.001877018125578274 -0.0004422314069969996)
(5.000138901678356 7.931192589671196e-05 1.07916720129014e-05)
(5.003627793055311 -0.001309079605087999 -0.000113512806888533)
(5.000091559967649 7.789270757174573e-08 2.165747871763273e-05)
(5.000645660133535 -7.7916805348849e-05 0.0001350561395608726)
(5.003715280117504 -0.001340637776429276 -0.0001589083914383527)
(5.002893152466027 -0.0005967400286168629 -0.0005817845223398667)
(5.001321046167861 -0.001814341623413347 -0.0007711781662610067)
(5.003520421526344 -0.001590869039122877 -8.957142016704922e-05)
(5.00443774823096 -0.000737802708751786 -0.000719769226217123)
(5.00084796076903 -0.0002403548542424195 -0.0002590978472389245)
(5.001599856712515 -0.001883729854207055 -3.663066290348756e-05)
(5.001928304945298 2.026539221788539e-05 -0.0002144795285876495)
(5.002977466982793 -0.001997389708430255 3.376804428419491e-06)
(5.002414709085774 -0.0011354198820792 8.354873021649985e-05)
(5.002025090077217 -0.0003631424743030426 -6.617523898125355e-05)
(5.002799712313129 -0.0009289027003689662 -0.000332895076173625)
(5.00039927340418 0.000329010625727907 -0.0001929455351111819)
(5.003090416516653 -0.001891514293838318 8.356593059661082e-06)
(5.002894661148532 -0.0007596298189049149 0.0002050509981268135)
(4.999992666732274 0.0003903695715538388 -0.0003174620948455177)
(5.003051899828464 -0.001688413082527364 9.209114142631503e-05)
(5.001357705567051 -0.0005961970338299667 0.0007996285771966438)
(5.003339139302685 -0.001811015640676523 -3.454231876189775e-05)
(5.003072977753332 -0.00190037680424674 -1.951960196931191e-05)
(5.000908269107945 -0.008739751063169673 0.0004459478451379978)
(5.00319467520667 -0.001803204942828425 -8.614917990511498e-06)
(5.000479328545565 0.0003908878136922924 -0.0007296727654122879)
(5.00006617734832 1.338841639790161e-05 4.631782507197308e-06)
(5.001149515905043 0.0002061508753723545 0.0001410468360179432)
(5.001093642654936 -0.002574785709296113 0.0001559761502806188)
(5.000624682877401 -0.002377001255707081 -6.238383347061936e-05)
(5.001893310363601 -0.0002412732635627245 0.0001866619028812253)
(5.000564311992022 0.0003354652682221388 0.0001084912773630078)
(5.000989022891605 -0.002105517180119386 -0.0002214428411659197)
(5.004391043080059 -0.0008001528318591239 -0.0006266867158988387)
(5.003146062195365 -0.001438201540936729 0.0001808792706314244)
(5.004077580271418 -0.0009018299618173819 -0.0004746330990092455)
(5.001315400122134 -0.001985571826785703 0.0002176081395522454)
(5.003513588654593 -0.002174794483633653 -0.001561394949084769)
(5.001486026705869 -0.00211686879411877 -2.655843097119511e-05)
(5.005233154890101 0.001097255984480087 -0.001631290898286768)
(5.002934170968808 -0.001853642393971346 -3.487014412031776e-05)
(5.003747832728036 -0.001087796695239815 -0.0002842379708145523)
(5.000051558502547 2.335834584399672e-05 -2.761399755956696e-07)
(5.001344946222267 -0.00206427074654814 -0.0003505273134408128)
(5.003695656656364 -0.001284831198367602 -0.0001136744590049784)
(5.004169306869796 -0.0006964064291721303 -0.0007941032107015273)
(5.0032157990096 -0.001853432599365625 -0.0001056591155602325)
(5.000883933528069 0.002097833484098682 5.478577593713013e-05)
(5.001231337975891 7.767219188632175e-06 -4.394932134849538e-05)
(5.003190098412428 -0.0005885917214805231 -0.0004913833281942039)
(5.003763835965955 -0.001104219366603891 -0.0003201648935102906)
(5.004633662832985 6.734597027905702e-06 -0.0005512685866998756)
(5.003834285801839 -0.001099213155608691 -0.0003182069745456567)
(5.003900681703279 -0.001065647264143049 -0.0003745990194379436)
(5.003298121143104 -0.001769364317678592 -5.485192903750117e-05)
(5.000039407253297 0.000234973725549829 0.0001116636950855625)
(4.997066035978593 -0.003378456398927034 0.0005649199269759802)
(5.00333456435727 -0.001731345673799016 -6.530211476673945e-06)
(5.003159526779919 -0.001663340964713138 -7.681592559626745e-05)
(5.002698916034718 -0.001873028317436987 4.24923424746749e-05)
(5.003703150476503 -0.001318900738869904 -0.0001440098353303998)
(5.001234407857948 -0.002312423510361586 -0.0001522756116772831)
(5.003322685661586 -0.001777238803726102 -5.454980909184722e-05)
(5.000097255994646 0.0003466209172198635 0.000197391321746845)
(5.000412632848041 0.0001287772096370458 0.000175185527727426)
(5.002376626131901 -0.001453305423503514 3.429086050558672e-05)
(5.000144339188796 0.0001066909755188099 6.573546837618563e-05)
(5.00006893027836 -1.018227128209107e-06 1.133085590331349e-06)
(5.00297071821453 -0.001871089866922336 4.822731570479238e-05)
(5.001265788007588 -0.001158007482234326 0.0002613062921642261)
(5.00328266563013 -0.001718538561729957 1.414247311255248e-05)
(5.003719784053228 -0.001008445994373068 -0.0003510633973357733)
(5.003361980714465 -0.001718264946438088 -1.762465975504813e-06)
(5.003513873209049 -0.00152598772503876 -0.0001321780634359093)
(5.002827000276667 0.003283815961384535 0.0004256942457808753)
(5.00048063099992 0.0002870241196210685 7.960450219063378e-05)
(5.001222348982333 -0.0009639417456786944 0.0006894526739713765)
(5.004065605335685 -0.0009919201855229385 -0.000297382071238379)
(5.001469240139957 0.0006439213128381954 0.0005389816479497508)
(5.001383037399362 -0.0008107253410568665 0.0004801007110341686)
(5.003973120840558 -0.001065561948105794 -0.0002556375970783316)
(5.003232833437725 -0.00183252855834706 -0.0001080705142823324)
(5.0000274383235 9.645953831191705e-05 0.0006439426934275872)
(5.003237407814733 -0.00183521348602511 -9.635334415589084e-05)
(5.003766900184943 -0.00119991097904447 -0.0002689990175028698)
(5.003636023613659 -0.001338733450471091 -0.000128670179516473)
(5.000045482008241 9.980871962026152e-05 1.779518271237103e-05)
(5.003879770163035 -0.001304093297749309 -0.0001555525674334769)
(5.000070846553697 0.0001115475087553202 -7.036265940400087e-05)
(5.002874599820634 -0.001963549684144868 -2.279987726371421e-05)
(5.001630069963688 -0.00329861824996996 3.457936852022812e-05)
(5.002178433794781 0.001780421010398699 0.0001119425559316315)
(5.001478154344425 -0.0008103654182523824 0.0001823151921732201)
(5.002942402669382 -0.0009360980169742564 -0.0001443642138700993)
(5.002882317692922 -0.001946486728221918 -2.710791522757721e-05)
(5.004128580877993 -0.000905393993473265 -0.0003521462444873287)
(5.001799150297373 0.0001531904397478019 -1.106987844492831e-05)
(5.003130361450077 -0.001714575389722615 0.0003249525664549771)
(5.003616428708948 -0.001400490683965207 -0.0001368440532804593)
(5.003913306587667 -0.001295283532188713 -0.0002943024749497521)
(5.004049430661259 -0.0008860611735095388 -0.0004016474096333527)
(4.999863703193059 0.0002234000348770471 -4.133841465480773e-05)
(4.999420262711586 5.179082961456244e-05 -1.641976953732202e-05)
(5.00425598272923 -0.0008561555544133592 -0.0004119000430188824)
(5.000111611301106 3.92499565860515e-05 -2.770049860520769e-05)
(5.00378003684338 -0.001174940898435483 -0.0002341841092904573)
(5.004262550663978 -0.0008908359892245373 -0.0004429376103169495)
(5.003362384793681 -0.0002442729116823035 -5.820941296281268e-05)
(5.003800560027279 -0.001300029537701694 -0.000148905214649451)
(5.003352111059958 -0.001590141564698181 -0.0001018773021482448)
(5.000504705775371 0.0001950313700585585 2.715247230702673e-06)
(4.999972083147413 4.228042086855689e-05 -1.979107950276323e-05)
(5.003573847984307 -0.001513875672435074 -8.085635105643555e-05)
(5.002870356721261 -0.001969131004172528 -1.765834677697296e-05)
(5.002910819505468 -0.001939167546903773 -8.733099590656586e-06)
(5.00145222793809 -0.001200427893541511 -0.0002504700573752107)
(5.001381582048205 -0.0008914128672602697 -0.0001456826151508231)
(5.001019603033016 -0.002308017239778791 -0.0001749584700584499)
(5.004092145890714 -0.0005044242633188352 -0.0004654393898168096)
(5.001908549126914 0.0004663123286281638 -7.117913577875645e-05)
(5.003422629406506 -0.001605152902710701 -8.49273035411658e-05)
(5.000055615275988 7.334459349570742e-05 1.477256058814756e-06)
(5.004112498621962 -0.0006611727732942866 -0.0006154353365743273)
(5.000224600344428 -3.921396811285088e-05 -0.0001068883953348616)
(5.003888382080457 -0.001127998480758377 -0.0002756167787225958)
(5.004043112264798 -0.0007651875235665627 -0.000586011902661756)
(5.003971177644046 -0.0005511203666476114 -0.0006652160114942856)
(5.002907626696124 -0.001466693573374789 0.000234267608318623)
(5.001021052234809 -0.001124170732430121 -6.177950116294269e-05)
(5.002960628149194 -0.001857471571774554 -1.045851051593864e-05)
(5.003332827371221 -0.001793395617800356 -7.604247628117841e-05)
(5.003215041090447 -0.001773126553207573 3.49541827260765e-05)
(5.000074648713902 0.0001138801362639148 -5.268765421568448e-05)
(5.00392171683635 -0.0001389302239280647 -0.000976223940485924)
(5.000677778810168 -0.000772571625415068 -0.0002550112098640546)
(5.003044462722532 -0.001925328426226044 3.898726550246507e-06)
(5.001760493252847 -0.001580450980774656 0.0004414371516293795)
(5.004066905905051 -0.001753384655831811 -4.556193103208953e-05)
(5.002926817744366 -0.001922523086672482 1.085556193898815e-05)
(5.003349195282033 -0.001804589065162245 -9.496187522112566e-05)
(5.000420437535346 2.28280455239182e-05 -6.19978344053779e-06)
(5.003652458196924 -0.001206686485155321 -0.0003225208947504494)
(5.002280236706826 -0.002794169678237814 -0.0005808797213521396)
(5.003836929462443 -0.001043444739864072 -0.0004011914923871179)
(5.001046950510785 -0.001881928142875636 0.0002508081706575987)
(5.001697764893918 -0.001406095086340538 4.450189368425802e-05)
(5.001981017708746 -0.003111305673051382 -3.35527739983666e-05)
(5.00207115279292 -0.002009673435767141 -4.378432573719733e-05)
(5.003872651164853 -0.0009884683840458805 -0.0003916905355176544)
(5.001167518671121 -0.001290879679376816 0.0003425990013839857)
(5.004240106366785 -0.0008062104651711041 -0.0005631918451858534)
(5.001065402654334 -0.0007826250178502777 0.0003578550260205501)
(5.000627918271931 -0.001342941938347593 0.0005045238762521167)
(5.000913984688186 0.00102429660092877 -0.0005346167064713509)
(5.00094604757529 -0.0001974989621969827 0.0001397884733118693)
(5.003940066085208 -0.0007868832276747037 -0.0006704813104791601)
(5.003825617232927 -0.00105854380614335 -0.0003241309927819841)
(5.001893057359853 0.0005445347936987704 0.0001475504904913412)
(5.001304210282216 -3.001199713103921e-05 -0.0006224366927894397)
(5.000096958575818 -9.851341552534146e-06 3.489827100017376e-05)
(5.004150188176071 -0.0003755281063272837 -0.0008410998078595774)
(5.003855086524885 -0.0009082150633538743 -0.0004610585074052224)
(5.003742800013697 -0.001211080875835673 -0.0002056009713478954)
(5.00335442699566 -0.001755095975718564 -0.000117894121016997)
(5.000055554596233 0.0001463079250408113 0.0001203118650527606)
(5.000191630244687 0.0006384758838195776 -0.0003398210546273731)
(5.003579800933228 -0.001495034217536994 -6.10388303619848e-05)
(5.001225935330586 -0.001653684809734806 0.0008599034411032642)
(5.003162916844244 -0.00177495553957941 -2.930398458517801e-06)
(5.003312768582829 -0.001765557631839502 -9.686965762082502e-05)
(5.001967680697183 -0.001173475153911707 -0.001619937517993551)
(5.003776191742593 -0.001222133298666683 -0.0002204854112367335)
(5.002433140867361 -0.001211785260025463 0.0001658196627336977)
(5.003691994313301 -0.001358430130916248 -0.0001407815398889465)
(5.00332081784592 -0.0007338747978217865 -0.0008079024924651608)
(5.002915920699364 0.0007344774040170167 -6.233039541767532e-05)
(5.00282580621513 -0.002487789772839516 0.0002761453531837282)
(5.003166380856082 -0.001782621926238808 7.305189539747901e-06)
(5.00352848192069 -0.001425396538349744 -9.692055741617883e-05)
(5.003655214635682 -0.001435080737844151 -0.0001430435886244295)
(5.002935444435324 -0.001584259862559842 -0.000216479756441471)
(5.002946226896685 -0.002026311333380213 -2.74068994714451e-05)
(5.003961738373183 -0.001206785235438707 -0.0002145979141419291)
(5.00245995554482 0.0004388558187825467 -0.0002643887811792942)
(5.003525027546478 -0.00163053161727779 -6.527519867351889e-05)
(5.004140478640245 -0.0002785196332419946 -0.000638888418192047)
(4.999997334173943 8.135513525242185e-05 -3.735998097632727e-05)
(5.00048500990091 0.0001555136461640903 -0.0001701406807831976)
(5.000065437406707 3.274319117736183e-05 2.306061492181749e-05)
(5.003218894371654 -0.001789304533287387 4.467921844748003e-05)
(5.001106455402649 0.0009232592163112515 0.0006102236105025462)
(5.002590492492982 -0.001920736681710303 0.0003618133058201521)
(5.003189204959877 -0.001823214388882192 3.551759776385319e-05)
(5.003888592493802 -0.0009071301955455413 -0.0005402346528067894)
(5.003956620140444 -0.001086306596455422 -0.0003797592782291412)
(5.001126648536918 -0.001015444077157138 -0.000171057377803585)
(5.002549061565713 0.0002746837340671349 -0.001333855117974038)
(5.001444764214896 -0.0005521580282840884 -0.0001734710343275323)
(5.000120708149211 0.0003481076006340001 6.904978886686939e-05)
(5.003920771603131 -0.0008369721065996515 -0.0005692486339592588)
(5.003325589801435 -0.001799020201818501 -0.0001218773700800127)
(5.000877240697732 -0.001884570078010846 -5.87464522662828e-05)
(5.002884430677825 -0.001991716747368346 -6.917900532568985e-05)
(4.999983140396558 0.0001887914404267002 3.717263566170278e-05)
(5.004132598709973 0.0009963855682861031 -0.0004031083214934866)
(5.003057826566629 -0.001831096743567144 7.968793944982948e-06)
(5.003137489016945 -0.001866251069490749 -5.308764952235007e-05)
(5.000971725665397 0.003064224832009178 6.724537803758425e-05)
(5.000541121942246 -0.0004598588476338396 8.8540840417491e-05)
(5.003949428597418 -0.000905700112524664 -0.0004169806968563766)
(5.000034492534737 4.373594963440615e-05 3.090937386156681e-06)
(5.002158755563844 -0.0005632505986328282 3.509459574440367e-05)
(5.002659197708778 -0.001597997050144573 0.0003450424170750108)
(5.001529501676617 -0.001539349595317837 0.0004061259469959619)
(5.000043223834139 8.021094838423226e-05 -1.649349640463113e-05)
(5.004002977497104 -0.0004336308086067329 -0.0007642763980846005)
(5.0032598581671 -0.001773402336748787 0.0002594011927525645)
(5.003490817317238 -0.001533571372935644 -3.741301591455294e-05)
(5.000722954350438 -4.811975563107871e-05 0.000116337687829184)
(5.008195473096243 0.001706744622283904 -0.00651706593564265)
(5.003446094106697 -0.00152509621247119 -8.583693035993164e-05)
(4.999898483606911 0.002120165670500249 -0.0002754486635834588)
(5.003640585523792 -0.001355265956885973 -8.292341544403683e-05)
(5.001309565879462 -0.0002199067530696665 -0.0001795591641427541)
(5.000616701187604 6.055577861092051e-05 -7.891327868766017e-05)
(4.999200581964685 0.0001183983211217772 -1.832259492401013e-05)
(5.000618001197287 -0.0002097596770605753 5.769319772938581e-05)
(5.000958591591139 -0.001173514625718228 -0.0002651165646375675)
(5.003873885228947 -0.0008866749127541229 -0.0004248198166627225)
(5.000043946412472 3.396974684997635e-05 1.657767380566609e-06)
(5.000344732816107 0.0005515943625790193 0.0002558610546083868)
(5.001056931703522 -0.001165914249210382 0.0004281824435188999)
(5.003377017230234 -0.001612727530212165 -8.648469924289161e-05)
(5.002913741462131 -0.001950090635911041 -8.117340524407373e-06)
(5.002985256817984 -0.0018419156884214 4.213611623142941e-05)
(5.003820628969398 -0.0007910601408715552 -0.0006903257769220484)
(5.003122965834574 -0.001868856555783708 -4.18541269847822e-05)
(5.001059162798217 -0.00261972600812032 3.150009984113114e-05)
(5.001712608499467 -0.0005589802046845637 -7.380571423527406e-05)
(5.003184623634141 -0.0003237542102498791 -3.823581125538613e-05)
(5.003260645150357 -0.001825896253472785 -2.110820196151999e-05)
(5.003207549503623 -0.00191410823777617 -0.0001060276383784845)
(5.003269634532218 -0.001748681842094768 -6.346418450996303e-05)
(5.003360309741468 -0.001639892271200806 -4.300471138141857e-05)
(5.000966103002011 -0.0008526770190873203 -0.0001240446325920216)
(5.001195719554467 -0.00212132676217009 -0.0006630609479663797)
(5.003363777013277 -0.001669270731676101 -2.705621400512766e-05)
(5.003192679251894 -0.001902387258160015 -0.0001297199866025811)
(5.003176072480048 -0.001909662441994023 -8.628000192391215e-05)
(5.002485804255945 0.002538152439943135 -0.0002306962070403032)
(5.003968276785034 -0.0008964251483769805 -0.0004800364745075366)
(5.000058043129095 0.0001952785028347533 0.0001183326128554939)
(5.001788554747335 -0.002622607977859391 -0.0005160186711534974)
(5.00111353658349 -0.002501540410352772 0.0002431099156793728)
(5.000784532617853 -0.001115537372226029 -0.0002144829906883785)
(5.003044378033087 -0.001900705175307003 -5.532178455606487e-06)
(5.003332834467957 -0.001804233451082081 -6.421070902156327e-05)
(5.003892399802183 -0.001075290948886762 -0.0004467852093289051)
(5.000531427724565 -4.228900028219681e-05 -0.000204646295374558)
(5.003515087046679 -0.001618905458546695 -5.838707754611579e-05)
(5.003583557553932 -0.001460687859278637 -0.0001137418661147815)
(5.001141780459635 0.0006801072245448561 -0.0005320600807656577)
(5.00383332196908 -0.0005645605390379188 -0.0007567089729801252)
(4.997542523457659 0.000485918709842639 3.628461289652221e-05)
(5.003693208098868 -0.001288089971402232 -0.0001762892512670806)
(5.001514256076939 -0.0002226888734094724 0.0001268782071413184)
(5.00322282234932 -0.001777415994556802 -3.12442252746333e-05)
(5.003528323107396 -0.001610699028770314 -5.712974053467959e-05)
(5.003262726377073 -0.001796434183376358 -4.091652419158356e-05)
(5.002162795577122 0.0006099067489762552 0.0001791951111446069)
(5.001367819002215 -0.0005398564022156756 -0.0002211546687513029)
(5.003792304762814 -0.001278526630113569 -0.0002308848850534161)
(5.001793997781316 0.001121693850895991 -0.0007616249835366818)
(5.003542909931819 -0.001492169444852674 -7.756501367933838e-05)
(5.000046656114248 7.924270450752897e-05 -1.396967861045271e-05)
(5.000907803796635 0.0001997245275009116 -0.0004022975143213713)
(5.003620924838591 -0.005543192085399343 0.00156186643549122)
(5.000095753915744 5.111635974831615e-05 -1.079992816495789e-05)
(5.003423136687188 -0.001685462208919287 -8.435016179226781e-05)
(5.003775553132479 -0.001261240996251324 -0.0001805901155639713)
(5.00052635254506 -0.0003441309515141579 5.758838495551701e-05)
(5.003309672547641 -0.001747255994374269 1.852157827998842e-05)
(5.003099541489277 -0.001876505412850453 -4.065939216665193e-05)
(5.003524472049572 -0.001515665348856011 -6.662165371525354e-05)
(5.000049404212159 -1.294584357331445e-05 -7.54885186526907e-06)
(5.002512686548686 0.0006400720097328684 -0.0003943076686510304)
(5.002616714701808 0.0002526270632558141 0.0001612186695053732)
(5.003239404103812 -0.001742341917763208 -1.344918041031934e-05)
(5.001159028064328 -0.001771949503525436 7.178719883800784e-05)
(5.000929103746595 -0.0003364079938512692 0.0001499504308172181)
(5.000056403873041 8.582804013566419e-05 -2.738701347824074e-05)
(5.000012069765897 7.460152893248212e-05 3.618317677841638e-05)
(5.003273747995537 -0.001805103722775019 -2.112938983841986e-05)
(4.999712099518621 0.0004144287490565275 3.942659089997292e-06)
(5.003773102901489 -0.001048678590402059 -0.0002761331323506756)
(5.003663538104207 -0.001342800375505613 -0.0001773341423298349)
(5.000059878819709 0.0001657226660752209 3.431522161057098e-05)
(5.000925426565851 -0.0007044832417815519 -8.383850269591273e-05)
(5.000245829463219 0.0014833366228432 -0.000107563860355076)
(5.00010528633191 0.0005138706807158964 -0.0005818861589359015)
(5.003482794076567 -0.001595477352824004 -9.284022132977669e-05)
(4.999572728260563 -7.6565228256678e-08 2.438049512658382e-06)
(5.003680805627027 -0.00150158696244947 -0.0001082301338816567)
(5.003662876237843 -0.001297940911045715 -0.0001046741810738287)
(5.002924926078259 -0.001920673152559348 -1.406888019410005e-05)
(5.003569175555566 -0.001555338741673798 -6.653263167206918e-05)
(4.999580545914212 1.97036546458342e-05 -0.0005421190680705663)
(5.003095987369008 -0.001795313820668342 3.690702297717747e-05)
(5.003097528448467 -0.001918090101017806 1.222007401401565e-05)
(5.001237570112274 -0.0006674604321482133 5.383979149967819e-05)
(5.003091772690921 -0.001875239172376744 -4.699568320871624e-06)
(5.000064327450958 4.101029207748712e-05 7.955347564812604e-06)
(4.998994579752752 4.952897577194837e-05 0.0001280146401371775)
(5.000377907795626 0.0002637300413890649 0.000114528341842373)
(5.004403126663141 -0.0007339513388262642 -0.0005372204102515855)
(5.003648368671094 -0.001533141503540642 -0.0001242591951610453)
(5.002973256795197 -0.000266717887295572 -0.0001992945079802724)
(5.003115982591448 -0.001769153754072524 3.039329410869946e-05)
(5.001481934015163 -0.0009919076733169629 -0.0001210201916433281)
(5.002890842641931 -0.001976650396813228 -7.337593173977822e-05)
(5.003940997689827 -0.0009046463271809666 -0.0004895877431321493)
(5.003553459440144 -0.001558252146403956 -7.986873346530467e-05)
(5.000028854202909 1.307686469997277e-06 0.0003114239943776328)
(5.001850216544041 -0.002061708949215708 0.0002134017365004778)
(5.003324236702106 -0.001746135829259306 -6.094927762290369e-05)
(5.000104118173168 8.878806882777927e-05 9.664328146792265e-06)
(4.999982058609891 0.0001230495243213469 -6.629871371064512e-06)
(5.001897611152128 -0.00118263162263758 -4.310837703197924e-05)
(5.00112390171886 -0.001479177709620932 0.0006649907994466104)
(5.002911616618444 -0.002014690797568513 8.488778199886291e-05)
(5.003593193497511 -0.001486604389336945 -9.777598523931806e-05)
(5.002388595862563 -0.002776358474996525 6.975701326107405e-05)
(5.003547067690656 -0.00154211836027181 -7.836270217228284e-05)
(5.000581382718805 0.000411947398915384 0.0003650253988679059)
(5.001978367264233 -0.001830435708449802 0.0003115923136133483)
(5.001890442570296 -0.0007965729709379401 9.242541928288544e-05)
(5.000025144552272 0.0003157673888673809 0.0002792137970449312)
(5.002518825529042 -0.000949290037314295 0.0006014637407443431)
(5.000046324600645 3.250009048597319e-05 9.329391588620318e-06)
(5.003580537322941 -0.001969260310709944 -0.001094674350210619)
(5.001233586790262 -0.0003120946588148658 2.943763995488077e-05)
(5.00258543785065 -0.002028174466095602 0.0001859687523861797)
(5.003468574920223 -0.001569197004386624 -7.771452747031525e-05)
(5.002461533047128 -0.001976032343523703 -0.0004841310132228775)
(5.003562142237838 -0.001553966682017548 -7.41297692545786e-05)
(5.000034005940009 3.554224513919829e-05 4.440328987531284e-06)
(5.003524600983029 -0.001539293891098072 -9.628143828737414e-05)
(5.001489700939758 -0.000805952609118276 0.000179135856940364)
(4.999947667464553 0.0004447138453047888 0.0003484800332799623)
(5.003214700644533 0.0008805572452857696 -0.001381110265403541)
(5.003205794614476 -0.001804891364946931 -6.591194471625306e-06)
(5.003196824763718 -0.001766128590367521 -2.749759124572976e-05)
(5.001431399579804 -0.002504229767006039 0.0004082923034442189)
(5.003089819424062 -0.000498971764945106 8.787963072324673e-05)
(5.000134325339354 1.982458377671186e-05 -1.862573154822181e-05)
(5.010276247073788 0.005145211987194669 -0.005816565551900739)
(5.003678696272303 -0.001427039253525671 -0.0001465926454623114)
(5.000669305238637 -3.761492605244751e-05 -3.783735734577486e-06)
(5.003112052862 -0.00177288797336281 3.367491084376948e-05)
(5.003855707082238 -0.001167919023499947 -0.0002755629310835407)
(5.003986511723375 -0.00112033729058972 -0.0003788680594984716)
(5.000895232215631 -0.0006948239572540625 -0.0003730517199906526)
(5.001336340469508 0.0005147730674072021 -0.0002352559730340579)
(5.00403535842084 -0.0008195761104435941 -0.0004684094457448108)
(5.003714078871927 -0.00100710932401649 -0.000308652281980979)
(5.003539052172222 -0.001475310100480375 -0.0001054469491815506)
(5.00305114004656 -0.001854107641730865 3.172713878383514e-05)
(5.003219511827463 -0.001017332607289013 9.869611848788903e-05)
(5.003582245510144 -0.00144431153793626 -0.0001056377694396507)
(5.000715464443282 -0.001710734467831432 -0.0005424993643415761)
(4.999717801983951 1.862803494307807e-05 1.13674598687323e-06)
(5.000036236506147 7.617436871457396e-06 -2.742566108103982e-05)
(5.001757933237446 -0.00172651314620064 0.0001481385656879137)
(5.002949891008439 -0.001314480741263877 -0.0005709987523370762)
(5.002734580611951 -0.0005458028486169989 0.0003853706576723092)
(5.00051299361315 0.0002620841786090039 4.97033543882175e-05)
(5.003707474386298 -0.001291333135264877 -0.0001832484640505261)
(5.003725192762311 -0.00112906181979166 -0.000309959508036997)
(5.003907637337124 -0.001041603460151512 -0.0003740664154708724)
(5.004056594623552 -0.0008735129636037445 -0.000431588553457648)
(5.000870950303485 -0.000325152011417543 0.0002105115195806003)
(5.002963065794687 -0.00188837516499427 3.472204197660017e-05)
(5.00330041339198 -0.001828948113058458 -1.716413443951504e-05)