/*--------------------------------*- C++ -*----------------------------------*\
| =========                 |                                                 |
| \\      /  F ield         | OpenFOAM: The Open Source CFD Toolbox           |
|  \\    /   O peration     | Version:  v1906                                 |
|   \\  /    A nd           | Web:      www.OpenFOAM.com                      |
|    \\/     M anipulation  |                                                 |
\*---------------------------------------------------------------------------*/
FoamFile
{
    version     2.0;
    format      ascii;
    class       volVectorField;
    location    "0.1";
    object      U;
}
// * * * * * * * * * * * * * * * * * * * * * * * * * * * * * * * * * * * * * //

dimensions      [0 1 -1 0 0 0 0];


internalField   nonuniform List<vector> 
8465
(
(5.000215851256502 -9.02948667645799e-05 -2.911148115604016e-05)
(5.000031758106123 -1.444458370293589e-05 4.433930525511132e-06)
(5.000009909041455 -2.442069603674364e-05 -1.825302763894989e-07)
(5.000069251197221 -0.0009435603019682608 -0.0001598434347553736)
(5.000120871082275 -0.0001980563187684417 -4.076349637053891e-05)
(5.000089785093332 -0.0009797345136706983 4.334930605877921e-07)
(5.000232845334192 -0.0008056045800664686 -0.000243574181407149)
(5.000466233849729 -0.001237898376260574 -0.0001798978748569334)
(5.000078354026067 -0.0001009264209373398 3.045664767494889e-05)
(5.000106667339705 -0.0001067447026097972 -6.200143083923022e-05)
(5.0001422080514 -0.0001307793225097075 -2.994912878062578e-05)
(4.999887480558589 -0.001039111372200358 0.0001953563804239541)
(5.000098641724108 -0.0003422295912474247 5.095580227451255e-05)
(5.000089094367135 -6.973333891551846e-05 -0.0004324821691724633)
(5.000347493020042 -0.001227063414780633 -0.0001545736607465403)
(5.000147902729995 -0.0001317909353084884 -3.136012609314576e-05)
(5.000259958087987 -0.0004069922210233889 -2.260763866587935e-05)
(5.000013744987337 -0.001026431766611047 -0.0001668382644197116)
(4.999997971433702 -0.0002520257475251847 6.707816428307233e-05)
(5.000547550415451 -0.001353730904330196 -0.0007053060763168737)
(5.000287615764917 -0.001223462195916152 0.0002734039477493154)
(5.000076544279787 -9.724284657675297e-05 -2.928831336681777e-05)
(5.000436017776038 -0.0002342739377996793 0.0003927323143992163)
(5.000094763598928 -0.0002452584428907117 9.689800112726765e-05)
(5.000691856636705 -0.0005403620455550156 -2.826810343964015e-05)
(5.000311510941721 -0.0004834924558059035 -1.032216966736031e-05)
(5.000065989914191 -0.0001779825334202562 0.0001009222981835383)
(5.000411611659044 -0.0009653252474786596 -0.0002077654636186536)
(5.000331858910931 -0.0006989126381441509 -0.0001079737741540828)
(5.000750323496121 -0.001325806222428091 0.0002824100101065826)
(5.000073487877922 -0.0002247334962712375 -0.0001026119213284175)
(5.000197307935904 -7.810215151758578e-05 -4.144980344749633e-05)
(5.000174388175675 -0.0007221744835733241 -8.943689531733338e-05)
(5.000043990248689 -7.103369205945642e-05 -1.335897055312375e-05)
(4.99975904292673 -2.184231371058904e-05 0.0002425813197242833)
(5.000055603481845 -0.0002295578513624415 -8.165414542046612e-05)
(5.000285779989956 -0.0005362035837532973 -7.104837609309075e-05)
(5.000031738529607 -7.237371426680993e-05 2.068307406979607e-06)
(5.000151259177119 -3.91273919421753e-05 1.881481380029301e-06)
(5.000193304555101 -6.209172274594619e-05 1.08645287717164e-05)
(5.000154161283975 -0.0001167875616421433 -3.671631987043236e-05)
(4.999938772573636 -0.0007958856137204279 -6.234677371125126e-06)
(5.000405297660993 -0.0006576783334923908 -0.0005726766929315185)
(5.000729881760513 -0.0003319105228045213 4.146631699772139e-05)
(5.00005840273073 -8.425534559993009e-06 1.198300247623186e-05)
(5.000046790485296 -2.941115898762444e-05 -2.264906276952721e-06)
(5.000059422498784 -3.07656522823075e-05 -3.033093543518879e-05)
(5.000176377376834 -0.0005631841730872172 0.0001116297054659244)
(4.997843963469255 -0.0002147948478631915 -4.026709744554958e-05)
(5.00017346786762 -0.001088970547227326 -4.331695063958272e-05)
(5.000225586712861 3.718409559144011e-05 0.0001351694558735298)
(5.000019910261208 -2.37248827356146e-05 6.265498836379006e-06)
(5.000044412544524 -0.0004883692756638287 0.0002603637001492351)
(5.000424613052148 -0.001093521765601368 -2.374099931688017e-06)
(5.0001248570735 -0.0001708396062892047 8.207726342845348e-06)
(5.000409498580411 -0.001167624941292252 -6.356749851568234e-05)
(5.000176556755589 -5.204619186672932e-06 1.277899198278776e-05)
(5.000092165069391 -0.000477028253642253 -0.0003535749662792418)
(5.000137323410121 -0.0009505796651255056 -1.697057913067134e-05)
(5.000373256713781 -0.001032989914946353 -0.0001097007347000329)
(5.000345371147059 -0.0004574941893351652 1.659665741806388e-05)
(5.000611694217589 -0.001017192046226766 -2.803839010523112e-05)
(5.000095565855993 -0.0001217697196237755 3.379875340193649e-05)
(5.000371301140482 -0.001090349366027249 -0.0001325033476836909)
(5.000117321810012 -9.401636920759529e-05 -1.763205438224194e-05)
(5.000258128831685 -0.0008515304688245285 -6.295617976419712e-05)
(5.000110255943818 -0.0006817046646829656 -6.927925738100418e-05)
(5.000093236997074 -0.0004143213592900845 -0.0001582714991602948)
(5.000357458733628 -0.0008486801603249283 -0.0001475307017186586)
(5.00010026157875 -0.0007000415650575437 0.0001458164433281346)
(5.000045133783372 -6.007379359504344e-05 -1.131219943298393e-05)
(5.000228319324093 -0.000616108385025828 8.442184741921763e-05)
(5.000177131650109 -0.0007115931439906378 7.361292834806654e-05)
(5.000344050791899 -0.001118747912999542 -0.0003724679685071226)
(5.000259897567735 -0.0009877764439671082 0.0001885378672686077)
(5.000153998833745 -0.0002410313281532327 9.027179507541798e-05)
(5.000185722927093 -0.0002363618254429196 -1.430223928090629e-05)
(5.000408133528763 -0.0006469295025530997 -0.0003815862766879147)
(5.000303052178111 -0.001091111302894896 -0.0001380880279532069)
(5.000135677351285 -0.0005017682606519458 0.0003764805499242772)
(5.000090318625771 -0.0004680955680554432 0.0001066772223186077)
(5.000369160722204 -0.0009293142018120265 -0.0001624148230609462)
(5.000565655892339 -0.0001909443025915555 -3.282274318563796e-05)
(5.000026403121773 -0.0003878028970379242 0.0001046444748419243)
(5.000487894079361 -0.001240719245383438 -2.648792778246231e-05)
(5.000416612921025 -0.0009740127749645379 -0.0001272313716924354)
(5.000300867404849 -0.0009327058851403708 -4.22875333529922e-05)
(5.000306849602821 -0.001012884923947184 9.071163076218625e-05)
(5.000465527418621 -0.001279230553320464 0.000411895558907187)
(5.000020356977418 -6.259383046772799e-05 -1.959155855228738e-05)
(4.998371769623025 -0.0001669236167682566 2.306319158051694e-05)
(5.000657129210815 -0.0004877966515713031 -0.0004622660984711233)
(5.000023322994101 -0.0001513206461717136 -2.34949246101892e-05)
(5.000442197471713 -0.000156639124304344 0.0002381839529529242)
(5.000121293917156 -6.168776792353688e-06 0.0001353691084789111)
(4.999748477139311 -0.0002945453698973999 -3.394015827930228e-06)
(5.000570038826841 -0.00126319092261922 3.690862277151253e-05)
(5.000019607180819 -4.607553500611279e-05 -2.854532705946293e-06)
(5.000172135962203 -0.0003091054470890843 -0.0001025185278532991)
(5.00001901679681 -1.765655496269748e-06 4.808850015122463e-06)
(4.99997038452075 -0.0009432800938773361 -0.0001164633104214271)
(4.999296505265826 -0.0001371326312751836 7.299837614877203e-06)
(5.00007338821526 -0.0001140701448438411 -3.774479289495904e-06)
(5.000458049964529 -0.0003792007985612634 1.476245934852729e-05)
(5.000397248168266 -0.001098224408765674 0.0001184955643367444)
(5.000329635963562 -0.0005718546835522246 2.999392452042667e-05)
(5.000540861718487 -0.0002020120030953802 3.575473830583957e-05)
(5.000135819818871 -0.0002493089891249193 4.252044807237358e-05)
(4.999930050254826 -0.0007633707894466772 0.000203437789358978)
(5.000421239961613 4.35446070275434e-07 -0.0001299366299647914)
(5.00004900975829 -0.0002371048168898134 1.45580062020959e-05)
(5.000127756197115 -0.0006262363314272996 0.0002074468786159329)
(5.000285131774104 -0.0007420711642970265 -3.009429262038802e-05)
(5.000683409127963 -0.0007339221044025047 -0.0001320876999394535)
(5.000325721661183 -0.0006201769674533009 -0.0001199935788742526)
(5.000391887654296 -0.0004074901651176897 -2.631483945614284e-05)
(5.000642900786951 -0.001576261965594671 -5.785855536967237e-05)
(5.000034238008602 -1.192275205460999e-05 -6.625597349425257e-06)
(5.00014669433024 -0.0008093562499403384 -0.0001220766436375815)
(5.000356916195341 -0.0004337212033996719 -5.714835121846722e-05)
(4.999983026804855 -0.0004554449392110417 0.0001040503566638324)
(5.000318776978497 -0.001118995760941499 7.514136672990745e-06)
(5.000437794438593 -0.0004125717476699552 0.0001264406583023926)
(5.000020560226517 -0.0008644584247624277 0.0002707433268207046)
(5.000609233214979 -0.0002112482289408909 0.0003356443182834201)
(5.000387529432093 -0.000586919666387666 0.0001239413830440493)
(5.00029329566989 -0.001053182993281904 -0.0002825348829912608)
(5.000135962430115 -0.0009207118997527605 -6.10481930060726e-06)
(5.000032541304313 -2.741483461068814e-05 2.516810376753946e-05)
(5.000072007615011 -8.57887647815866e-05 1.424154114375501e-06)
(5.000626575618263 -0.0001920904543357422 0.0001552895018060433)
(5.000393173288765 -0.00102126978957814 0.0002519599743715499)
(5.000196517510303 -0.0001304248361367787 8.805939219742228e-05)
(5.000439920314556 -0.0009551152300551709 -0.0001906305680997977)
(5.000096377280363 -0.000303155395807803 0.0001188974165409247)
(5.000346244898911 -0.0009998026381248981 -0.0002975843310872024)
(5.000430971099553 -0.0002673473309361049 -6.988186230573768e-05)
(5.000511815560315 -0.0007087792408062402 -0.0001618290790701421)
(5.000285263303327 -0.0002745467062507447 0.0003089376017228472)
(5.000449221640428 -0.0008125226574411201 -0.0004629582532117437)
(5.000764827470786 -0.0006191741960886575 0.0001772013717156227)
(5.000406550845586 -0.00114048612732238 -0.0001745371279801981)
(4.999961519537569 -0.0003450567231446245 8.565846028925474e-05)
(5.000183774151947 -0.0005406394410782718 -4.796942130473279e-05)
(5.000113847335899 -0.000306177815838259 5.463543382885088e-05)
(5.000698132263325 -0.0004161772954744271 -0.000639563631089367)
(5.000411804648818 -0.0001017471579033043 0.0001592779246772552)
(5.000224640245905 -0.001324739199704075 -0.0003825036171744929)
(5.000055835533537 -0.0002818960983996041 0.0001604439952098822)
(5.000196411391184 -9.685655879263598e-05 -1.014138209738582e-05)
(5.000133999590046 -0.0001128096698999653 2.628526817288695e-05)
(5.000029921567873 -0.000100832158174673 -3.78231114667019e-06)
(5.000321613932335 -0.0004397849530567027 6.846178480013618e-05)
(5.000023864302555 -4.770034392765668e-05 -3.717417817984359e-06)
(5.000429129528021 -0.0005092306363725963 -1.459089622910875e-05)
(5.000019391240611 -7.598230637418654e-05 -1.546640930589946e-05)
(5.000119531545357 -0.0002226653140031443 0.0001223474970486303)
(5.000237521101732 -0.0009356063502632166 -0.0002689138133573257)
(5.000894886092556 -0.001201523416707626 -0.0003150693200556842)
(5.000035640607631 -0.00114330523223308 -4.054753034804933e-05)
(5.000726237007719 -0.00129895548484789 -5.864012646118931e-05)
(5.000387142689625 -0.001205777148298175 -0.0001758081785891448)
(5.00072225029903 -0.001063006809032928 0.0001640262957525)
(5.000187860872768 -0.0007175421430214996 5.949092193057911e-05)
(5.000435949442403 -0.001177001019681316 3.437949980361803e-05)
(5.000107671627791 -0.0007606878243038389 -0.0001964593657994366)
(5.000441634857559 -0.0005795533496151922 -0.0002147051899576655)
(5.000041660051934 -1.681119488362204e-06 -5.396751937209247e-06)
(5.000539294246978 -0.0006083411884989018 -0.001052973213616005)
(5.000132507579619 -0.000417230018625155 0.0001395144360229408)
(5.000446545148485 -0.0009978786850859684 -0.0003159513802320035)
(5.00021384751328 -0.001086800758429244 -0.0001362698252948082)
(5.000180928148904 -0.0003045668940225732 3.844862844515754e-05)
(5.0002004202503 -0.0003437415358145298 -3.985630421346057e-05)
(5.00041583688717 -0.0001232427421385951 -0.0001399848603947848)
(5.000652267445397 -0.001118509822090657 -2.701863398026912e-05)
(4.999820785461337 -0.0008593563843932239 0.0001149207078189406)
(5.000172362086486 -0.0008942350644113169 -9.181897043420048e-05)
(4.999512742607195 -5.688516679712345e-05 1.643919376506848e-06)
(5.000490841486215 -0.0002851115241666796 -0.0002675930071336359)
(5.000117172934436 -0.0008216353633992883 -9.567163659774465e-06)
(5.000076404683861 -0.0004303262168046758 -7.890793133030206e-05)
(5.000195387484896 -0.0008417210375657787 -0.0001241238430497852)
(5.000279650629762 -0.0004235287569403012 -0.0001216852680506998)
(5.000073168771028 -0.0001161545247311227 -2.713654909876266e-06)
(5.000413372675617 -0.00122359132188453 -0.0001135513161460446)
(5.00043849652524 -0.0005518523525799042 0.000218018962979444)
(5.000131237986336 -0.0006249415541112981 0.0003958294794011301)
(5.000725174347649 -0.0006454956285963535 9.627728374336932e-05)
(4.999748331507131 -3.968539380440418e-05 -9.344748790835206e-06)
(4.999751677406262 -0.0003314233977104355 0.0002324191481675505)
(5.000033628328191 -0.0001845137723821639 -7.283558541338636e-05)
(5.000162781872406 -0.0002565673678502852 1.01443718557773e-05)
(4.999974042173035 -0.0002959317906191299 0.0001236494502130857)
(5.000325612089019 -0.0002055376455002428 -0.000120084508795973)
(5.000000587797985 -0.0003642934997300183 0.0001870748837481732)
(5.000141729330631 -6.184569272741403e-05 2.503662383603133e-05)
(5.000305761225258 -0.0002223136449997798 -8.459731044035069e-05)
(5.000300817392403 -0.0004264481323087027 4.057405631390178e-05)
(5.000199424144841 -0.0008193793314052485 9.357020776744133e-05)
(5.000354118682066 -0.0007102319762176819 0.0001413159052692023)
(5.000586198703565 -0.0009588652570318631 -0.000449106472289561)
(5.000374984997925 -0.0005724317469864136 -1.288222624852091e-05)
(5.00026315469078 -0.0006962584434820394 -0.0006208965157961762)
(5.000228003566778 -0.0006492782522252039 6.026852870414688e-05)
(5.00020410214677 -0.0003673955432762176 0.0001593791231323241)
(5.000094749411882 -0.0009696181749025446 -4.953119298827874e-05)
(5.000351319622784 -0.0002925422397641939 -6.308401537086002e-05)
(4.999881850512508 -0.0006835167517114242 0.000291863915540713)
(5.000197189292277 -5.121143656904178e-05 -8.800626336991288e-06)
(5.000329343036197 -0.001052196332083478 -0.0004640849955027553)
(5.00026436935083 -0.0004318580105203874 -6.223213262050408e-05)
(5.000054023534499 -0.0002788571248271695 5.734579474416456e-05)
(5.000473947167245 -0.001312368774606949 -0.0002397107934056921)
(5.000525802571002 -0.000748402479917687 0.0004645252499515336)
(5.000459289664267 -0.0008191679714581042 -3.382993905445583e-05)
(5.000410129226294 -0.0007596706922192311 0.0002035183106174839)
(4.999920468078628 -0.0004355757958845918 -6.844006837716189e-05)
(5.000419883362119 -2.688432832124161e-06 -4.404635269934916e-05)
(5.000926961141391 -0.001100071215284357 0.0001774546270010237)
(5.000587942275984 -0.0003991805078521312 -0.000133709685928054)
(4.999981001260622 -0.0002839892166404884 0.000201577910927239)
(5.000027065248639 -0.0009829469056910449 -0.000503592593660407)
(5.000138891768254 -1.614050978202102e-06 4.216835861747292e-05)
(5.000188043134883 -0.0007219417401692036 -5.235554087703378e-05)
(5.000133426317439 -0.0003709175157954293 3.196727111916288e-05)
(5.000546696047696 -0.0015830122177203 0.0001077524224748008)
(5.000322497965534 -0.0009763419961548983 -5.91914253953548e-05)
(5.000381249066455 -0.0010273618371684 6.485482434289386e-05)
(5.000493128145648 -0.0003761341358942893 3.593547557162325e-05)
(5.000454455528645 -0.0004237696292094284 -0.0001527231995198574)
(5.000380451781075 -0.0006537804179376786 0.000154095872739519)
(5.000052876753299 -0.0009130557947731943 7.959213598040671e-05)
(5.000552044613107 -0.0004599191615088548 0.0001226789107441291)
(5.001226233672914 -0.001526272223173813 -0.0002807446712401727)
(5.000041557623383 -0.0006281456193777287 3.460601172453919e-05)
(5.000194047950393 -0.0005672148831918121 5.427669921658499e-05)
(5.000344811086737 -0.001285576208211022 -0.0002027326514080567)
(5.000932877243125 -0.001161358355646391 8.963295859187423e-05)
(5.000231531258934 -0.0005746740711875648 0.0002662294482596817)
(5.000461141931291 -0.001124289950354763 -4.986964881886373e-05)
(5.000652277859117 -0.0007497520339843865 0.0002246664087457534)
(5.00077796444319 -0.001248788394915682 0.0004384317596407866)
(5.000259735732769 -7.145127142718827e-05 -1.039003745671898e-05)
(5.000044890176715 -7.768593960773149e-05 1.238490244298526e-05)
(4.99999516228481 -0.0002296743511110025 -1.617377914178505e-05)
(5.00045925955726 -0.00133272545704862 -4.743967847272518e-05)
(5.000272287961658 -0.000330817271005597 8.145132649630298e-05)
(5.000212156042669 -5.27722245798336e-05 2.822088010372589e-06)
(5.000171562303477 -0.0002924767779413473 0.0001836602364352992)
(5.000181572593363 -0.0007519477507617811 1.417638582867311e-05)
(5.000402986909894 -0.0007896260772984966 -0.0002764302671475408)
(5.000198034763733 -0.0008528786003195719 -1.906771277891589e-06)
(5.000218011918891 -0.0008262444636016449 -5.350106881955254e-05)
(5.000263088128698 -0.0001137650653466529 2.031363510228573e-05)
(4.999993497993326 -0.0008709675951322507 -0.0001294736222915265)
(5.000110703154416 -0.0002402149290292153 4.468953091260757e-06)
(5.000041300571511 -0.0002814432227879692 5.86548374075824e-05)
(4.999896844297289 -0.0004030525480652918 -7.830938787806869e-05)
(5.000015418251258 -0.0002891495791842577 -8.251910321374636e-05)
(5.000070626609218 -0.0001719896496814373 -2.609820465544064e-05)
(4.999377661309142 -6.224349516428782e-05 -8.135614931238765e-06)
(5.000062730255019 -6.098212533108407e-05 -2.286997015501811e-05)
(5.000627509157066 -0.0002787818082936524 -0.0004635675512246423)
(5.000396422449957 -0.0009237949892263117 -0.0001792440092104848)
(5.000375041960062 -0.0008963594736412832 -6.478977307865871e-05)
(5.000595539552159 -0.001450548035507877 -0.0002345820247301853)
(5.000472073745601 -0.0007702896989044453 -0.0001685820464750293)
(5.000661421354384 -0.001099510593815825 -0.0007334770592003964)
(5.00012511590269 -0.000890456624484516 -0.0001114402420623918)
(4.999735672748959 -2.934331734790836e-05 -6.524726036623511e-06)
(5.000597405136428 -0.000589499435314261 0.0003637950213764399)
(5.000597668923265 -0.001072049147896942 -0.0001203900224396733)
(5.000292950406803 -0.001189764664678019 0.0006411694574061555)
(5.0000709164339 -0.0002177227818765212 -2.079280612216534e-05)
(5.000691162747404 -0.0002698447606099296 0.0002498576357522865)
(5.000360029701453 -0.0009507384508939803 -7.987551804719809e-05)
(5.000692903137907 -0.0005852219680687365 9.101569809214421e-05)
(5.000324346422569 -0.0008490694387875502 5.031615978469547e-05)
(5.0003194862852 -0.0001043747765226273 -0.000110088713747514)
(5.00012500441294 -0.001079837809874713 -7.33046964449286e-06)
(5.000178940467918 -0.001479519915398024 -0.0005130729073310357)
(5.00003662943569 -0.0001630284274232807 2.249026537072477e-05)
(5.000158654305122 -0.0002682385669920569 4.816763707500661e-05)
(5.000321416974611 -0.0005046504018757425 4.777511993008805e-05)
(5.000551503680709 -0.001196111817313936 -0.0002255602402611801)
(5.000336456978798 -0.0006863106093978872 -0.0001812335498391467)
(5.000580853009668 -0.001478441445891656 0.0001055736059792747)
(5.000363526893105 -0.001207089303038972 -0.0003962763917268569)
(5.000627392015786 -0.001211290977562242 0.0005837327219112783)
(5.000435409571756 -0.0009945064072428447 -0.0002687664901174385)
(5.000546102690237 -0.0008130314278089507 -0.0001976969246736772)
(5.000472075780722 -0.001122804908398185 -3.765285264645598e-06)
(5.000071327615673 -0.0009720355616045695 -7.448138427576551e-05)
(5.00042827329391 -0.0008398372465733344 -0.0002855201955854614)
(5.000285024948816 -0.0005397768711253769 -4.192540699329762e-05)
(5.000149248776058 -0.0007705031839028954 8.090124552648893e-05)
(5.000145415511295 -0.0008928729641760541 2.915627780698597e-06)
(5.000364644520052 -0.00124985082122353 4.691635538948478e-05)
(5.000536829602433 -0.001096855955343484 -0.0003439668271094141)
(5.000465965264088 -0.0007588204559462434 3.197426274709406e-05)
(5.000411325221781 -0.001283830258180444 -0.0001693124866483507)
(4.999750606804194 -0.0002844924319650241 2.40260942748462e-06)
(5.000142448226084 -0.0004785974987250913 -0.0003113914219991189)
(5.000356632253324 -8.092120047390925e-05 -5.857164295092611e-05)
(5.000059009490033 -0.0002645659502993579 5.792924981875549e-05)
(5.000423600898485 -0.0004258640316208566 -0.0001524305092519948)
(5.000147346968027 -0.0002261919262166433 7.582855478548468e-05)
(5.000376272013975 -0.0009712342235273791 -0.0005526673395309073)
(5.000502336220254 -0.0003679243230844981 -0.0001639641776432244)
(5.000366717179927 -0.0006094981104873301 -5.335830273299245e-05)
(5.000491414752615 -0.0005798960903314775 0.0001859495744768569)
(5.000495663130095 -0.0007649785363343409 -4.77444190701409e-05)
(5.000463575517161 -0.001004378266544994 -3.752268472155596e-06)
(5.000377031484121 -0.0009334581580835612 -7.826905530581927e-05)
(5.000433682937021 -0.001017019317214135 -0.000205081653500701)
(5.000415059290825 -0.001197807790058786 -8.702284083040368e-05)
(5.000463852358066 -0.001096262375307416 -9.507484511682885e-05)
(5.00025959616456 -0.0008282826451435052 -0.0001853857339232785)
(5.000324790759834 -0.001004378528570287 -0.0001043356340800612)
(5.000374025582093 -0.0005029366208839983 -2.158840115939444e-05)
(5.000673943994184 -0.0005923769455206893 -0.0002075741666695021)
(5.000378333551833 -0.001294843633442018 -0.0001521617293042203)
(5.000371386577725 -0.001033484738807276 -3.1900566024483e-05)
(5.000300672010405 -0.001482598040331464 0.0003933457412984979)
(5.000433155236069 -0.001128581374373993 0.0002824920886403558)
(5.000326147780861 -0.001243723700517854 -0.0001746652091531991)
(5.000250352894459 -0.0008854654039320143 -6.670344422563015e-05)
(5.000312401072063 -0.001128468807323836 -0.0001284008228707882)
(5.000602419454018 -0.001000651983396661 -0.0002787069782882273)
(5.000323597642156 -0.0007567732285440061 3.679638006745924e-05)
(5.000377668987951 -0.001214384700887498 -4.192061779641992e-05)
(5.000436489983264 -0.001023151176861258 5.42673694645869e-05)
(5.000470600166178 -0.001426426036937796 -5.186709605658038e-05)
(5.000424444873554 -0.001139092026027426 -0.0003244813662615838)
(5.000616501732294 -0.0002659451680369336 -0.0002593622826441058)
(5.000373275140308 -0.001001042509935806 -0.0001160015330060438)
(5.000430354273398 -0.00115500151536374 -9.677349570524147e-05)
(5.000035109710794 -0.001100730870684381 -0.0001204579735778704)
(5.000421544700521 -0.000568600029573789 -2.174534070402879e-05)
(5.000510607791775 -0.001200102384857972 -0.0001348198769046811)
(5.000743897760636 -0.0008265865124289666 0.0001318707371145957)
(5.000562527381893 -0.001449591755232114 0.0002658863750053508)
(5.000308805069509 -0.0006637035621202624 -0.0001231983522015713)
(5.000397922317539 -0.0008758928595210527 0.0005140664006908134)
(5.000128825366962 -0.001132230085158861 -1.368287511380348e-05)
(5.000192551142722 -0.001019996084999019 7.733599925523704e-05)
(5.000234052327571 -0.0004900664759294077 0.0001785862291240752)
(5.000000118402003 -0.0002173035707740656 5.413894115406655e-05)
(5.000239295817405 -0.0008429946604377908 0.0003083277328156265)
(5.00027327296349 -0.0001938565614429537 7.141653614992353e-05)
(5.000050404326829 -3.581188367617917e-05 0.0002109438509525954)
(5.000081011999309 -0.000118084467545902 2.574194697834492e-05)
(5.000387851063371 -0.001018257772694137 -0.0001086504645897276)
(5.000325778729796 -0.0006286563976011352 0.0002040437835908532)
(5.000233864803151 -0.0006182252598366831 0.0001644142050208985)
(5.000374099442437 -0.0002668947822099733 -3.300492534060467e-05)
(5.000034526597565 -0.0003493155405941282 -0.000196031008434402)
(5.000339522970498 -0.0009774353898440104 -8.00851262942926e-05)
(5.000413292277816 -0.0001472302954226585 9.589783308525782e-05)
(5.000218057735407 -0.0006554302494867829 0.0003594178735550056)
(5.000432390536389 -0.0003524147028259567 0.0002247865129173397)
(5.000282300776449 -0.0001863443809927425 0.0003275961705972398)
(5.000302464946169 -0.0008597940790321837 6.729241598469712e-07)
(5.000385308561044 -0.0005647784584277354 -0.0001291091635422305)
(5.000720661439614 -0.0005343620669791353 -0.0001212966481258727)
(5.000320863091138 -0.001267803299284137 4.499975973705465e-05)
(5.000625582036182 -0.001339260617269087 -5.937764826425633e-05)
(5.00000178673372 -0.0011415586190533 -0.0001883827443973336)
(5.000478653914894 -0.0009313003716875457 -0.0004224630826280606)
(4.999970592159695 -0.00114230858421074 0.000244313232748381)
(5.000242753040624 -0.0006250957165368767 -0.0001815716938849649)
(5.000195484089432 -0.0008564834057754041 -8.337338380990388e-06)
(5.000120227655297 -0.0009080712376487018 0.0001413360797461634)
(5.000000808253534 -0.0007439182098342468 0.0001844977702525969)
(5.000299023881386 -0.0007397220801643626 4.702535519023822e-05)
(5.000043139657348 -0.0005785127835557541 -8.504315714224528e-05)
(5.000219748175981 -0.0001607745438122207 0.0001971096231818684)
(5.000271010500336 -0.0009391166706594646 2.324404389364401e-05)
(5.000305203409702 -0.001041372720909476 -0.0005041263535552439)
(5.000068620773578 -0.0002491192417742275 0.000111614399924605)
(4.999952554819527 -0.0002186230198029714 3.289860366967624e-06)
(5.000077387228866 -0.0007877217581465052 -0.0001213348081729337)
(5.000076398410577 -0.0001182476256111493 -2.468786304528197e-05)
(5.000268205628418 -0.0003607781247380607 5.682738644472126e-05)
(5.000248237417578 -0.0004691921174695638 -0.0004952583516849823)
(4.999924862228207 -0.0009034374751014047 4.683110317080855e-05)
(5.000139271583698 -0.000876619459695793 -7.006241396729631e-05)
(5.000118125502136 -0.0004742943705315924 -1.832843499025818e-05)
(5.000196651627525 -0.0004224133581522751 4.254486193479127e-05)
(5.000138501906902 -0.0006130614301701712 2.40506316191426e-05)
(5.000271036654577 -0.001030973890470367 4.905364667958075e-05)
(5.00026221213145 -0.0008780795545248179 -0.0001955906335883684)
(5.000311546524783 -0.0004885888855637307 0.0001477826174052398)
(5.000552034206056 -0.00103153278772299 -0.0001775956604344569)
(5.000463977230209 -0.001130396560839786 -7.819405167925436e-05)
(5.000424993145159 -0.001021714103751594 7.284866062727037e-05)
(5.000358399463451 -0.0006997454910975136 9.171708243627336e-05)
(5.000402840298653 -0.001244290824056958 -9.234589311853023e-05)
(5.000360308798422 -0.001147771610455954 -0.0004956358690460865)
(5.000273752041311 -0.001125035828599691 -0.0002028189255991183)
(5.000660552638847 -0.001178914707623693 0.0001748791069118975)
(5.000266203575419 -0.001105409762018588 -0.0001532218102684426)
(5.000520537075975 -0.001202197590044428 3.971273328851499e-05)
(5.000346605430575 -0.0009839206584423554 0.0001566031056119521)
(5.000359441418035 -0.0005850536872428836 -9.544688901090506e-05)
(5.000385901045712 -0.00101889285200961 3.732360978515076e-05)
(5.000377336175496 -0.001260865640420433 -0.0002580591802546558)
(5.000060952689546 -8.392032025171485e-05 3.822561471346681e-06)
(5.000085692089785 -9.810351405482915e-05 -2.170518830196205e-05)
(5.000149341496599 -4.988052659961738e-05 -3.485514798962694e-06)
(5.000204599207885 -0.0003972853905237523 -9.634215315059373e-06)
(5.000056640478083 -3.277341695485271e-05 3.327360217058688e-06)
(5.000123274192473 -6.142350063186378e-05 2.665479568893867e-05)
(5.000117709349988 -0.000281294974212571 -3.547460342906682e-05)
(4.999882010547642 -0.0004955753715543232 -0.0001716570782120318)
(5.000177253364177 -0.0009246557676982106 -8.151282101445597e-05)
(5.000055903212839 -7.494857097177983e-05 -2.641316730577996e-05)
(5.000144138461041 -0.0008451614055904826 2.542966244986197e-05)
(5.000202419528546 -0.001232789162018274 8.51283983197518e-05)
(5.000119910272336 -0.0008805620070111323 0.0001074635038364983)
(5.000057741012561 -7.413942701675928e-05 6.872347030026223e-07)
(5.000148638761008 -0.0002435238749672057 6.714975208193936e-05)
(5.000374856202328 -0.0009860410679914827 -6.640815168151833e-05)
(5.000420875834506 -5.276590713848403e-05 -0.0002404156084352004)
(5.000258189448442 -0.000453242385103537 8.203868961379581e-05)
(4.999906054799848 -0.0005928369873580324 -0.0001369940388674525)
(5.000077736323634 -0.001180583774328269 4.89619881998019e-05)
(5.000130669888474 -9.095027161977984e-05 1.659574218932287e-05)
(5.000386086503751 -0.0009290271157568944 0.0001089374372332437)
(5.000272713398961 -0.001173174210189006 6.669954426151808e-05)
(5.000205394575173 -5.018312553802644e-05 -1.864132302718342e-05)
(5.000174165695458 -0.0004718846989205221 0.0001315518218669505)
(5.000006048850024 -0.0001893133274561861 -3.714605968907881e-06)
(5.000164993304965 -0.0007078335383088602 0.0002074659198205071)
(5.000335187375704 -0.0002639149368237019 -3.409510130466423e-05)
(5.00019090327017 -0.0007072640221191903 4.650624177398513e-05)
(5.000382030308093 -0.0009442049764545496 -0.000145621046936974)
(5.000407045341467 -0.0009398982584090573 -0.0001764259740016383)
(5.000297964088705 -0.0009009720050196285 0.0001148647775202095)
(5.000126056808249 -0.001210781075724015 -0.0001410251205840001)
(5.000317101718889 -0.001044810489822495 -0.0002074948071951498)
(5.000492049557922 -0.0004514804757762746 -7.190368770279591e-05)
(5.000107455050038 -0.001141456906281156 -0.0001663211901287719)
(5.000247935920505 -0.001329588101564752 0.0004358654086644942)
(5.000395658938478 -0.001059951691792019 -0.0001210200509069118)
(5.000812241986296 -0.001702717221031405 0.0008771771105275924)
(5.000019990346952 -0.0002375855610639841 0.0002279067850346932)