/*--------------------------------*- C++ -*----------------------------------*\
| =========                 |                                                 |
| \\      /  F ield         | OpenFOAM: The Open Source CFD Toolbox           |
|  \\    /   O peration     | Version:  v1906                                 |
|   \\  /    A nd           | Web:      www.OpenFOAM.com                      |
|    \\/     M anipulation  |                                                 |
\*---------------------------------------------------------------------------*/
FoamFile
{
    version     2.0;
    format      ascii;
    class       volScalarField;
    location    "0.2";
    object      p;
}
// * * * * * * * * * * * * * * * * * * * * * * * * * * * * * * * * * * * * * //

dimensions      [0 2 -2 0 0 0 0];


internalField   nonuniform List<scalar> 
19632
(
-0.06360045817132101
-0.005891228660020284
-0.01363404050178834
-0.5324600783899387
-0.01390523306200587
-0.009984524574362146
-0.05033345633374919
-0.003346971692309421
-0.008291473320353798
-0.192782504429441
-0.1786496611987084
-0.01439566719002286
-0.01551062883772974
-0.02251985890559584
-0.1228776411029923
-0.004061743187958176
-0.03203380481930613
-0.03573260200107743
-0.004498580539004583
-0.00388694050978165
-0.1299810950364949
-2.193512863987988
-0.07782172578353741
-0.003583838677654669
-0.005618125759701466
-0.003481253528342062
-0.004415072549970488
-1.210141985111145
-0.019548618057607
-0.01966756922175704
-0.005316240514991763
-0.07223259976388963
-0.2757861522859179
-1.551445941030045
-0.02584951364143849
-0.01466995298748414
-0.00320637930979065
-0.004871316840237117
-0.005817885597695012
-0.1243661092320748
-0.005700721434101655
-0.07253880855724135
-0.00494825538910789
-0.06630239590059843
-0.005568795630549431
-0.002392598736114362
-0.004802518548067346
-0.007690649958264004
-0.01246655282369638
-0.06445683257957359
-0.0157710835014536
-0.005682819700413258
-0.003625839481964107
-0.02320866528909698
-0.01527544944879039
-0.00583137469601715
-0.05012923538358877
-0.005528781176517563
-0.005814586530802938
-0.1894454766186717
-0.004479228757910116
-0.006623081747592818
-1.631113737263612
-1.802257804829604
-0.005038318442091833
-2.085968505541885
-1.92371255506165
-0.002109070478020822
-0.01948754943328793
-0.07249560291042939
-0.06984523539803091
-0.01141847964768197
-0.00235172359964469
-0.001624386955431043
-0.006214464473092321
-0.005782290832855599
-0.002588779490529277
-0.1070169688522866
-0.06056375847978901
-0.1961475449471149
-0.05640953780779404
0.07253986615755251
-0.01206536887009393
-0.01414874008113287
-0.00326165576731702
-0.04612978675714657
-0.003271804268780423
-0.004661600918238923
-0.04277166695988573
-0.02891804159731592
-0.125180456882855
-0.004172051936268656
-0.0779390350348019
-0.08787032066635002
-0.005259008839384242
-0.03736712524119416
-0.01395084953667373
-0.01543325777412244
-0.00367409738621261
-0.004104513937775368
1.158435515747076
-0.003357969281124142
-0.07976492723300606
-0.004183407101684307
-0.3941526751324166
-0.3165325891832836
-0.1070168529695064
-0.1689336981657352
-0.003989506444566155
-0.004897223090237444
0.06796087373576554
-0.004859063766882013
-0.02893361508441755
-1.914485106881538
-0.005474750145857006
-0.2135480911419963
-2.054589628461896
-0.2703203579296735
-0.03507169867691896
-0.003908959466192662
-0.00498657880477358
-0.02650036861609865
-0.01263217432393102
-0.009604229540648991
-1.116418151459464
-0.3759709602934524
-0.004555459817322425
-0.03595122148534799
-0.01443571537611175
-0.001364716718356164
-0.01688027635301072
-0.01058811625465766
-0.2197528061476591
-0.002808752474626477
-0.01738128845144187
-0.1235384644995664
-0.04896037016092579
-0.02609012665439491
-0.005018147986607969
-0.0705958036767637
-3.029096456486017
-4.238327646001482
-2.961823584144381
-1.847984568308158
-2.83123576006999
-0.003133591575308377
-0.006868489466137985
-0.06825121590738392
-0.0611466962835505
-0.004268341461102467
-0.0470002783349314
-0.04950662842765905
-0.03727751720352104
-0.005737957188443793
-0.01956105041734578
-0.03885580804294829
-0.002754714536051377
-0.004866951504289578
-0.08006145304799847
-1.934664972335108
-2.364582492184394
-1.719396048099095
-4.088333095999752
-1.167590082272486
-0.0332037486113044
-0.00490595654485036
-0.005482119775101413
-0.02144609231047347
-1.750895497624036
-0.0211618682759234
-0.004297347587402189
-0.05917432661915794
-0.003756358504492062
-0.01270621677197943
-0.01308702862683415
-0.01490897280775969
-0.003976201302207459
-0.06492984064846159
-0.004257248311397849
-0.004284193312380024
-0.001649207674909645
-0.004602727240145398
-0.003559661882786618
-0.003754751831048808
-0.004527064748232309
-0.00631215211896595
-0.01085087920323704
-0.00304723831040449
-0.007096603032199509
-0.003952129654403218
-0.00920789680372704
-0.09778389342615772
-0.1675214377108411
-0.02686160753816745
-0.001479572168609011
-0.01414034153557247
-0.03951859611677964
0.09149599038073029
-0.03298395183669248
-0.04930622786304878
-0.004993334356411727
-0.07798158220532042
-0.00570580975393129
-0.03252825844588195
-0.003903737764084818
-0.02455241266132815
-0.004816856954502397
-0.02520603170938132
-0.004424357096323322
-0.008174579951917799
-0.0718810072202673
-0.006464967436110817
-0.007000602328793085
-0.02936641002758852
-0.006379494493953254
-0.004472045863242916
-0.04643472063109653
-0.005343294074861015
-0.004758565113748849
-0.03700425506882522
-0.005314178835241863
-0.01647362224556878
-0.00863851777526275
-0.003737326228277392
-0.0108953631503717
-0.005065354525973881
-0.01068461283112833
-0.02795562338886146
-0.02831733825452169
-0.01450616423812572
-0.005219230475172391
-0.009961980664067517
-0.004666741367323415
-0.0115473347569255
-0.06605341844254174
-0.005527464021190251
-0.00999877949512451
-0.007788115992522849
-0.07264494009543182
-0.0118362658686406
-0.005571902163044697
-0.04134694810151181
-0.118330864534698
-0.007017516321861149
-0.01198396769778154
-0.01466002028885694
-0.004272809798223678
-0.1052036533156499
-0.004361084940410244
-0.007444489864432732
-0.005011778279919646
-0.009197505146859172
-0.008116823039543251
-0.06259107909386989
-0.06890054401863085
-0.0238129365524391
-0.004130399838085666
-0.008811523560308362
-0.1695716744774116
-0.05843845673286208
-0.08617616677153973
-0.05529830922369447
-0.0007384622344803202
-0.0124250803547726
-0.01690655473883
-0.01057543642399653
-0.01336215692894311
-0.03272807424614877
-0.01152012716433867
-0.005039856385482832
-0.01207791328417064
-0.00423813467343763
-0.005553653659952653
-0.004358069729406678
-0.01499170784451353
-0.003782651716519763
-0.05280769129323735
-0.03542325828520004
-0.006716824129757756
-0.06394991085631012
-0.002628582956958977
-0.01034579635691295
-0.02938221627357166
-0.01596739849657902
-0.7790506368449884
-0.02392941737183888
-0.06269469822066707
-0.03002788256714982
-0.06729349036034148
-0.06401461202245018
-0.00937061573522777
-0.03466623950285615
-0.008040827241273796
-0.005431237639893258
-0.003211071896403122
-0.002213752958595397
-0.004527353474860169
-0.04151767486277883
-0.01081440837407015
-0.01124855381849683
-0.1663096531701306
-0.0101766765858249
-0.01189542619306483
-0.005452374761503316
-1.643581831377472
-0.07742191232126512
-0.01487577768257049
-0.004250142984924607
-0.009952276420960733
-0.004137754110998231
-0.8024666460887161
-1.307920329723459
-0.4837888216499189
-0.07695720104301187
-1.652059923918489
-1.222492259620602
-1.678177805202893
-0.002860398521909081
-1.787552861532523
-5.423811553186762
-0.00378044043778042
-0.005621520020847213
-0.0801318852374605
-0.8979280662544948
-0.009725045789866896
-0.06314169590873225
-0.006585970765361287
-2.238115856731839
-2.332294755181265
-0.01072639403114653
-0.01474409322841679
-0.00525698848195898
-0.006994188212464903
-0.07088574078151463
-0.005564927921869054
-0.02977572775875607
-0.01671194337482458
-2.651778178276909
-0.01189239057164547
-4.190609833086445
-0.03677203762522421
-1.683845448068164
-2.213017276933422
-0.04424372767572546
-0.8629763763001863
-0.03389654009290872
-0.03016960707661753
-0.07727039544171252
-0.04231859237891704
-2.264375791311553
-0.04936220307286515
-0.01170593420525487
-0.0209520948483565
-1.278698746248153
-0.004643724883732465
-0.006106603885787929
-0.002523191729480668
-0.01168564539603078
-0.01160993417296127
-0.009412953455720968
-0.1115900968980053
-0.001774326521138342
-0.1523862319684841
-0.03072571030719079
-0.03954686197316934
-0.03255249868323862
-0.02769784822006711
-0.1341741255763941
-0.004608582224682388
-0.06206359858273849
-0.09422973643509383
-0.005100255321033653
-0.03777646370890788
-0.03339119147297122
-0.0354648245021966
-0.04085014716324094
-1.914504557766889
-0.00465800646037359
-0.003866130427330247
-0.03781292009394958
0.06134078746943655
-0.01251554199704141
-0.03815868781443231
-0.005653099371138783
-0.1371886040056298
-0.01174196906715344
-0.005668861763905709
-0.03964165495190868
-0.1322549262167622
-0.01281252175696483
-0.01085868880875161
-0.03754022778787657
-0.034858030186402
-0.009413210111135223
-0.02364166892082785
-0.0238782577325848
-0.02445940195226215
-0.0246248231117216
-0.00210618755467303
-0.01315576007677269
-0.03554772925508675
-0.0325298802906395
-0.06148112988793916
-0.03601646696639134
-0.03753566907836793
-0.01211889007022826
-0.01077591018883507
-0.02536169332290706
-0.08218403552820486
-0.002725985821721122
-0.1336775368010873
-0.01676465149242519
-0.3426259941317333
-0.02057286904508902
-0.01735203055723747
-0.04106606517226367
-0.03406091386136632
0.05708046389827988
-0.03875918088702265
-0.05140507461384203
-0.0306383567607147
-0.02008012728422318
-0.004669705413992529
-0.0659360528602817
-0.01418504578598483
-0.004682906418032149
-0.01192087180188492
-0.01036848277065559
-0.004800741084760508
-0.4363783807272298
-0.01259273963180053
-0.0122358959490904
-0.01404680786155413
-0.01269804770200103
-0.01269199579872475
-0.01340557526932823
-0.01305521169619784
-0.01678251369447844
-0.01634778566290179
-0.01531503057280742
-0.03275700215812222
-0.03384544271879504
-0.02989012787865273
-0.03445387722939419
-0.01952208147049766
-0.03215026471226647
-0.003087395622785693
-0.03715051046907535
-0.01640106204669461
-0.01825405132990991
-0.0379648082973588
-0.0250051655719153
-0.00782537913276686
-0.02618649110601405
-0.01913691065933055
-0.04046807841039014
-0.004137104023365813
-0.01084380519737686
-0.01118345866059905
-0.07466814823339754
-0.06358930540722928
-0.01884929166384877
-0.02734709900517524
-0.01345807877710083
-0.009310947827730977
-0.008606512850986079
-0.007705309573863884
-0.05608051996690886
-0.001758102935583148
-0.004825826566980785
-0.006184002303522664
-0.1386748982183996
-0.03995061057100409
-0.01130101346090292
-0.007733370949711558
-0.0250972901611649
-1.284548136351641
-0.006049587171104287
-0.03813299127804694
-0.05008021376913054
-0.02560743173906898
-0.058608093118783
-0.005443940132691741
-0.0292025887700454
-0.02336148530868927
-0.9117762031661389
-0.02561587087899435
-0.9976235115705347
-0.009354336906378156
-0.02446055037797104
-0.007216765450682687
-0.0511773791216978
-0.05789128801613305
-0.02548989933513322
-0.02431986667670967
-0.01671147971464801
-0.005710508057685895
-0.0293422158745024
-0.06609000289985301
-0.07511554632740285
-0.03207620994102203
-0.03410435814750865
-0.009003484569531964
-0.01053869457834855
-0.02743836720193533
-0.03469169093197103
-0.03850258886485966
-0.03207523618621994
-0.03463969914005878
-0.05209374301397142
-0.02958312068264287
-0.3742266419290524
-0.05674601595738483
-0.3341392495384163
-0.06302508646840073
-0.01059069249557271
-0.006615873781817389
-0.3138397661734741
-0.05737938117110612
-0.1694559663383607
-0.004294494124679099
-0.01671458679472609
-0.01654537612491182
-1.042131566601257
-0.03498241160120458
-0.0397007518846117
-0.02627356528951752
-0.0342445943557439
-0.008873146882691484
-0.04479739330585742
-0.020621249128606
-0.009919405023465932
-0.0177144366263561
-0.009431597390210184
-0.06242926079564335
-0.05052924949123651
-0.03195603474187855
-0.05583304616579918
-0.06540812771569093
-0.07907051353064058
-0.0746137718837888
-0.01015211543808628
-0.01063661669735274
-0.01085474006620032
-0.02838888630844875
-0.01664793163092199
-0.104371548455713
-0.01207278879134733
-0.01398276966992411
-0.02448803974537798
-0.07709405925585054
-0.009519385747697225
-0.005069094353570783
-0.006035411581082456
-0.05906227335202779
-0.1250367621517681
-0.0296341166950634
-0.00560841486464439
-0.009953670674520102
-0.006296979852476923
-0.7488619436502418
-0.05284160002242778
-0.09597043836621917
-0.04674756262321374
-0.04915324714524243
-0.0423052607569259
-1.070026116474343
-0.007208360040487848
-0.007324407192000745
-0.004134020122158029
-1.047960309985514
-0.006963616936268744
-0.0290409341051462
-0.04232144386050837
-0.002502746679470712
-0.1730614029669824
-1.613329320367215
-0.2414109608616561
-0.1009108010553062
-0.005292252946234068
-0.01736502644393925
-0.05122846992380348
-0.1815996003556893
-0.01599595553503063
-0.02450272727562763
-0.02232168866740055
-0.01328470931760655
-0.02231509927528395
-0.01339345312731247
-0.02371961564939628
-0.3384150591190851
-0.0125179606210386
-0.01935194728006133
-0.3729191680573623
-0.004934898147816034
-0.03478644992652227
-0.01465068031581941
-0.006976106089782242
-0.007776956316593233
-0.06303618561740273
-0.05861617456082653
-0.01651530240385933
-0.008750352162139071
-0.03691451594456065
-0.02996154046046822
-0.01040594783552591
-0.06267486620651956
-0.03347105750192447
-0.05878441015233618
-0.07394087440613724
-0.0121393100991559
-0.01138988549818413
-0.01011035932651316
-0.05100394458646123
-0.01118628351175585
-0.3206630135910619
-0.0104441434824834
-0.1190491391595221
-0.5956301683025176
-0.0104238958543808
-0.01050662819505666
-0.01145616527286119
-0.01161250788652271
-0.005115728927140765
-0.005144016962269874
-0.3997762130573039
-0.01251784611765228
-0.0109439064182169
-0.01016342613632191
-0.01094789893563338
-0.01146291335984665
-0.003919522669672325
-0.07773746147953414
-0.08705420456679241
-0.01391008889592849
-0.01241629392539543
-0.002385368627969839
-0.007441966344913275
-0.02769083884090267
-0.005982231186633844
-0.01097331724615027
-0.01202658273764999
-0.02732847006614714
-0.05680483045624547
-0.4639490155239313
-0.03663603667236556
-0.008028874225852226
-0.01979380107748619
-0.008809715262678149
-0.008501722303548728
-0.08233060850466802
-0.008542681367791551
-0.005565864496127923
-0.005659050946324992
-0.1625779235138356
-0.1141377590473912
-0.006057359265187984
-0.007014274613630555
-0.01334635158135576
-0.003163811311938183
-0.6427038359585361
-0.05311369939848933
-0.002097525215021709
-0.09251504017330602
-0.0428375108127917
-0.003354533059426768
-0.7833047187168176
-0.01138986894046663
-0.01321463130743348
-0.009517171985701156
-0.02780843680626834
-0.007988056651288832
-0.05530853919807252
-0.05402148195006039
-0.1065137867286931
-0.6786552725519602
-0.3288080269370746
-0.04900582948118614
-0.02609104251400896
-0.01779880527534588
-0.03855858989219627
-0.003455975705074566
-0.04582719094662148
-0.0040807257046734
-0.05968730941900646
-0.005182807224028494
-0.02437329332685794
-0.0320349045153051
-0.007464051008883121
-0.8855933386727278
-0.006801964108235832
-0.01338768872030662
-0.007942465364952167
-0.007354175244807784
-0.01758558978468883
-0.01356833020224934
-1.62977154222042
-0.01368991906372881
-0.01616365830563194
-0.298750430148483
-0.07365836665419426
-0.01148134330715961
-0.3214148776427018
-0.5709216108752955
-0.04159498969408609
-0.01489965660708756
-0.07194548360461431
-0.01224053576184028
-0.04994245388708955
-0.07150502531521286
-0.00313645141470793
-0.07338135486554261
-0.05358039578890391
-0.002772858190651011
-0.01221352505212826
-0.002885837979146673
-0.2269584443273586
-0.0489455043734621
-0.1244061968332751
-0.07424615263412561
-0.0315437092010015
-0.06922836021466502
-0.01619815487786879
-0.0760169315526299
-0.02431400301437723
-0.06864798992409524
-0.01225338513579868
-0.03057244168254309
-0.06364061682461851
-0.0236957568886982
-0.05690707656830632
-0.02895223684290396
-0.6883226873625536
-0.05305376062077691
-0.05454976025096046
-0.3110983387198815
-1.244562173501135
-0.04258983944350429
-0.01551948934716546
-0.02793320657726807
-0.02721999762651862
-0.03644021749624046
-0.0301301337966313
-0.7673827037665866
-0.06051890885071078
-0.5181071520997251
-0.05284231715300744
-0.05279679268730406
-0.03897559259566862
-0.08109299578207828
-0.05274731106812362
-0.03512250908690359
-0.061988591656577
-0.06640877545626966
-0.03097766259159941
-0.06091323254383689
-0.05113008842518411
-0.006207273366657528
-0.007701453585198748
-0.04059468838183374
-0.008204958147258681
-0.006751208433360784
-0.004393829033795402
-0.004098380633212082
-0.0041510651905398
-0.08589485684573268
-0.2869269671653432
-0.00403163879742086
-0.004297879631903485
-0.004504881183640332
-0.006097447030707042
-0.004724306474036279
-0.0178528420680332
-0.0344700880590221
-0.0415133793477873
-0.004879331473388308
-0.005856857280854267
-0.007516629389021474
-0.007353878061058702
-0.007729051034874987
-0.04202403747164862
-0.006878216023631843
-0.0757198384626926
-0.0386578183982761
-0.006404289220423003
-0.002160911652179028
-0.02679751001992805
-0.1613407958383278
-0.1949648721970513
-0.008109077339904187
-0.007711571274885367
-0.06290061190711062
-2.092817279181051
-0.07668491445568518
-0.03671148570526589
0.007885745186997832
-0.005783725516529336
-0.151100878468626
-0.04603902029088205
-0.0723893011587184
-0.07309337472539716
-0.02178671728168381
-0.2048278198398732
-0.06029008916008488
-0.08523939857901829
-0.2374610033911547
-0.1024717217321853
-0.05020078715563209
-0.1152799797922435
-0.03920256605303113
-0.07234073701888552
-0.0782076861146573
-0.1324026230241145
-0.02824290632380312
-0.09404834459901183
-0.0716136732932332
-0.054236020080818
-1.031076808721177
-0.03472696067035674
-0.02897936708261685
-0.006024241878532861
-0.07117736391442871
-0.0133568736737549
-0.01708247973217981
-0.01947155525252443
-0.01582039016083459
-0.0165029442388133
-0.06466888504142231
-0.0940983037430717
-0.08274668423741013
-0.07397332222393825
-0.01447942993563584
-0.08233343258939255
-0.06867830170288747
-0.009772153868420771
-0.05746407938433683
-0.1232569762324827
-0.07859902615559465
-0.09368007948430583
-0.03626863717722412
-0.00783978188428964
-0.4568862240650707
-0.2196363032659281
-0.01912060589792249
-0.01964079523160914
-0.007402534320456679
-0.03270209755056167
-0.07439204688116442
-0.009755987037890991
-0.007706017817018552
-0.0154517321961435
-0.01146116924472809
-0.03676662345236489
-0.03010830642068166
-0.04354389172814002
-0.02324728006941458
-0.03953611055331374
-0.03601148499587826
-0.1851223614340477
-0.02385546235941439
-0.00682869887554056
-0.03878348211759258
-0.03133695956495285
-0.03203661935182005
-0.03388922816857987
-0.04034023534123521
-0.03698048951060803
-0.04100816165767271
-0.03179304096474767
-0.02212855795392452
-0.0208023365483776
-0.01970615463587017
-0.03886427738391347
-0.01845320624597473
-0.03698547827815705
-0.0779057281806482
-0.005890719138834561
-0.03271486480208152
-3.033329799380032
-0.05124350202208121
-0.04883432219643227
-0.02491017024659989
-0.0527847920684066
-0.055562300064745
-0.05882482917740521
-0.05457301758461348
-0.06404329816439075
-0.0531773149050168
-0.1231381171960539
-0.02102133677500368
-0.10642812139649
-0.09277274102642678
-0.318053379139666
-0.04133550981726175
-0.3651416933320096
-0.0974432227240835
-0.08641402714800063
-0.07488815627236477
-0.03332072382839766
-0.009650157678109903
-0.01470171426181207
-0.09537541855961462
-0.02847977006709161
-0.07723056928985267
0.1866024038111524
-0.2020737434244068
-0.08241626428267466
-0.06850803697587353
-0.005029263577913114
-0.006852582813817312
-0.01357900394224849
-0.00563505526135481
-0.02581848535114444
-0.01378207640499184
-0.6175190187210526
-0.08430727220574795
-0.08115559158948836
-0.0348836690272727
-0.005954177354105318
-0.07583460895298257
-0.07507296628799737
-0.01957905072189609
-0.06893989015542366
-0.07065615597124754
-0.1127640051580576
-0.01773427368232346
-0.1872346861441016
-0.07303796142904646
-0.04376184243896601
-0.03906642101927681
-0.005058361420186664
-0.0087270407773078
-0.006720017991107141
0.1878690557016941
-0.00735596054321809
-0.01671886869341854
-0.008298330527963407
-0.007768519824145734
-0.00755927628353197
-0.6402306243619473
-0.008566602277543895
-0.06300160300290762
-0.7243686922180005
-0.04179947555321557
-0.03836835705797816
-0.04944241578398686
-0.05039123534735907
-0.042223377493095
-0.08069384930634076
-0.2134319783235127
-0.03571114193626571
-0.2340971933969196
-0.07517009408118992
-0.08818644232064034
-0.006284267664529924
-0.06842542800440049
-0.03210830911037114
-0.5265619510309947
-0.06201156722870894
-0.07830798499135005
-0.07291148299296728
-0.07961121946038152
-0.05579254189963413
-0.01555994195414097
-0.01750903818712165
-0.006616078694744687
-0.03371892626523591
-0.03175293559858584
-0.005322942804587841
-0.005810622671887835
-0.5964395204642042
-0.01720196505149419
-0.03107406294691816
-0.01883451161394847
-0.002861758034548382
-1.306939972404041
-0.01321901352724045
-0.007156385419422808
-0.05992730017979282
-0.007769686802222334
-0.006958917612732863
-0.007722654274457777
-0.008701232724007038
-0.003900119192920728
0.07097487655952436
-0.006533346820173233
-0.007695431681849415
-0.1010148634984554
-0.05863247216677378
-0.8560701867652365
-0.003923442912766186
-0.01824747116649442
-0.02058859628874659
-0.008744876290586083
-0.9424980202588451
-0.1966930300769738
-0.03396315775169301
-0.01438172631690136
-0.01560132323189817
-0.08482237361417362
-0.01954486448290253
-0.01529914772768236
-0.01419568978375627
-0.01584689153628861
-0.01708028014311436
-0.01364970145956161
-0.1385889936191755
-0.01459614977520097
-0.1394610601598423
-0.01140344279950319
-0.08840724622084181
-0.01452616154993978
-0.01783813957270895
-0.02775315689249198
-0.0125386793527504
-0.03069274696076961
-0.1294687021325009
-0.2292931115548843
-0.6281778541673163
-0.8492249902154407
-0.07789793547590092
-0.2344486462533817
-2.089244738821074
-0.2210265184423338
-0.01604448537327947
-0.07747792707522894
-0.04699358295984411
-0.1243111084142947
-0.08649261359248749
-0.03221939542226409
-0.08009705921657816
-0.262049501340114
-0.196380624026918
-0.3015998559900716
-0.3819212056118945
-0.09902562318282526
-0.005907254343248351
-0.15562012570919
-0.2638212792849677
-0.3596113941396659
-0.06823928544022245
-0.1357457267587575
-0.1542602364236561
-0.1070061914757834
-0.04193374268374442
-0.3466948176699015
-0.09795494848500318
-0.06217372592399568
-0.1104027403443366
-0.5390512352867165
-0.08608914481305122
-1.153773978646297
-0.184748785691194
-0.2145969527579
-0.08406191599414271
0.2381682936940414
-0.00354988357469626
-0.0257032454462518
-0.1027229832082078
-0.3279251761974868
-0.4176591317097779
-0.07066282327612433
-0.1301514284588875
-0.4056636103010149
-0.02011710040320617
-0.09649349125321782
-0.07893863786905515
-0.004202982269176108
-0.004934608746564085
-0.003862422541580602
-0.00375236389419828
-0.003656272407084517
-0.07366740317978468
-0.065938528562726
-1.183840740563779
-0.08975161247328495
-0.0591021683237621
-0.2860235007431329
-0.1196260104157655
-0.1286439199376815
-0.06438694023411247
-0.05960954811747968
-0.02372575720211016
-0.2613216208603801
-0.01843368175146588
-0.007478801639774374
-0.06565029592867867
-0.05882274707148062
-0.09242386636388476
-0.01183278842974319
-0.01324942079223105
-0.04877359545812575
-0.04729842549161811
-3.849451019523173
-0.01129847407039537
-0.03240988707640826
-0.07801343174842174
-0.09565485844998535
-0.01693101606667255
-0.007543518144978781
-0.01267676576592077
-0.004354051033466505
-0.06654866009730497
-0.0302912032848961
-0.07545795724266545
-0.08577791200621158
-0.06904779055127834
-0.01335013486002197
-0.04025293853647818
-0.06348590225161603
-0.0666372404878766
-0.04823701111547671
-0.08795526193572874
-0.03408976509111592
-0.136948870002847
-0.1028091508096865
-0.08674137562907752
-0.09160909049824112
-0.07364837954830206
-0.02693901265582617
-0.003326151199786627
-0.05947952639860626
-0.03977970262670585
-0.1038373909223748
-0.1034498937939072
-0.1624813275241964
-0.01607322135513971
-0.07876430297850927
-0.1107712147801925
-0.01392969668276967
-0.01871274553293342
-0.07443809296513866
-0.3632228094718701
-0.01824171082656129
-0.2838425370936847
-0.1595723900423389
-0.002242307184898561
0.4987112496951728
-0.04491261096394465
-0.04111190396417719
-0.04165923510571024
-0.0323888418440258
-0.03254342056423377
-0.03369788863963023
-0.03654584038208777
-0.03350681681395413
-0.06205169775328991
-0.03940218369118286
-1.298456908765526
-0.02596951927007614
-0.6463140371724991
-0.02610962773543741
-0.6610218504444052
-0.02227847280062794
-0.4825680890877529
-0.01246783620119564
-0.01229163037020508
-0.01138482814837464
-1.314423823080501
-0.01012545470816317
-0.01142931827478875
-0.04686150027438955
-0.0469528573238121
-0.04984432726989661
-0.05273146595980391
-0.01438348459411354
-0.01587690945301195
-0.01886666904736957
-0.0218814520774126
-0.02050575690028631
-0.03146637046858592
-1.716104505282748
-0.0295684158362731
-0.109836893120827
-0.07432899153132379
-0.04831831223730268
-0.04820833360983892
-0.07962538187208751
-0.1018704952561918
-0.3109088160817406
-0.1880546142029821
-0.06387361615204511
-0.04793425707328801
-0.0648880551480228
-0.06981453652520861
-0.05268515782374403
-0.05369201983299078
-0.1047664011484692
-0.05515960038426957
-0.04618691281840785
-0.05650050271368869
-0.1014735015975364
-0.03916961731492268
-0.3044110882922481
-0.0720835808805851
-0.02763875073907743
-0.03360179930641129
-0.04092336144183313
-0.006420474735949866
-0.04304745321983873
-0.0038800260053804
-0.03183892577763706
-0.1021599998783853
-0.006624312496866716
-0.4414818338077566
-0.06851416102165493
-0.02174552593444959
-0.2182388205125173
-0.09030625295549016
-0.01789205770039294
-0.01569986125409362
-0.171611999685348
-0.04147999929282609
-0.0143609591273434
-0.1140135363103786
-0.1231239534926325
-0.03103809653464739
-0.03771882923339317
-0.01811367282034968
-0.009751065502703049
-0.0211588364956878
-0.06981658515514814
-0.01536358889001379
-0.0832841279718694
-0.1132952235650766
-0.09953460095446601
-0.364095231920606
-0.02510534523584225
-0.0578616938450946
-0.06774794134614369
-0.02439997370085725
-0.02752478579995136
-0.01392859862952443
-0.003729212034471483
-0.01620153289355419
-0.009851953171674805
-0.007440691509287251
-0.0317953455414215
-0.3783093729926821
-0.5474282125973453
-0.063914182016959
-0.6551227000070329
-0.03525746409769719
-0.07331555673132563
-0.6611518634527613
-0.05831718839193244
-0.01346296169031245
-0.02121190056692042
-0.01408572941164583
-0.1185812977836308
-0.02729375259970412
-0.02765700857404095
-0.03373771683880995
-0.03110053941099839
-0.2594622237939965
-0.05880082075239689
-0.02026721516850657
-0.007781731191970461
-0.03778266363070793
-0.01650178498917828
-0.05919679186209956
-0.08751806344651356
-0.0307423169525155
-0.11449349270347
-0.03149017787228739
-0.05982951078671666
-0.09961174408918272
-0.07783808203301933
-0.06939222617599995
0.5813305425681136
-0.3793097329540552
-0.06739091464266712
-0.3439259049515851
-0.463457375948739
-0.3209072534330075
-0.3834623120368686
-0.2140615857446485
-0.6414061124414895
-0.4871705901545162
-0.09976090775807006
-0.0676430376265536
-0.1080019264998882
-0.3409853972657678
-0.2838218315964416
-0.4111060176372127
-2.08851986242614
-1.616034807806736
-0.09136088510894892
-0.2447000320127658
-0.1071419714124107
-0.1687386703803795
-0.04382604890276709
-0.1730377634252201
-0.4815013161784688
-0.1798818632277462
-0.05990716207665381
-0.5019401036565888
-0.03104063510922896
-0.004988363402641572
-0.9080429952859757
-0.005432816097669942
-0.003657384946986456
-0.04191901784469264
-0.06910972065174081
-0.009078992190427276
-0.02507401213256006
-0.004245717396438037
-0.0759729243233811
-0.07778157732481883
-0.2307641716348623
-0.08194343535424296
-0.1093569091179394
-0.1145682467294215
-0.04992807837407232
-0.08446463789447353
-0.0235829684388043
-0.02374453133023955
-0.0358894120954887
-0.0661777144675814
-0.05955072257052903
1.388121190438916
-0.05618450701158795
-0.6148159735797583
-0.05674643261007635
-0.03551227254213515
-1.744602765428447
-0.134566502903096
-0.02388466841474908
-0.1144542104943419
-0.006416160940046222
-0.04176180423525978
-0.006869161570111609
-0.05938991083130717
-0.05173121115088691
-0.01007755436331188
-0.01036069118273886
-0.06457737688266663
-0.2044318384481514
-0.01031395590752813
-0.08434370872405496
-0.01780336929483621
-0.3373610313970493
-0.8143250980568721
-0.1032739289971298
-0.2443771658725082
-0.01921946349335326
-0.05958402301252713
-0.01934446601412247
-0.09358620560727524
-0.1174207553930015
-0.1215761652269273
-0.1482019837627526
-0.09799075192906569
-0.4345404977951642
0.1813537134852041
-1.064777876679528
-0.4643568018228454
-0.647792625819974
0.1369269133501552
-0.02842171501093998
-0.06243816119155636
-0.01235219923493359
-0.5025430487022552
-0.146424656879156
-0.1089404887401361
-0.3749063739689616
-0.07088104830814031
-0.6805971660922221
-0.1183038260487005
-0.07131487761131312
-0.3795648798621037
-1.371635590051073
0.3650947919903915
-0.04008962924968233
-0.1636130703939793
-0.08255407437304343
-0.4381301344855095
-0.0875411203919475
-0.4850582650279128
-0.3071196472873672
-0.5434212117082977
-0.6425531405333128
-0.3473789798590851
-0.06556715004998767
-0.02974121988286107
-0.2134223507025154
-0.08698156743923695
-0.001319727317941141
-0.1741970584683402
-0.00242457823651508
-0.007114144660270372
-0.0241846830578502
-0.004444837325974184
-0.01568380863044961
-0.01523253164967927
-0.1378202948082539
-0.1474382589179138
-0.09186690740398759
-0.07821131400315852