/*--------------------------------*- C++ -*----------------------------------*\
| =========                 |                                                 |
| \\      /  F ield         | OpenFOAM: The Open Source CFD Toolbox           |
|  \\    /   O peration     | Version:  v1906                                 |
|   \\  /    A nd           | Web:      www.OpenFOAM.com                      |
|    \\/     M anipulation  |                                                 |
\*---------------------------------------------------------------------------*/
FoamFile
{
    version     2.0;
    format      ascii;
    class       volVectorField;
    location    "0.2";
    object      U;
}
// * * * * * * * * * * * * * * * * * * * * * * * * * * * * * * * * * * * * * //

dimensions      [0 1 -1 0 0 0 0];


internalField   nonuniform List<vector> 
19632
(
(5.010588890917672 0.004662485694469681 -0.006614054600667766)
(4.999997141706722 -0.000672703968739586 -1.70473066230076e-05)
(5.000118561153678 -0.0001910375072449279 -0.0001031981691630489)
(5.133019537871514 0.2825694598345769 -0.2623214620486909)
(5.000034891336693 -0.0001429796947887248 -0.001212407728166835)
(5.000155921051793 -0.000110017788732356 -5.478237781747304e-05)
(5.000120688356812 -0.0007262728334096857 0.0005287511811344902)
(5.000060154730382 -1.626791030186725e-05 -2.489935601871835e-05)
(5.000043563697353 -4.058303618103127e-05 0.001150223841780075)
(5.039229800631789 0.01399858183344481 -0.001614390987932731)
(5.022749884251102 -0.01454450397991632 0.0002090693502498276)
(5.000361147155336 -8.900653758238313e-05 -7.574677997498452e-05)
(5.000030699838192 -0.000231806771349566 0.0001434752661106568)
(5.000351889602907 -0.0004039091599615991 0.0003024864948468985)
(5.004871642594626 -0.008313384551885676 0.009766913712933586)
(4.999597716435982 -6.272267642760821e-05 -3.149869105157622e-05)
(5.000012971307754 -0.0002348685706801387 0.0002482986166430415)
(4.999923152769981 -0.0003015991290547007 -0.003747951042951829)
(5.000041811983815 -3.394473613336295e-05 5.575422572374484e-05)
(5.000025245818532 -0.0002641024126901849 1.797750290903071e-05)
(5.016660687457804 -0.01290456549014313 0.005343425742408438)
(5.378304550537803 -0.08528245330699596 0.00282197766714749)
(5.00276030666099 -0.001294630563642765 1.302472189612711e-05)
(5.000035941086303 -2.825503750230696e-05 8.835538610978886e-06)
(5.000015951953557 -9.258277847955959e-05 2.047886129969892e-05)
(5.000015909627367 -3.636781842265315e-05 3.267622748952576e-05)
(5.000028879212089 -3.824663800142285e-05 -1.083708954241439e-05)
(5.19818545699817 -0.4194827570894651 -0.1044719937149605)
(4.997227484448238 -0.0005266841348963472 -8.426024452221175e-05)
(5.000005280011658 -0.0002856481656166781 2.055468272009257e-05)
(4.999972767995663 -5.185530307660209e-05 -3.535937290731432e-05)
(4.99914914958992 -0.00153398082305634 -0.001199079448165771)
(5.057908858471489 -0.02051884571776118 -0.01357315904975063)
(5.347312442778176 -0.09588678197690229 -0.1626206820510725)
(5.000627048103045 -0.0005564301111148516 -0.0005905348043722993)
(5.000014075836378 -0.0001753697209147956 5.786037601510644e-05)
(4.99999416072391 -8.663203361233709e-06 3.215549835271984e-05)
(5.000015015413381 -3.27053864149447e-05 -2.083945511962709e-05)
(5.000002980954326 -7.495380087930768e-05 -2.102777685390709e-05)
(5.010568376016708 -0.007349804245045514 0.002071517944783127)
(5.000007703806068 -6.150339356565371e-05 8.878602648818803e-06)
(4.999897963011164 -0.0009683442442604208 0.001137775106242173)
(4.999985925688899 -4.188952736688325e-05 -1.594069653324474e-05)
(4.984232590547728 -0.0023635162424966 -0.0007082085798721221)
(4.999991087419739 -5.257356102990571e-05 1.079505964796653e-05)
(5.000057077530847 -1.892189155940896e-05 -9.934446794599888e-06)
(5.000055676461084 -4.792537444768298e-05 -1.11471742741202e-05)
(5.000090812250788 -8.528899945558318e-05 -1.21584950598264e-05)
(4.999928395075794 -0.0001691875768535606 9.744782526684105e-05)
(5.000111543245813 -0.0007295704870976832 0.0005605251509106127)
(4.999943524671282 -0.0001874336233540044 7.56872555925978e-05)
(5.000021662356057 -0.0006569760791186913 3.144677832465647e-05)
(4.999975475882143 -3.060229606762022e-05 1.994565962536562e-05)
(5.000636851156126 -0.0001564093254559765 -0.0002580794463439939)
(4.999952274378619 -0.0001954274428533177 -8.288809932967392e-05)
(4.999982190573799 -0.0007186860206901523 3.315073888421524e-06)
(5.000128930471366 -0.001098651432097361 -0.001660412511432889)
(5.000010886642477 -0.0005975580115262173 2.268128890168692e-05)
(4.999986005040009 -7.400066407433234e-05 4.36828790951487e-05)
(5.012538003540678 -0.02128558210865055 -0.01229478931132491)
(5.0000420669144 -0.0004709523472629361 -7.483180501582054e-06)
(4.999991143424108 -6.576210170082308e-05 3.112898205353766e-05)
(5.189763332071254 -0.178140605979296 0.04496116752258374)
(4.85591651963933 0.2640337342873328 -0.1238064843132334)
(5.000132481377253 -4.874918949031923e-05 -5.913794837978782e-06)
(5.183857670984865 -0.1700570251043605 -0.2960784522623053)
(5.31525789598177 0.008205571392263918 -0.07089942339704204)
(5.000048914296144 -8.959063849881239e-05 -1.689521183791536e-05)
(5.000149625056438 -0.0002556723495744096 -0.0001142188076688301)
(4.99986364375782 -0.001205987461477346 0.001067039102015949)
(5.007046932962828 -0.003610707883517594 -0.0009564732992396373)
(5.00006541647643 -0.0001755959121358565 2.559419024513985e-05)
(5.000028789384098 -6.859059025332859e-06 -2.538384041867522e-05)
(5.000042485411923 -3.922958345304253e-05 -1.168960254075637e-05)
(5.000029217282135 -5.404481184811484e-05 -2.583435250992487e-05)
(4.999988417660448 -5.688008568731765e-05 1.961578184109088e-05)
(5.000043246317261 -2.805887421247189e-05 -3.437720492287579e-05)
(4.967126500154968 -0.001386477944387619 0.0002355425827173711)
(4.999984425339288 -0.001574067033657858 -0.0006741483060101987)
(5.024869420353906 -0.001311262190176355 0.003353302434961349)
(4.992231995777445 -0.000650290757054172 -0.0003653955501186773)
(4.978232084001846 0.318842060436246 0.2489268498879784)
(5.000482312399306 -0.0001354091394548771 -2.268013599896709e-05)
(5.000017417932508 -0.0001800237498382121 8.782064745328997e-05)
(5.000004337084489 -2.098783845241394e-05 1.467302517918679e-05)
(4.999877038606813 -0.0005171840972174508 -0.0003036587742228199)
(5.000020605051387 -2.960603523274094e-05 1.483328217139568e-05)
(5.000023359915481 -3.756241681823545e-05 -1.621037142018262e-05)
(5.000381102893113 -0.0006056517841632854 -0.0006447196441579328)
(5.000419942178817 -8.158510293869981e-05 3.73347721967991e-05)
(5.021701377461262 0.001351606075116993 -0.01515239060703608)
(4.999997928475922 -0.0005425999390167636 2.35378193117208e-05)
(4.998989233831984 -0.001163772432136939 -0.0003114363125640109)
(5.014505427496941 0.001042239209814174 0.00934588685311976)
(5.000016304697207 -0.0004497552366584496 -1.436046812013269e-05)
(5.001523867014249 -0.0004859052729289695 -0.0008076769592407292)
(5.000040874996584 -0.0001931289287263572 3.879596877116919e-05)
(5.00016154473432 -0.0001444436753660207 7.3064231914038e-05)
(5.000046564008253 -2.167047129561119e-05 -5.209336316489001e-06)
(5.000024151268502 -0.0004136046188671841 -1.377454035368814e-05)
(4.578492425441278 0.1365139819532581 0.6053704470986512)
(5.000005027643748 -3.778657124381996e-05 3.703569161918898e-05)
(5.005432342964065 -0.003546591062448594 -0.001375718060172799)
(5.000011052256441 -3.082997145911316e-05 -3.741744992690338e-05)
(5.083931959588337 0.01129979467998853 0.1519565894315751)
(5.053943492217607 -0.01424879467329816 -0.01996455281721913)
(4.966142558899047 -0.07143348976010225 -0.03698296351781379)
(5.020970261055907 -0.01432555005793837 0.006066447905154895)
(5.000034390825138 -3.330714114344066e-05 -1.301632540836057e-05)
(5.00001099538274 -0.0006010972638207095 2.37036900414165e-05)
(4.947427659595139 0.2485571953893846 0.3519335614020519)
(4.999978435816145 -1.086770452450201e-05 2.360262466202739e-05)
(5.000706257030579 -0.0003498567670866856 -0.0003650728170616345)
(5.232637300338223 0.05021250650252284 -0.03039357056944238)
(4.999994823801559 -0.0005358914950501518 4.866277319770181e-06)
(5.013961295016585 -0.03294114065638381 -0.02352292596909386)
(5.312514478603767 -0.1087453746680499 -0.3870175876109901)
(5.063098205316058 0.1125516715932414 -0.02457164230341985)
(4.999872407092023 -0.000639188431308561 0.0001032091595025062)
(5.000036921105576 -2.162306143230679e-05 -2.020372878697774e-05)
(4.999987842081935 -0.0005432328480321086 1.013371442247238e-05)
(5.001406902524538 -0.0004809093145459496 0.0001582110208851537)
(4.999994571926436 -0.0001989644138639019 0.0001276730925328615)
(5.00006667956245 -0.0001364785061008514 -2.563942911418651e-05)
(5.19306410857784 -0.1016252249515069 -0.1200491192646676)
(5.051885561455161 -0.007600894931579478 -0.008489067037065139)
(5.00000479890311 -4.486924899592287e-05 3.886471613801826e-05)
(5.002814987034639 -0.001052359278977294 0.0003997897074241914)
(5.000002997036979 -0.0002104981530337979 -7.777846742532417e-05)
(5.000035522176442 -9.925994002131924e-06 1.468110187797483e-05)
(4.999965704686283 -0.0001918625672810789 8.116379635538793e-05)
(4.999961952900384 -9.99226451892929e-05 5.733108943895734e-05)
(5.031683924478692 -0.01940049157326976 0.01076104666042757)
(5.000068982934661 -2.999426988887867e-05 1.315787028246576e-06)
(5.000318261060068 -0.0002277095309642105 0.0001565994857861019)
(5.008717531881854 -0.007932796052443515 0.007853030892680433)
(5.002362959906928 -0.001794887833274832 -0.001369185469484288)
(5.000529242159891 -5.36130662767235e-05 -0.0002885115423185826)
(5.000002874129822 -5.938562720532307e-05 2.867685501552533e-05)
(5.000441513943908 -0.003785641027909731 -0.001893654825209812)
(4.445652430024044 0.7010256612793528 1.209495181248774)
(5.210823836457141 0.9958291685932038 -0.3357515671584314)
(5.516840083383022 -0.08937269491382004 -0.2752814913664345)
(4.599899485136595 0.160315407719038 0.01863912024256108)
(2.886605947300046 -1.136425920853663 -1.188010848142885)
(5.000070546335417 -3.342975519385426e-05 1.553475560392446e-05)
(4.999344442812109 -0.0001034284238723074 -2.941823896306603e-05)
(5.000140702041878 -0.0009767316991160329 -0.0002817344744514105)
(5.008329512972334 0.0005076066269452885 -0.0008999596850837395)
(5.00002070676611 -3.067945911704909e-05 2.545902415230869e-05)
(5.000365385181656 -0.0003807609386231238 0.0004103281187839035)
(5.000288385922661 -0.0004959108638801975 0.0004483274967863237)
(5.000376590300585 -0.0006321541257142776 0.0005276632996595397)
(5.000008248128854 -0.0001588957931635998 2.192618720902585e-05)
(4.995227222499325 -0.0004728513779219838 -5.843471949851536e-05)
(5.000527806359222 -0.0002411951978139158 0.0005052981792126387)
(5.000078296580506 -3.894992338413898e-05 -2.214929440964861e-05)
(4.999996860655921 -0.0003867228902432706 -1.895390831532524e-05)
(5.00012403926713 -0.001344527530054993 0.0004027804046419632)
(5.013431435879529 0.1169465521463907 -0.0815831576098761)
(5.236518638165191 -0.2123930460701281 0.308265770046751)
(5.200241396507753 0.2376108005425628 0.2063962297482258)
(5.075520762739138 1.347678872337601 -0.1649442221905817)
(5.279922892333226 0.2737471419837603 -0.007767467535203239)
(5.000328774896558 -0.0002998399661487399 0.0006093509014272142)
(4.999988767065384 -6.681965034376856e-05 4.957050987469652e-05)
(4.999994093733024 -5.766952027617384e-05 -6.515259551869686e-06)
(5.000471830953659 -4.625715086558303e-05 0.0001470541347336027)
(5.344445485129247 0.1445436867960695 -0.06437433067616101)
(5.000665240868714 -0.0001051508265214048 -0.0004278625652905054)
(4.999971572468866 -5.518200233501186e-05 -6.44246127289431e-05)
(5.005296614978584 -0.002879683365605679 0.0003072941744191278)
(4.999990942206782 -3.752547728823751e-05 -2.331933002783551e-05)
(4.999977107252106 -0.0001765725402463733 1.709940908291531e-05)
(4.999907184782834 -0.0001870165050912923 -3.642553221225989e-05)
(4.997536185369628 -0.0002971974851331209 0.0001509592068596464)
(5.000122074121271 -1.592664018409672e-05 1.524025857138709e-05)
(5.006723013311767 -0.001505419868266042 -0.0005507778344772369)
(5.00011745788012 -3.287342738637309e-05 1.089568693364701e-05)
(5.000090077442489 -4.877822323752945e-05 6.220595440188701e-05)
(5.000031164565851 -2.177105878728336e-05 1.109833699311032e-05)
(5.000115494737164 -2.468018379345716e-05 1.474999464921106e-05)
(5.000094077136551 -3.618175765614087e-05 3.803532515958958e-06)
(4.999999064266943 -2.199971297158692e-05 -0.0002907683628820398)
(5.000013707963741 -0.0003903460262052403 -1.647759263863777e-05)
(5.000024027708315 -7.144875606407277e-05 -4.497226033851563e-05)
(4.998666286018225 -0.0001700516939095914 -4.886744409186401e-05)
(5.00002655096076 -3.054217252380303e-05 3.536975162683889e-05)
(4.99998021127783 -7.524832446360505e-05 2.217436493504025e-05)
(5.000169118115427 -8.877754478994541e-06 2.135350436567801e-05)
(4.999991880720687 -7.83148711336794e-05 -5.238866179539261e-05)
(5.011384516885344 -0.005325255782256137 0.002357152640245308)
(5.016366168156499 -0.01250462769437756 0.01334308129287556)
(5.000138467083112 -0.0002740122222778935 0.004709440255919732)
(5.000048591580822 -5.774790150163001e-06 7.57990090433544e-06)
(5.000129800225825 -0.0001217208613879997 -3.582141301829672e-05)
(5.003974414923103 -0.0003130993296971802 -0.0002327683818748269)
(4.933076611346936 -0.3820577213684433 0.1563761195081447)
(5.00014579641063 -0.0003872034347262777 0.0003350829226520249)
(5.00023403270719 -0.0003916371104182922 0.0005552186576041037)
(5.000042109559627 -0.0005772387092126772 -8.817039228401081e-06)
(5.006008367096477 -0.005740837674360676 -0.0007443507320659557)
(5.000000272188716 -5.040485269008153e-05 -1.964058500457175e-05)
(5.000152858474042 -0.0002245929253765498 0.0001868668569019681)
(4.999983884749255 -5.79718307490278e-05 3.094514720119402e-05)
(5.000210402909372 -0.0003053173453010752 0.003383389843134749)
(4.999994348332296 -5.86853155872126e-05 4.825187617817617e-05)
(5.00005958132528 -0.0003052696158995058 0.0001104261350544245)
(4.999989493193739 -3.862233347290934e-05 -3.655555240601152e-05)
(5.000091225892217 -0.0001177303069099564 3.857784537980646e-05)
(4.998253133484809 -0.002270806509347367 -0.0002488511808974409)
(5.000126041959541 -4.131247666736044e-05 -9.052374625845095e-06)
(5.000025090297629 -7.542003572276721e-05 -3.859160304858599e-05)
(5.000680985280506 -0.0002509639388221748 -0.0004551251440752691)
(5.000094100677888 -7.195095283888574e-05 0.0006916407923905636)
(4.999969238286717 -4.515424093463091e-05 9.045258060184139e-05)
(5.001197375902588 -0.001274975922159033 -0.0009722862887808678)
(4.999967516802958 -2.498640367054965e-05 3.107699422587487e-06)
(4.999971345515967 -5.46927209856057e-05 -2.278844853307149e-05)
(4.999893373172581 -0.0005375448711240656 -0.0001973550353795926)
(4.999206175524975 -7.907325964314502e-05 -3.004810775349746e-06)
(5.000200285533459 -0.0001183469354990599 0.0001032205905374548)
(5.000024464176586 -8.817593060182469e-05 7.665771911510253e-05)
(5.000034420223342 -2.964477167416294e-05 -1.474723533142861e-05)
(4.998564683617051 -0.0001409035775286743 -0.0001312002231118383)
(4.999979053818974 -3.781899132699461e-05 1.804851788284592e-05)
(5.000019345546306 -0.0002421813409830603 -0.0001188909639468711)
(5.000087247066753 -0.0002230426859156643 0.0002337983739575372)
(5.00057979593493 -0.0007864566814029447 -0.0002141196726210968)
(5.000437139872731 -0.0001754942465593788 6.712736086220059e-05)
(4.999980952781219 -5.946610866891768e-05 -2.499536014406829e-06)
(5.000556788048473 -8.218542469809153e-05 -8.452274609610731e-05)
(4.999980171175377 -4.660788459741649e-05 -2.102188490269019e-05)
(5.000448834184956 -7.585482758935036e-05 -1.854949340671477e-05)
(4.998781888348664 -0.002032755855042105 0.0008012068534991053)
(5.000006860439818 -5.265920735437806e-05 1.826087354421799e-05)
(5.000020747045037 -0.0001337778669307194 -1.777203820681976e-05)
(4.99893549822489 -0.0001414794723713186 4.394283693015784e-05)
(5.00620108150757 -0.002424513677098906 0.001290569499353467)
(5.00004261997722 -0.0001110435968498691 6.185258114048929e-05)
(4.99995893993874 -6.390209565168575e-05 1.970834719865573e-05)
(4.993212112160765 -0.0006993327089388752 -0.0003791720379057868)
(5.009133990385235 -0.006145352336705469 -0.004080305801205245)
(4.999999400735958 -5.998195165986942e-05 -3.6063889732632e-05)
(5.000173738892037 -0.0002022805277068898 4.580494148320766e-06)
(5.000017464922879 -0.0001969617134545338 -5.370110743712147e-05)
(5.000051770295225 -0.0003876244285654927 1.158562813564765e-05)
(5.011253735906557 -0.002566212994904379 0.002414019963911539)
(5.000049036594453 -2.609194517297892e-05 -5.040052353359131e-06)
(4.999972395954067 -6.927930927024412e-05 -7.794770660144546e-05)
(5.00009278009845 -3.862215088585498e-05 -1.134990206678167e-05)
(4.999989361028239 -0.0001131055615896586 -2.120684364075717e-06)
(4.999976428055173 -6.344846485769515e-05 3.053161117209206e-05)
(5.004901886587714 -0.00314202870458788 0.0006406142039799253)
(4.999069885608008 -0.001653635328938343 -0.0001973609359431748)
(4.997381480585497 -0.0002953156782208191 0.000255019755405249)
(5.000034025323553 -3.006364771855198e-05 -1.144700726656028e-05)
(5.002404313300402 0.01898695505463728 0.01650704564099201)
(5.017933072321147 -0.01303520006463609 0.007314472286355664)
(4.999410460919129 -0.00095220986465142 -0.0001298591686615359)
(4.996268514329271 -0.00314697780930828 -0.001869826108788419)
(4.999968425800115 -0.001138148390756302 -0.0006665015578377969)
(5.000034354408628 -1.782701726151263e-06 -1.274004038480548e-06)
(5.000238968744127 -0.0001693213836771377 0.0001054869654787595)
(4.999972393139203 -0.0001541764185381794 0.002139146612787652)
(5.000231582924204 -0.0001480454767653457 6.773323063938423e-05)
(5.000275822089238 -0.0001822568664950148 4.124548035811899e-05)
(5.000029028525729 -0.0004306188605872385 -0.0003673898672140931)
(5.000180322934558 -0.000153859080451018 4.598909420358715e-05)
(5.000023670734201 -2.902906303374164e-05 1.027721514813761e-05)
(5.000308952213178 -0.0001249830732825439 6.700973996818949e-05)
(5.000015103464493 -4.436143054246841e-05 -2.723537353066622e-05)
(4.999975146886387 -4.897748318473478e-05 -0.0001196886582433899)
(5.00004454477698 -3.177563768818667e-05 -7.654444564215773e-06)
(4.999944123876012 -0.0001989282588300554 -0.0001132398474455608)
(4.999996215170192 -0.0003177448789134645 -3.099023884900226e-05)
(5.001345228203147 -0.001730115697621881 -0.001017329506145757)
(5.000522268209767 -0.0001835271140697261 -0.0006406329576862531)
(5.000062529622114 -6.890715668438766e-05 -3.890190924775891e-05)
(4.99993487649417 -0.0008410399875434355 -0.0004125213116387967)
(5.000026566417157 -1.061421814471014e-05 -2.370276309537316e-05)
(5.000327180022176 -3.489599324092505e-05 -0.001054023822959844)
(4.999979213832632 -0.0007489430000571491 0.0003857402560207608)
(5.000090795511591 -0.0003326263289682268 -2.748079662828178e-05)
(4.590659015624903 1.495027816932048 1.099843946312502)
(5.000107467542488 -0.0001708696636584508 -0.003055969912062468)
(4.999926037009336 -0.001466492368646403 -0.0004359042665869368)
(5.000125176823185 -0.0002937862349417589 0.003967508117909451)
(5.000240630422272 -0.0004177712057593999 0.0006445068456668083)
(4.999495215391617 -0.001370601930660011 0.0006606190833157963)
(5.000197503914224 -0.0001492554067930335 1.232335944233017e-05)
(5.000052237404377 -0.0003190062441789796 0.0002331684384738812)
(4.999992723166997 -7.639340381344783e-05 3.749122426022692e-05)
(4.999976113127644 -6.389593298577727e-05 3.524035748467819e-05)
(5.000034708566903 -2.571073476443327e-05 3.492974936182901e-05)
(5.000028596960745 -1.981049735792976e-05 0.0001576455735144992)
(4.999988071851451 -7.152485264696123e-05 8.381078173659992e-05)
(4.994826122612827 -0.0007431244573751852 0.0003192393319499021)
(4.99993383919703 -0.0001489278079413128 -3.61282469826383e-05)
(4.99995480489974 -0.0001067125608649217 5.680154411545084e-05)
(5.016391791543659 -0.01596224614703331 0.01154898925063876)
(4.999971176015804 -9.848677492483538e-05 3.985659155060907e-05)
(4.999974403512081 -0.0001294824181286017 9.308891386537101e-05)
(5.000036713930109 -7.068558393082663e-05 2.503469878981507e-05)
(5.319175963824473 -0.04363106236911277 -0.4214620256418798)
(5.000125593062189 -0.001046808057678011 0.0008447094365500579)
(5.000138132751321 -0.0001743864554992134 0.0001312022372253829)
(5.000048846848088 -3.050083965839709e-05 -2.266422334728672e-05)
(4.999967055428568 -0.0001105009228734245 -2.659471354796265e-05)
(5.000061962296546 -2.606247833880255e-05 -2.985628690957315e-05)
(4.438572266676859 -0.2601179943022751 -0.02232307557481246)
(4.330535940272989 -0.02246689036327776 -0.4385302329586548)
(5.057610471913518 -0.0311165401981774 0.0007892459584481019)
(4.999092322798847 -0.003138545670828591 -0.001171174060313187)
(5.241145434012909 0.1559448335120932 -0.05061493265428602)
(4.061480190540205 0.2198327507491424 0.04091305779990002)
(4.451819299979308 -0.07060418089043388 0.09093882090241838)
(5.00005348011508 -2.120090186743594e-05 -5.567572561762672e-07)
(5.448097674403889 0.01668996493216637 0.7825138315154045)
(5.295075377332894 0.07126857160155906 0.273798112121488)
(5.000050653955929 -2.966402427255694e-05 -8.878300389853705e-06)
(4.999982124562296 -8.789053045913452e-05 7.232294398028714e-05)
(4.97568689712645 -0.001251694916111329 -0.001071961660640111)
(3.718903936452391 0.4972173413087556 -0.4360117334247372)
(5.000037011080476 -0.0001203518195423817 3.1861123922734e-05)
(5.000133431634906 -0.002712384873223834 -0.0001164972406961247)
(5.000000896549501 -6.937739541898785e-05 -3.245722609942477e-05)
(5.51221585814992 -0.2387604443713531 -0.9083326887359493)
(5.104351281251461 0.1716795000810503 0.04159628099945392)
(4.998484721611292 -0.0001824421803220298 -4.106354529010285e-05)
(5.000376021640268 -0.0002031483752826331 -9.41418717723304e-05)
(5.000012159618899 -6.470388205704927e-05 1.29119500175689e-05)
(4.999959543490308 -8.139982239889395e-05 -2.944362924753817e-05)
(4.999055387324982 -0.00204029034758131 -0.00205573694630928)
(5.000004155427706 -5.28712365609608e-05 -0.0004219320326223838)
(4.999953123366882 -0.0004015590353494453 -9.060694209695979e-05)
(4.999953797338949 -0.0001913613366162868 0.0001049363949602867)
(5.299290376930962 0.04177936128891686 -0.3922056109768196)
(4.998468043194703 -0.0002005390435405434 -1.765752978102494e-05)
(4.183664061885598 0.1229963760158013 -0.2687475587110537)
(4.999821866497901 -0.0004771935923378389 0.0002929946742946991)
(3.272521929941592 0.4758964052835868 0.2264161285410814)
(4.341549411166948 0.1093016352844081 0.3184427853981746)
(5.002172635367415 -0.001358828023209985 -0.0002561004594651635)
(4.628629305737499 0.04958856308743894 -0.4692138422181883)
(5.001899845754894 -0.0009458544155855597 0.0004312900472511074)
(4.995031196745185 -0.000333002452356807 -0.000476189538756902)
(5.000126551734801 -0.003444338592131242 0.002633989663872036)
(5.000772658544713 -0.0004609005100498052 -0.0005666589317572801)
(4.059035560336799 0.1796176725683667 0.04079512296283522)
(4.999574264293369 -0.0007267653304382457 -0.0003723080885586949)
(4.999990972016373 -0.0001638411879617735 3.81057607399766e-05)
(5.000269349420713 -0.0001451257067143576 -0.002509391848177501)
(4.473856020909484 -0.544612607030543 0.1253534352379966)
(4.999954889443148 -0.000100417666240003 2.08666301684074e-05)
(5.000024137001841 -5.395621104987987e-05 5.827835187597749e-06)
(5.000038839641368 -5.205866938105311e-05 2.410984341054478e-05)
(4.999918566810415 -0.0001811614717126041 -9.81020032475092e-05)
(5.000244382976419 -5.25446506205827e-05 2.544563695074533e-05)
(5.000031039499691 -0.0001117228952972791 0.0009471337656860521)
(5.017640421932931 0.03649769387616172 -0.0008307483368370642)
(5.000041530817827 -7.687323758552844e-06 8.676204366448136e-06)
(5.013006291845359 -0.01138255953971351 0.0130040519908476)
(5.000541603142664 -0.0007806049173422494 -0.0001013645955566575)
(4.999842657692596 -0.001029944829964927 0.0004563667109320199)
(4.992311090514105 -0.0005713243143992257 0.0003858011837113564)
(4.999977899999025 -0.0003173585623523321 0.0001894222859733656)
(5.013142051762029 -0.01293087254508077 0.007073326174213843)
(4.999974350786797 -4.463695628668019e-05 -4.809848272305582e-05)
(5.000455208909591 -0.001145982580575743 -0.0006104164816862689)
(5.009372238885998 -0.008435978851696137 0.005089722949292013)
(5.000051803165298 -2.75002270013606e-05 0.0006142110494864348)
(4.99085914125695 -0.0007176036230814061 0.0003814953846893406)
(5.000102578088826 -0.0005581099841096094 0.0002625717709841903)
(5.000025624763078 -0.0006424443404688776 0.0002947578163417386)
(5.002650109875706 -0.001146360553218456 5.57624516208422e-05)
(4.366327001910313 -0.4968907507079469 -0.4366556232985994)
(5.000022662557074 -5.351841604111224e-05 -1.070357565120087e-05)
(5.000043905836924 -5.981960030453532e-05 -1.708584321119869e-05)
(4.999991010941596 -0.0005181154381927712 0.0002627008872876725)
(4.997883351068049 0.01166809098350007 -0.01422462496057363)
(5.000108132614475 -0.0001651870702572415 4.77454061103847e-05)
(4.999915243805865 -0.0007067271460312237 -0.0003477159456173239)
(5.000042390744084 -4.945333928715811e-05 2.458655530706911e-05)
(5.017432915394465 -0.007682135554700759 0.002134341120332625)
(5.000098235495848 -0.0001691225863284048 -2.635214640755455e-05)
(5.000037236868946 -5.746944868993976e-05 2.504607153919083e-05)
(5.000083231346414 -0.0005039296703703657 0.0003755561590419896)
(5.020989446370238 -0.00966230609793778 -0.002871801144886032)
(5.000129830524461 -0.0001734703288523874 3.091252550332702e-05)
(5.000183069725714 -0.0001501516228472273 1.53865875407737e-05)
(4.99983634748808 -0.0005343666969115313 2.069808911981255e-05)
(5.000032795645224 -0.0007758806245764905 0.0002239765606861951)
(4.999985908315612 -9.495147054257126e-05 6.179393335542331e-05)
(5.00002481101642 -0.000409185310040935 0.00017638503652299)
(5.000046653817595 -0.000414990859211341 0.0001303172858757156)
(5.000045407023214 -0.0003897297928136431 0.0001222414127402481)
(5.000051258645682 -0.000489937298628242 5.28185222093503e-05)
(5.000062601026852 -1.399447684989145e-05 -6.80852833827541e-06)
(4.999969208394886 -0.0001536227898762709 5.589319820398412e-05)
(5.00007279220497 -0.0006097224711451991 -0.0002461115958674706)
(4.999911660947096 -0.0006273979216140135 -8.604020681176916e-05)
(4.99946588296912 -0.0007168630737608308 0.0002304094476786425)
(5.000087509526657 -0.0006088647471827322 -0.0003156203203050033)
(5.002853838585499 -0.002162141271006271 0.0008998297073772974)
(5.001014711751431 -3.058442872421588e-05 -5.624225480936539e-05)
(5.000104813960695 -0.0001194388897641222 -1.796611272446016e-06)
(4.999945524049103 -0.0002772926608616621 -0.00247307656294831)
(4.975536315831319 -0.002012803125912156 0.0007216221475392399)
(5.000064524995625 -2.002542209420608e-05 0.0001863550216401448)
(5.016765605921819 -0.0008582879932850615 -0.007718372967638671)
(5.00008232701737 -0.0002621482024377802 -8.661582539616271e-05)
(5.028771099532901 -0.01963252290765615 -0.03598307151576487)
(5.00014629604573 -0.0003188825061660774 -2.718406161182559e-05)
(4.999915504000501 -0.0003692588645505313 0.0001635556110297093)
(4.999813246006854 -0.000639535604853598 -5.195672879771746e-05)
(4.999824843772824 -0.0007948479884003308 -0.0001530892670560396)
(4.987932965677659 0.03091426867733436 -0.03024329189813813)
(4.999844018439825 -0.0006726865936658687 -9.92575414853898e-05)
(5.000308021243051 -0.0002046746191399876 0.0005282549032896604)
(4.999938694175501 -0.0006197231263205269 -8.140139853375897e-05)
(5.000022408410921 -0.0002796051684519908 0.0001865524514224928)
(5.000081279941806 -6.440888457740484e-05 -5.332070994453834e-05)
(4.999568491818877 -0.001208623545549104 -0.0002983152129506156)
(4.999991982001372 -0.0001707277374801801 8.343043701876718e-05)
(4.999985049448698 -4.306089160228317e-05 3.294978749351202e-05)
(4.999988078011004 -0.0001496286694241298 5.814700461858838e-05)
(4.999985019478616 -0.0001315825440254435 8.126287536406097e-06)
(4.999969187278126 -2.645656178218685e-05 -8.093145822563612e-06)
(5.058829077770233 -0.03605659586593286 -0.0137037744709817)
(5.00003878236534 -0.0001280920282723274 3.816224815117206e-05)
(5.000024555126055 -0.0001364406999291532 8.755106801642153e-05)
(4.999981960677609 -0.0001670632747009454 0.0001240581679487295)
(5.00000204672095 -0.0001454157315144484 6.021999237046955e-05)
(5.000080153770823 -0.0001666675193013698 -4.361298936520908e-06)
(5.000096671947824 -0.0001729148763944097 -7.029947646304184e-06)
(4.999981049830635 -0.000156486267018796 1.161075171043077e-05)
(5.000012533885099 -0.0001931098721295176 9.64231573571589e-05)
(5.000064371920275 -0.0002038081234310636 0.0001951732590413635)
(5.000027463439427 -0.0002420312799425973 5.45199964798003e-05)
(5.000118559642979 -0.0002940295610314083 0.0001751166143830348)
(5.000233574922727 3.855567117596427e-05 -0.001455756793271482)
(5.000137412123579 -0.0004093017862963001 0.000219322164773782)
(5.000070165684019 -0.0002992844345313917 0.0004913598282892153)
(5.000000607158381 -0.0003096017830058204 8.774839869098599e-05)
(5.000129011935705 -0.0003850376889996307 0.0003028826001213967)
(5.000004341745789 -1.963923579413242e-05 1.972780619554914e-05)
(5.000005295886069 -0.0003454092736213444 0.000226140882074405)
(5.00013860675822 -0.0002875337732567003 0.0001248973189684944)
(5.000184113156919 -0.0002073802433675047 0.0002218596331160705)
(5.000077785665676 -0.0004300767005633662 0.0003551754198464482)
(4.99997396933713 -0.0002856853773406841 0.0002356460480305687)
(5.000111117373826 -0.0001325169390724827 -4.123905150614381e-05)
(4.999976515116553 -0.0002723987255196195 0.0002045015132950336)