/*--------------------------------*- C++ -*----------------------------------*\
| =========                 |                                                 |
| \\      /  F ield         | OpenFOAM: The Open Source CFD Toolbox           |
|  \\    /   O peration     | Version:  v1906                                 |
|   \\  /    A nd           | Web:      www.OpenFOAM.com                      |
|    \\/     M anipulation  |                                                 |
\*---------------------------------------------------------------------------*/
FoamFile
{
    version     2.0;
    format      ascii;
    class       volVectorField;
    location    "1.2";
    object      vorticity;
}
// * * * * * * * * * * * * * * * * * * * * * * * * * * * * * * * * * * * * * //

dimensions      [0 0 -1 0 0 0 0];


internalField   nonuniform List<vector> 
19632
(
(0.002406992939522521 0.00607555277552919 0.002745787556551421)
(-0.004194434628389573 0.001941993906780497 -0.0003358007760018306)
(5.705228216689628e-05 -0.0001097240138694708 -6.571121156596206e-05)
(-5.3810198519107 1.006376163401909 -1.034248559160061)
(-0.00050850563739717 -0.004777322156433233 0.0004061882288911963)
(-0.001363325020832539 -0.0006129121780638185 -0.0005800372537022985)
(-0.00242672811798679 0.009156162106355751 0.006729870962335448)
(-0.002831987223043713 2.784930210342673e-05 9.220713973022856e-05)
(-0.004288736591433567 -0.0005010049515605269 -0.0005500896463755243)
(-0.2799563384333033 -0.1603058108354618 0.2657940096172288)
(3.052559012487756 1.298701276670459 -2.05748649086869)
(0.001109176816128189 0.003794826244396885 0.00101346266682728)
(-6.706770034810199e-05 -9.776649033314545e-05 3.059642979451954e-05)
(0.0002856263777031556 -9.112053928989351e-05 5.052341579437828e-05)
(-0.006158913005689634 0.003750071848714606 -0.001164474934379689)
(-0.001664596782897855 -0.001221896334504478 -0.004236060870600521)
(-0.00187473866571493 0.0004372389478056923 -0.0002175578823514771)
(-0.007634434292949327 0.01507231548725827 0.009408474525047731)
(-0.0001782779256912023 2.197816084392055e-05 0.0005774032309248657)
(-0.00271279225402299 -0.000395375115588486 0.003190828119935223)
(-0.07931859214218995 0.01357330299053379 0.02321165234442956)
(4.282674766469817 -5.392546109846258 -4.152322457321838)
(-0.05927453128298597 -0.03892302958486324 0.06561756574560469)
(-0.004890334198819111 -0.001706308871130706 0.0004543784019098918)
(0.002045380534913368 0.0008088461744200351 -0.0005521759752960028)
(0.0004224323700378165 0.002246615760555796 0.0002021239288252554)
(-0.0001168760260100117 0.0004454880726522707 -0.0003525586720526002)
(-1.446668645446775 -4.127695625087781 -3.675585748674253)
(0.007886152949837121 0.001034042811561255 0.009197273269222732)
(-0.0001435175425529983 2.821755876814669e-05 -1.389347723734605e-05)
(-0.000188394532005019 -6.711649817259799e-05 0.000174262405430753)
(-0.000769787184303768 0.0008838082317143183 -0.0007477211311177384)
(0.165110568158568 0.06075754200042598 0.05347072897274564)
(-4.089033859578271 3.167399387887543 -5.868891001865673)
(-0.0001642167440516206 0.0003159078087407078 -0.000322102607360337)
(-6.529896550704978e-05 0.0001414527485791244 -5.210746886255063e-05)
(-0.0004533469941332387 -0.001499797873916669 -0.0008056776198070807)
(0.001257793464017705 -0.0001331340804430959 -0.0006774139028021384)
(-0.0002064043948661051 -0.0001601478750965436 -9.007500055626999e-05)
(0.002455671817107718 0.005000808136431754 -0.001171815372878633)
(0.002002954742982546 -0.0004285061168949146 0.0007667713519661355)
(0.001376549451839906 -0.0002629949398970697 0.0004504599077420125)
(0.001860758906733732 -0.001684044354085318 0.0003849542331067772)
(-0.09120545027362795 -0.09840285213297724 -0.1518941499104352)
(-0.0009584224554923251 7.958813131894011e-05 0.001574487707583491)
(0.001575952112053067 -0.0001400330915457105 0.0002806610918019763)
(-0.0001313150841984086 5.249058193419214e-05 6.163996334367807e-06)
(3.23020755361103e-05 0.0001134138614579021 4.110280478120828e-05)
(-0.001033510778376651 -0.007229359770987148 -0.007165244606620933)
(-0.001043688279616359 0.001022154197562611 0.0004758877678113847)
(-0.005428008324690217 -0.002105976251227528 -0.001223799324838794)
(0.007597182574806413 -0.002491281740129081 -0.01006112241177738)
(0.005847365206888088 0.004294535402738916 -0.001042083581285544)
(0.000497051135581061 -0.0007657793711291931 0.0005054656606137861)
(0.003078459545345537 -0.002052144812468287 -0.0001603065673598312)
(-0.006360707390732359 -0.001005398272509872 0.0008731811937155512)
(-0.0001455180273851157 -0.001130182234681216 0.0006785305380234527)
(0.001763929760342154 -0.0005476617908338191 -0.003972125520765922)
(-0.0007325175675831589 -0.0269547114066936 -0.01571705322952327)
(0.06415842135528814 -0.08769128344927402 0.03877710135931556)
(0.0006766874835364031 -0.0003200035516435491 0.0009535137564721106)
(1.786599952739003e-05 0.0001186499479836881 -0.0002098192666445741)
(1.51221427038277 5.715650446695548 -5.988119571303609)
(-4.62991154603059 -0.1893476401197796 -12.56630116329341)
(-5.888315432219239e-05 -2.717241988339867e-05 1.811192724924943e-05)
(0.07007113755570016 2.47018435433163 -0.4058959898330041)
(-1.768438755779646 -1.745420970401591 -0.4977889300368358)
(0.0003482421534392462 -0.0006164322384508338 -0.001304017168301251)
(-0.0004945217391266749 0.0002425987977816736 9.876495334625953e-05)
(-4.876146827027111e-05 -0.0003830075129892528 -0.0004663310760150539)
(-0.0004961774547943377 -0.001014214858576714 0.0002730954081582634)
(-9.495092071896258e-05 0.0001166339930780544 0.0001638290468824842)
(-0.0003134102082796077 -0.0002536548176796354 0.0001205688416750099)
(-0.0005064494571354238 -0.0002260444805617757 0.0004817465883530263)
(-2.006278593091175e-05 7.598048456368211e-05 2.982456037802257e-05)
(-0.0001135971124447787 -7.416859196036919e-05 -2.965696540731804e-05)
(-4.407312913867185e-05 3.371803444365843e-05 -2.804334435504243e-05)
(-0.07954477220862756 -0.02834892319464696 0.2834505558630235)
(-0.1085775030623434 0.3984849979753468 -0.2776978299278334)
(0.01285075923173225 -0.01277398813432283 0.003825674171266219)
(-0.0625084476801436 0.01927819236696131 -0.2100825795238984)
(-0.4635921146505232 3.05116711331353 1.88287668377192)
(-0.0001126455946669437 -0.0001046484439483128 -0.0001042015971114561)
(0.0001935111517447293 4.920638424101197e-05 -0.0001101407758980603)
(0.0003511378171268454 -0.0003700551100804188 -0.001000849545234583)
(-0.0007072498019912166 -0.002724328340642314 -0.000495241689267772)
(-0.001811776181033272 0.0002418339952000697 -0.001925259885283603)
(0.00240233786128066 0.0005789455393600927 0.00410412566515871)
(0.001361895313917517 0.0003923061254614555 0.0002138093890824705)
(-0.001168430339926111 0.0004105212965822601 -0.0008198346842265404)
(-0.004715999249935213 -0.03050651398303659 0.01846527507076899)
(0.003362719949982447 0.0004651345885841482 0.002187873535040363)
(-0.000370365330552979 -0.0009739184501737035 0.0003636605198391017)
(-0.0128758488710047 -0.00948328178595703 -0.002100236290548373)
(-0.00226835608425717 0.0003588623087706811 0.0003623358107478215)
(0.002287810763373658 -0.0008431506306560853 -0.001738225877684886)
(-0.002214710129364971 -0.001458723546141381 -0.0006025107588742751)
(-6.718700702266101e-05 0.0001131286985027455 0.0001083866746419782)
(0.002546209843108394 0.0001114081189718366 0.001864818076346204)
(-0.0006642901948708498 -0.0009264913141738718 -0.0003033689212255382)
(1.448731201888693 10.57933567760855 -2.030367206618377)
(0.0008199904268968109 -0.001224712220343453 0.002574917870956369)
(-0.004932399593265135 0.007985227001599758 -0.003724428463491657)
(-0.004579376873856854 -0.000974439024729658 -0.001556720317344396)
(0.5979839105072579 0.2008320543312599 -0.2643014830211697)
(0.06013640925298855 -0.06250724743706264 0.00429021770968515)
(2.493300347450217 -1.536554167991966 1.851477919027724)
(-0.01796508897300879 0.01225213704774514 0.02120392546779933)
(0.00350175481489158 -0.001094077675658247 -0.002641078891357355)
(-0.003238403823099557 0.0005124391272248146 -0.003837006883246302)
(-2.249955598629027 6.195819803357367 0.5755633775418696)
(-0.001629550468470362 0.001257985080431775 -0.001813962022980152)
(-0.0004036427254189488 0.001335674196785356 -0.0009187947713602451)
(3.925183950561167 1.885350948314834 1.886098044758671)
(0.000893004606863197 0.0007403051386805409 -0.0005454942783972778)
(-0.008751764592971618 -0.1659724793556136 0.1211374106593535)
(-9.252952073914431 13.29539166562839 -5.48455623139121)
(0.9205155720948283 -0.4223502264091754 -0.3504916462249605)
(2.663584133741348e-07 0.0001393058050588317 -0.00136261488339431)
(0.002944895013554403 -0.0005395809015804405 0.00127118679263215)
(-0.001196741045458082 0.001657970611953365 -0.001125721748100236)
(-0.002812834555833901 -0.002669780138616154 0.0007703388944091021)
(-3.73480026170504e-05 -6.494248903164924e-05 -0.0001052982079582182)
(-0.0001314718637733335 -6.927503289738419e-05 -9.699425104560303e-05)
(0.3493006470516206 0.2554218927109624 -0.2121205602865307)
(0.02538686177599856 0.02019574210111393 0.06617613060082082)
(0.003042874833984876 -0.0006056231485739562 0.0005353741429368801)
(0.002517861442974397 -0.001105709413294821 0.0008002160346674326)
(-0.002909887501569563 0.004832525083684001 -0.009248602329762965)
(0.0009242670383031904 -0.0001995296803253426 -8.649389987439645e-06)
(-9.515468235293719e-05 -9.528520670996054e-05 0.0002019184289535493)
(6.902224807809239e-05 0.0002893956986087287 0.0002103306319437967)
(0.02203516861640153 -0.004250061242357994 -0.02348248549588688)
(0.0001054831546195222 1.139346965551029e-05 -4.364255095256006e-05)
(0.002742119908373609 -0.006609274031551217 -0.020882388133905)
(-0.0157181210646198 0.0158140563221643 0.001113122544909825)
(-0.0004482425712109358 -0.0001032454601476149 9.958505859906583e-05)
(-0.000321330761581129 -4.025547760280756e-05 -0.0006511234463713053)
(-0.0007681106725131727 -1.398351914415647e-05 -0.0005281780990371736)
(-0.0004958935022246046 -0.0002473152064697091 -0.001019218543905803)
(8.231990166769599 -15.71026153646533 -48.48816196167846)
(-1.986371712504271 0.6744094892306215 -7.377912021623028)
(-0.5456851390785298 -5.063876867455766 -3.732677451071272)
(1.317470347587056 12.1432548698085 -3.51032237378319)
(-5.432430671383879 8.167106912102099 -40.30773581830268)
(-8.140622243508453e-06 -1.568829533706035e-05 -5.953189681149533e-06)
(-0.0004228220464501211 0.004440028861204704 0.002492544556700115)
(-0.06218375639474692 0.08453728855431786 -0.1257314910076291)
(-0.000876553440845515 0.01230553557456488 0.01123449927613906)
(0.0008260729095682689 0.0001952503466414832 -0.0007551396553796717)
(-0.0006156638234814576 -0.0007793276604382948 -0.0003911421518329594)
(0.0001436756339270457 4.803308689847655e-05 0.0001570456717551422)
(-0.001832614110769818 0.0004696462635023103 -0.0002000959499176924)
(0.00168514488303829 5.506063173592345e-05 -0.004430362897684008)
(0.005155708527243164 -0.03641584003703514 0.01634790005673687)
(0.0005111357237878159 1.933376303960509e-05 -0.0003515121927292568)
(0.0001139682568855049 -5.895993857121961e-05 -5.869161138993641e-05)
(0.001155624406724283 0.0005280318197571558 -0.0007530781467338823)
(0.0004819663124747262 -0.001358724269069987 0.002024587016831515)
(0.9795024403300114 9.460366018639824 -3.175194567159544)
(0.3280324783929014 -3.63653110803968 -1.407577707815175)
(-3.272137591425127 -5.077652970778594 -4.016430474750265)
(4.921411315769658 0.2526527242501041 -13.57555369124978)
(-2.338877268949939 -3.459696594389087 -2.18293880942636)
(-0.0002148953898694568 -0.0007332556216893156 0.0004205910177205452)
(-0.007186278215528348 -0.006162721202021373 -0.007044037610723774)
(-0.0019654990829869 -0.0001792224081708179 0.0007409003628908354)
(0.007981372323715654 0.001932222496450737 -0.002260595236738235)
(-0.8277629055524163 -0.2881505344320928 -1.838574601916501)
(0.001257602637236576 -4.918750802287102e-05 -0.0004154372725373464)
(-0.0009318027569105848 0.002720021682513141 0.0003154009362289823)
(-0.001933996938267115 0.0003072549537597956 0.002051572078636159)
(0.01990460834019133 -0.01232522059251712 0.005112731702111418)
(-0.0003434791760059163 -0.0002061675142090714 -0.0001783156679983212)
(0.0006106806545119656 -0.001463739294502913 0.001471956051492655)
(-0.00211752514064541 -0.01226811253949416 0.01199235468645432)
(-0.003135802088429909 0.0008266283597135033 -0.0005230795590793043)
(0.001797821574686893 0.0008926990425255649 0.002363213012975623)
(0.0006050378929613896 2.409754996691115e-05 -3.562026463609288e-05)
(-6.614733951671654e-05 -0.00024281768934616 1.766392634675199e-05)
(-0.0009138025914035334 3.089500099605949e-05 -8.621396928072907e-05)
(-0.0003047318090986776 -2.381505975464689e-05 8.220524595577019e-05)
(0.000306053945316882 0.0001575046892417711 -0.000112119540670269)
(-0.002144826559101543 0.002088682035852241 0.001152676237146838)
(-0.003605017545164675 0.0004616620495024367 -0.000738972443366041)
(-4.956710949646448e-05 5.790119001313947e-06 2.801411775686851e-05)
(0.002806320331567324 -0.01116037104423387 -0.01019748198545001)
(-0.0004024338821175821 0.000298061866084437 0.0001114475575376164)
(0.0006669660592198396 -0.0004682294725643331 0.0008627707608092254)
(-3.347049824308685e-05 8.417492628236601e-05 -8.802461295465365e-05)
(0.0006976333652230823 0.0004342108363993501 -5.770076921920227e-05)
(0.0126307362217722 -0.0080251691368073 -0.003521345773091699)
(0.008602531366332135 0.01934976276919138 -0.005269948520775664)
(0.009056079557037784 0.004374365358835586 0.001090247882219114)
(-0.001079433891366165 7.946027811673158e-05 -0.0005129538605031466)
(2.180906514799687e-05 -6.355707726479385e-05 -9.024894702621525e-05)
(0.005439084823238335 -0.000742969977621397 0.0005181466272784891)
(-0.6491602597638865 -0.1144007196444695 -0.5860802879967724)
(-0.0007756424308075676 0.0001035768525132004 -0.0008441725905439352)
(-0.02015841039605159 -0.006896081122008544 0.01016945163948078)
(0.0007632360277702557 -0.0005222242006017541 0.000966265540247997)
(-0.008510457451374546 0.002425483256881384 0.007117124888215982)
(-0.001068687384679946 0.000190695237686215 0.000923879473073492)
(0.004332703512939721 0.002890131870974688 0.00141755630185472)
(-0.02408066341564677 0.01934551520888256 -0.02674584700874419)
(-0.008122019644846878 0.0009142741509793133 -0.0005763131134869289)
(0.000869462323929693 -0.0007764495080932908 -6.523275585963194e-05)
(-0.003130764925544948 -0.001405712703185995 -0.0004755320546330347)
(-0.0004068112498419681 0.0001511885285311431 0.00019484401760581)
(6.353980240231011e-05 -6.624939436579079e-05 3.961746331316709e-06)
(0.0006462457178047112 -0.0007587371082882072 0.001923765998607346)
(0.0002569211416151837 -5.879056041838456e-05 0.0001808314154958407)
(2.183808892261804e-05 2.817208469648396e-05 -2.205173424406945e-05)
(-0.0005745005122605881 -0.001195558064644973 0.0008704653035388989)
(0.002745666235354692 0.0008015430334069477 -0.0003794432023102547)
(0.001296053808240834 0.007225437676321078 -0.001112919189085608)
(-0.001089165307615414 -0.0007393110932368891 -0.0001732433952121702)
(-0.001424945102788196 0.0007155008631792989 0.003474548790493306)
(-0.0001492216655164177 0.001109552627892238 -0.0003097951754500536)
(-0.006023467765685976 0.002747881901757448 -0.0265672219008683)
(-0.01573548332063274 0.001858856825453408 -0.02484893082096353)
(0.01368522131317112 0.004670966593293075 0.000476020312144067)
(-0.0004548877796314535 -0.0002400006801192996 5.304060736049722e-05)
(0.0003186130241961099 2.501315026235618e-05 5.877048945731374e-05)
(0.007397404124627759 0.01224577124161161 0.006305926566776984)
(-0.0006603630171514105 0.0007604423817799971 6.216325538100135e-05)
(-0.0001830346991259321 0.008784437202938037 -0.00697760697366946)
(-0.0008375226213642627 -0.003941736774097808 0.0007619561966759208)
(0.00058460597860195 8.467412897954174e-05 6.433707948730636e-05)
(-0.0001267432494503592 4.995009583880859e-05 -0.0001652355473121471)
(-0.001516604241906681 0.005437518216927251 0.0001199509528248682)
(-0.0005617679658086337 0.0001327469924546853 -0.000285590751607715)
(-0.0009281002301591247 0.001642814579516347 0.002730706207468716)
(9.647278693919171e-05 -4.61997990785496e-05 2.155345926648541e-06)
(-9.936123378439283e-05 0.0002790118668418449 -0.0005447717075840323)
(0.001948703761936512 0.0001539015448481315 0.001270421521706468)
(2.151756117481497e-05 0.0001042111530178669 -1.920566674508651e-05)
(0.000529253134771087 -0.004725416273951889 0.01240551248516544)
(-0.006998911327342309 0.002513648293727167 -0.003068771677366462)
(0.002176411388387141 -0.003785679589730521 -0.002132988266464013)
(0.000548344575560373 0.0006328046735271522 -0.0001022932255154053)
(0.07039548364794852 0.02293690289980246 -0.003871167398173548)
(-0.01714002766538631 0.01078794986965766 -0.001594502741636616)
(-0.0007359869293859403 0.0006273457799565899 -0.001436883900361132)
(0.0001501772249849444 3.49980891176496e-05 -0.000203092870288525)
(0.002997506542050639 0.0005275649997959746 0.0002781410752401411)
(0.001601862486246993 0.0007867933046603729 -0.001017486489120547)
(-0.0009283882560420676 0.001967844770550032 -0.001910167804586123)
(-1.347590761925551e-05 -0.0001360039118236171 -1.849133846682808e-05)
(-0.0007928550887482749 0.0002999302796228193 0.0001141363755751294)
(-0.0001082153009715323 -1.911265369447377e-05 -4.209073385103604e-05)
(-8.426511370455332e-05 6.446867452659228e-05 5.859490171763702e-05)
(-0.0004117628539872409 0.003521918697386803 0.002304347581847646)
(-0.001453466429374599 0.0002896387300229362 -0.001841758916008869)
(0.0001000182604255182 -6.421435910499665e-05 0.0008092245407478159)
(-0.004558170820285391 -0.005497616460055444 0.007225951692272524)
(-0.000704975554872356 -6.872671886929931e-05 -0.0009543809356750662)
(-0.008279283748838821 -0.03366619493499021 0.001206921352101786)
(0.01693271898236886 0.001617036743341282 0.01153433727004506)
(0.001655830296948007 -0.002790505848624786 0.001898551632850919)
(-0.000723182182578072 0.002003629780427578 -0.001609705829997234)
(0.001516303810548682 0.0003231244978517311 0.0005124739532506611)
(-0.0008947753176588831 -0.0007953214090534167 -0.005428214905812048)
(6.258146336956493e-05 -8.674635171386898e-05 -5.501717958510335e-05)
(0.002987116033403959 0.009731949340333688 0.003198290440320507)
(3.931167863043812e-06 -3.589542653195236e-05 -8.305452398671111e-05)
(7.246004494496128e-05 -2.687203305846713e-05 5.461251904505563e-06)
(-0.0006464183010975627 -0.0006347761123990901 0.000167365187808378)
(6.778636022343348e-05 7.293131921950745e-05 -5.427313199257771e-05)
(-0.0003629619678662259 0.0005325825055444262 0.0001188238431487213)
(-0.0002201017019009355 3.138516382601147e-05 -3.859492403611275e-05)
(0.001307015295222651 -0.0001324784877363435 -0.0001561168078209722)
(0.02738916798370586 0.02522211659945318 -0.003211606285693215)
(0.0003504653111015944 -2.431012888033796e-05 0.0003516942093600303)
(-0.001259294333834522 0.01798675473444895 -0.002142257541172335)
(0.007156248139829 0.002289711381684084 -0.007768463976231711)
(-0.0002201927490074179 0.0001951521728963827 -0.0003692519297021408)
(0.001451983053169485 -0.000195712437303413 0.0003255763830270217)
(-7.705298932510996e-06 5.443375296221049e-05 -4.931751993188416e-05)
(0.002230410502424952 0.002433418381850929 -0.004568126510864782)
(-0.0008712029146416081 0.0005411037681326184 0.0001890639691263238)
(0.006526385731986318 0.002925378931221383 -0.0004933307947318668)
(0.000932345098058891 0.0003908220800020634 0.001096049437049682)
(4.269624352984502e-05 2.240011822520681e-05 -7.806555748287084e-05)
(7.514809281618054 3.979826274085702 -1.106460818751228)
(-0.005166387717000063 -0.009307554568740486 -0.0004968039057985836)
(-0.0003823331746023117 -0.0009050986441417762 -0.001079089087476546)
(-0.01367020351090755 -0.003786392048945109 -0.0001727663326795128)
(0.004451203167490638 -0.0003100765251458029 0.0001648838437091849)
(0.001026931815959714 0.0002064184934527665 4.941898156072232e-05)
(-0.0001493631002866746 -1.078066599016692e-05 -2.038662730917921e-05)
(-0.001602785352259634 0.0004763924912152108 -0.00018100829655986)
(0.001214715118547067 0.001966138671880831 -0.0005788339485060215)
(-0.0006164970950885351 0.0001566439172322131 -0.0005367684768840843)
(-0.006426329946479631 -0.004880990555475342 -0.0004045345056920219)
(0.002505540469987226 0.00123713261710456 0.0002490160519810882)
(0.004507524262017774 0.005262528799436693 0.007439646125926374)
(-0.0185680634431429 0.03642510580106308 -0.01404729195062425)
(0.0002619116249429507 -0.0009069524048284162 -4.289201019754151e-05)
(-0.0008988413783071202 0.001281087789307361 -0.0002535706788124285)
(-0.01307000135380194 0.01744835559604557 0.003601625682781748)
(-0.002062334835284938 -0.007505828843657221 0.003977620164733816)
(-0.00013364028882586 0.0002412666987023852 0.0001081344266804238)
(-0.0002645419071171404 -8.79967249538657e-05 -0.0001659451580009006)
(-0.6024969112276817 -2.826467930099254 0.9830812727650313)
(-0.0005834573297515102 -0.0005821151899541112 0.001013661895361915)
(0.001030901334411977 -0.0003121850090790699 -0.0002799835743093627)
(4.734411939689154e-05 -4.861027765368922e-05 2.139007615711117e-05)
(0.002110582321733915 -0.001333246877383268 0.0007490280887744924)
(4.53868374626882e-05 -0.0001563923236299124 -0.0001092726924099315)
(1.875792937838105 -61.91293114351448 -7.099225862756654)
(0.9298613050436836 -56.17762305977161 -6.139614141708876)
(-0.02466854136331761 -0.1130045009855836 -0.7642137788162656)
(-0.0009125897456884512 0.0003075051977993408 -0.003372600090902515)
(7.680163342206425 3.327678648299275 -2.205817102792498)
(1.385766860936046 0.04882612286844568 -9.921927779493299)
(2.253467922406206 -54.36811462944658 -5.635772413752134)
(0.0004453925349830925 -0.0002258438378003456 0.0002634733937133043)
(3.795294818818514 -9.473775277402847 -4.835975710863973)
(-1.911024463801577 -8.345812854679021 -67.42031301980612)
(0.000511123142273911 -0.0003593950918332293 0.003330628320414822)
(0.00517687825068973 -0.002382816801410744 0.009016910028134761)
(0.09211674131131382 0.3170336413479811 0.1183666398966607)
(-5.708826857750378 -0.5933603922501403 -52.28284674778619)
(-4.169849372301612e-05 2.324199221937837e-05 3.4761241854051e-05)
(-0.0007901197220906714 -0.001030158938378269 -0.001356725204767257)
(-0.02377174738524697 0.006189504319579164 -0.0001859174774785446)
(-4.500325799561255 -9.995584492914878 -5.243598281385372)
(-5.454687538636512 5.383619974418278 -5.764977647317356)
(0.002003928545435666 -0.009795308345876342 0.002761685388024787)
(1.856761760791876e-05 0.000178805192694558 -0.0003968802351975642)
(1.801455309340383e-05 0.0001014702442801488 0.0001100710101760984)
(-1.071789918656248e-05 1.677590834901364e-05 8.265346185359651e-05)
(0.000850626842253851 0.0005106571834708569 -0.001357627935618554)
(-0.0009665342009577157 0.003260601143199654 0.0005472412747823194)
(-0.006826317235109425 -0.003299669854009437 -0.0005612132744606654)
(0.001710661441774187 -0.006537007582329063 0.0003338327631984307)
(3.349009067518248 9.907871520310088 -6.548905306639381)
(-0.0006900311876569825 -8.965973735659949e-05 -0.0003931459917782009)
(-4.629386098634241 6.635064185983095 -57.72214213300968)
(0.0001338037572604255 3.372817860927752e-05 0.000380485437330359)
(-7.192320254521281 60.86794933396759 1.590313130684734)
(-4.115809973634021 74.48216989968533 -8.457862614189146)
(2.822340902531781e-05 -7.633869908114449e-05 0.0004370021905662138)
(2.574208578296735 4.575177702069799 -3.509155385764822)
(0.001230752367357959 3.560019902294821e-05 -0.000676907773929964)
(-0.02747333793674324 -0.1193434033584046 0.009163270734038359)
(-0.003673300949029955 0.0007891598333669657 -3.162201552640875e-05)
(-0.0418548779421261 0.06989160867685598 -0.03762160278782731)
(-3.471345309209855 46.15308428099313 -1.199605816279668)
(0.0003074882966205514 0.003611538500677707 0.00219354421256616)
(-0.0002556721322281913 -8.879264129550918e-05 0.0001351721149067715)
(-0.007510424908755307 -0.0002978734768606822 -0.0001111316898071104)
(3.718849234316336 -6.33638874703512 -4.129310869027305)
(-0.003474368281377291 0.000322895676719175 0.001735160975323832)
(-0.000785983649885604 -0.0002250683721467835 1.252789152492314e-05)
(-0.0001979103744649639 -0.0002014535367502164 -0.0001515284470791444)
(0.0005250985958552594 -0.0006206873174163351 9.601998755204223e-06)
(-0.000929615465516168 4.993137822954555e-05 0.0002822457436065449)
(-0.007092944326250445 0.0008532341534062689 0.001465441542469965)
(-0.5837627972121994 -0.06700801045466384 -0.01640257992120058)
(7.549060392826757e-05 0.0002613309050642875 -0.0001491383460237975)
(-0.01195248984856721 -0.01805519230404126 -0.001076685799019601)
(-0.0001357053329608018 -4.463364505854846e-05 -0.0001968621379947444)
(0.01019061006442513 0.009402708371750832 0.1072387417548966)
(0.03097272492036898 0.08989309651326026 0.003228833496631153)
(-0.0001957003475807758 4.146116745833878e-05 -0.0001601588813603457)
(-0.002902985818854253 -0.02021797863464423 0.002174531050769284)
(-0.0007106414974702032 -0.006205261215445501 -0.001908947028292096)
(0.05574850178073196 0.0723545039790536 -0.09644997056051109)
(-0.006396202333488436 0.02386952450293471 0.02543092245686301)
(-0.001622199487679318 0.00102546118963784 0.0005135386037336628)
(0.02316042478188373 0.0330264202952698 0.05345790672634096)
(-0.0002161186027222367 0.0001453558536248902 -6.733576900825068e-05)
(-0.0001160556366783616 1.816367581564494e-05 -2.548176296874128e-05)
(0.0007698564504185215 -0.0004268147942680462 0.0009125104049848649)
(4.393098260412765 25.79016803046891 -5.818699458259)
(-0.0003914132531845454 9.567611098894964e-05 -0.000314283157131006)
(0.0004805949145388481 4.759073526899941e-05 0.0001827002416368138)
(-9.151099072113834e-05 -0.0001145371244641254 0.0002094679552463983)
(-0.01664380627976395 0.004672030612784178 0.03024534347311904)
(6.554265959623647e-06 2.220334602289951e-05 7.915969676659717e-05)
(-0.0004345589093291826 -0.0003455471284721478 -0.000150521823131069)
(-2.992569031371366e-05 -2.476387961096299e-05 -3.809423433622916e-06)
(-0.0607742820051576 -0.0157436965573183 0.07051647995694478)
(0.0002628902667432807 -3.055873987028461e-05 6.635812667771742e-05)
(0.0001084748869952369 0.0001742223759287746 3.024616790564945e-05)
(0.000271403478904268 -2.881570808510375e-05 5.644527649548548e-05)
(-0.02192264805734609 0.04142569696443887 0.01130335378536649)
(-1.4384995826819e-06 6.913273139446611e-05 3.246777019483982e-05)
(3.501875845139604e-05 3.465198395430042e-05 -6.416362726639307e-05)
(0.001215966263009135 0.001083462464906549 -0.0004253439498827889)
(7.864841754376634e-05 -9.075399231705595e-05 -0.0001391179885040684)
(-0.0002014329787425382 0.0002426762613646032 3.580030957503147e-05)
(0.0001332707614158611 -6.229117677562917e-05 1.005988413658889e-05)
(7.085133292048909e-05 -6.67882065386214e-05 0.0001905027154879827)
(0.0002477043443926767 -1.56794812686628e-05 -0.0001512852254031461)
(-0.000131471454863853 -0.0001001582044141763 -5.230520850329932e-05)
(2.963659471565717e-06 2.991411518627694e-05 -7.852574147545224e-05)
(0.0003171645915415441 0.0002423615002993413 -0.0001813708016605894)
(0.0002161697523585495 -0.0004722680988449134 -5.283390999530201e-05)
(4.501211504711284e-05 -0.0002659851252949573 -0.0003586328614678049)
(0.006605920289136465 -0.02460819403256091 0.06129109190555801)
(5.277276574823834e-05 0.0001802959295884304 -8.302976077525891e-05)
(-0.0007453878667520924 0.0009217301293773958 0.0002749506466471039)
(0.0001619659407940496 -7.375190431613652e-05 4.685654385138706e-05)
(9.790894123450365e-05 0.0001331199373930588 -0.0001404187891932859)
(-0.002224277322137209 0.003854802365880409 0.0003362636563196754)
(0.01340870873005368 0.1394867393469664 -0.00735503813590635)
(0.004916844028607342 0.001370288523094866 0.0002651373473888144)
(0.0657976672578869 0.01713032055181297 -0.02908155133250186)
(7.754507605590234e-05 2.010926295317945e-05 7.430297466199724e-05)
(-0.02253031894417735 -0.0002850845739479219 0.01812555482082885)
(0.0001247804375069182 -5.166071898980068e-05 0.0002700054072555871)
(-0.01159099503149668 0.002076614408841091 -0.0001034765210842329)
(-5.071818466925086e-05 2.575177859186376e-05 3.086528674270682e-05)
(-0.0005468077678996947 -0.0002723679627458403 -3.375681651018501e-05)
(0.05607876638454597 -0.02321012631849118 -0.03104180987250069)
(-9.044078993483462e-05 0.0001213245827156465 0.0001896808412286947)
(-0.0006666542542545243 0.001238982470614283 -0.0007702544344625447)
(0.0002787531313006413 0.0002519168002037562 0.0002578499373048915)
(3.648148142036323e-05 0.0001187582592091825 -1.472398262595299e-05)
(-8.93925917800774e-05 0.0001751357855669326 -0.0001617710834626361)
(-0.00456277979610364 -0.00912753065165043 0.003154533176640007)
(0.0001195505585314075 0.0006367429223609598 0.0001962738641034668)
(0.001337496852407595 0.001272824881050784 0.0008638200804445283)
(2.353534808700315e-05 7.699088668321655e-05 0.0001343207228623758)
(0.0002260706625528474 0.001710337055482071 0.001394780686126289)
(0.004864428885380294 -0.0008364008026209913 0.003053064211765307)
(0.01786477298643699 -0.01016217843454252 -0.04053584541650519)
(7.113868236235678e-06 -2.763742830615936e-05 -5.023525180973081e-05)
(0.0001663666157091866 -4.649755645548999e-05 3.457528297459797e-05)
(-3.385081294000871e-06 -4.583396726352194e-05 -2.906682085952361e-05)
(8.829072290431338e-06 4.676454852202414e-05 -3.580115640549814e-05)
(-0.0001125287848309583 2.067455979533424e-05 5.09251802489333e-05)
(0.0001728933339511942 -5.73126465035037e-05 -7.273223777825983e-05)
(6.832770035661162e-06 4.541729049098506e-05 3.150492316185221e-05)
(0.0001246655323941141 -2.227803105511851e-05 0.0001402162666558192)