/*--------------------------------*- C++ -*----------------------------------*\
| =========                 |                                                 |
| \\      /  F ield         | OpenFOAM: The Open Source CFD Toolbox           |
|  \\    /   O peration     | Version:  v1906                                 |
|   \\  /    A nd           | Web:      www.OpenFOAM.com                      |
|    \\/     M anipulation  |                                                 |
\*---------------------------------------------------------------------------*/
FoamFile
{
    version     2.0;
    format      ascii;
    class       volScalarField;
    location    "1.2";
    object      p;
}
// * * * * * * * * * * * * * * * * * * * * * * * * * * * * * * * * * * * * * //

dimensions      [0 2 -2 0 0 0 0];


internalField   nonuniform List<scalar> 
19632
(
0.1211982664543236
0.02338099213645241
0.0184866528733319
0.004288571698002243
0.01308655475639166
0.0497961295093336
0.04692195686730382
0.137055490665295
0.156494918853442
0.1533056975061096
0.02459494985648698
0.05487270311220747
0.1687926198617944
0.01123879592667556
0.01914037325376515
0.04799498035656959
0.0179737360746473
0.01947372944466365
0.01621866323211205
0.08733940044880789
0.136149363819663
0.1364225655498987
0.1393554098426953
0.01927224454366283
0.05607526264709701
0.1521401489192353
0.108395348047517
0.0165936329108517
0.01555392263517942
0.009626607042822364
-0.000125541656546546
0.0156270342509195
0.02752895350412569
0.02783996563214024
0.01710239002169272
0.02670646084285087
0.09544506483611107
0.01529388067779797
0.1420525027016414
0.01800611007790366
0.04553299899964656
0.1693309212429972
0.0560466750483701
0.03812328377946139
0.01260558988096907
0.08638385713249752
0.03010063260183509
0.0706394976496853
0.01479462274352829
0.01777914988913063
0.06744991411129943
0.03155666188490357
0.02471301220527719
0.08916097399953472
0.05622507936517004
0.01421599650309526
0.1402193897327417
0.02496718927479896
0.05852336403621395
0.01751906593552723
0.01518469095140158
0.01323128025727811
0.02023858220499178
0.02788693645663987
0.09044328318168604
0.007312519238072465
0.04052491076353684
0.01490163781207027
0.04133888328055122
0.0601994087075754
0.02262514062374912
0.08764468958212547
0.1232202713507749
0.147549359906496
0.01941374486589743
0.05497236903185019
0.02244628240128163
0.05473058755774791
0.04619210366571831
0.04483356924342677
0.09700439203817855
0.01064953048854506
0.129042536467269
0.03020271257338124
0.05929752701176395
0.06541239524958832
0.02175599411286695
0.03097596141837989
0.1520889550016637
0.02582378859634502
0.1532297384965936
0.1546165785887571
0.1385600696919686
0.008224769881695846
0.1413933775457986
0.1441976014350924
0.03170300219520567
0.01229019637993249
0.0576806987171312
0.02682985399800658
0.01471340921372446
0.01017442817617269
0.01009889672673024
0.01214274766107908
0.1112160678336193
0.02443796812852958
0.02056562944084635
0.14021762123368
0.0816882861884027
0.01793993979976414
0.06887722475619774
0.1321345931694594
0.03242988528686472
0.1298006569603599
0.1276845331894541
0.1782979441854485
0.1311388187423362
0.1381933033987615
0.04317805771530467
0.1537195650132183
0.0934878715326614
0.1479483884221322
0.01585006271350778
0.124274257142457
0.125546271433393
0.03247332260508356
0.1683480424934241
0.03721914853108232
0.01110855969243944
0.1011872995592403
0.1084607020293968
0.0138435079964313
0.03130700827462748
0.01992301569034401
0.03377007844463436
0.005658130814312951
0.1277514822336503
0.03605177239111591
0.02542738264211776
0.03870734188263483
0.008764323168412557
0.1918156143510629
0.01046050527368969
-0.04214211839200251
0.008131773060930179
0.1847753966195963
0.005449126108967899
0.1114196405551935
0.02098629574983355
0.04409017465866495
0.01729603142573159
0.05017818060253475
0.0473547796103099
0.008719011028624702
0.09296396569275234
0.1436484779215224
0.07401901240215575
0.1378782963704024
0.1793459861518539
0.009576858491105808
0.1315198007991997
0.04809756973403306
0.05065333812627116
0.07023243034871902
0.0395549583751078
0.09177584290345671
0.00892001619617974
0.06441790242136039
0.008959740043063987
0.08382521790756349
0.01679389518377642
0.07076853830876038
0.04400604384936811
0.01485279478167366
0.04242921121643868
0.08371862437569548
0.07938533643251969
0.00691103253614173
0.1093523448493524
0.04243117852188901
0.004374645463644195
0.003538142323016889
0.0284827396189327
0.1023121359615514
0.0652232664372354
0.004595644944781717
0.006316194977745174
0.01519195708894834
0.1064949990936384
0.0147223676208272
0.1341095830624853
0.03233143623200703
0.0343228172258189
0.02780667987122731
0.01299281572222455
0.0197844655111352
0.007142064020920033
0.02008583112181333
0.01062450687391189
0.01550018430278296
0.004893835391427664
0.0194870323440729
0.008445036644575884
0.04182575363471924
0.003448746734954395
0.01258067559928706
0.6354172943125389
0.02657420944275458
0.08131582932502439
0.006663206864834771
0.06534293465504896
0.0290074376876453
0.008788810891912462
0.0233281685269598
0.02330921821408969
0.01498648483116899
0.02262067923279509
0.02332938295226738
0.06110055455159127
0.03356086371078769
0.0136149768372674
0.03132408589622113
0.02992790948890081
0.003954098064039111
0.01377848120855516
0.009889845932022513
0.135239205397931
0.02015479457487812
0.1201608849760036
0.02958872223840206
0.03513200172003987
0.02330547834124374
0.01388753974603456
0.04477316540956554
0.01478664313802368
0.03203969038345181
0.03590914084872104
0.03342950647449071
0.01645205293214193
0.01681329070815788
0.02649968038925188
0.02728121103003908
0.7746387300155279
0.02761761185724572
0.01994697419899538
0.02220660830180124
0.0302568588292003
0.02579238079563978
0.04255271176112797
0.1263372115319007
0.009849774518041594
0.1600922785665578
0.02488950109232038
0.02328679020591239
0.01862999687948489
0.02179107792035923
0.02393478876964919
0.02374535471242786
0.05824798534133847
0.0319445843499651
0.0323388991737683
0.2150608789208427
0.06949939546830346
0.1693693720295972
0.03526045947611503
0.04431680781751814
0.04576468775636573
0.1151795491807798
0.0229403694830308
0.1266035943147661
0.05759199950129108
0.1185290611980805
0.01692218627023634
0.1277308814339963
0.1723613001029609
0.1567671743878761
0.01822184035119416
0.01865007489877207
0.1453534383973645
0.1488329598272033
0.1495789048681882
0.04672699409756191
0.02454488023963503
0.03170232701155312
0.006099721838008688
0.009327082673301889
0.05794838106678139
0.01806765095584283
0.004745415603707682
0.01883589187580386
0.01698665074409118
0.01219359396041271
0.1362732650544991
0.01524642997403846
0.007875047665360501
0.0404613964846842
0.005849436382814146
0.1496612532839905
0.09747447969196106
0.001797880133101497
0.04778188858708245
0.246703445470273
0.004441140483028542
0.01109894794520831
0.03991333376328134
0.08011264636773544
0.002915319574412903
0.157645950363929
0.04676984058089706
0.05734094611205052
0.1413506927386486
0.1609451618518071
0.03310287846863271
0.1468079497248597
0.02134885228506024
0.01183547595590343
0.1189263530067842
0.1146850080999542
0.08864987939144209
0.1371143297068134
0.1451663609015713
0.1316957417516339
0.1285216990512938
0.1285426424236183
0.05269621023570512
0.04856186178564054
0.05598530027908911
0.01543545914281332
0.01311497714743931
0.04387137153073694
0.009271094486045758
0.04834115059724623
0.08220628960341424
0.0815013110456957
0.01056297269648485
0.08455360647971605
0.01318109425419917
0.1479229581666131
0.01125335498767608
0.02337613724489338
0.08469026616337372
0.01364510602335106
0.02264250636007675
0.06082204098027434
0.08068293379786724
0.0844301231369835
0.01363657492180567
0.04833182877298563
0.01126415982501057
0.01233092976021576
0.02827841145701166
0.02404244630611403
0.006112178629012347
0.01199137262412042
0.05246096177707833
0.01627157732091406
0.01047365647796398
0.02049050246923766
0.06891166338234517
0.005173236750455421
0.02627575161534437
0.01341359228756655
0.02598896842361014
0.02707417639888469
0.007110130670740402
0.0119610381167103
0.01449868198175985
0.03653384826692577
0.02891981813412254
0.01991013598391419
0.02037659375962969
0.0137488638906475
0.01956762195765673
0.01558989015783695
0.01334698867088505
0.02834325612844919
0.0098469372989217
0.01904130841276997
0.01421406666639356
0.009591954890975855
0.05264829708114342
0.01983222230017909
0.01491872962788462
0.03782364678721373
0.02220555362716598
0.06264320880562661
0.04394620278713243
0.02832382907509164
0.1624536331604892
0.1112507773290259
0.01400271858617404
0.01886976512339997
0.07167702666355449
0.01630240045813177
0.02579012164740411
0.03841555291154942
0.02367740710583969
0.1164594928568744
0.03031809975677998
0.05124269679790774
0.03123254917284326
0.009423116893024512
0.01300965949591962
0.01571848312779739
0.0126671408605729
0.01311516706870334
0.03936643218345262
0.01502176616188864
0.03312205141438141
0.06077599739130701
0.04721819000043134
0.0103995167711813
0.0156445155957587
0.03869197771476847
0.008936379668497096
0.04549299200176637
0.04852399154844679
0.01629255814826341
0.03067524550685103
0.0140447048932861
0.008889242634055329
0.04031297342875422
0.00876342590852771
0.05134603035623513
0.03874799208806622
0.01349362884823094
0.06757512324174761
0.04265189882118783
0.03822432052051571
0.02072313030055995
0.04657843530780066
0.04151062764177047
0.03278085115296854
0.06600999192807598
0.08892702430622165
0.0571605118173419
-0.001447463361584391
0.03947357202980557
0.03892582694284399
0.03987199276696156
0.02113296084663533
0.0310346876516909
0.01611576004535933
0.03456621303711484
0.03392041567167306
0.04042910283875503
0.04192818537823253
0.01208723834031557
0.01412378606785559
0.01527618050828321
0.00750926569204061
0.02855687501935628
0.03516577134928631
0.01280433232674496
0.04286486613736942
0.02301008068185041
0.04272931210698185
0.007289239354100471
0.009129871450420563
0.01612662703042225
0.079864224691384
0.0273938238722495
0.03613656403633519
0.03736360619421939
0.05718854421045465
0.002746005318236923
0.01570442423931142
0.03137431172677425
0.02870751986723841
0.07186628654365665
0.03706937868164496
0.06278802363011297
0.07892755292108294
0.04261486304157713
0.03524387059442423
0.04361091773782767
0.03841909980622363
0.0773072770321102
0.006986048575590347
0.01682094423498055
0.03394330310637394
0.0261848329469793
0.03654897878280211
0.01492069966603108
0.01809999619473399
0.006765834321891212
0.02613451228284208
0.05349904629145978
0.04581777012604165
0.03910937653014925
0.01559908125059971
0.03780566734206795
0.1261493704430731
0.1181296850656515
0.01297338251196952
0.1241785026995891
0.02349682087369248
0.03085731182911772
0.03149064715848196
0.12019876637024
0.04815845354285641
0.01560413836196676
0.05605941190279613
0.04803409449165304
0.03811155059579366
-0.0220534648670076
0.01295101747638303
0.05567808402953198
0.0363058143324482
0.05183181225105871
0.04721720361403742
0.04090206191900266
0.02460282189072642
0.02513946865657456
0.01100755144623878
0.07284084373871386
0.0341243839863417
0.04423266687706086
0.0537608885279354
0.03340758570711354
0.03815192518457032
0.03512870409361269
0.0301957168071216
0.03814093066239928
0.02301314485301087
0.02412473896475553
0.06824004766157012
-0.06030435952335687
0.03256090889688684
0.01695809293324241
0.1338591179078165
0.03494022487716255
0.03339185299238001
0.07052778928079796
0.0833753253127972
0.1180741778590831
0.04104110047645308
0.04639563229700557
0.2081950489445689
0.04514495835375203
0.06748055461308729
0.02060125855989251
0.03383360072576034
0.09298866346083107
0.02712351784714114
0.06403577102742603
0.06506709637333914
0.08160895108399055
0.08002246001260219
0.06039152489722229
0.06771895301901333
0.03223973833435085
0.03749986985040245
0.05338698196328047
0.0426577587061741
0.03553544997420386
0.02436240252409747
0.05533010032544389
0.06171063270969202
0.0558605897899984
0.05701796979998691
0.1566450049017539
0.0286452041547166
0.03688035086991791
0.02012380934339714
-0.001608242069963664
0.0287842805488785
0.0302840543780324
0.0281958549773103
0.03195565340169106
0.03320620696659435
0.03350187566540638
0.03563871730373826
0.02398281171113666
0.05354700199655223
0.01231131432587547
0.04917515611876678
0.04496516877080094
0.04710548969503985
0.0562626781031753
0.04153069494390085
-0.004800383832354238
0.02037452150333399
0.05015394288933439
0.0539539331786426
0.0150780881656769
0.05457027527567857
0.03423613922432829
0.05742067627437843
0.06490067217885821
0.03437173918657978
0.0609209788518773
0.02853539708812738
0.03298602753384342
0.03232543483522096
0.03246709788772334
0.06270075524072699
0.1404658042269929
0.03289453639322004
0.03418969237872763
0.03120630150716695
0.03182752927279064
0.03040943194166368
0.033054428827171
0.09524336026958603
0.01836320908307894
0.007601491226161252
0.06155552826052193
0.01335787687726949
0.1659842759328949
0.021655270361002
0.2441818297279255
0.09418252715301999
0.0209129096567909
0.05102297553622091
0.006354708388569513
0.03299162158603802
0.08286984671076215
0.02462057590330805
0.0554339899615001
0.03605206806190966
0.0231972131602866
0.02315794481127525
0.02563669047473968
0.02604174627448174
0.1069423759314346
0.01064309708245091
0.05544095392299291
0.02096089893710575
0.0305314612168602
0.0270216485581955
0.02548292414735908
0.02972074756015887
0.02186391154719948
0.01855967230234199
0.02060287797571808
0.05416660844606579
0.1498452746721058
0.1208960806133911
0.06687460624615457
0.01915204100491981
0.0188379744019612
0.05724622658101919
0.02003064246611275
0.03645094130481339
0.0201107608353411
0.01764912246813713
0.018665626596009
0.02170664302295027
0.02151866313110857
0.09101857427081234
0.01931228282418032
0.01952082776004076
0.0921978999004875
0.05905393577505191
0.02039630759802082
0.02166762847215542
0.01918184562519477
0.01937126737065162
0.01949593017736887
0.0187662215850253
0.01824615274775396
0.02026650963349023
0.02678156878505257
0.01496933763931659
0.1425046288317229
0.0215565731525918
0.01971822752614981
0.03831574704865763
0.02240038724615011
0.01389517343952141
0.01475734786000568
0.09065606015801825
0.01920812707604025
0.1026244248875734
0.02201467086268708
0.02175776405962265
0.02203693942298586
0.03468286914097798
0.02037009634786562
0.01207842518487764
0.02162449477681244
0.08701364710257121
0.04036634464720953
0.02588399268974103
0.01802752503382348
0.02568304410090855
0.02065231325143713
0.03924096073859649
0.02165368158934967
0.02407251091991345
0.09412223078287786
0.01938776989281134
0.007727149917886276
0.0221676161796239
0.02912695393632447
0.0162513149735769
0.03888003614407651
0.02974628765077042
0.03181616097714009
0.04165567991497461
0.08319123232583525
0.03240680302090464
0.02895268035177969
0.03288994005722556
0.02961538179118204
0.02858668958774142
0.09151124417051872
0.1562354654686301
0.1593833211731534
0.03714877509582067
0.05224683740406722
0.0206474165873641
0.01493276189052749
0.02126625019153363
4.918354417348155e-05
0.0913660176812708
0.01995931932580725
0.09361537017156699
0.01914167216165413
0.09735799878203742
0.05235771223221408
0.01401921697322114
0.07719831720043585
0.05577943507722503
0.06154288150734633
0.01796247016079729
0.101293269476016
0.04885640300408253
0.1008863990464431
0.01441397436973895
0.01667547780851276
0.03603651680987219
0.05874113150427465
0.02492314511901174
0.005748445094411595
0.03843389025647339
0.03021353326239425
0.03362562244064509
0.014874850747049
0.07730908463382384
0.04716972029574182
0.01396061000718499
0.04019368818467289
0.03974681319917894
0.01762044333300292
0.03216114476446521
0.0271351894303496
0.06079182150680709
0.01528332863701214
0.02361544780939636
0.01737439434692329
0.01025630461939826
0.02890329109020381
0.04132900312340471
0.01710942353386857
0.02485334312171648
0.01925599847826649
0.01635547391479456
0.03601268398411588
0.02253711959664678
0.02643790945203908
0.01636651028523705
0.07799070503839613
0.02457359812548211
0.02445870366849058
0.07490330864016427
0.01863293606592754
0.01660290280061928
0.05546655600289014
0.07335525791931363
0.05985971090990441
0.01400747280899321
0.01327161333614545
0.01209521911179307
0.0269852330134588
0.01461913627843325
0.01018133607478132
0.01126139536759929
0.01224152022430753
0.134475749764684
0.008750237241139385
0.009999359200947855
0.0785158046865452
0.1688713734369559
0.04461319515901583
0.06498235582165403
0.00594330761628356
0.06159445623189196
0.05108002882002458
0.04153447155005438
0.1634848233363047
0.09657517860541066
0.07698952575493948
0.09716541551229198
0.007091390812833462
0.01354145854754278
0.02077427811276717
0.06176650113861033
0.134660699732718
0.107978952288768
0.111871912759681
0.1133597534883052
0.02901639473629312
0.0208907801671665
0.02664885033495371
0.01854871054511319
0.03694756729320101
0.03577062708151026
0.0229167119860405
0.04028493242193769
0.02234777706326843
-2.678055597548871
0.01591179606602203
0.03032747923657713
0.0167791298632009
0.08657189665363961
0.02336395469485384
0.02606949994575484
0.09009563662736304
0.06651809764288
0.01832835633466495
-0.0294781205599505
0.02078823143189875
0.01563673371222791
0.2065582332373196
0.02562531212266228
0.01628871348496751
0.04209420769826543
0.1319853206901431
0.1183391671848344
0.01039412146245714
0.1111061277529059
0.1428229348346604
0.01311141201485757
0.0170325618996145
0.05992648212779998
0.09581519312933437
0.0172411578512516
0.05055021443032508
0.01553655474676617
0.1593778478335054
0.07504263599341511
0.1309519784000557
0.008549823528785042
0.0058984461801702
0.01946038035618811
0.008131832649217229
0.006600605776984599
0.1637152806237007
0.01532728958942043
0.008409207871038452
0.01188936509801386
0.01152973260459235
0.01041603542319426
0.04421139733239938
0.02536594690452103
0.02297436756543695
0.02460721350167575
0.07363078736443933
0.04477479581822306
0.06506562107372008
0.08251908376091772
-0.3857755625675152
0.1043337812802612
0.02475474539226892
0.05004548418544627
0.04317019559449423
0.05848443167645907
0.02519565708127614
0.06028823345480032
0.02500432243936499
0.06470501792153831
0.05997349842914255
0.05986820831463537
0.05394393068376312
0.02656171636774044
0.08300926132782321
0.04222949189776377
0.05466770237098872
0.04840555007097455
0.02871164138702746
0.1116412508504351
0.03558540303028342
0.02993152690617271
0.07231721676334163
0.04915757182880866
0.1091523498972607
0.006118915476228957
0.05797537445536058
0.07927940667935897
0.01500621748859582
0.0976726358304463
0.07903248098943394
0.02353651068293511
0.009217841189325837
0.01637985924144277
0.004433364732939549
0.0054701252235087
0.0124613449243428
0.01262444151620989
0.01394749531537197
0.0132186068569401
0.03710105184430312
0.1161370399599973
0.09769457858263322
0.04489676422946057
0.131086952622285
0.1622349134418995
0.09867291367906113
0.09657370000558679
0.01829930292884154
0.06599503717339635
0.04221955117602626
0.01486896669033462
0.1133798584485027
0.02208092238975634
0.02372232020046064
0.06187817723219304
0.03115908128190328
0.0293856963622562
0.02684053460746176
0.06682189454569624
0.02563145039953013
0.101488613438636
0.01720074451333539
0.1184241370280281
0.1493398202174002
0.00959153363096318
-0.1456010133643492
0.1022729467335747
0.01821492298906535
0.005541068914470089
0.01833968859425446
0.01819580250768263
0.01495912925939005
0.01688362719234373
0.02377892765479148
0.01669655973954015
0.01515635103793047
0.01125331547971803
0.008516676072522029
0.001354963389458811
0.01214367886354585
0.03678663941755881
0.100616830867261
0.01298447863868912
0.1050632822029103
0.1183291405039946
0.01203989201368428
0.3152515721357261
0.1409085628139095
0.02881721882809427
0.0109404417982147
0.009375675340508998
0.01095820148468439
0.01643050210484182
0.06991105678281331
0.01754485246622418
0.01554588223755525
0.0200944221706745
0.01310072931352357
0.01893981269949141
0.07387730328510177
0.01564507516939865
0.02148647622170163
0.1329858344354073
0.0192714754082136
0.02207853704528731
0.02137828800255211
0.04546710616994024
0.01329483818960562
0.020267013808028
0.01905218890594204
0.08491416797315519
0.0787960805363558
0.1065266679479707
0.09006722374176639
0.01772712967659819
0.08147853309909364
0.01842679824387205
0.08505092916166926
0.0205593404081507
0.09421765485252627
0.08354489605935361
0.07645419800461505
-0.737095944871622
0.08101724105380616
0.09590884359293513
0.1107446291339029
0.08918880338645302
0.007563554635646179
0.005117587476319662
0.008502486527570794
0.008180117747455818
0.008412315303973208
0.003442343221581796
0.009351899023352678
0.01454365037998718
0.04666844761834512
0.05628317125305954
0.01894391956680611
0.05901793507408989
0.06392137359831634
0.059664729217198
0.01065544131552092
0.07041271654249384
0.01494906639611542
0.05829831479819806
0.01118114068487889
0.04133042086203343
0.1032789316023087
0.09915347802012163
0.03280932824368087
0.01867135449777276
0.06737294449980666
0.1345584792209885
0.08168862742996751
0.1434264787862072
0.01745913150277765
0.04365221509452778
0.08615856278576217
0.04318129476811862
0.02360392891582859
-0.004140426292569854
0.03347446808963914
0.04605010353668147
0.1420339942553308
0.1202463434030715
0.628237230640743
0.08082767309084778
0.005149896205922306
0.01995381381043597
0.01688227257266275
0.07393480842887544
0.07600762277436343
0.06524736600338818
0.1217327611051883
0.09122979430966734
0.1419478464620575
0.1306340868285309
0.08129114851596132
0.1222900081869857
0.01137655233873684
0.01776430802555174
0.01724669768735793
0.02348685746951158
0.06856485704976549
0.01811938236422092
0.03189743066278518
0.07216509008478153
0.07258659831826694
0.07172883370409139
0.07224499950824777
0.07460386397965155
0.07283675058705588
0.07539638348551293
0.02074266327038972
0.05859348301309954
0.05680776769219469
0.05333568735182664
0.1043027935110211
0.0814114899739153
0.07723862874416403
0.08068667197684457
0.07851888322983751
0.07599423543819948
0.01337690296062008
0.09905484904967836
0.09289306353408855
0.01229972119957949
0.01114568994734182
0.01116255367964103
0.1045973925852016
0.160912420458319
0.01272727593662972
0.04694647264066131
0.04777805187846129
0.05436971346722248
0.0123379138096313
0.02531635084913626
0.03999213498439413
0.03907313187758321
0.0246893012052672
0.02373927559188723
0.02305109974626973
0.03529953535153283
0.06104357821749585
0.04743067246631096
0.05087082732610599
0.01133918319745842
0.1182487700150919
0.1213804448257055
0.1064826569539748
0.1047866207494279
0.01153239434790239
0.01159922447311379
0.04681712853973582
0.03181378890937531
0.01203619516418795
0.03611588880993177
0.02694109564113996
0.05777877321221838
0.01603812934899378
0.02604360840057261
0.02468195811499522
0.0198467926733835
0.02276876858518546
0.02032033428045529
0.03880710537638229
0.03850517395470835
0.03536413375336955
0.1006058971081949
0.03400459636608093
0.04080273923492114
0.04103597750790133
0.0368846039929631
0.02983134206405741
0.03395656663750846
0.03131520027734664
0.02234594936225996
0.02557471002587696
0.02110464050937551
0.02226236075227637
0.02110846046261278
0.02187151459764408
0.06286048050628538
0.1158316106284406
0.06568631169588086
0.02248396970149094
0.06330698176748906
0.06089024524004273
0.06431627683964942
0.06682779604920878
0.05538583779785462
0.05892696489477092
0.05827767512924226
0.07530497586988491
0.01624929207593936
0.05900034889135419
0.1166347128972189
0.05819750872878077
0.07321316009668739
0.06097210526946038
0.05879666285828047
0.1109470705068562
0.0628906572878126
0.02824445756186591
0.06122919427591637
0.02586792384817454
0.1135956954836028
0.06795042097862651
0.05388134700673061
0.07489525879322674
0.06646363942383059
0.04816543524979252
0.06533803971293399
0.08230254048120762
0.08321922325611002
0.08053155746702646
0.07696420289039001
0.08082613371058736
0.050018733227428
0.07952628171848486
0.07137367218520028
0.03375864707734002
0.02424417401108217
0.0237168465981985
0.02727282863863265
0.02790062514167727
0.03097938402522522
0.03072814846527315
0.0316376016425185
0.04723280429120311
0.2377069291780915
0.03868183768568028
0.01839222328630885
0.03727647651820324
0.04050788785989353
0.04423381226616639
0.01219354637653189
0.002963745234899257
0.0244206479666784
0.04292713180849718
0.04110010564957398
0.04173571183211009
0.04244012869950734
0.03784698731689611
0.04032355851140684
0.06739521018065663
0.05973382833611018
0.06203730230359486
0.01207814764585576
0.05529163737049195
0.1563075554524783
0.1003397402099398
0.1243233732373056
0.1026045062805756
0.1170077020745188
0.1186081466292206
0.1291629502988739
0.1497416215805129
0.05235415026048441
0.05494410027886967
0.04944539542643777
0.04505002199196603
0.04838118023196756
0.07749587510567296
0.04640478551002012
0.04605912843175606
0.1015073084058449
0.1015917235616185
0.09832294892410157
0.0928648011876978
0.08600891461252924
0.01955977704123197
0.09220019143889308
0.09566049536385134
0.06769796268770893
0.06627044004169078
0.06728706181264271
0.1000987947593198
0.09007781417605433
0.0776528854906593
0.02760353608131829
0.0803426744526555
0.0795546151343163
0.0782301017971876
0.09012181472312762
0.09276123861924772
0.06323773555236499
0.07208445401932451
0.08265947400386447
0.02660055314583835
0.02819137614760898
0.02548234207792271
0.04399114602316127
0.04493573918231643
0.02658040395697275
0.03822982986840238
0.03956261726532704
0.05344218500704474
0.05065109613379884
0.05330162046415915
0.05429240961894648
0.03748639428713184
0.08147545050245324
0.02247381390967686
0.02287609272729406
0.01891818923871197
0.02206285564712134
0.01998706985244151
0.1545828253056545
0.06846582440454024
0.01505714194642845
0.1107228510353629
0.02001561049126474
0.1612266470865847
0.0831054786033274
0.4493530337608544
0.1171094301798896
0.09024947728466653
0.09373206076996868
0.01861346632072543
0.03663788527336134
0.0568370296714766
0.02211009066582199
0.1020034889924058
0.01208987126972438
0.04803573413403092
0.04763097967221965
0.0207197969232818
0.03392089268472943
0.04459602546928416
0.04280017821107161
0.04378397278139011
0.08566476594039704
0.09037779104346881
0.08785754591477417
0.03558250018497963
0.0377428970015798
0.03774509607225601
0.04231903038246595
0.04196865946299787
0.04512282179720593
0.04016063232390836
0.04461504166694933
0.04622496986498554
0.03880849844329232
0.03998908269359409
0.04191547867081553
0.03808098759793729
0.03651041565047259
0.02400649612622977
0.02563798834287945
0.01726036321291432
0.01625306716679303
0.07089602499576637
0.02204202798222329
0.02262830457153111
0.0255100894795074
0.02962095742557617
0.03380348474086648
0.03286763688758076
0.05005563847325224
0.043719184201223
0.04659318520070765
0.02231506644379209
0.06449322315231064
0.06209432853083544
0.0630754859929764
0.06293667659161456
0.04503391260079004
0.038128364377577
0.04601112435088476
0.04674231642777744
0.0445801859298886
0.04770176195293208
0.01293525532811146
0.02992053897238332
0.03086365729178434
0.03158032964172723
0.02921529260998424
0.02852169101588224
0.02523538324774879
0.02102975352052425
0.02640612818916644
0.04638641819174289
0.04392641312915269
0.04213326097534326
0.04174042818989837
0.04058303047938216
0.04212078481598999
0.04290827235179127
0.04427394711705433
-0.0464696260846372
0.01228093546095082
0.01601030348808617
0.03814579176200254
0.05430155569503473
0.05193467974128681
0.05111419562716767
0.02995802372651835
0.05850845347983156
0.05313404652409525
0.04626666647339423
0.04515465159947232
0.03754224771163901
0.0419703828216626
0.03355353610036873
0.03829403246826483
0.03781824396360451
0.03673548041944138
0.03174937339064666
0.03386511767910423
0.03760313175521635
0.03830515523105267
0.03991190349841079
0.03704060019299573
0.03287523313292153
0.02229144094301973
0.03415565197280269
0.03578393948492437
0.04921022153540672
0.05164717259433164
0.03463099740079131
0.08615193071768008
0.03017915144789357
0.02975351882584988
0.02392427257139265
0.0898520246712104
0.02409048954495629
0.02875047978760159
0.02744363720149949
0.03139878794497029
0.03264696227974143
0.02303953311239488
0.02590796459252512
0.1039846192372718
0.0367787636044781
0.03628458626269331
0.03517459887853772
0.03438932140326573
0.03969058500828353
0.03595796874778046
0.01832191860305154
0.01553203081337556
0.01446069207028983
0.01563257431544702
0.01980464518290948
0.01780452694393757
0.01799754325410102
0.01783449963483491
0.01681954797914108
0.0256939092738169
0.03112099066279169
0.03049390367192414
0.02944977274529672
0.03099412133485418
0.02678807604766856
0.02235289011798605
0.01693757036289535
0.0220764209661824
0.02071248805123596
0.1020645797105903
0.01013981978890611
0.01103179600277718
0.0106347491060205
0.02312536839491916
0.01651329222043962
0.01372952204845952
0.02288411996425831
0.02202553919524645
0.02407276347346212
0.02093719511341779
0.02475806341670083
0.02206530232491372
0.01183905244413829
0.181572760603761
0.02206418357703178
0.02069260270304223
0.02276819781921236
0.02692431831039499
0.02779255004788731
0.02072814544294638
0.0190109932915511
0.1337956959523779
0.02074062933408098
0.0839557091282967
0.02138644368214127
0.1089249044908257
0.09715976076417134
0.02096360095624908
0.02103353367739198
0.01841262618098327
0.02205286656192653
0.1579388979226466
0.02178047552154555
0.05039773483134573
0.01785714413389218
0.01573701240001493
0.08495219302560622
0.1052953083143786
0.02808628903391065
0.09425584155680385
0.08227600027122374
0.09588867417911588
0.06350352559065554
0.0353998427109015
0.03928265927788718
0.02676685375894619
0.01695542061914402
0.01732110313554097
0.01828116992654276
0.01836308965895969
0.01439530221885161
0.1704841129682089
0.01396409773142912
0.03071818054869857
0.01266758500103709
0.02818183652954277
0.01127811263610953
0.01819901682351226
0.0341120534052169
0.03378639720085108
0.03605743743806199
0.02798932353379721
0.02719502039849621
0.02418911092957244
0.02242809915575634