/*--------------------------------*- C++ -*----------------------------------*\
| =========                 |                                                 |
| \\      /  F ield         | OpenFOAM: The Open Source CFD Toolbox           |
|  \\    /   O peration     | Version:  v1906                                 |
|   \\  /    A nd           | Web:      www.OpenFOAM.com                      |
|    \\/     M anipulation  |                                                 |
\*---------------------------------------------------------------------------*/
FoamFile
{
    version     2.0;
    format      ascii;
    class       surfaceScalarField;
    location    "1.2";
    object      phi;
}
// * * * * * * * * * * * * * * * * * * * * * * * * * * * * * * * * * * * * * //

dimensions      [0 3 -1 0 0 0 0];
oriented        oriented;


internalField   nonuniform List<scalar> 
37380
(
-0.376532109365739
0.9989708224995641
-2.775481638047097
2.153042924935046
-5.161135512020612
0.8038007744248187
52.3699120309828
-48.01257729338974
-18.28088843395369
21.92314191133912
-22.79800531061472
19.15575183325843
16.79807647611514
18.26490103663638
-18.54420308279434
-16.51877442995647
-5.077280104237218
16.72654086159834
2.81910160166349
-14.46836235902061
9.381764958330292
28.05625987304859
-20.94257153960146
-16.49545329176254
-10.20058199842869
-24.85643419056665
44.43878114733181
6.968275623261278
-2.983168566498395
7.608359510306006
-11.59346656710792
9.649114467934856
0.4399121504444812
-7.42807463063564
-2.660951987717993
-8.922378061336111
7.608942875294004
-3.175431542150406
4.48886672807659
-7.538341482887769
-7.29558244948371
14.83297137657069
44.36530015140509
-10.66545381297539
-22.33345123625077
-11.3663951021705
0.8502680597827944
4.851718448798681
6.943813438248155
-24.12659675229249
12.33106486524719
-14.94165317994508
23.74665501711711
-3.41355427783151
-5.391447559352032
-1.497959588253734
-0.9600070748794396
20.45185173510961
-17.99388507186679
4.408463622226989
-0.01369896798344044
-19.33641783418933
21.12680774584945
13.41289408951302
-10.79304681824215
-14.16212197874133
-9.922105412601496
-1.578670896124256
25.66289828748153
-17.94827097685887
2.304738395881277
0.3230123806028045
15.3205202003132
-0.08236942862514163
13.59691118161009
-6.546266129771568
7.281047301836964
2.75847855200254
2.525174475869233
-12.56470033001735
13.59971604356544
-1.522022760938911
8.274293651247739
16.64861415479566
-3.796100060176576
-8.332680134916091
15.13499876608926
11.10171605454938
-17.90403468585961
-6.2133222294257
-2.209261869787273
8.862496249592617
-9.715028687640322
5.607296778855742
-6.410053199471334
10.51778510805505
-3.228023316380992
-15.90781622125621
0.7835520296101828
18.35228750801024
-5.089629901029322
-16.73131453085827
6.424693972001267
15.39625045989224
13.99460096301883
19.53488020385218
-0.9054723845218214
-32.62400878235042
-10.15219689649952
7.73714220378264
3.936627455949474
-1.521572763228212
20.81115558496466
0.3793863426216678
-24.4185652439678
-17.59130619848355
-25.34297467933931
19.08128949818454
23.85299137969186
-14.33567362056887
15.42666321667218
19.72016598887116
8.561815868857042
-8.749053294030505
12.97409087623147
-12.78685345104659
-8.052900726101942
10.60170207744228
-12.91721606337501
10.36841471204402
-23.75661390571851
7.421661020095945
-9.018057167174543
25.35301005302372
9.293309504094577
8.776129565536568
-18.06991362649986
4.577170862668951
2.628386197860148
-10.18872562708346
9.078018452646955
-7.305959854288299
7.521250905737676
-27.40576172702733
1.955062717508949
24.24193288809313
1.208766121400893
1.467203181686509
1.297168905800051
16.38122748563516
-12.79584173584818
-3.133377035259701
-0.4520087145233291
9.119138953847516
-23.36971934934605
14.85695899380673
-0.6063785983081424
9.214707543880817
-11.83691289200647
28.13016611725659
-25.50796076912248
19.29808689629931
-8.679852038636596
-8.238902493139237
-2.379332364459729
18.88989889003952
-18.96776687127234
-0.8284135018533134
0.9062814831298611
4.820648889963792
6.967516115893342
8.371963094232173
9.431845203018582
-16.67430060713734
-1.057625305374161
8.300080709519339
-1.891564493169238
29.90359756377285
-2.920509497965156
-25.09152357262128
-15.57415200260632
-9.507629001550793
10.23879347837026
14.84298752579644
-0.1412790198306058
-12.27803867858137
12.4184155677856
27.85654740161856
3.222024580525622
-10.75480446186011
-20.32376752028176
12.32118660170893
-6.316028357643683
-4.655470721192183
-1.349687522857453
37.07921351512571
-25.53872632805031
-34.5239759317462
22.98348874471742
0.1640711340286834
-28.60534831962044
-1.044933416079908
29.48621060170239
-16.11947721874116
13.55575737518639
6.848906525520998
-4.28518668204656
13.9358310937547
0.3551796943989971
-17.24351549667697
2.952504708596511
-22.19030946777535
15.41435694771728
9.943634858608588
-3.167682338527662
22.83534380739809
-22.06731522186285
-15.38094935477112
14.61292076924173
0.3914634383020857
6.646755211745174
-23.83957508651481
16.80135643647609
6.19902125531096
-8.32202853080957
-16.82212434304883
18.94513161855338
-22.64044878285486
2.170798030372635
20.07374195237458
0.395908800091717
-6.756734410134786
-11.48843374193461
25.64240303055288
-7.397234878479678
-29.00009827588824
-16.9638041795426
16.95197221929227
29.01193023616332
-21.77882044033631
7.073627580958581
0.5961646188852999
14.10902824049689
13.88238280835266
-21.00726205581557
-20.28088247961252
-11.08491169147917
16.29856544822304
-9.215367289944338
4.001713533202657
13.57830309035119
-18.67465018196279
14.91364800079343
-9.817300909155819
-21.85011649878338
30.72987872241861
-24.91591586395878
16.03615364035915
23.17861930612975
7.009367225103125
-27.70103222740252
-2.486954303831297
-16.79620575768616
-3.726055552014663
12.20559478958115
8.31666652013117
-1.325093141525525
5.204657300309251
6.178722994461564
-7.814874361251992
-0.1015867920160592
13.08303809839629
-27.28281056901954
14.30135926269559
6.989962684778661
-16.30723576814219
18.81443800736776
-17.15347035773114
26.89391541958463
-9.740957481350291
-11.30062332640559
-10.41518127374251
21.7143961173361
24.59210103874249
-10.46832292382587
-0.2413953065720653
13.54068315769444
11.3488063739754
2.627447275914023
-27.51693680756764
-20.93807770215621
8.142126406515377
6.583222898177858
6.212728397702829
4.427011935796728
4.837861044546365
14.40734315842301
-23.67221613877627
-7.840268399337755
-12.41898905378338
2.357946236385374
17.90131121687812
10.46054759704292
0.7847403118794566
-15.84511826677983
4.599830357841981
-33.11923949497244
-1.709875733332705
8.331411990082943
26.49770323810234
-24.37446977424192
3.869978642012176
-12.61474836276427
-16.21002104153308
-1.054658785011614
30.44751059266735
-13.18283076611745
-15.44606640823808
15.93854288138221
-0.4936734053241559
-4.15622524905823
-12.63528186262271
18.44637540866313
15.51875265243049
-3.141756720351696
-1.415122623792354
-10.96187330831859
-6.595320104222118
5.853261416013524
-0.9640602556998649
-4.92135321845739
-0.7099066301173602
5.889562331300279
-0.2024976238953546
-14.55427612847838
15.03564597215414
-12.70043781783033
12.21906797416038
-0.8124771863104777
-7.698640522105803
6.237591382656987
-11.03727981541273
-19.34344356334435
-3.465099912969685
6.598522434782263
-14.24880488283392
-0.3058568989968114
-3.372756424573002
7.962470878935224
13.09596197759006
-17.6856764320534
-0.4346274027306753
18.54245091283101
-18.10838955134382
18.95668247870218
13.24561957076487
-21.8276913730384
-10.37461067641982
-38.06221296298062
0.06987528630455192
20.92196981976328
17.07036785692346
4.405929085809319
-30.7176004580762
-1.871098107921669
28.18276948020112
29.21142465630681
-25.17440434829645
0.3689087778057609
-0.1246006992767155
-14.35569724609415
-10.75017681703367
25.23047476250936
-13.38463353121501
-2.605959072839503
18.28487068079298
-2.294278076736861
-26.79318621748276
23.42914863975318
-30.65586286846714
34.01990044622107
11.85690996128357
-5.760556395465397
21.20438972791095
-18.58192577238769
-7.690945424286101
-7.461704440130354
15.15198652429346
11.25218392807041
-13.51570900528175
13.94460528074854
-11.68108020352548
-20.18684493862424
11.56725621101396
5.857659481898686
2.761929245646884
-4.962728527394321
20.56455687976536
3.254154677257542
-18.85598302964488
-17.01432172470648
12.54641155277353
-5.144635604672414
9.612545776481522
-9.906589448778643
0.7893361408840208
-3.112916252146786
1.046798969767934
0.9981659558671373
-7.253903587737672
5.208938662111966
2.460551150375879
-5.919115499965341
-13.23742706020316
-17.67207078806335
29.31879093829684
-10.17405225901679
-1.472667891195123
7.062953831038197
1.20528239085351
-7.22143725216791
-19.5210898855721
-12.21604375856859
16.89256694548523
14.84456669867098
-1.71598078590592
8.158294744631766
17.77429311621527
-37.31399254795812
11.38140468711602
4.989125935063291
-3.328459172970755
-9.166353593261064
0.3076734461839408
6.806286713096156
15.06481656338636
-14.13349749433728
-7.737605782164948
1.575851381260691
-7.55507943053529
-15.80043874403004
6.970480745184081
15.45717902724513
-6.627221028367437
23.13507650812817
2.759338043104128
-18.85857737578635
-7.035837175436464
-6.839133980165141
-0.5859106673249053
-13.51303305452608
10.77362621569262
0.7820523142170387
-5.738006636056223
-5.817671893906907
19.0059926505859
-18.388215257242
23.11408707131424
-23.73186446465274
-6.079639243169715
-12.15595114915872
1.550550710901136
16.68503968146915
-0.2498622691930698
-13.09574042571637
13.3449030568932
17.28810437850503
12.66530660492634
-6.99183577362922
-22.96157521005182
13.11950119311169
-1.799099620183536
21.67661756143723
-32.99701913435288
-14.52334913070655
4.266846083668436
-18.36300006187968
14.12025369240143
-0.0240997144607066
-24.70657089658422
-11.81096622981216
-3.024997029801686
16.66610770654745
-12.84621524051328
-0.7948954363073393
20.6688550249335
-16.43307154877162
8.883717716959032
-9.051158859690808
9.118193769971638
-32.44406096089224
16.83977757453913
10.60640384230833
4.997879544047587
1.724766954091711
-2.558965128585105
0.3525586962961316
0.4816394782068154
17.56533894664604
-10.62512988724971
-24.69928557902555
17.7590765196312
-6.41869850092841
9.626263904352149
-17.67379573800384
19.61305766669165
-11.56552583303799
-8.710562418638835
7.689020293433225
-27.69090112334906
28.71244324848124
-7.71398099913072
23.54035202988846
-2.680882120180798
-13.14548891055805
-9.708172945141531
5.743301960689877
-24.25546113880795
28.22033212320301
17.95927053977907
-9.183674198894879
-21.13954669403822
22.25069035045613
-18.30714951648361
6.239366224322076
-25.72397108597609
26.09021765141178
-6.605612789773144
6.520673934745409
-29.95156633646784
7.88010298293488
15.55078941878588
-0.4548512522990074
-0.390062518003928
0.920907924696397
-0.07599415465123456
-12.13967137257127
5.751150837937558
7.948539180602919
7.833025753645567
25.30687555304354
14.22131560702624
-19.64251411069853
-19.88567704933275
-2.100642017683583
1.365275191789493
-8.315792033832283
20.27962021116461
-0.2728348301932932
-20.00702205885761
9.237717441414322
18.00082655587997
-12.97186150238261
-14.16591222839075
9.136947174908832
-16.55844565570996
-2.210594441718253
24.42579773711583
-5.656757639678756
-8.66234689133748
12.23118564223379
-20.12728440659829
-23.45614159739984
30.49863604738065
-2.763112759041042
-4.279381690953755
-2.672257246250239
-5.042333983800321
-1.643406373268491
9.357997603318696
-1.311943953087734
26.7361095235064
-25.42432318356531
-10.65667042036709
-29.74363106780884
16.94415989078355
-10.13446092801149
-4.884992406308422
-6.27102096878675
13.81737417886899
10.36691532624542
-20.82163136566708
10.45428966806328
-8.877789085428876
20.48456882257927
0.6237302890632903
32.50492040324125
-15.57443474063506
-17.55421595165931
-9.764534449550135
19.87708934946486
-10.11297603202495
-13.12714840904889
28.20124600945752
-3.636454384818784
-10.0706402607009
11.03483739924662
14.93596215295429
-9.902305558501748
-2.388202311593409
-2.645454282749591
-6.419394604559132
-14.34529148254823
21.6717742788852
-0.9070881917765301
9.380098522410449
9.180882286001069
-5.749833930260243
28.96376252422889
6.00485774089737
-29.2187863350021
-24.53485062184319
0.1389156127393015
24.39584835166626
20.10820999352075
0.7489079873741245
-1.536353321672838
-19.32076465921802
25.5211444634276
-16.99855724341463
7.12544474407086
-15.64803196404877
-4.090205157275791
13.51598568018732
-4.426435002796305
-4.999345520126774
16.71432375181308
5.946427032088796
-10.34409168585431
-12.31665909807512
-4.11863842866344
6.516439223157434
15.12147148487851
-17.5192722793695
12.44236721175765
-10.80117091339954
22.36705982734227
-24.00825612569837
0.02503837840425654
-0.03319727393391764
15.52543601494844
-15.5172771194101
3.176832188232118
5.919806163337145
1.676987864116182
-0.01664454820634029
-20.10484719758543
20.10411443252193
0.01737731327162893
21.6464168459513
12.92617840576341
-22.76080200188293
-11.81179324979967
-8.417178976410645
-7.635825376465617
-2.014396098703923
18.06740045158204
-6.436605222084959
25.1731717774241
-15.68109105748445
-3.055475497819033
-11.3188334326719
30.63941984772979
-11.40138270865006
-7.919203706370209
16.19979962583477
-15.22346165219039
0.7333829820684074
-1.709720955680302
-1.920780487188938
-1.298237021819657
19.41881713486491
15.93831675840317
-22.13394639685571
-13.08805600544585
19.2836856438971
19.12270975028622
7.099642411830869
-23.69756458476735
-2.524787577331053
2.966220707787333
-20.02364348807188
17.05711656343589
14.30568770978199
-16.5997570685727
10.65036214538654
-8.356292786557386
22.35988625811328
-0.6325295564857375
-22.31356117137134
0.5862044697463302
-19.05349754886655
19.92935476451327
-2.796637702809076
1.587208814345851
-17.93771199398592
15.86814973234362
0.4823534472829183
16.72773641103817
9.198761748283404
-8.931388922265796
-13.09987294342744
13.16236651523297
-0.0626213167464037
-18.66570556797469
5.5962358801851
15.04060709264232
-1.971137404850203
18.81783043150858
-8.611415620351709
-10.22446568612596
-9.661830140429107
12.8422022325188
10.36104775656193
-27.57652279573132
-3.264604569165305
2.759162442124008
28.08196492285991
0.01874108596967371
-18.50581334448376
18.48690470654305
15.00100538770582
-26.43984363897804
16.82827858854075
-5.389440337261512
5.743474564583852
-5.463993960309654
-15.18839173335763
14.90891112910926
20.10135962817282
15.0860726817491
-14.90781209875303
5.775403013412275
1.724418028983447
8.699138328415081
-24.87216380770571
35.72274104646787
-2.819118955065118
-8.031458283657319
-14.6274326698247
35.71658166570567
-32.56965370139699
11.48050470551936
1.1895859448657
-21.71054647800602
3.001703040196227
17.51925749295048
-13.56991537350671
-9.101533947535678
30.79713753160242
-8.125688210578657
8.739688102811304
8.051421766250925
9.230256586925329
8.257378959647637
-17.48877518716663
-1.433237282629831
-27.39024885883688
29.43539773003964
-0.6119115885687744
21.78580657623133
-0.1452225602365038
-21.64105647169628
-20.02615963478053
14.2048461591478
6.506879897577151
-0.685566422064252
21.06127129401106
-20.35323381506106
-11.68603081391433
10.97799333496462
-17.92922292271543
-15.30621659153372
20.12262458009256
13.11281493415789
-13.92268800684487
8.625485475530356
-14.84146380155443
20.13866633286821
9.96430303518089
-21.72572292012657
7.764341744493406
10.31732804964632
-12.2362183579241
-5.845451436209246
2.416283624460336
7.85497324624184
-25.61004802008933
4.946323974251233
1.183334012339798
19.4803900334588
3.840056874814504
-19.31185787666208
-5.637159675466091
21.10896067729903
-12.62200972840566
13.23967808936956
-15.15390660088093
14.5362382399432
12.27720101911022
-12.13481055342647
8.662854197468191
-8.805244663117723
-14.82664248929916
-5.604545097582057
6.248920938642909
14.18226664826325
-11.69696036104025
7.38330443632834
27.44873243284743
-1.668130018942902
-24.76548088438769
2.475194537416993
23.9584163659345
-15.50448777427271
-0.01817236493392101
15.5219192666547
-1.465526091310716
13.46411780859099
-11.99920921311854
-26.44428827976339
22.41756323862106
-1.09055943390548
5.117284475053492
-17.16362233657195
0.4919774607153978
17.42538620327921
-0.7537413274022112
-20.98759722920417
0.06886320722487929
10.77673045498006
29.2487008903019
12.45328847074892
-25.61712933072165
-16.08486003029167
10.20870479236338
9.085111966799763
-15.73156473556888
-18.37138140944223
10.79288708750208
23.31005905752361
13.45094626265784
-15.94245732970287
10.25585281154603
28.09833516581243
-22.28052182762975
-20.22537911533413
14.40756577715615
-17.59364616647872
-10.16010701520867
14.36022728654318
13.39352589509603
9.507718230135405
-22.24285438877691
-2.996428576903512
-10.32039309970532
-6.426425382061009
16.7458517086257
-12.74598614650871
14.96013231932756
15.61553345180865
-17.82967962466217
0.3853287087294807
-0.2386117987739957
18.69123624975379
-18.83795315970452
-18.82990814160408
0.1167339641638401
18.70953513870082
-1.308318431825445
-14.93173780298802
25.74777446497529
18.74198877125173
-7.347227073763845
-12.70308012927452
-14.92733387108388
11.47795339544143
30.28243024675362
-23.0183948708809
-18.3552473506746
-8.586146738187017
12.00965628588669
-8.746001921553578
1.839171949473016
-7.071576225602741
13.97840619768468
-21.36993148412199
10.77418543615443
10.5943288209546
18.55466791280498
-5.851143203220787
8.057121252662441
-20.76064596224013
7.51907031398429
34.54210236249466
-3.036223498262026
-39.02494917831052
-1.011800580012368
-3.429135579015028
16.89928609276365
0.8506411626395411
-14.32079167637671
6.128944923896137
-2.435001313540461
15.88947308378491
-19.58341669417198
-15.77103231127675
32.03960223530944
-2.149260642097104
-14.11930928193406
0.6312326251782792
-0.8587144819174055
31.20703381035924
-30.9795519535457
9.622663019644593
-0.5638073012803925
11.3641558458124
1.715701906606243
1.751436886782797
-14.8312946391841
-3.955938674624541
3.282294146783532
6.563206859116231
-15.61407860549546
18.68347917100192
-1.356524208950812
-1.712876356468176
-20.63561436564553
22.51943233639086
-5.734935038993608
18.53900644654936
-19.54430156457864
6.740230157039351
-1.44554370279188
7.112268047672989
0.6252160924767632
31.24904914363237
-3.265013698120253
-28.60925153784993
-12.31262015813213
1.023216845451569
13.61864025164033
-1.122534374581415
15.24256331732248
-27.73866919430435
-25.19336655540974
10.8150087994097
1.962424110522044
12.41593364556979
-6.88750596174887
-0.2807293918121856
-8.702713844426803
-9.742157825927849
3.860837795839648
19.82785767629145
-4.288361475228664
-29.54131402285995
-10.95783613126256
10.85595987588539
-0.2438606542043936
-17.17379417257383
38.87749840665725
-21.45984357985433
-33.27198347548696
17.80730095905558
-1.964948661706439
17.42963117813403
-0.06480150265788738
-20.25788361974073
0.05923230588170462
20.26345281652049
12.85796062055842
-34.89199340745738
12.75967262615664
9.274360160776729
-17.62739322074918
6.052666917027728
-15.25351382508101
15.25323626261945
11.45243429385664
21.97843304238264
-25.9530001176686
-7.477867218556694
0.0893832416701828
-22.61383781225957
-0.07577030751520826
22.60022487811707
-9.744460528689345
25.23630356720536
-26.13965361753813
10.64781057902507
2.867455966331098
-15.37624831874772
4.667348961799482
7.841443390662937
1.456173474046196
31.16121158879796
-21.16495076897895
11.99518142525495
-11.28738083064382
-6.575054031664877
5.867253437058338
-5.698000674603295
-4.058564179201588
24.56332972874985
-14.80676487494643
-35.54455438539936
5.729676383596219
2.526714570888995
27.28816343092087
9.381612675998662
19.34469703411244
-9.316421385300567
21.98018777847548
17.99247602071186
-25.6867868911778
-14.28587690803812
15.17389521774007
-15.49438863593024
-5.241123443768683
5.561616861959708
-11.50353582378992
21.38107709075459
-9.878465643144446
28.18574336351618
-23.03025827532023
-21.74580485805869
16.59031977008272
4.907227248739231
-18.99661417300343
12.44554530051746
1.643841623749692
-1.033788589876514
24.01118189688264
4.121852363999962
-27.09924567100225
2.136634538102173
39.72293520964809
-14.9643527413406
-26.89521700655865
-0.2690943749289855
3.023470155510084
29.06336323604766
-31.81773901651204
6.59998635430246
2.752465180961621
-14.70582767126764
5.353376136005663
-4.88426802001539
15.25301845533111
-2.194113793721682
-8.174636641375606
-15.97900427732316
-9.642641192559344
3.32120528226956
22.30044018760573
4.744538256569919
-19.71663803933393
-5.452420142605218
20.42451992536777
6.914219047829278
14.10746982322404
1.077052578098527
5.347115802734678
-8.524810398557632
8.68099231960643
10.87403694291044
-0.674353108172504
-18.88067615431852
-0.5362995602083848
5.451410739882903
-6.631091965586014
10.51112127835105
2.939272236826774
24.48535231369873
-16.05219234115337
-12.48681962102206
4.053659648470694
0.7515078533671907
-0.7829833891696084
-23.49511754856187
23.52659308441166
-2.6619919139697
11.11960369447606
-13.13742815030185
4.679816369848284
-10.26860512516483
34.53280171569074
-2.617779744552362
3.977867104250357
7.67654523311999
0.07566991620945612
-0.08236991455914296
0.5821326654040321
-0.5754326672004477
11.6556627858762
3.664482113980564
2.846545067209751
11.19242921060684
-0.1555750314635243
-1.424308402642946
19.38625300448049
4.871204539503267
0.304178362518747
-24.5616359066757
2.838549628343819
-7.436992869792952
33.15763492277492
-28.5591916814474
-4.915032320772402
-17.1463536717425
1.082700677346415
2.720705488825179
13.3429475055876
17.03638091183496
-0.8904173483525671
-16.1463162515168
3.54289207526081
-17.68203179954233
20.90711393997349
-6.767974215630819
-14.8804510409643
17.20182830160496
16.58674912357602
-18.90812638419509
-41.74613769168674
-10.33375580686101
24.44730623454013
27.63258726404054
16.49910325667178
4.595760054901319
-20.72790902024907
-0.3669542911879782
-37.28597884807678
27.87643391412236
9.632151191213962
-0.2226062575362522
20.1457280415903
-4.183442147015946
-25.04562616785434
9.083340273286288
16.9904864704746
18.87995059634531
-19.37133380988286
-12.05816409421744
4.932328671911055
-11.36691595267175
18.49275137498469
4.306798770685448
-3.660939361378984
-1.731558056109956
1.085698646503191
-34.26384338577071
37.49396023764155
1.374764927295552
-4.604881779170187
28.97066638892781
-21.62726108802473
17.29434861094762
-24.63775391183664
-15.24288879031823
7.564926596548769
24.66844866437115
9.963657599388451
-16.27724827031782
13.52924313853388
-7.215652467600072
3.416780832287026
-27.0782365366569
16.81922772960182
6.842227974742491
4.771606856304365
-3.692244481949155
-14.03726273147005
12.95790035710135
-12.26305192017069
1.615923184774585
18.94040136061632
-2.67482631912534
-24.07961159825312
7.814036556759832
-6.933707613371502
-20.23074232814957
0.06707107562691973
27.09737886590159
7.347690462244651
20.66996403558348
-9.077253137189389
-14.32674509031558
1.901512952623336
12.42479466209262
17.58828592344607
-18.51748241584025
7.40539391573306
-6.476197423325257
-24.03225140082948
15.74141874149925
13.30168490687973
-5.010852247555111
-3.669283286866895
3.060583873312296
-19.24827311240576
19.85697252597837
0.6904134271591691
-12.16154642231674
6.598868258349354
4.872264736814903
-15.66948538753689
6.516257566641746
10.5267334638309
-1.373505642935987
-14.47528233904962
23.86859714942555
9.992938194072892
-10.08986496736156
28.04614042849141
-9.522760219649575
-8.433515241476895
-5.269627879616907
4.024413806273265
24.46291675816174
-23.21770268479345
-32.09599009079236
8.292610516991187
20.66021334690904
3.143166226893944
-24.34996761430201
0.1479754458584278
-10.16458901970241
34.36658118819653
27.55401080594367
14.93925847395197
-14.4616029908891
-28.03166628898209
-1.568750207950659
-7.684368010980408
21.57028247261544
-12.31716425370048
-9.505699875033333
31.50820984550506
-21.38961212862871
-0.6128978418389434
11.74496253108215
15.50501514066956
0.05140510657265263
-27.30138277828622
1.666144614262029
-23.41667033606426
-1.575865449350796
23.32639117115635
16.16147088567594
-13.28188647965274
-18.78740062728455
-0.4448964442075926
14.26685970453684
-13.82240135482108
-22.15039078774942
11.00075436548086
11.14926532817409
12.12431029942067
-22.62738138485895
-7.732439035917392
18.23551012139797
-16.7133664046566
13.8633027133455
2.849304444587627
-9.075334891256436
12.4327691137964
18.07590600468647
-21.43334022717737
-15.99475629366578
-2.812303348033133
17.5088226199144
0.8013424398151067
11.92144208964063
-24.30717429205254
11.58438976260654
-17.64516683538104
12.74032662404423
-11.08991608229661
-2.990028270720887
1.246671303007773
-18.42729696592256
20.17065393366802
5.784410945155153
11.84483244657289
12.99865532984317
-30.62789872154714
18.75157829672417
-2.134400169532387
-8.171774425690375
-8.445403701536414
7.497134353210753
-2.471289067076019
-21.38994271515424
16.36409742902047
8.914630502477996
-28.68190989631125
10.69194450261121
-4.789111514049972
-13.04192532300101
-2.724903934826
20.555940771933
-8.001621495278984
19.09318688373211
1.886769265005664
-12.97833465344763
3.020437853472223
13.85056142824719
2.049309416095551
3.929981128864482
-23.35464059915707
15.16166118128858
4.26299828901443
18.80698172259406
-15.09501304128601
1.556927965346362
-5.268896646655494
-14.46446747175506
1.141415972432817
-2.053717374909367
15.37676887402923
17.39819077990346
5.842834342041784
-19.06188618316809
-4.179138938764344
2.6402709468717
5.127997189067163
14.47440479975869
-22.24267293571872
20.66953743411211
0.191712053497107
-25.46851388762591
4.607264399681037
29.36056498365834
-18.73327551268622
17.97923733500332
-28.60652680602893
4.616601701368574
11.38858951543385
1.78059922878284
-30.02037935559406
-3.227165932512622
20.45550314498826
12.79204214317825
-4.140652109248309
0.3541708128582052
19.23967101236596
-15.45318971597233
6.909854878852352
9.378295947666935
4.829981728785666
-21.11813255529539
12.1557976295147
-7.083622568562236
-18.07890596472878
13.00673090380468
-18.49614273142041
10.04454707277767
16.12769703784105
-7.676101379192701
-18.56752758038273
19.88328565971244
9.097171015793382
-10.41292909512993
-7.955561512122987
25.56913966237234
-0.4076672108890045
-17.20591093937709
-21.06420042953451
-3.360669782602804
22.78291284578152
1.641957366371121
-2.3306306760297
19.30264894501868
2.828245098269126
-22.38035712254336
-6.83560784027927
3.605916942682939
-26.926504836115
26.25228156689156
-13.8010590698838
0.898091637427934
-41.84597634034125
6.879924286114285
-18.67326209821824
34.57589850814304
-22.78256069603314
17.70737250517574
-41.65006481193059
-13.6993577018043
37.6420500085691
26.44312451574691
-3.631492954679266
-22.39801372561923
-0.4136178354399918
4.32188387276016
-1.434482824054053
27.69790852625637
-30.585309574952
24.21674669755161
-26.4011738973727
-1.143173478175494
3.327600677999151
15.53772120863957
-12.52908336900324
-24.39015398234561
21.3815161428534
-5.595325852368979
-12.91576746962289
14.29664900776797
4.214444314223968
33.38251932742016
-16.98527185731851
-19.77463097868727
3.377383508469596
-11.469797872205
1.61812369753109
12.46620211280597
-2.614527938170826
8.007502042016243
9.720834413863813
0.07176885811012568
-6.279997299354437
-9.834343393084822
30.85953207389058
-14.74519138144488
9.918671281201583
-20.30932053436234
9.020487906204981
1.370161346953549
-19.44877818069951
25.25412482860564
3.44661623626143
-9.251962884188643
14.29317512819583
20.46766167840661
0.8217640578932087
-35.58260086450087
-27.20357450199419
-8.574713290896035
-11.61520620930456
47.39349400228969
37.75923423865837
-11.31194961607617
2.568137566423351
-29.01542218896868
15.63270141116891
-36.03074759425597
-8.402018621477657
28.80006480458312
21.47016385096698
-12.40750222223819
6.029979127654561
-15.09264075636668
-20.31992869986194
0.1090699691074706
-3.003586420030669
23.21444515080227
-21.25268080208319
0.08539944025687894
7.467368864344933
13.69991249749298
-10.94491483505368
-20.11308643152485
18.79415041398775
12.2638508526479
14.02299468784595
0.234338583613564
-14.25763644328459
-14.45388887595831
18.78614240253592
33.42698071206818
-18.06985021165735
26.03516666781422
19.38195059728091
-27.3472670529364
18.90596841086158
-0.2265352411198817
0.2772493089630174
-10.62381441292139
-9.6981313921356
2.451258741206637
-23.0265827366112
-6.628250506559346
-21.15652317404165
10.52134377211069
-0.3097354330992717
3.467242819756339
14.95638556493169
-17.23404243980975
37.01988805894317
-16.98809281496147
-15.10988500529376
-4.921910238527871
-4.207632039736989
10.89447634602265
-26.79993073777574
14.21163753465229
3.808426294504104
1.700744052484796
-19.72080788160981
1.281251804487187
8.802158089234013
10.5794064096169
-20.66281630343973
2.259649879098266
-3.676738402887453
0.5402652517408257
0.8768232720594139
6.402651890192995
13.00626924182435
-1.270511998630554
8.747167669980032
7.959716418926411
-0.325656603271456
-3.649119988585494
-6.717945969679485
20.16488926018402
-9.797823301948497
-42.69603989195133
9.534680705873798
15.09150897469741
1.65157246979733
-19.68749519826392
0.9317100818592331
17.1042126466956
-10.83484175661868
20.94511147452894
2.361199918216831
-12.47146963616483
27.00789713071321
11.54401227795347
11.1621614318257
-49.71407084043895
11.34034692166299
5.469405130296871
-15.81040212821096
-0.9993499237512804
-23.53348173808429
-5.929019029587477
1.336475549347436
28.12602521835306
1.212572888019822
0.5882757799904978
-25.33433040606973
-15.30303832847603
-5.591038215456556
-8.046705473814933
15.43174184846668
-15.93715481059635
2.156985432030553
16.2460645556516
2.756451645129033
0.8614856067466176
-19.86400180753541
38.53849321903535
-20.81119892055607
3.582367904422946
-21.30966220289875
20.43404565602162
-27.22443622875209
6.790061865430843
-9.09698453271765
29.68370927205922
-1.458550368464087
-19.12817437087384
-17.34742447618374
-5.429361290717475
14.93792205197989
7.838863714933042
6.842842713005685
-6.665653145493124
-2.535873396564961
18.2935536638251