/*--------------------------------*- C++ -*----------------------------------*\
| =========                 |                                                 |
| \\      /  F ield         | OpenFOAM: The Open Source CFD Toolbox           |
|  \\    /   O peration     | Version:  v1906                                 |
|   \\  /    A nd           | Web:      www.OpenFOAM.com                      |
|    \\/     M anipulation  |                                                 |
\*---------------------------------------------------------------------------*/
FoamFile
{
    version     2.0;
    format      ascii;
    class       volVectorField;
    location    "1.2";
    object      vorticity;
}
// * * * * * * * * * * * * * * * * * * * * * * * * * * * * * * * * * * * * * //

dimensions      [0 0 -1 0 0 0 0];


internalField   nonuniform List<vector> 
19632
(
(-0.004846203989337055 -0.006892170075377483 -0.006270419570504177)
(-0.0001218281826036267 5.763609642813763e-06 -6.80980301484184e-05)
(-0.0002685167837306442 -3.91273469118806e-05 -0.0001387846026932131)
(0.0004791238189584669 -0.001310133531066192 -0.001317435188217239)
(0.00101686885755021 -0.0007896624101799871 -0.0004506487102400048)
(-0.003653238077713472 0.001874604991801095 0.0005689781151325704)
(-0.002614088160794036 -0.0003641269006040425 -0.0013053662722541)
(-7.065485660744667e-05 0.0006733899130574856 -0.0005295328275742397)
(0.001471232785814899 0.001513700527569646 0.001233848889929763)
(0.002386248131936582 -0.0009991135396996813 0.001868853676540539)
(0.0007771991425413202 0.00074878879565277 8.728044618653998e-05)
(0.001121119064365582 -0.000394409713895324 -0.0004495165584385929)
(0.009434876307933828 0.0008677530325823868 -0.003021388085153806)
(-0.00048676822482138 -0.0003762414777204979 9.62256808132538e-05)
(0.0004355562718273095 0.0002058932051804471 0.0001261783352001331)
(-0.0002118043162043503 -7.031626868070458e-05 -1.878447533334168e-05)
(-0.0004870367398478139 -0.0001149154761340272 -1.889699934336204e-05)
(2.905979811221239e-05 0.0001880167590632909 -0.0001341158595077328)
(-5.529998355874419e-06 -1.405202632435136e-05 3.056784664389618e-05)
(0.0004305152171076063 9.057114115583806e-05 0.001688089784938379)
(-0.003683411242054347 -0.0008432807473673195 0.0004063608772153619)
(-0.004650926262716354 0.001042876817973604 -0.002488063318052026)
(0.0004015035657878107 0.001697564049063331 -0.00535086396041788)
(0.0003617287908929534 9.970090338407546e-05 1.12653745053291e-05)
(-0.0004382234630307327 9.511962819803009e-05 -0.0001750071735341075)
(-0.005949175089396266 0.0007590900029371618 -0.0002422427391137887)
(0.001319731012545837 0.0004908506200104359 0.001084557235813061)
(-0.0007286612344052722 0.0004686035793605002 0.001248417079897496)
(-0.003156785922950244 0.001907771090899992 0.0003051843981658346)
(-0.0002311578241087045 -0.0002279174702681862 0.0001953339339878916)
(0.0002051495708226638 1.261434556413437e-06 0.0001726638160923031)
(-0.0005810539866606914 -0.001203913181423423 -0.0001607256091061333)
(0.0005503378621641124 -0.0004806153612542825 0.0001582992602548658)
(-0.0001336918563796952 -0.001095063339997237 -0.0003797238348362771)
(1.774305961170737e-05 4.305099565102411e-05 1.640388401197817e-05)
(0.01109513877685211 0.002881099114494351 -0.0006550352964084102)
(-0.0007098620830554082 -0.000207444536608363 2.352737356474731e-05)
(0.003877806581672561 0.0003932896992500548 0.00063343125212448)
(-0.0002046464971450967 -0.0008447777890631128 -0.0006113099945225805)
(-0.0003474992239532233 -0.0001636498358508503 0.0004050225666012147)
(4.378856699339145e-05 -0.0006908721303349829 0.0004248847217050098)
(0.007079684295944641 0.001141617250552818 0.0001389014152419713)
(-0.0006667111677111151 0.0008279123201350795 -0.000607094416706578)
(0.0001297929756530665 0.0001637531088983226 0.0004623524933453933)
(9.679737724851573e-05 -0.0001602061504909435 -0.000140749108174475)
(3.56409723923597e-05 -0.000353066740837339 3.839075491139049e-05)
(-0.00561879155442223 0.001766160579837557 -0.002051490095627459)
(0.002582963015926377 0.00125547211169876 -0.0003267747383512527)
(0.001390992969837702 -0.005251317088181492 -0.00448734733238261)
(-0.0003548481218068713 1.238002588930684e-05 -2.287450234948753e-05)
(-0.001010209564978413 -0.002488570152005049 0.00240460375868754)
(-0.001017082888759042 -0.0007776395056776574 0.0002682161272757373)
(0.002471785123941437 -0.0001339674957896702 -0.002132795201636303)
(-0.002274022440064456 -0.0001968938622514582 0.000776862697971078)
(-0.001596286526717138 -0.0008831593428515195 -0.0005396063077549506)
(0.006095777568914782 0.005822690188503945 -0.006358947242838975)
(-1.904020844368387e-06 -0.00133352304500237 0.001449722629773738)
(-0.001681609367569231 0.0001023932160044406 0.0001322084732810703)
(-0.000406307221170037 -0.001157372014352609 0.002903384309582338)
(-0.0007734108936221485 0.0001151569555027745 0.000388884309078325)
(0.0004861479794130621 -6.933676578138928e-05 2.602689403284649e-05)
(0.0003439233968165748 -6.849930360157454e-05 -0.0007133487113873036)
(-5.8602540565816e-05 -2.303622434602813e-05 -2.623165704509043e-05)
(0.0001790952177417506 0.0004357575110531708 5.225916158627409e-05)
(0.001096546155388693 0.001584177987158272 0.001254471646919608)
(4.594087913331929e-05 -3.627019063268418e-05 0.0001119360594913292)
(0.0003059387563862376 -3.633057209487642e-05 0.000111305464304841)
(0.001180165410532207 0.001103741774221581 -1.111760137696065e-05)
(-0.0002335126476964758 -0.0002955907166367302 -0.0001280155357204535)
(-0.004410056840648931 0.0004513092910235625 0.002011268129223089)
(-0.0001208410936907189 6.783156292498941e-05 -1.80000156785161e-05)
(-0.0008412591534081898 -0.001111145988780194 0.002245518052949039)
(-0.001498037790197608 0.001475231811620117 -0.0003974365224403987)
(0.002494786513918648 -0.001212193656302494 0.0003300681582112977)
(-8.366666213374411e-05 -1.893701954602538e-05 7.210046088480599e-05)
(-0.0009001388472872968 0.001769287622678516 -0.0009960343489607837)
(-0.0009973308776722639 -0.01216229298531854 -0.0007459191195092886)
(0.004071411903056938 -0.01435469976127079 -0.003584181395161589)
(-0.0005042047727724068 0.000716523438767939 0.0004348622555883908)
(0.001306007826418831 7.141653211111681e-05 -0.0004807936022554536)
(0.000716118148692078 0.004158961482811194 -0.002317275632226659)
(-0.0003930522408290035 -0.002113885075608062 0.003309398781420077)
(0.0021954626447899 4.618666501624496e-05 -0.0002166204862878777)
(-0.002177722927835377 -0.001544119990874813 0.001110405441430018)
(-0.0008266583817393921 0.001094848545268906 0.0005219190843411234)
(0.00228775321833181 0.0007888712698851871 0.0009779061478674429)
(0.001237318498914944 0.0008610116016433815 -1.374645070447767e-05)
(-0.002223172369384443 0.003126474238546549 -0.0003665377102837764)
(0.001897772126339966 -0.001653962045155174 0.005882496867888958)
(-0.0001338226506249062 4.428966270176332e-05 -4.462641199546261e-05)
(-0.003616983501396809 -0.004905105025074939 -0.005249145306014699)
(-0.002774599910376221 0.001144239268523928 0.004514019692960352)
(0.0008317164207846061 0.002879554760073531 -0.000670284966001499)
(-0.004658416244710948 -0.0008032663890571307 -0.004326008903923631)
(0.000217222671057133 0.0008610984232469985 -0.00220527204482392)
(0.001281374040396673 0.003133704812255626 -0.002736328174685606)
(-0.0004874078630933081 -0.0007178041940191731 0.001096900977428536)
(-0.003367034050090899 0.0003054645374249734 0.004567805288041248)
(0.0006792744754140509 0.0008918596392158086 -0.00241988996487504)
(-0.001011276494128209 0.0005923335375549499 0.0004221960423763048)
(-0.000996490849753311 -1.454696456049123e-05 0.0003775448551168383)
(-0.0009257029670180976 0.002398192010908663 -0.001711770843181606)
(-4.624110126728539e-07 -0.0005039464240091914 -0.0002647869859024589)
(0.0001512953990354109 -0.000195922812652965 0.0002033097143054347)
(-0.0006990365413806088 0.0002503452530759013 -0.0008012486215749111)
(0.001335268705058574 0.0003451502237176101 -0.002732027810688889)
(-1.209164415676637e-05 -5.734945588849234e-06 -5.067697986875725e-05)
(-0.00319867899481924 -0.0007741107029933646 0.00167139712779977)
(-0.0006433286015431255 -0.0004052267219805457 0.0003707995610049311)
(0.001368786734206097 0.0003040283865405988 -6.834554810489484e-07)
(0.001593499686763304 0.001978914641624976 -0.001588763378566991)
(0.006906736756524749 -0.0002403336525408033 -0.001307547704019833)
(-0.002274330617431709 0.0004122609446736352 -0.000701865614553196)
(0.0001387484581589315 -0.002688670327649614 -0.001944528814167067)
(-0.0009150528340974361 -0.001306782959966178 -4.229393381145752e-05)
(-0.0103727135445533 -0.005004315263029626 -0.001603342961223908)
(-0.000471630269014777 0.001465332086065609 0.001636868242636729)
(0.0008632816119873361 0.0004252630868331825 0.000857993307500057)
(-0.003593510325797423 0.0006641930806374897 -0.001993198789350953)
(-0.001463612584912548 0.001866189032208323 -0.0004754058985137629)
(-0.001279877095932552 0.002885335434154479 0.0009440586043682491)
(-0.001901939149960612 0.0006400989260427343 -0.001006275370462486)
(-4.460205230197154e-05 -3.214578996440156e-05 2.751830079168392e-05)
(-0.003750151960853597 -0.0007930877529220316 0.001591547056291411)
(0.002982258564031122 0.003033339038318338 -0.0002197777815932963)
(0.0002897572771762631 2.819233425637277e-05 0.000122107230089098)
(0.001129148180985159 -0.002479043603858015 -0.002338365394534534)
(9.135891338921226e-05 1.324998178126557e-05 -1.508140717403863e-05)
(0.001155689571371532 -0.0001655667475091069 -0.000188363896618298)
(0.0004473641582139008 0.002490548905767075 -0.002238781747142519)
(-0.001697267366235645 0.001079547872551564 0.001254827481112972)
(-0.0001684019020467113 -0.0003415346795080534 0.0003085018031178115)
(6.84166154973176e-06 -3.384162380472079e-06 -0.0001975367480075204)
(-0.001156879356821854 -6.920079308464502e-05 0.0015404398515322)
(4.756178324727338e-05 1.486690541843087e-06 -0.000210363585381803)
(0.0005834837497453161 -0.0004851425887490829 -0.001187252137922224)
(0.001506105483992016 -0.001894966174117436 0.0003109544738813417)
(0.0001600320887764425 -0.0003373994347281499 -3.491587303664157e-05)
(7.762175503555542e-05 -7.196766903600862e-05 9.555045583275231e-05)
(-0.0002144146628503098 -5.683525506564724e-05 1.926074506105355e-05)
(0.001407335217841025 -0.0002233884121362121 0.001100799739149801)
(0.003849108639054212 -0.001091978671052647 0.007300583217104453)
(-0.0003085911278481857 5.325352395136948e-06 -0.0001325283933520798)
(0.00167334427620213 -0.03021913703191594 0.01309742457807013)
(-0.0006026098406953225 0.001016844594526427 -0.0005533312586543173)
(0.0008094143489485593 0.00405118983387367 0.001442258221398897)
(8.069053001180627e-06 -5.629922611701162e-05 -2.950895627728194e-05)
(-0.0001315629017365955 0.0003935292037796757 -8.997255314699569e-05)
(0.000350133292716902 -2.623549684066274e-05 0.0006154734828808515)
(0.0002391776607914437 -0.000160920106547794 -4.202524211517034e-05)
(-0.001971165285361245 0.0003766337708522423 0.0005766027018955606)
(0.00245090857503644 0.0007073346798855476 -0.004208311488965634)
(-0.0004988771523077809 -0.0002081281521671557 0.0005324377076206687)
(8.410034242786177e-05 -6.59208998059877e-06 3.375396372751519e-05)
(-0.03627552147664197 0.001597512229649517 -0.003392672901414664)
(-0.0006022598514698158 0.001727277556967877 0.00159441818339323)
(-0.005498781069537611 0.001609464687142939 -0.0005042052840992621)
(0.0004412845225405079 -0.0006215014552501977 0.0005486086602582779)
(0.006268091658391334 0.001465685267758981 -0.003202332228931424)
(9.322970543749418e-05 -4.96225357741308e-05 0.0003581912474316117)
(0.003687892382331296 0.001368062014696269 0.001125857219262528)
(0.001712512616207142 0.0001367034086909211 -0.0004034695384581387)
(0.001146257768555441 0.0008931718719569786 -0.0007094647858607391)
(-0.003319424467095486 0.0003828011855258619 0.000306709513074858)
(-0.003681212863016138 -0.0003732015060939197 0.002015044157578359)
(-0.003228846565544814 0.003098599396780436 -0.002739262667627677)
(0.0009726886349160409 -0.0001546440729584707 0.0001598859366391815)
(0.002472094046938885 0.0003456095493838739 -0.0008282713107770058)
(-0.000134655829787385 -9.42063691113096e-05 0.0001346537097860633)
(0.001223508100769998 0.0001798450389153232 -8.197362436994089e-07)
(-0.0006006836261566945 0.004007814349082305 -0.001729416897360336)
(0.005091993987634104 0.0002074109625138043 -0.0007278308463234909)
(0.0002419119205574377 0.0001922254831251319 6.616876819273064e-05)
(-0.0003300277963103259 0.0001121194133197336 0.002589894928298728)
(0.0006744540407459529 0.0004047988009573654 0.00154594976114099)
(-0.007221889550165127 7.031103948643559e-05 0.002448015271070868)
(-8.650288461940357e-05 -0.001001672861361294 -0.0003436985114556711)
(0.0001216066809241273 0.0010815301509149 0.000425565388214346)
(0.006226861580460694 0.0001725349681904586 0.002742598772613825)
(0.0002289698135325368 -7.462507903337607e-05 3.955395012848567e-06)
(0.0009191941788734778 -0.0001062329830907848 0.0005156278395795292)
(-0.001026790521718189 -0.0001283051757329902 -8.386035841832593e-05)
(-0.0001933479468607968 0.0001841673004480072 -7.657807925677993e-05)
(-0.002124042103496818 6.881056550297934e-05 -0.0002612405932930981)
(0.0002075217714110984 1.569257316003994e-05 -1.653611070464119e-05)
(8.312210247291102e-05 2.253618229547012e-05 7.82659839880701e-06)
(-6.664219675201982e-05 1.922169248622149e-06 -6.179932626878711e-06)
(-4.536126490310768e-05 9.762942013204329e-05 -0.0001997114017161546)
(-0.001500304173780427 -0.002005480567273522 -0.000474576977005836)
(-0.0008251962632611051 -4.256944666085807e-05 -0.0002989154342088664)
(0.001239889408045326 0.0001310924663451262 0.00382985358345648)
(0.0006001693144884609 -5.007543069910146e-05 -0.0006082109763294232)
(-7.288505177171005e-07 -3.989706938135493e-05 -0.0001074748744354925)
(-0.0001080588022089843 5.821724061303456e-05 6.52485827847617e-07)
(0.0007999975978446525 -0.0006269366432451002 -3.952762783829961e-06)
(-9.837641918472828e-05 -0.0009875255999073705 0.0002873579559327331)
(0.0002314632644250584 -3.239517558966879e-05 -0.0004571009873362708)
(-2.698823454316464e-05 -3.209353037246676e-07 -7.007679961171247e-06)
(-0.003437885865854063 9.625094109460288e-05 0.002823742500142941)
(7.867531801290417e-05 -6.00789815197489e-05 0.0001286304073804952)
(-0.004206891932561736 -0.0001358039117124073 8.656507253979944e-05)
(1.645104766020294e-05 -3.80683844735211e-05 -0.0001547436646018352)
(-0.002409421493722325 -0.0008044244724249158 -0.0001193068818530994)
(-0.0008912925680267417 -0.00107005800427663 0.002102454542179518)
(-0.001624425754673582 -7.996131208176565e-05 0.001219145717619122)
(2.349424210673168e-06 9.58085018179187e-06 -8.816714963077e-05)
(-0.02393051341182664 0.01983541564762511 -0.03460713309881037)
(0.0002175543336152396 -0.0001895045612261977 0.0007333641119385564)
(0.01611290655908153 0.001642892018611429 -0.002899972299514278)
(0.001587170845011968 0.0009985262996979492 -0.0001626235024176131)
(7.104019012772572e-05 0.0001691199713045519 5.863512687645951e-05)
(-0.0002122756457848349 0.01029502387738402 -0.001597359812117975)
(9.419745022988631e-05 -0.0005727694710155728 -0.0002605904253515405)
(-0.0002891712574422851 6.436649587687965e-05 -0.0007436813450244469)
(-0.0004761401652256022 -4.882523992377069e-05 -0.0004485334121843654)
(-0.003320605906400625 0.002232380341280803 0.001141702835162951)
(-0.001059473793497524 -0.0004285562809544418 0.00021756099069263)
(0.0003913981470503483 0.000157619005113384 4.026161210731006e-05)
(-0.004651389394074077 0.001464131989094249 -0.0003533218241982081)
(0.003890414536809223 0.002706426616824908 0.0006343811861315203)
(0.000670411797342009 9.267904183709364e-05 -6.889408626822818e-05)
(0.001303375795993994 -0.001042174843820207 -0.000120717048704905)
(0.0002839223247790281 -1.034547311914739e-05 -4.845314026573226e-05)
(0.0006728526316785329 0.001499789752264421 0.0006207670078537083)
(0.0009596523037245202 -0.00118900170031516 6.630655100306341e-05)
(2.10452391171557e-06 -1.599886111517057e-05 -1.371170019890083e-05)
(0.0002420615746390507 0.0004755192840655653 -0.001522499435402735)
(0.002437901468366107 -0.0004737640076177653 0.000610409218378574)
(-0.009344006359507571 -0.003618478715916027 -0.004258009807096029)
(-0.0002051970016297021 9.299654957979988e-06 0.0003180778155751297)
(-4.359034938835154e-05 0.000135249734264376 -0.0001629969285761941)
(-0.0001861580748767778 -4.062034316799193e-05 -0.0001647504870176401)
(6.030284867309657e-05 8.819929608966581e-05 2.488066270922993e-05)
(-0.000111683380214858 -9.352846909819557e-05 0.0001255486817531052)
(-0.0009793454870809957 -0.0002547933247020087 -7.853510811885108e-06)
(0.001824692683937531 0.0005278572557766933 -0.0001796916010453845)
(-0.002138644501864446 0.0007831159534663344 0.0002287383156431647)
(-0.003659513536593701 -0.003278204486517845 -0.000739186517605417)
(4.481862508763883e-05 3.607112620155203e-05 -7.328738309174944e-05)
(-0.002324537233300393 -0.0002240221944317117 0.0001140719415764557)
(0.0001927758329439751 -2.216061468558091e-05 8.121923269098197e-05)
(3.321333027741139e-05 -6.441219062067706e-05 4.675479875810284e-05)
(0.04835676181650551 0.003164455502335406 -0.005378160337025453)
(-0.0001003143983123205 -8.091993247982169e-06 -2.459024837025874e-05)
(0.0007349081365815571 0.0009378077067939719 -0.0002632015356565746)
(-3.77655320613982e-05 -1.223440473648538e-05 -4.067606917116346e-05)
(6.001069040052317e-05 -8.135625998033723e-07 0.0001066736016217892)
(-0.0001670373784163198 8.94678311002819e-05 -6.244045766489188e-05)
(0.0003397376544119089 -0.004866922613693873 0.000294640036857149)
(0.0001064514807435121 0.0002553737012429582 0.0003683845326644679)
(0.0004534295292296289 -0.0001661891499164471 0.0001842663447892276)
(0.01535684473010784 0.004245025642409183 0.0001100747328735057)
(0.0002047708840150349 -0.0001076078819891197 6.696958665467341e-05)
(-9.839227070987519e-05 4.108163426285012e-05 2.469388109500771e-05)
(4.233288239143397e-05 -0.001737828381059601 0.002182993083812332)
(1.740915329783148e-05 2.035489239275869e-05 6.812900307974174e-05)
(0.0002428339495578647 9.71117026327277e-05 -6.810625394180811e-05)
(0.000123896556533614 9.557809983025027e-05 7.677290214964596e-05)
(-0.006195087046701252 -0.00460945623911997 -6.820436287724355e-05)
(-0.0001011153208731332 -1.44174985898595e-05 -0.0001140195704534447)
(-5.637945612507258e-05 6.341729442634914e-05 6.399309048550769e-05)
(0.004431364212363865 -0.005460212402794629 -0.005712701150052575)
(-0.0001258596871518556 -4.502378809602653e-05 0.0001460786318792474)
(-0.008261881855320247 0.005782092765283638 0.009100346151400318)
(-5.340600361737076e-06 -0.0001755398668612346 0.0001794470696542108)
(0.001192710429568508 0.005448642826689701 -0.0005498009671136258)
(-0.001615432459094556 0.0002617548698944879 -0.0001676254518536564)
(-0.007123850163246135 0.003582839421715259 -0.003103830088490667)
(-1.770808297710055e-05 4.021279621647857e-05 -7.896058303637266e-05)
(0.005549472920996786 -7.675617854241141e-05 0.0008694823853555756)
(-5.353704178247481e-05 -0.0001080550922269191 -0.0001093595100964365)
(0.003712382999009892 -0.001514042468753687 -0.001246773800253053)
(0.0004087010395228244 -1.165891217584835e-05 -1.169093788674409e-05)
(-0.002040002924622342 0.01410227940121765 0.00708723585807758)
(0.001312015538920915 -0.0002496748553797739 1.08307204779918e-05)
(0.008393198481270679 -0.000349593213458057 -0.0004531159065688487)
(2.503613494223311e-05 5.85940208865214e-05 4.428628112458271e-05)
(0.0001099196737336264 -4.65901729456427e-05 -3.64471907790377e-05)
(-0.001639131021536072 -0.0006712044053300734 0.0002942037090130978)
(-0.002029361885415482 -0.0001223496782793244 -0.001131597558804903)
(-0.001668503634331291 0.0005500934092962566 -0.002199868744007038)
(0.0002228963676933514 -0.0001394837147107184 -8.445704487638648e-05)
(-2.497408060708841e-05 -2.074056855735643e-05 1.877961653234838e-05)
(5.796321646572821e-05 5.563855057821612e-05 0.0001504619081940877)
(9.317238800046988e-06 6.619900486829331e-06 3.295084400351928e-05)
(0.0008827304096896793 -0.0004327902767202899 -0.0001257054225847195)
(0.0002259459452891952 1.498251737445322e-05 -0.0001267275253965613)
(-9.243780372890491e-05 5.970542474337387e-05 4.98571549783411e-05)
(-6.299195395774101e-05 -0.01681689194848605 0.01353326888373234)
(-0.0002559650655939667 0.0001964265887239721 -4.943523017761178e-05)
(-0.0004673206503236934 4.143529987241733e-06 -8.51666405556643e-05)
(0.0004403729788452193 -0.0001587675852647524 7.092708912036744e-05)
(0.001897305823660845 -0.0003583324850537603 0.001523712825474783)
(0.001018044117595574 -8.957196801709241e-05 0.000234605332291407)
(-0.004085748532226386 0.00010857144866738 -0.001547719540839012)
(0.001706510607817348 0.0009598428622692068 0.0001857086049566903)
(0.000152469456232315 0.0004020080322709425 7.857569736582345e-05)
(-0.002154202180193171 -0.003621272397063837 0.009150375241768661)
(-2.272286274789223e-06 0.0001894392654838561 -3.187990271506783e-05)
(-0.0002214339470940759 0.0002598796054453305 -0.0003435285137555502)
(0.0001493685453626712 0.002463059939069224 -0.001245996251765346)
(-0.007657720147346917 -0.003235272581198267 0.0118462759975076)
(-0.00115902805029726 -0.0002799260381047607 -3.877666395624099e-05)
(7.845837338818571e-05 4.707314835918862e-05 6.198326963159876e-06)
(1.584112413666714e-05 -1.478814523613174e-05 -0.0001567963129286885)
(-0.0001275705170109863 4.615828072316208e-06 -0.0001008827427619941)
(-0.001680445471323395 -0.0003176258258916963 -0.0002967570230212654)
(0.00121810345894656 -0.0003472774314668011 -0.0005495893242307691)
(0.0008803742403436605 0.003708247671846018 0.001184177032130487)
(-0.0003351879648571016 0.001463047642848989 -6.281174400750179e-05)
(7.118583316053609e-05 0.0006746246398958148 0.0007278157344876491)
(0.001915524013531444 0.001602724492410498 -0.002755894358485382)
(-0.0001339444165576375 5.067522309448101e-05 1.752077000409634e-05)
(0.002086207459721836 0.0007070377680990967 -0.0002473710292466963)
(2.702952982586333e-07 -0.0005541563914579456 1.353985475283136e-06)
(4.315322743277876e-05 -3.620165989266176e-05 4.95828524972998e-06)
(-0.002709184253905088 -0.0006691075136435105 -0.002450546773459757)
(-0.00216204435955382 0.001701918842565032 -0.002807491694899097)
(-0.003407848027651765 0.0008518706371050534 -0.0005579404085516407)
(-0.001350877985727101 0.0002781000961094798 -3.101433402207974e-05)
(-0.01626867300698117 -0.006070182225239388 -0.02092746730751429)
(0.003144605602707274 -0.002713583705613948 0.002068798556206158)
(-0.01072432145004761 0.0008551835746497848 -0.0006868486325782569)
(0.002729788053057468 -0.001719480400713378 0.000753191457450501)
(-0.0004516314422891936 -0.000205785631982108 -8.100681521618501e-05)
(-3.655763950818024e-05 0.000132637783289379 0.0001352608537869553)
(-0.001099525564191934 0.0001480991856846482 -0.0003041977382322795)
(0.003102055078213211 0.0004035193163305966 -0.005075815415059123)
(-0.001790119571007269 0.0002975895907775751 -0.0001623182813797455)
(-2.064888793245254e-05 0.0001102649714796027 -0.0001205693627541073)
(-0.00105488056383936 -0.0006778707333880583 -0.001484328264856328)
(-0.000120537821634081 1.888187930386872e-05 -9.16894595336633e-05)
(0.0001499159679111797 -0.000119729252940404 0.0001345271998430579)
(-0.0005513996732512467 7.372897728184378e-05 0.0003033603027037869)
(0.0004678850916324445 -0.0004021127746345838 4.521481158366471e-05)
(0.0004793866794597728 -0.0001380483529745336 0.0001145300921986106)
(-0.0002335272110972825 -3.063508952817764e-05 4.997474286644805e-05)
(0.001219459513789691 0.01179591464142561 -0.005366212839700316)
(0.0001553217574515022 3.328429787665704e-05 1.738940849773704e-05)
(-0.0002742625863176623 -5.629172615588838e-05 4.578427835110296e-05)
(-0.0001500559727559469 0.0003436134216471561 -0.0002128205381543636)
(-0.003959923026179047 0.0001933485669210229 -0.0008973965156223161)
(0.001937086229362432 -0.0007805218130895676 -0.0006041795610029843)
(-0.001443793093529737 -0.000411432130044743 -0.0005381755097769997)
(0.0006003147351232711 -0.0002229516740335753 -8.626923961690477e-05)
(-0.003257217381994917 0.0005976766414739427 -0.0005988939036344268)
(0.0001114596672283129 1.590726645678002e-05 1.083926826765047e-05)
(0.003148368832950589 0.002300755439115949 -0.001809994734092084)
(0.0004273083990913654 7.265110596671868e-06 0.0007730983886988525)
(9.717343619724126e-05 -3.049039250678387e-05 0.0001153305076151491)
(9.94396503486589e-05 -1.055239424916544e-05 -4.605358801907193e-05)
(-0.0008722736594434535 0.003803286045426942 0.002865866859858407)
(-0.0003227919897626495 7.222812584868512e-06 -5.615154900468492e-05)
(0.0001519393959819141 -0.00028939425089001 -9.088799354783385e-05)
(-0.0001683203802138836 3.966862603473672e-05 0.0001389524337459603)
(0.0001096876859726293 2.248070057402623e-05 -0.0001613542351277345)
(2.291291963583216e-05 5.050982772431422e-05 -1.784496130105199e-05)
(0.0003795197415828598 0.0002951445296719985 0.00157906963975377)
(-0.0001744990523176605 0.000110318374190451 -0.0002875566657090614)
(-0.001368493525149048 -0.0005826852420443428 -0.000560723002990483)
(0.000159138417419475 0.000116605221945824 6.482792518755886e-05)
(-4.152178483473496e-05 1.036832502049774e-05 1.034359564954936e-06)
(-0.0001505974014878451 0.001456209678719627 -0.001526905069223907)
(0.0007256095824909376 -0.0005739912146171687 0.0003040562934198551)
(-0.000926878709717523 0.000699966145545956 0.0004227104562794004)
(1.511758096388367e-05 -0.0005995436953306573 0.002519734692034757)
(0.0001060221148998924 -0.0003777809124343079 -0.0006049585812008176)
(5.604898309908839e-05 -1.838812410107581e-05 -0.000311520654479075)
(0.0009198424993278663 -0.003299523644264683 -0.0004129216316081634)
(0.0001415788310485893 3.217133534765507e-05 5.924267253795464e-05)
(-0.000147839126673992 0.0002681783847007836 0.0002352138957692692)
(-0.0002234498964514498 -7.756072258637451e-05 -0.0001034826066809058)
(0.0001555195094823001 -6.066730592665102e-05 -0.0005860640978404369)
(-0.0004573492251109355 0.00010903222274322 -6.706497194566279e-05)
(-0.0006139626597612382 2.877789718629272e-05 0.0007614809036304336)
(3.125572657825439e-05 7.990207503709479e-05 5.608538738556751e-05)
(0.0002778885050139294 2.187238583362922e-05 -0.00039540942055165)
(2.25083929144484e-05 -8.461285294141189e-05 -7.373462169985285e-05)
(0.0001550332120920165 -0.0008993545876152132 -1.188824036613897e-05)
(7.774390148133976e-06 1.459839394239425e-05 5.960757502864537e-05)
(-0.0001900891979213914 -3.885481025349757e-05 -8.319360316226037e-05)
(-4.288174569607522e-05 2.776296662197724e-05 -3.549974895073743e-05)
(0.00277984091284067 -0.002875954601514379 6.259217429938676e-05)
(-4.041744443912956e-05 0.0001193683265431365 -5.494528023265751e-05)
(-0.0002996152136597616 -5.506205411441288e-05 -3.418069071821352e-05)
(-7.795212521821847e-05 -0.0001132861062707279 -0.0001061821511887834)
(-0.0001344860033384559 0.0001029712649291598 6.246040258008387e-05)
(-0.001171210033451606 0.009881691572391207 -0.003754495454287348)
(-0.0001299019191995749 0.0003163640196131751 0.0003847192700986222)
(2.634111447861266e-05 0.0001048852002747226 8.29081221234854e-05)
(0.0003512832604639781 0.0007908168514900867 7.869384247876504e-05)
(0.004011868873472125 0.0009531706915030919 0.001621197572932077)
(-6.974009211162911e-05 -8.99433762636465e-05 -0.0001026046952270808)
(-0.001419171513707194 -0.0002654157991572221 -0.001094559156386874)
(-0.00149405841251583 0.001331160517758579 -0.0003789289962666001)
(9.632094084887944e-05 -0.0003467769490964228 -0.0003713173606143831)
(-0.001108274583298198 0.0004429199786353626 -0.002142507696807944)
(-0.001250384383769606 -0.000546792051369565 0.0007250059002031563)
(-0.0001315021622091473 -0.0003060416766558878 0.0005716064770432817)
(8.567983634738115e-05 0.0001551638771072396 4.760909911035057e-06)
(0.0002668907166128289 -0.001804267823287843 -0.0001581861030450975)
(0.0001031708085996379 6.414344003124774e-05 -0.0002403537026956618)
(-2.356406748713766e-05 4.465717843086136e-06 -2.975461621276593e-05)
(-0.0002021908530497654 -0.0002674316512368608 6.526829791016674e-05)
(0.0001706529195860866 -0.002100068124062229 -0.001427262543139687)
(0.0005282894106808555 2.782658069234089e-06 -1.515343499509598e-05)
(-0.006940955931094348 0.004895117670544165 -0.001159719303274031)
(-3.571707633775931e-05 -7.485866365794747e-05 -0.0001211957183405088)
(-7.49949616557835e-05 8.29037299284038e-07 -0.0001010639155792342)
(0.0009852556302205901 -0.0001151122149422763 -0.000242525667038798)
(0.0001273675748430321 -0.000781016353210385 0.0008712316481264713)
(0.0008035087270700922 7.62821941060381e-06 -0.0003392842534545798)
(1.657816561184274e-05 8.809339055556315e-05 0.0001372685505333523)
(0.0003292255584885343 7.990699852188475e-05 -6.836261272471239e-05)
(-1.748085865620858e-06 -0.0005850793287656859 -0.0006917797468030432)
(9.046610667376242e-05 -6.359475744321656e-05 -0.0001949554926281508)
(-6.908021305663131e-05 0.0002843625701372966 -0.0001200149944306374)
(4.080232206934346e-08 -2.984970172854782e-05 -2.164342137845531e-05)
(-0.006036618270791566 0.004586160684377486 -0.001037250975379022)
(0.0004965408405698092 -0.008185002227788184 8.160398648634107e-05)
(0.0007701504628160352 -0.0003524606947728179 7.106955588472377e-05)
(0.0001189635832366617 -1.038661674796619e-05 4.51541606894374e-05)
(0.002115342394600385 7.59861301766059e-06 0.000371236318688924)
(0.0001116659679974157 0.0003617502440819072 -0.0001918521762584179)
(0.0007098967931775239 -7.900383122638304e-05 -0.0001255387845233997)
(0.001509309746398367 0.0004003591723093469 7.394838778246229e-05)
(-0.01476114434306288 -0.002072465836466204 -0.00327421411524648)