/*--------------------------------*- C++ -*----------------------------------*\
| =========                 |                                                 |
| \\      /  F ield         | OpenFOAM: The Open Source CFD Toolbox           |
|  \\    /   O peration     | Version:  v1906                                 |
|   \\  /    A nd           | Web:      www.OpenFOAM.com                      |
|    \\/     M anipulation  |                                                 |
\*---------------------------------------------------------------------------*/
FoamFile
{
    version     2.0;
    format      ascii;
    class       surfaceScalarField;
    location    "0.4";
    object      phi;
}
// * * * * * * * * * * * * * * * * * * * * * * * * * * * * * * * * * * * * * //

dimensions      [0 3 -1 0 0 0 0];
oriented        oriented;


internalField   nonuniform List<scalar> 
37503
(
-7.326747864770728
-11.02477416657641
26.13277623531685
-7.781254204034621
-10.51416244190658
4.565681295989133
16.43662518822081
0.03901845048837266
-0.6281741169762599
0.8671336901670472
-0.2779780236768791
-0.1179340163256282
0.1434571655403102
0.00496206607779557
-0.03048521528823713
12.38943681677496
7.179240303125715
0.6045055372495862
-0.02061227271465978
-0.08819461136921353
-0.495698653157788
0.08385949151735196
-1.606603195018102
1.571802949268193
-0.04905924574858427
-0.4213586958868888
14.37274244693031
-13.95138375105744
-7.680285646819319
-5.800385022359418
-7.841114111719847
21.32178478084956
1.78542629135101
-3.121549426449617
1.488903728048967
-0.1527805929344552
1.472854396341889
0.189422886083763
0.4189319781064547
-2.081209260542456
1.706117625496716
2.108872654785263
-2.70308976196641
-1.111900518351987
-0.03620080935038623
0.007563951678109063
-0.03515153470976159
0.06378839238796258
1.10426707006494
-3.571587480276881
-1.014137041305545
3.481457451451441
-0.8895028520056919
1.958647595880482
-2.7658990747905
1.696754330877463
4.253596949793835
10.59691235996549
4.495461049225426
-0.01251544487182231
-0.165968645456207
0.1468801689846943
0.03160392135346321
2.087734352285365
-4.634672846715707
-1.984662796291363
4.531601290667168
-0.4895406711701877
-1.271711432135058
-16.55482703621263
13.06464441330931
17.96457874810105
-6.666888560525873
14.16656742204043
-8.109993759123993
6.985416056430607
-8.252051284729479
9.376628987400652
19.97742380629455
-25.72815629124855
12.04801229851389
-0.04808395917485329
0.4690196256400145
0.01747259829462452
-0.438408264755146
-0.449485201231221
-2.174524137901774
3.728276409160381
1.390017868173351
-2.662421792192117
0.3829010719858378
-1.440527972271982
1.918537686512882
2.198092104230371
-2.676101818522081
-9.826841226036571
-9.399257181809528
0.2814332348518558
-0.3084875184297566
-0.07243056624328664
0.0994848498356878
-2.290570953881231
0.4251010990818143
13.08778647707561
-16.18684333686356
-23.75520208993757
26.85425894977712
-0.1528828535052269
0.1274713572826236
0.07840565174318628
-0.05299415551260916
3.526000692409356
1.924214170752854
-19.94167344613408
-1.545657183889153
-0.9975350227790399
2.093707005389826
0.2282120742936178
-0.01547054978488383
0.2090023292858622
-0.421743853782973
1.32436638504627
-1.187155506187727
0.505886863291428
-2.033556966228735
2.714825609084683
21.43931424678367
5.085437587059418
-4.456406652808175
-22.06834518109287
0.05146042941774292
-0.3103019961815121
0.1199273309802865
0.1389142357958606
0.2897626842413144
-0.6033532096164376
-2.145260885435181
2.458851410834048
-0.04156521489972192
-0.2343673227406086
0.3869398011990329
-0.1110072635482823
-0.06465717793698098
-0.05019095704691603
-0.01016874877430148
0.1250168837639488
-0.4981076551858978
0.4459954610297741
0.2980299983809993
-0.2459178042139845
-0.05432939431114456
-0.4096429704798332
0.6546984718369239
-0.1907261070251815
3.939871052836963
-2.544793863336285
2.421561159876337
-3.816638349378598
-0.1563769063209211
0.038605581612464
0.02170724125615141
0.09606408345897635
-0.04011771179788613
-0.08985470162514568
0.03334191214171181
0.0966305012885757
-0.02754553471470439
0.1157245191010385
-0.1401453178041381
0.05196633342399243
1.953569925927147
-0.973179139068607
-0.2488158041627069
-0.7315749826892041
-0.6626134345355971
0.1824144319936653
0.3237145712059206
0.156484431367714
8.874955365297703
21.11920077657311
-27.45011112647866
-2.544045015397283
-1.250713471112596
-0.08306844402764894
-1.369307846841955
0.4814859959139443
-0.1277065720200306
0.08955218267795276
-0.4433316065664696
0.8278253829723665
-2.152627210282114
-0.9657691265977545
-0.2198590891215859
1.534908244302835
-2.102924376664193
0.7878752215062318
-0.1556829029908807
0.215087094605656
0.0003358893995179184
-0.05974008100582893
-0.2323300822322407
0.122697390372337
0.1665223857240088
-0.05688969385504626
-0.9005111413304188
-0.5233445240203239
3.156395364391361
-0.05005653349157537
0.3249117477829842
-0.3168237964640173
0.04196858218817974
-0.005461725267185516
-0.1257638719857031
-0.02578716145952996
0.1570127587236833
-0.002994159749143239
0.0621755797278467
-0.09456862916666381
0.03538720919387013
0.005222895382310978
-0.1358076872776749
0.1246620678452737
0.00592272406040006
-0.07207708051638852
0.07231105947839235
-0.03765728670668046
0.03742330774894312
-0.24014557677304
-0.2252962664237082
0.458101281874111
0.007340561339999079
-0.1663835953791303
0.1021224485050972
0.0580000430944199
0.00626110378703353
-0.1071901628178573
-0.004268330975706617
0.09777874404332665
0.01367974975675853
-1.927425010829486
-1.150476723684266
0.04512359360489034
3.032778140849827
-19.93393114128368
19.84523078180575
0.08870035946934081
-0.1936483965003538
0.05030837784604553
0.1053248937492892
0.03801512491323075
17.87125325359425
-14.76258113156506
-15.24258294839046
12.13391082630313
0.1027054218758763
0.02643206743860977
-0.09710505303058325
-0.03203243627267418
-0.1494888677861548
-0.4914308879252525
0.4349553133764543
0.2059644423479338
0.1250934155610266
-0.5805862389791363
0.4824070837465222
-0.02691426030085759
0.1539960037989148
-0.08364395352988011
-0.1019402137148287
0.03158816345733832
0.195825219866456
-0.2211383805712279
-0.1539340009088639
0.1792471616275743
-0.06279709085925297
0.1746427872169889
0.2118006295037595
-0.3236463258523483
0.8348195894534028
0.619579036400849
-2.183844282263098
0.7294456564228884
-0.01614174742412515
0.1253481300369891
-0.05510563840988168
-0.05410074419473043
0.08502880694949198
0.01176353554963655
-0.05880777722579844
-0.0379845652656146
0.8084359080237752
0.8417169952259697
-0.06704970149941995
0.0180199020138321
0.04902979948867202
2.864802750501041
-1.726683689797736
1.021027997243051
-2.159147057935073
0.2465089695471104
-0.1112593558904537
-0.1210040537776323
-0.01424555986698439
0.121862705478343
-0.02735810095609409
-0.06290020858420796
-0.03160439593128155
-0.07408595440205529
0.4437906522971424
0.3980846365517118
-0.7677893344214937
0.2538104067897647
-0.1851477177083942
0.1578873049175792
-0.2265499939932259
0.1195365057678903
-0.1693557311482227
-0.2454971964180416
0.2953164218123385
0.07012577167964239
-0.1512477079797894
-0.03155668512568707
0.1126786214313383
-0.1159381030569804
-0.0208677952003251
0.01887188193455902
-0.07457904975346247
-0.1228121005699318
0.09383056123304095
0.103560589097916
0.1907400653437754
-0.1104013619882681
0.02048823432894411
-0.1008269376815962
1.044819445274113
-0.721593677170707
-0.3664208866288359
0.04319511855521917
0.06435626476925198
-0.2824339016324191
0.3027567672958394
-0.0846791304175544
0.2522922590361377
-0.03866883251115864
0.02096396321177774
-0.2345873897262575
-0.06385616516070301
-0.2391897198317335
-0.1860212831688684
0.4890671681653251
-0.0312103502011904
-0.1937181663065911
0.4084222413048571
-0.1834937247883642
-0.1347617410442578
-0.315209938383415
0.1090283014636464
0.3409433779710708
0.02969767035855079
0.1438347839146701
-0.1960840898658043
0.02255163560341021
-0.1062959530775579
-0.08794609419279999
-0.2456470559076745
0.4398891031849185
-0.2038520558290048
-0.2816825242491671
0.3426980592482967
0.142836520833608
4.789646481703163
-1.506632500792411
0.05616167059200311
-0.05747977218048828
0.0013181015933055
0.9807990813239403
-2.207954415258123
-1.435266458280857
0.04915573456321134
-0.0335944754141477
-0.01556125914615259
-0.2011942951639112
0.0521907070609429
0.0229126061328454
0.1260909819770887
0.002191731815451372
-0.06499441785037555
0.1593463909551431
-0.09654370491050324
-2.321982040774307
-0.8131942150140847
2.597565549820474
0.5376107059248327
-0.03491421981911807
-0.09135236116931864
0.1371391236706282
-0.01087254267593598
-0.4311172148969629
-1.17358398273732
-0.8680262460938184
2.472727443719909
21.16103451409356
-0.06667499572158748
-0.3335484641700847
2.913355404029773
-3.766962446060685
0.07135914716292568
-0.1087424711606598
-0.03721757649450378
0.07460090049732862
-3.05236062230331
4.844167515407768
-0.1392273627270203
-1.652579530327218
0.1455060032928394
-0.07140307570676444
-0.3751398667299584
-0.327596506289933
0.5092577891628938
0.193478583867092
0.1920886509360893
-0.09993507537020242
-0.02928288482763518
-0.06287069073271509
-0.07143272215082418
0.2545387507229354
-0.2369256747367189
0.05381964618146627
0.182499163259968
-0.2881513828883808
0.3019520383983894
-0.1962998187580812
0.04950935655690487
-0.02705235392565873
-0.0626804800727149
0.04022347744503659
20.192115559787
-18.63611797275537
-0.4109688648049322
26.75473084924639
-26.76512068035395
-3.339194749414143
0.2371398595397185
3.854671485007468
-0.7526165951734879
-2.041404419336849
0.3401385854346276
0.9179457170654528
0.7833201168364552
-8.028198150290056
-5.083792705521735
7.009377481138952
6.102613374785336
-13.72164192242388
-20.87800672814286
34.60447103131256
0.760517167138876
1.583877498600336
1.383881743388524
19.31606433286497
-10.97227722253202
-8.343787110327884
1.194960075110909
-2.357716187032387
-0.05645405790424306
-1.728645935563312
1.127438856792265
2.318112316067534
-30.26240214203548
-0.9691784651484481
1.245090991644272
29.98648961548205
0.1076013204687191
0.005919860388483567
-0.1390740215487242
0.02555284070058638
-0.1923549129052171
0.02058550264529758
0.1717694102666113
-0.1197607278498893
0.05147002423730821
0.1396524617443017
-0.07136175812448077
0.5364748480967548
1.42434241490388
0.535504193204605
-2.49632145626342
-0.6083542456337174
0.2049098913736364
-1.765714397971637
3.099426644201154
2.050060322871197
0.8268265872199461
-3.68097536513804
0.8040884550690316
-1.887437936704559
1.905827605811817
-3.140191500283642
3.121801831100984
-0.3808165087541289
0.1965862933298151
-2.01312846758255
1.706676231972022
-9.658040792086561
-9.074706533724449
-0.0551710473904326
-0.149566062633152
0.1151647560156176
0.08957235401620803
0.1169602639407569
-0.3410887908110887
-0.3518216009033745
0.5759501277943806
-0.5165330596062992
0.3575459857156345
0.1179105537821043
0.04107652013654909
0.4580939760102733
0.2130262405264585
-0.8223832569817656
0.1512630404588583
-0.3560811050531434
0.4835069763272773
2.210968899423524
-0.1376783211700266
0.05889711910416076
0.0009277469868903612
0.07785345508196354
0.01250341147831657
0.02370626654021386
-0.1332142361783444
0.09700455816426427
3.125398915286686
-1.082129219570839
-2.561623686146476
-1.16358400249746
0.6050559200748077
4.742635089103703
5.574889732484456
-10.92258074168508
0.1978516661774641
-0.9503892780062959
0.6101120866118873
0.3402771913978679
0.07293383607271847
-0.2762542710139698
-0.2129523880839416
0.4162728230388656
-0.6401950184337193
0.2475884875615149
0.5447458631408199
-0.152139332255113
1.797882193204325
-26.11891591884912
1.872144164955136
2.880969372494569
21.36580238137915
-13.8887546763514
7.884037682737303
6.609772913634446
0.2021365527304985
-0.06857416661937582
-0.1486246861043819
0.01506229999959051
4.799505722153343
6.588786747983116
-28.84000727254965
17.45171480233462
1.654642809203065
-0.7717969514237473
0.2823798113624635
2.673079521074108
-1.760499257357844
4.066868494520141
-1.724790836880514
-2.966336067756524
27.62293451170514
-13.61422355445825
-14.00871095729075
-0.09469281102792125
-0.002212598036142887
0.1122158985124862
-0.01531048944138656
2.368741180733108
-3.668058771503732
2.185090189228255
-2.117117621730762
2.845382836494707
2.410678767040186
2.270686330392509
-2.312623916730415
-18.70242896001585
8.386281202788167
-8.675840481501302
4.419613853588535
-1.583833987491798
4.455776519603971
12.52063900261757
-7.718372687873015
-4.261287152495605
-0.5409791622077416
-0.01290005952515483
0.08554769419499171
0.005684227443742432
-0.07833186210573777
-1.281906845265079
-0.7354590087138722
-0.4578912539847787
2.47525710799589
0.4060924007764539
-0.2323086162966214
0.1265167551231403
-0.3003005395912537
0.04615445413414983
-0.06487783041731429
-0.213606705942641
-8.118533375100503
9.069736168559688
5.285225460707974
-6.236428254178634
2.7025232314048
-2.064459658532273
0.7122407843122457
-1.350304357143468
-0.06007286228078228
-9.031119976902431
-1.742196046402695
10.83338888571502
0.2990563058699391
-0.1892741765080759
-0.1097821293585039
0.1240347866263416
-0.2610843584940154
0.1370495718740565
-0.06321239042224781
0.3298889732270413
-0.0558308925362152
-0.2108456902607947
3.699738448236524
-21.78972652187248
-4.11254317376887
22.20253124736389
-0.1531155970359879
0.1561093068763185
0.1707006157341328
-0.1736943255610766
2.622046851237072
-1.262022774126019
-1.791141292018205
0.2609306055684109
-0.1368958189367762
-0.1471184041564893
-0.05547222298339067
0.2322201629678529
-0.02962953581234956
3.00346140410961
-3.553210827836082
-0.01699186100821721
0.5667412847892936
0.3641114645056472
-0.02488875991265493
-0.01972493308871662
-0.3194977714712131
-0.0207092284336566
0.01916443159360286
0.0960588749455448
-0.09451407809790184
-0.4374912314904357
-0.1090798834278867
0.271383697034204
0.2751874179030597
-2.310207886531524
-2.1161481526229
-1.438242771507915
5.864598810647544
-0.09312318686178539
-0.1676368470231075
0.1108204743188844
0.1499395595708211
0.06655811197452069
-0.2224616117319674
0.1559034997652025
0.07102062225554447
-0.02622028008567258
-0.08532636673795256
0.04052602457607437
-8.063996972977931
-0.132399420184897
0.004489183425602768
-0.01604747348758122
0.143957710258078
0.02352616027359377
0.04713417803888471
-0.07066033830436139
0.02929001074296917
0.05870113363056317
-0.1125603067510085
0.0245691623857923
5.861940025388471
-4.050783360216552
-5.285468499993841
3.474311834883142
1.9833199322635
6.065802713778301
-2.396650892131205
-5.652471753887831
10.45058242705216
-6.657556805575776
-20.91106460114984
17.11803897962715
-0.08633436736671839
0.06390568010307397
-0.101420425603831
0.1238491128781468
-27.5449608932403
15.28703780428834
-4.29690394726804
0.7141656548708907
-0.3527620484001632
0.6934974204866561
-1.054901026967307
0.7243277105532212
0.1482780977927342
-0.7161657939985255
-0.1564400143341772
7.369854555527264
-0.9006952359803249
2.091576185617863
-8.560735505145887
0.09739093563384872
-0.1275162062573841
-0.3328824707441728
0.3630077413776197
17.04702591078318
-13.04513113850666
15.31416956059072
-0.6431718392263915
0.1861472861947416
-0.06267882157272454
0.09525323012990231
-0.03257440855307766
0.06363069635550909
0.1274017831522763
-0.1759435522598171
-0.01508892724237168
0.1133726418951149
0.03092978075469396
0.01937483695152351
-0.1636772595878365
-27.12504197774427
14.9458607593868
1.199400318693512
10.9797808995835
0.3244169493416574
0.4563603363624643
-0.3817698714568214
-0.3990074142379716
-12.69108391315956
16.40837517180725
0.09257383942117585
-0.381676254259169
-0.1263887137113014
0.4154911285666077
-31.3246698676061
9.242502162775047
6.76666324327839
15.3155044615218
-0.1626500093758437
0.03939187468372533
0.05549500493757645
0.06776312976212304
14.38059958720127
0.02624942168234243
-0.08028577568259697
-0.01160819695164468
0.06564455095738495
0.4437776594071549
0.06590022729346795
-0.5459855524713382
0.036307665772322
1.421276637753007
0.1583080979452358
-1.013922159571664
-0.5656625760954965
0.004286399668328504
0.4157898471910219
-0.1282085579827166
0.06654409580250807
0.2109652073534748
-0.1493007451619602
-0.08380549811699441
-0.1312188197132514
0.01646557002391508
0.1985587478108595
-0.2250287793140199
0.02468835874479161
-0.00511071725105936
0.2054511378316796
0.183072576578296
-0.03905180600133447
-0.1440207705688214
0.0259109407196533
0.05879304907174335
-0.08470398978613358
9.82396818437061
-14.28037454928577
4.456406364932639
-0.05941453691600863
0.07989512099473932
0.1792258362298916
0.2128429149351476
-0.1401194570752513
-0.001356667664348415
-0.0713667901829448
-0.1038414211510826
-0.3070166574815554
0.833681202496253
-0.4228231238548942
-0.1503919353399011
-0.4026612918349415
0.1948896770612938
0.3581635501346307
0.2034317863160066
-0.3885433643914583
-0.3659544105864311
0.5510659886680336
13.55208515445014
-26.14661184236237
-14.5305152898969
0.922125811112071
0.4213924019310327
1.757337972788726
-3.100856185819949
26.82771992769228
-23.8073778755884
6.898183178580507
-9.918525230711277
-13.18887224907033
-16.11087269653601
10.14445916850888
19.15528577704152
0.1820877654864167
-0.04882248774903961
-0.1332652777271725
-0.02762572489745431
0.005073699831117401
-0.1605909586184108
0.1831429836977825
-1.317936850095806
-4.78516158849505
-1.017154344853913
7.120252783450469
0.3989669093275736
0.09400627744502853
-0.5709850225092444
0.07801183573996857
-0.04906500485662806
0.1559614668673981
-0.02455464074907598
-0.08234182125310921
0.04450134475961155
-0.02601569898730878
-0.07373232937134142
-0.0468845134060927
0.09177026763362234
0.1280702319693538
-0.1729559861827614
-0.05985891824390263
0.1236892154777593
-0.06383029722876099
-0.04557143970699019
0.04964039074968372
-0.1314744203328264
-0.05810658038142027
0.199892120764644
-0.01031112003798657
-0.08299039952351002
-0.05437168618378267
0.1373620857164185
-0.4464498926140501
-0.04531461220515345
0.4161001584687416
0.07566434636155886
0.1969600877763703
0.1798484030241571
-0.3253480613728388
-0.1495830427761141
0.09467398497738555
0.08829041014051274
-0.03338135233195414
-26.37501452438385
25.33349295671379
-3.681171503132197
4.722693070736362
-0.5342781310522737
0.1007819074864506
0.3726218292373273
0.06087439434632006
-0.4874106020522653
0.1940994875892413
0.6196022973448185
-0.3262911828701802
-0.1663505281391649
-0.01756460266081832
0.1078191882048092
0.07609594260283434
-0.06513170344022011
0.2795397399496896
-0.2447019228091243
0.03029388631177279
0.06987505194858656
-0.2192518638042968
0.0591172892089839
0.09025952265802271
11.3295272646239
3.083988178663474
-1.113405269024818
-13.30011017428429
0.1268139105517923
0.02840069109572164
-0.107196291043795
-0.04801831059336773
-0.09201738627460254
0.241926230265208
-0.04808709593909009
-0.1018217480406376
0.1482972110236172
-0.2011305157570659
-0.2082510537534162
-0.04998519762038727
0.04810181599387112
-0.04860435013856754
0.05048773177138821
-0.06487174182811323
0.4344714957392002
-0.3115443260588609
-0.05805542784450917
-0.03122919711230442
-0.2534794902578772
0.2253550038723445
0.05935368351161693
0.1654503577431653
-0.06086774999849665
-2.355332131364685
2.250749523663989
0.150275587927907
-0.0186016759437638
0.03049232552297961
-0.1621662374985515
-1.392140382392846
2.055916230582394
-0.2186915484508308
-0.4450842997361095
-26.65773950233392
1.512168293098193
26.86581275082942
-1.720241541623235
0.07580614445196432
-0.317354581112297
0.3298668970724749
-0.08831846038950571
0.124467500221922
0.02546151334538838
0.09304608363410614
-0.2429750971925054
-0.09557162204435905
-0.02145329986336339
0.09427447199105239
0.02275044992303183
-0.5246076567583271
-0.5990895618061982
0.5851622983934299
0.538534920175186
0.05650413804264789
-0.2589914292877058
0.2037100324822164
-0.001222741223174037
-0.2003201677109515
0.03702916209322334
0.2311481366747487
-0.06785713104843248
0.03808026431885204
-0.1301349071892569
-0.02394892902672441
0.1160035719015578
-0.3798446172478007
0.368927847844722
-0.6620276863628335
0.6729444557861053
0.2536827385163409
-0.001093321852913812
-0.6504638025800953
0.3978743859613423
-0.06790616547944563
0.1538421320498
-0.05694281647192116
-0.02899315009241791
0.143837633512017
0.2701750002913508
0.01495496428122409
-0.4289675980768595
39.26477687029064
-25.16260809041902
-18.15095346921259
4.048784689322217
0.3455215268191766
0.1044913300797922
-0.1645024173844878
-0.2855104395012276
0.00750081197072272
0.01418976620981896
0.2222717906530547
-0.243962368822963
-0.6525764152572359
0.1289346444777962
-0.09991130100287655
0.6235530717972725
0.09185600088033176
0.04214029389968216
0.05307528127498756
-0.1870715760471141
-0.05503338604714298
-0.05291226851442241
0.02285471544907951
0.08509093911753651
0.04851697976894537
-0.4079027089803147
1.712983547202533
-0.8439982097085592
1.273738056543438
-2.142723394002843
15.51133496513139
-10.95249487590244
-0.04132807007392563
-0.128857377851635
0.1316981396859139
0.03848730824779741
0.0007252484376557519
-0.1357577629473752
0.02136350281386076
0.1136690117015409
-0.1587554291198193
0.1475529305562301
0.05620820404215927
-0.04500570546907483
-0.2600071649554105
0.115785072756182
0.3441865871365307
-0.1999644949258496
-0.1081549338102447
0.04586184808578328
0.027391233725059
0.03490185200517022
0.09157677533104966
0.03842572845402394
-0.003416997062216632
-0.1265855067130708
-0.07483771878742683
0.05558052660542337
0.09568893712717987
-0.07643174493701048
0.577048116312226
0.6761115159273074
-15.30260687716419
14.04944724483285
0.1625856874733594
-0.1722806139806361
0.008106862209926229
0.001588064305645726
-0.1797182948958721
0.05291399437520044
0.03950531863669136
0.08729898189491545
-0.1893068783057728
0.3415419940654191
0.1330519410584919
-0.2852870568007552
-0.06448392546697962
0.06307594820182041
0.001407977270293996
27.66141192023587
-28.50796869951327
-8.460440411279293
9.306997190581431
21.51396306423984
-2.704845989578975
-21.9432092699093
3.134092195251098
1.958229816859479
-2.180423348791131
0.3047706779818501
-0.08257714601601387
1.803089466353077
13.0834659659493
-8.376658492859276
-6.509896939436498
0.2024655758400096
-0.06049358772954992
-0.1419719881008979
-0.003876957566794073
0.009985813828793761
0.09004212096979292
-0.09615097722862113
0.2800470172950354
-0.118364828409717
0.4350479048540543
-0.5967300937269683
1.822810996357548
-0.1437719375773598
0.2888399976247124
1.193785651098022
-0.4504820102000342
-2.024583089284092
1.281279448399875
-7.316465940908839
-0.2503162303282275
-2.474556799801964
10.04133897094931
7.67029144098558
0.8966825257243762
-8.235202821464124
-0.3317711452125422
-0.360108284903396
0.1458066035223071
0.1515045905291875
-28.75561207577353
22.25429199669269
4.490493278113615
-0.1126832806976778
-0.1585503657468961
0.2400232962480656
-0.003860918584560343
-0.03296114889873496
0.0368220674861762
0.09561893134481925
-0.04833150571346063
-0.1496827831964662
0.1023953575708522
2.717258526819895
-1.755604899480943
-20.14172863401237
19.18007500661311
0.6845299683048882
0.1154484428701685
-0.9216509748161452
0.1216725636559482
0.05982536868216154
-0.05219167287418281
0.167009091414206
0.353329481096439
-0.04539498608397664
-0.4938200606044902
0.1858855655975101
0.1588566159826121
0.05249493365788682
-0.09608376034047539
-0.1152677892946066
-0.0915588725303399
-0.4142672680795723
0.2004068921787085
0.3054192484376367
0.2714340227680073
0.02219362048822218
-0.2643997203858902
-0.02922792285724016
0.03374098605361382
-0.1952285108242385
0.03039862596950781
0.1310888988199198
-0.03321153657200263
0.4645822763698442
0.2612100861749685
-0.6925808259590871
0.1983833070627301
-0.2516814471345126
-0.27144398124527
0.3247421213349433
-0.06314761164343952
-0.2876634576209683
0.3023310095570799
0.04848005973291458
-0.02966066637726934
-0.1555734100000941
0.1852340763852696
-16.86992790905784
15.54130455094994
-2.62914914451484
3.957772502694668
0.09106587074621871
-0.1207265371201995
0.1282296557941347
0.09420172280430351
-0.08443036628792829
-0.1380010123030413
-6.854293964912176
20.02379450052829
8.269813711121749
0.7134068068572751
0.02378519355544312
-0.4571449831121392
-0.7986862552504894
-0.3159790563334974
0.6562476093412799
0.4584177022683182
-0.03305954235477755
0.1222730065599091
-0.08371626149669258
-0.005497202699942449
-1.052789466632986
-0.4046643137063824
1.351091188355371
0.1063625920303831
0.001021901722166738
-0.002982191453145041
0.05146964629123246
0.1270630859943737
0.05263383887469811
-0.2108168329497151
0.03111990808723215
0.06469648746203274
0.1534324692818288
39.20446371883633
12.18063256595922
-37.24941287471279
-14.13568341013538
0.04585387398161847
-0.08895645727295604
-0.003092409479651074
0.282861646046957
-0.483621292390537
-0.3456539974728211
0.04121373945893289
0.3539543015194843
-0.0495140434892161
-0.2708836858241954
-0.2696460552570187
-0.1713154447057844
0.7118451858098338
-0.1350685095415664
0.1814055711469633
-0.08852413822342511
0.04218707662516361
-0.7443443809547737
0.6239777975673244
-0.01507712270708384
0.1354437061029331
0.09227596549692088
-0.002667258049292706
-0.01879285823749266
-0.07081584920001266
-0.6516056877593511
-0.09846847857460743
-0.1549426554687728
0.9050168218002049
0.1351977100256169
-0.005063722777136067
-0.03242780640840073
-0.09770618083182626
-0.3620408020272446
-0.1093147788807793
-0.04517747868197095
0.2778619411865731
-0.181985818808337
-0.09587612237123612
-0.03756176299174312
0.02258045909667545
-0.1204103500898548
0.1353916539944952
0.03274492116530618
-0.1192364316407668
0.1083420175769227
-0.02185050709288963
0.5356958939231179
-0.7343498394439772
-0.1217065606539804
0.3203605061906167
-0.1068383030319187
0.1332337170054057
-0.08944197069061528
0.06304655672986498
0.137944161799964
0.07014113671092198
-0.000731657230252368
-0.2073536412720591
0.5854868603422243
-0.3666593357626994
0.0336470474464924
-0.151904461707002
0.1110944884124191
0.007162925860546402
0.04406994127849963
-0.0001031157213932129
0.3357093905131239
-0.3796762160536174
-0.1241157305851526
0.02008828914639235
0.008455819397968647
-13.67338031506691
-2.131302585432445
-3.517819781541727
19.32250268202504
0.4637056365522474
0.07960572546945195
-0.002480811286723594
-0.5408305507318338
-0.06288305874791382
-0.193722067324383
0.1812662148556897
0.07533891122935181
-13.29778663037671
5.29301700646428
12.9613291455473
3.294191444454599
-29.55330722038364
-0.1328935794532188
-0.037113034557361
0.02288820986348273
-0.04808899107851957
-0.0954270652652652
0.1856934844220862
-0.04217742806592124
-0.3572271263763244
2.256715567196544
-4.26885357142877
2.369365130585578
-5.649154089976646
15.83109311498951
-8.378849558670378
6.818446040968682
-9.190411768245113
15.11568099352458
-12.74371526626261
3.226595457066612
0.04622939792671679
-0.6721649110072143
0.7643866225556427
-0.138451109460652
0.08784313873069674
11.01858661377551
-4.659505704013553
-6.446924048500773
-0.1327781000434364
0.01094867421379185
-0.1004031553966708
0.2222325812429354
-0.6242346984868637
4.040455164845544
-5.141011303216298
-7.722858840661897
3.320330379422439
-1.178870599713306
5.581399060956515
-6.654557561830123
3.900349257228359
-6.81660588253085
9.570814187179666
0.0003606278386931224
-0.1692678521846779
0.03153413615680675
0.1373730881966067
-0.03818079866434773
-0.3423859104810381
0.3692080905368717
0.0113586186207466
16.86547342415727
16.43894821590473
-12.47503146200809
-20.82939017808049
6.449875643955703
10.4155977801826
25.8708685696312
-6.627105046989704
-2.804815306759005
-0.04553963342099004
0.1864977799052233
-0.06081484845346834
-0.08014329802189088
0.152046757693231
-0.1002443468446634
-0.09734204426116165
29.75723169431306
-40.44456216225048
2.959581162257266
7.72774930566453
-0.08335542508869613
0.07863068312211811
0.006782851244808332
-0.002058109265261817
-0.03600000228484952
0.1066328699578403
-0.07063286766741778
0.1394537432936599
-0.1736518859124815
0.3269401066300918
-0.2927419639942409
25.78713240614522
25.91079650248461
-0.1037025218012671
-0.01493302809553133
0.1396704551832764
-0.02103490527967321
-14.17819189563076
14.18561492472004
0.1253413844038853
0.021977979705036
0.02398453603223117
-0.1713039001305521
-0.04658801214176396
0.01801859577803375
0.02856941636925765
0.1669895045744144
-0.01791697094653761
-0.1777850320814151
0.02871249845877828
-4.697267434970172
4.715455638754848
4.764189963069652
-4.782378166872865
-0.02786681663579844
-0.07423534454010898
0.02561780622627151
0.07648435495680279
-0.0574376003091013
-0.0401554410797617
-0.0583286210361168
0.03046180440264509
0.02779021128652071
0.06973414658516042
0.002887596809190675
-0.1004119546752842
0.07836436172208061
0.1280426484377048
-0.02254319226482509
-0.03578542876850507
0.07157835179074326
-0.1151670151367015
-0.1028678536807301
0.1464565170342205
0.07008746780359824
-0.02876927063920793
-0.04131819715987824
0.02604494739786633
-0.09016774327136139
-0.1102958516689925
0.1744186475548647
-0.3029497243809935
0.129632480261993
0.3139559549006226
-0.1406387107518637
-0.7378281608084957
0.08010820541354872
0.4899125971729191
0.1678073582321742
-0.1044659507840258
-0.2021483442770152
0.422450187611175
-0.1158358925296679
0.3128030766715179
-0.03626050252052422
-0.5051627199385293
0.2286201457899215
0.09245089114689387
0.02286021908496827
-0.02053816190162368
-0.1385725279432819
0.3266489061490863
0.09733197306729856
-0.2854083512539263
0.08154916796653387
0.04278218115031961
-0.124331349111935
0.1073872225532238
-0.1268177509711423
0.0818698605938805
-0.06243933217010932
0.7876282319188301
0.01445573140663871
-0.4637382138207832
-1.266077968315195
-1.290034979845777
0.9267313202595685
1.629381627905901
-0.1101457772569954
0.0328817995338191
0.1109110251741722
0.07363638526993561
-0.03531530897225015
-0.1379462572303995
0.101037550293436
-0.01598811818973118
0.05289682514154319
-1.164621362785612
0.7419250219076349
0.1932248971911507
0.2294714437130051
-0.3513098302718128
0.3610934542484985