/*--------------------------------*- C++ -*----------------------------------*\
| =========                 |                                                 |
| \\      /  F ield         | OpenFOAM: The Open Source CFD Toolbox           |
|  \\    /   O peration     | Version:  v1906                                 |
|   \\  /    A nd           | Web:      www.OpenFOAM.com                      |
|    \\/     M anipulation  |                                                 |
\*---------------------------------------------------------------------------*/
FoamFile
{
    version     2.0;
    format      ascii;
    class       volVectorField;
    location    "0.4";
    object      U;
}
// * * * * * * * * * * * * * * * * * * * * * * * * * * * * * * * * * * * * * //

dimensions      [0 1 -1 0 0 0 0];


internalField   nonuniform List<vector> 
19631
(
(5.002142460335389 0.0007048074398407241 -0.001251293204856356)
(5.00444869337704 -0.002358157051793572 -0.001346162568420626)
(5.033953375445888 -0.02529370023895586 0.09240967688573865)
(4.684127245395904 0.02983161599881783 0.3471872255056365)
(5.002912875813942 -0.00183774172902151 0.002006234069226062)
(5.061921062455979 -0.05423467986695204 0.005608398170126693)
(5.019105213798007 -0.009565704729894429 -0.01347675592042033)
(4.985123646645351 0.006003551438304903 -0.005905858807094669)
(5.002042940991135 -2.177194983889452e-05 0.001404430364398035)
(5.01015181618136 -0.01144889981065656 0.02339675216342768)
(4.982635635062739 -0.006922873336720549 -0.008788951110606064)
(5.015031569781496 -0.00690803666994741 0.000750383150362325)
(3.448963137048152 -0.2286807295761911 -0.3259111314193226)
(5.016151161272681 -0.007972011922068522 -0.005226101821589154)
(5.011115784539463 -0.007658345502554113 -0.006393927723607906)
(5.003038667232831 -0.001147515034733163 0.003568086109853263)
(5.183618785758237 -0.1550654548676451 -0.137057997978919)
(5.010783915902089 -0.008343428208041438 -0.005341136695689172)
(5.001383153690175 -0.001166663521554224 -0.0007294568234173351)
(5.003503040717053 -0.003597257009806452 0.006409925154378054)
(5.001143879436614 -0.0009438805196683622 0.001487481218742125)
(5.010956197157936 -0.005007070800507155 -0.000387026874827748)
(4.998898291952383 -0.00317928901451846 -0.0004457780173686702)
(5.063475466066093 -0.01457746062777109 -0.01816111649007387)
(5.015738736310368 -0.009521978129762246 -0.003996059533356073)
(5.014834316481641 -0.00358984111503226 -0.002494337311494371)
(5.022738174790249 -0.005153706190893963 0.001912413225616923)
(4.848604607862731 -0.01007536571000916 0.002297811248974159)
(4.369235628085873 0.2046068032776634 -0.1515578771057656)
(5.016389821530407 -0.0009065627199845762 -0.009042406787570628)
(5.000494584685342 -0.001744050868019253 0.001279243833445363)
(5.099866348994773 -0.0516490101861405 0.1190457524861589)
(5.000116031004633 -0.004598802264507082 -0.001853560834324294)
(5.017644975747273 -0.009982447896425908 -0.01190781653851162)
(5.078824722560068 -0.1150202097066754 0.04573487804746169)
(5.014504896793916 -0.005833737234591205 -0.005250088502060446)
(5.030495590197935 -0.01126227388318377 -0.01675892694751709)
(5.002122539365619 -0.002871433201069102 0.0008412866347165593)
(5.048554734551364 -0.05950844809101725 0.09647517521700674)
(5.020836902874517 -0.009322087226235124 -0.04192904019475718)
(5.123078123890732 -0.06044473774258864 -0.1358772877935546)
(4.998137440790185 -0.08635257571399273 -0.1045520392231371)
(5.051422646532379 -0.03959501495862312 0.008126741952462572)
(4.864603055708003 0.02493668755667076 -0.07275745183657376)
(4.995573716875759 -0.009700101922192035 0.05166695168907583)
(4.844137291814484 0.2128027549638251 -0.06236430594723799)
(5.128064788202999 -0.1377463896365931 0.08813724672532829)
(4.956920110648193 0.1670266558912249 -0.7108314397885699)
(5.038898901046751 -0.02818780310716454 0.02075522724861678)
(5.019328319140246 0.004448777309143725 0.0560631499819795)
(4.99842291836831 0.0009146574944371525 -0.00246497136472826)
(5.017623596799512 -0.008832988182770679 0.0004679952460633338)
(4.981290811428498 0.1176680634448842 -0.02904195211048546)
(5.021615167932304 -0.008817559601326243 -0.0105722583806242)
(4.978086931527771 -0.01204310676031622 0.01188421034325601)
(5.034611524616948 0.03037108793087056 -0.1423146478690334)
(5.070193542819164 -0.1450735470319772 0.06034562810918219)
(5.017916904081885 -0.005635693008827587 0.004711771538298316)
(5.037356475301083 -0.03775924071357482 -0.06960417679759559)
(4.946335620589694 0.137878681908306 0.232414823328051)
(4.99348863514812 -0.4044470398244106 0.1064593265357504)
(5.191926574255925 -0.21056312648504 0.1379302441124076)
(5.102849271248247 -0.1791995649262639 0.182462222606061)
(5.071098555210176 -0.05905321198361475 0.06472416807352334)
(4.674706941573271 -0.1915545754799512 -0.5515840199935859)
(5.040374700607941 -0.0480640456350615 -0.4004880108226085)
(5.022357765858876 -0.009909733837612291 -0.01556757915150018)
(4.99194164437501 0.008485178439918797 0.002724249188695364)
(4.62908414664753 -0.04551840340023457 0.0436852480114974)
(4.990786599084851 -0.01324928918849831 0.01767967137650207)
(4.898139522531021 -0.04534957591845824 0.0008760676963316611)
(5.066351395293074 -0.0355760101853041 -0.08077078999328159)
(5.05031418400465 -0.0467265443706821 0.01650528374875391)
(5.053837529377261 -0.04434687167586576 -0.3526132290874446)
(5.037475481477806 -0.05760888976620251 -0.1232650164592111)
(4.976334455935004 0.03086479762767628 -0.1032193313673412)
(4.987842057861492 -0.01003272870258946 -0.01937802744921989)
(5.024261463634154 -0.008025767752930199 0.2939147188948021)
(3.878881472766162 -0.2238166676155562 0.1064119633346532)
(5.018844798541522 -0.006534458305510278 -0.004920819299668935)
(3.225863480677931 -0.3090301665500115 -0.05625094984708073)
(5.010460919528885 -0.02462654678296639 0.05450415212803698)
(4.702065744440834 -0.03809925976395978 -0.4778706361591774)
(4.52705591846811 0.1072527755471231 -0.1909887223516477)
(5.032585299313207 -0.0284409482771902 -0.0505160084655918)
(5.060777513036486 -0.06870919973460057 -0.01428150289385742)
(5.066731997308045 -0.06843708299370564 0.08657771244711325)
(4.879246245590783 0.09620134103782658 -0.008604494698197688)
(4.732205771264229 0.02901549428825447 0.3587058982291926)
(4.966525300368957 -0.04260981296318253 0.08400964845890023)
(5.065348183287624 -0.04555336793981331 -0.1365779573734983)
(4.878712571159696 0.005590744236821677 -0.02521730955608796)
(5.109967267298155 -0.02952157608520441 -0.07789618903606037)
(5.067621280306486 -0.08770807455201426 0.0934969938909638)
(5.051556344155684 -0.07468424056510242 -0.0511563440757691)
(5.080158578139309 -0.08133251101579329 -0.0418582582684789)
(4.529387380500486 -0.04198965702568197 -0.1045268553334256)
(5.02155457603406 0.005626997280487335 -0.1230569088328057)
(5.069000030088548 -0.0523241071272483 0.08286467239868531)
(5.052192779021937 -0.06893375830151667 0.01130473194352133)
(5.011264300936773 -0.008759770209511679 -0.004404168726906168)
(3.662684347247004 -0.042811251998956 0.1413235180937167)
(5.014749278568383 -0.005420520381282051 -0.001815461244363101)
(2.972331466660164 -0.07549494679539889 0.055665076226416)
(5.092106876062267 -0.05676635025040698 0.2351077177980433)
(5.09123398230635 -0.09342629459374513 -0.1006851135889851)
(5.02270376996471 -0.011346129103981 -0.006512468024117837)
(4.14241275664309 0.1250608589797627 -0.1799250426884305)
(5.014705466450209 -0.01345820116837155 0.008422110888776986)
(4.971845775795857 -0.005671127662994749 0.002916958260774476)
(5.041017677768292 -0.01224334908840487 -0.02128937275681795)
(4.709269509231734 -0.02048496765631365 0.03477485287308293)
(5.010178660982263 -0.00631252078642775 0.004833411143175578)
(3.784610989599791 -0.07661637302095971 0.05047108178293949)
(4.510342436166205 0.0126292527293589 -0.1055946969800685)
(5.181700808395806 -0.1745438427651018 -0.2133630533385651)
(5.043230720552859 -0.05567928718894957 -0.1278808635841901)
(5.036819224281955 -0.04827709670013775 -0.07041842602326347)
(4.40054492753492 -0.4897978467041642 -0.419245311350982)
(5.000975377628652 -0.0006798234489588786 0.0006108286900176992)
(5.004542618118068 -0.01561212476049059 0.0175886514160245)
(5.011974075440851 -0.008790599629728217 -0.009667797589702249)
(5.016003610313449 -0.00595065317727636 -0.01102759200706667)
(4.990570176287181 -0.008786025816400528 -0.01201512573290997)
(5.001368079014523 -0.008314386088721967 -0.02889257049258782)
(5.014271167697453 -0.00388323959867328 -0.01237274407305336)
(4.938795564611482 -0.01386381342344448 0.008911001910361791)
(5.018923729675966 -0.01027000610456178 -0.008481893433587899)
(5.010966024942798 -0.007877880408319915 -0.005418037452404966)
(5.019104524269614 -0.0079698381068236 -0.00116994743182406)
(5.002874883794682 -0.01302941997739474 0.01100665645276006)
(5.005842318653419 0.02309886634575025 0.05427457201442629)
(4.101431877919151 -0.5977965453985953 0.07632532305061253)
(4.708480652429682 0.1826568455318949 0.1672347004886169)
(5.016801741641513 -0.01535415161205426 -0.01441149833340599)
(5.022701382441917 -0.007687987654555127 -0.001116153196205434)
(5.023836435018652 -0.008685125442831239 -0.01332055473816299)
(4.959173593382138 -0.00411136461160558 0.0007292829957442416)
(5.016237906382369 -0.019606624979787 -0.01814628902274236)
(5.024483667375906 -0.01335681175822321 -0.008221173205150161)
(4.982690547999144 -0.009827934849620539 0.005448052946007124)
(4.864739446858345 -0.0117021062460879 -0.009618826211102103)
(4.963648950624025 0.04460518446635274 -0.2838192901133281)
(5.069866996705183 -0.04615425893553331 -0.05231471007995641)
(5.049521936011021 -0.06792488004469116 0.07362709023755697)
(5.043444214284625 -0.02648728392313109 -0.04130945397676512)
(5.035210672376861 -0.009844308836370049 -0.03786849950115032)
(5.012546860290999 -0.007224150938505797 -0.009187504346674964)
(4.901667781007051 -0.3012251044350164 0.632463114498886)
(5.024000926051177 -0.0184247280019108 0.2543418745430822)
(5.005651039104505 -0.001038167535152654 -0.003597057119967915)
(5.018601472642474 -0.00736881632581759 0.000102290551821211)
(5.01590728297596 -0.009240429411027649 -0.002235502017985207)
(5.021742402164532 -0.01233381860800308 -0.00425213778214142)
(5.010177587116845 -0.004919728270014947 -0.005110686783600343)
(5.017748610069551 -0.01052468887040167 -0.01816858908647478)
(4.290719284248006 0.0677966999269367 -0.03193480435708262)
(5.054592459239516 -0.07791288775805964 -0.07345287716761412)
(5.059738547691229 -0.1078428105047876 -0.02545223141189974)
(5.018686398021287 -0.01436329307641033 -0.008791210422242698)
(5.002399181815168 -0.0002908461661240185 0.0007954839945448367)
(5.016290154359484 0.003037836139522226 -0.009367560896892375)
(5.034606847228741 -0.2833971286617804 -0.05920502847834248)
(5.002495569941126 -0.004318254743567503 -0.004686310983353489)
(5.017427361050228 -0.004588228517239831 -0.0005822289441776635)
(5.016546549407233 -0.008684718041929079 -0.00794416042122357)
(5.012062753256209 -0.007791852664320404 -0.008245540022416729)
(5.011494704954731 -0.00448372529831748 -0.003913361810757026)
(4.979729572453302 -0.005484947266109056 0.0003886950676311809)
(5.013725860591085 -0.1081738799281627 -0.06483737254885198)
(5.032122487720843 0.001779899571090561 -0.01048254019597661)
(5.016813688964605 0.04242569051730531 0.03295315129018424)
(5.038402259508568 -0.005476256996260002 -0.0188750596035545)
(4.990951015596564 -0.008173886070999952 -0.009140068128501197)
(5.025838044643465 -0.002915224216532007 -0.01971367970296875)
(4.866300320562645 0.01563183213979241 -0.02840884740437293)
(5.012156000267805 0.0006483473920510165 0.008720868453397659)
(3.770332278697053 0.09820188981968483 -0.01671086535952072)
(5.015132830710807 -0.01789012863211401 -0.007671056467929515)
(4.889238750762106 0.05449420874852876 -0.3367827503601947)
(5.061096815255925 -0.2020372669788346 0.02369638283936171)
(4.996884955374582 -0.002801808295665235 -0.007518797560096233)
(4.98241181158578 -0.008534731763031883 0.003522816573398858)
(5.010700153875173 -0.0009859550558990937 0.007772473980732377)
(4.522895905912669 -0.1004829904786185 0.05608350460284822)
(3.840537887877893 -0.2463686055835075 -0.06184989473918692)
(4.912974609547698 0.1762618532982392 -0.124748282268581)
(5.000435158644571 0.0007555946857515246 0.003507048079383794)
(4.927491539653335 0.04588840970629661 0.2360480811965678)
(5.015912363659401 -0.01330661989593673 0.01908503149133183)
(3.942117378587948 -0.1388852079695877 -0.07456543186265105)
(5.069711764441668 -0.08321954137962527 -0.02615181301435237)
(4.979856139140998 -0.04357812245069849 -0.0375050194737149)
(5.010632759379837 0.01643207256736137 -0.04079740528554059)
(3.823035058146107 -0.2176240590199616 -0.09433437341471705)
(5.130871705799974 -0.1653839186165253 -0.02294904122665453)
(5.000881774434233 -0.006437545280006333 0.01978365886672434)
(5.067175546467227 -0.02754748569596272 0.1579974365784048)
(3.873719653530308 -0.09897991820523126 -0.486335511701405)
(5.052971198809336 -0.5168350814208977 0.349052603969342)
(4.958378593743064 -0.008564472827240864 0.04563083450857142)
(4.958191974689375 0.02738150247561708 0.2602864319034958)
(2.485179622484853 0.1618401419822316 0.3507039878770128)
(4.324085972115726 -0.09728313316300342 0.003929729693080076)
(5.011456835387369 -0.007432367521906635 0.0067023816108125)
(5.007189920014787 -0.005428524629545591 -0.006475633451167567)
(4.994252678416113 0.005178808774861913 0.003863289801114997)
(3.934727442888054 -0.1124417714748413 0.08121235716949932)
(5.002060166863497 -0.003695667733860743 -0.0004877639333081981)
(5.001288701784899 -0.0111464537006804 0.08842301750501257)
(5.040846157184055 -0.03800865041557935 0.0226456436570791)
(5.025859331200293 -0.007803499820552896 0.009443706297856435)
(5.059937017185387 -0.1373826986561948 0.01019093758215696)
(5.000842822655999 0.004092298790551507 0.00178682111672527)
(5.051171644295969 -0.07129539319431694 -0.04471945518597893)
(4.310290775266219 0.2133947100694642 -0.3804167080364695)
(5.058549419662779 -0.03753801536977467 -0.2748424172855088)
(4.931511701943561 -0.1970061842104036 -0.1070398155457583)
(5.001965877655057 -0.003274459049037773 0.0004843199580778594)
(4.974033858715328 0.02967541444824619 0.1667865216518882)
(5.00046293524287 -0.001328089743858196 -0.002308278651776125)
(5.056025110907805 -0.07869548839329286 0.03175146493194797)
(5.004041804900299 -0.002775453709793031 -0.001472791032642552)
(4.955656536212972 0.1467497820110769 0.2183914586107607)
(4.950005969660342 -0.00512507788207838 -0.02856709996113943)
(4.018000235872741 -0.3265254156812269 -0.03159040203529476)
(5.039429845463179 -0.0577871539458126 0.05098741458270787)
(5.032056150849218 -0.02792995117802883 -0.001064569394087053)
(5.005823765605589 -0.1240958523466542 -0.09566737285256825)
(5.064759540380144 -0.08559698995219379 -0.006125708983343907)
(5.097174194792698 -0.01007911256855564 0.1358601595236028)
(5.082717180178845 -0.07317154741342087 0.08218195987421123)
(3.957533723274747 -0.1076273672883373 -0.3838821259191612)
(2.803059449187433 -0.2015607602986974 0.2663978333460001)
(4.970381970324471 0.005503745500515722 -0.004748177803346451)
(5.044553196430063 -0.08987439098265236 0.08338809263918073)
(5.024859707471295 -0.1251989449281369 0.1497925069280829)
(5.086054048559355 -0.06893913389435317 0.00635054193046586)
(5.000793027040144 -0.2081531851062703 -0.01053791939074336)
(5.066197521673278 -0.03553579055730514 0.05562251979318299)
(5.003986977202731 -0.002262754555193524 0.0007371299293821245)
(5.009559516471816 -0.007392302914781298 0.01551433170760803)
(5.008210473867993 -0.00325929522624096 0.009456388209728158)
(5.003460301732392 -0.0008877667686085788 -0.00186676352249874)
(4.220539954475097 -0.02520479068134082 0.1385049228271978)
(4.196100141452584 -0.1190205913008762 0.1136673775687912)
(4.989502547480517 -0.005052061589690598 -0.01188554712940212)
(5.076283008503959 -0.07651625186719251 0.005116639043098309)
(4.482444144504745 -0.09831484303325456 0.112002486648227)
(4.145342241980716 1.015958600155046 1.557583392039758)
(3.859443510930801 -0.1118940268773385 -0.04691054496265785)
(3.270436825849711 0.0001576960113021013 -0.04601313333984051)
(5.205857642519957 -0.1187926424222293 0.09311172078559055)
(5.076215346560626 -0.1394147573703907 0.007010925270530696)
(2.923519442427092 0.2453367587313066 0.170813959321447)
(5.066774274013622 -0.04541657018465958 0.06062771741471329)
(5.044488059856627 -0.04475259097251462 0.06518916722842177)
(4.626326259507726 -0.1108380873147387 0.06148293743705596)
(5.001760042106501 -0.0005802228435614737 -0.0006409083664650932)
(4.763850914230787 -0.1664439509579131 -0.1041740478660707)
(4.902774774308121 0.07298057396304801 -0.02959746861612332)
(5.088537544283864 -0.08724863425446748 -0.2174888891589328)
(5.091728402975273 -0.1071379411753181 0.06953318766339611)
(5.06593943221758 -0.01763059390541762 -0.1649628957289521)
(5.003077297032862 -0.003166818294211901 0.001660900369310604)
(4.311898874446197 -0.1686911515471297 0.04769028365675179)
(4.896633915807995 -0.05822436856331405 0.2432680324958406)
(4.282048602360523 -0.2038808730981777 -0.08658735586290732)
(3.865409882265636 -0.08825036634022232 0.1465332871842883)
(5.099059418065819 -0.124051213705851 0.04315472504075863)
(4.602223955219219 0.2288884965689268 0.03082645162453106)
(4.957851556140234 -0.008830721488906014 -0.01357993993099258)
(4.119754636795741 -0.1777900270682832 -0.05553285674660941)
(4.969527800653656 -0.01123893603904393 -0.02534771796438029)
(5.000014942756365 0.0009319205962609832 -0.001718992668241218)
(5.058874988765439 -0.02333107656326961 0.02041961652181777)
(4.831019686589205 -0.1185264183784431 0.03450024381536249)
(4.660292374206362 -0.4005157305800069 0.329961058829835)
(5.031689563714878 -0.03305354285529129 0.1003862455458563)
(4.962659905918135 0.1128617057811669 -0.04085848120426781)
(4.980514605114186 -0.07968433243533429 -0.1283412357213903)
(4.157304909598301 -0.3798537791841808 0.1180991396273353)
(5.058237745082956 -0.07420215595504483 -0.003837199098683033)
(5.050740982382978 -0.04774418244188098 -0.0205430832594527)
(5.082603315905317 -0.05109633796797991 0.1610140956934318)
(5.04731702281949 -0.02461013717971704 -0.08321208936110347)
(5.003047366281154 -0.002094365160023963 -0.005288729421348386)
(5.050656059974963 -0.04098349579794048 0.03649667034740994)
(5.084158223582112 -0.0397470632789336 0.01215645272889948)
(5.022273461524486 -0.02015770413365203 -0.06366118339172801)
(5.021818470088358 0.01610936020031036 -0.2720702199495575)
(4.681853850161962 0.05515766943798586 0.03226526734452871)
(4.991962353024986 0.05021456291855583 0.05340400606103808)
(5.019656963104072 -0.01160952805767517 -0.0003498075104784776)
(5.002490515759582 -0.0009399763700754549 -0.0007272269321650744)
(5.196258988679895 -0.2274689554989961 0.4708418638183527)
(5.098505130106581 -0.09286154667214644 0.1657583979694563)
(4.929506143263163 -0.06573178254144001 0.04236632068562609)
(4.942789266789505 -0.09895007311151507 -0.1712917528297904)
(4.298745229905564 -0.2653468444585811 -0.0554751104076515)
(5.014224933204999 -0.05287120323193495 -0.03950566399716016)
(4.91770834137652 0.2823658293283087 0.07486741147106345)
(4.99762733142602 0.005021997038028996 -0.0001518583913061708)
(5.122416017864508 -0.07002420503807862 -0.1826252973606246)
(4.989744091425663 -0.1301693264486046 -0.0464730811608796)
(5.03306543739652 -0.02537748522575831 0.02065930462831454)
(3.680992958859755 0.02105210769646952 0.3779159587303653)
(5.001376414194537 0.001074111681961895 0.001938139441089482)
(4.993920793847626 0.00109809050448952 -0.002094840671921228)
(5.006865208580245 -0.005255128965575058 -0.03272429909084193)
(4.998489127756641 0.001081383032819761 -0.004647584114833837)
(3.636673680612188 0.0009560857616601566 0.1731357656249237)
(5.019569815614571 -0.05986603596307824 0.08889447276135602)
(5.048291003744774 -0.04327959838737507 0.003627464556090058)
(5.024811139374294 -0.01238995249645865 0.008719302090386072)
(4.959044122311855 -0.004326299548970408 0.06456956998725463)
(4.994812978821623 -0.003290857166537882 -0.001847324764359022)
(4.995082545465347 -0.0003409662119052677 0.0004611975796766272)
(4.858411694134326 -0.124500698817228 -0.1691711697752914)
(5.00019320908923 -0.001193701175964669 0.00298660188344436)
(5.093157176310343 -0.04432142478466611 -0.04564730758153866)
(2.236257552385574 -0.1449158502357166 0.02727875407217598)
(5.063056209658522 0.006759526172144565 -0.1737282086298648)
(4.997224843016165 0.002352685330430215 -0.00223961258950438)
(4.70029997170832 0.1289783323099728 -0.1627794550433839)
(4.960227933187616 0.06785893036651107 -0.03825396992376362)
(4.927567114821478 -0.05421404505825513 -0.07942182147829369)
(5.070468165165559 -0.02498775513463976 0.04779534285051323)
(5.070367028433364 -0.07706421427885836 -0.03341119107705342)
(5.040361237550934 -0.01856076158195592 -0.1912548448669398)
(4.975678342443245 0.0198938869184474 0.1914366317046659)
(5.032215902543141 -0.01549135597908397 -0.02347700137023426)
(5.009969753170803 0.01817448242599246 0.08024522256597047)
(4.997138870753287 0.03697472475375112 0.07981733688833438)
(4.148440991559549 0.08358306585165673 -0.08898032724257322)
(5.007527945524225 0.002121054831636597 5.643805156971448e-05)
(3.457371061723816 0.5101819857802551 0.01473689352989734)
(4.912796305038877 -0.1325165518192607 -0.2333248778156944)
(5.001810837586418 -0.002767257948750392 0.001386132108205344)
(5.047283355844132 -0.04915295717705172 0.01000026728168089)
(5.022732692009441 -0.01013520515193016 0.02370810446662447)
(5.083425029102941 0.01819923316873323 -0.06905788422814881)
(5.03782883636538 -0.03098343925141394 -0.01792341352327338)
(3.957881136173849 -0.7660706761862628 -0.4877265364439596)
(4.675110237545018 0.1415296261077455 -0.03356461691824033)
(4.239136589138894 0.4448272398154265 0.1433336819647969)
(5.003869905872022 0.001654923771270181 0.001531624102592732)
(4.98279790622358 0.1698002285645872 0.321456697824186)
(5.049941474898339 -0.06262902836611622 0.01104702049092119)
(5.033972666377386 -0.001574990742736944 -0.04746629999442409)
(5.053411929230994 -0.05115054726365091 -0.04289820867585843)
(5.101303774212857 -0.06641253929767098 0.1061948285581836)
(4.580254440516721 -0.006189243154541619 -0.09085256295721662)
(5.015273968292326 -0.02917030684719033 -0.2525769554306903)
(5.038788500857724 -0.01943080712699828 0.05353860105509727)
(4.888558757902345 0.0111597243343007 -0.09277515588559165)
(5.042438174875501 -0.02757049205850473 0.0632182919535462)
(4.538692010660694 -0.1424711379838596 0.06598160054505189)
(5.180162426893625 -0.1248588141673005 0.1167083542557699)
(5.144492573180327 -0.08008323014914021 -0.003621105682643749)
(5.053963781805225 -0.05031957152687616 -0.007263741449943481)
(4.12022186563821 -0.1206987817112931 0.0776531820215268)
(5.008227173919718 0.1211607325932235 -0.1296151787460872)
(4.996294390783743 0.04056688363339912 -0.03012628927698302)
(4.943796630158959 0.3325028425168805 -0.005240648216341398)
(5.043230942543182 -0.04233202934518673 0.0195932244195083)
(4.527946050453651 -0.4858360208068114 -0.03870684454728832)
(4.994825010745938 -0.002211515584572033 -0.002005030082158014)
(5.034297091715458 -0.02831531288877558 0.04152957655307236)
(5.106148645144711 -0.105374120354363 0.0238116884287009)
(5.000855789448705 -0.0004500851825222112 0.001163893163764459)
(5.000646706031751 -0.0002947274015809235 0.001567478254520534)
(5.091251324486719 -0.09441385755439748 -0.01327303583604049)
(5.011991839518799 -0.01181135082459607 0.09606315425169963)
(5.034514097748255 -0.01099119601953691 -0.0156748981124728)
(5.001574492281935 0.001318337314786857 -0.003511772951592999)
(5.003912348933141 -0.009708302502008742 -0.01136254743009817)
(5.018074891765015 -0.004327374989771583 0.005013950935113943)
(5.043935385006897 -0.04070742004760299 -0.0006574651440645718)
(5.008513222818609 -0.008226968801434642 0.005048363008964555)
(4.131586374898685 -0.02518405698768581 0.06236647695344363)
(5.014772977933572 -0.005154842352593558 -0.001050856975123032)
(4.999492654141976 0.0005716148530342234 0.008593782196966986)
(5.005055675579716 -0.002013782249581758 0.0002882423897167876)
(5.273563591449533 -0.2822197226189326 0.07447696143221157)
(5.146709877682718 -0.07435967499895345 -0.07517254058346956)
(5.001906805650895 0.001113592929890076 -0.0006799382446013365)
(4.981124503293691 0.01137696298750489 -0.002123084859333406)
(4.999617765276263 -0.002353291045318718 -0.004147713627011191)
(4.989851387864734 -0.1412486553766759 -0.08532588409644229)
(4.99097243189405 -0.1872571875315777 -0.1331686123015499)
(5.000835125521544 0.0003434661466744053 -0.0002090835163685981)
(3.901784829457242 -0.320479762598854 -0.234083137444656)
(3.934482071528738 -0.04652260327889062 -0.1242260677475188)
(5.064768904935952 -0.09724657685900299 0.07317886249215674)
(5.00104300771239 9.962506544504882e-05 -0.0002774921080178776)
(5.002533676877568 -0.000387939424548164 -0.0006702370699749765)
(5.088920830672879 -0.1571872800621911 0.1211524015616753)
(4.955884815871717 -0.004248994629802079 -0.02804534057163396)
(5.061788398915663 -0.1361922538236824 0.143397380122803)
(3.312412165895029 0.177399852702762 0.02109763115699932)
(5.061382271199716 0.02582015270554134 -0.1616711320217054)
(5.006437157760153 0.004011905412690399 0.004227694286363442)
(3.996065435303153 -0.3442477687077512 -0.2153957910912786)
(4.013899497378215 0.1115273853156226 -0.3525205818243943)
(2.96034044994278 -0.163040203721477 -0.4486370887676226)
(4.905699059905244 -0.3263281890944547 0.08680890772622836)
(4.974000287393861 0.2963187786150397 -0.2342104502036896)
(3.932974953937594 -0.1576080483546475 -0.2383003829437122)
(5.000454826759868 -0.1137200824066834 -0.2387423367636143)
(2.894856006825644 -0.1030553113271837 -0.6135426517979817)
(4.990761299517932 -0.1089375129713184 0.02969159406321851)
(4.970324205343574 0.0629351352131233 0.02664070321504343)
(5.089696218333437 -0.1210351464654201 -0.01473044536117969)
(5.061400702634288 -0.03111836639125176 -0.03028689135614515)
(5.098207646756955 -0.1061557431446768 0.04175613377123794)
(4.923773601465992 0.006067784445310245 -0.05750126682470989)
(5.062176902319843 -0.03377297017341727 0.09272573671017374)
(3.514398454992909 -0.9673206712678509 -1.262573757971478)
(4.936847171340855 -0.08324776360651827 -0.01312807344001681)
(5.005578826714915 0.01711429686649938 -0.02449634798491753)
(5.006573483343071 -0.01044065231298834 0.01335917953879416)
(4.926159204042732 0.2762230818179058 0.03369557621401587)
(4.810238890486735 -0.3278056203211618 0.5693811085069741)
(4.971781168449378 0.06604204647602183 0.1026895756739377)
(5.033006752037556 -0.01878310979284184 -0.01144883703914041)
(5.110106508171713 -0.08085584699789139 -0.02365404281240515)
(5.131074490297818 -0.08756476019135029 -0.1072897731626836)
(5.019921171924779 -0.00800575117827388 -0.02274119173805388)
(5.032305670031175 -0.02309721519025299 -0.003085828275064499)
(4.964180681932185 -0.006380142209222672 0.02379762120105974)
(3.466197446868156 0.04376395042543994 0.0904115381900007)
(4.741242756507759 -0.0802682662698614 0.1173160381959697)
(5.011687292144657 0.000119978315303084 -0.0182856343468595)
(5.029019451794461 -0.211191617119024 -0.5723336399485404)
(2.817822277044593 0.2242075993921068 -0.462286173122102)
(5.000726926298701 -0.001047147852257809 0.00261019035164736)
(3.612802632936359 1.219626162345649 0.1157722945250392)
(4.85240464562948 0.1745039626820546 0.249964634872685)
(4.64421917828083 0.3344610224915545 -0.08686022430449065)
(4.999602721139782 -0.001739939910976164 0.002516316268392174)
(5.096022272014834 -0.2013554848760487 -0.1662324333681192)
(4.613556173453786 -0.2067996953794089 -0.3413196979567846)
(5.069060630357492 -0.1719124931002001 0.1956837632091906)
(5.00194574063796 -0.0001491764883765614 0.0002919593785415976)
(4.779702197049086 0.1052355121142932 0.2509304020288717)
(5.00117471011204 -0.00159345849264969 0.0003352240748313927)
(4.236289249799079 0.07215031309689414 -0.6060560577320765)
(3.324279614456135 -0.5950193826775968 0.1152068484915125)
(5.026637268887057 -0.02473214574163405 0.01876014795025354)
(5.061433604715872 -0.1400547988891062 0.1703779665710458)
(5.082972552174889 -0.02801375642953084 -0.06512061683814323)
(3.487264870196129 -0.1827832033857668 0.2003486072452308)
(4.202306142262089 -0.0006473348949122566 -0.03245063922027298)
(5.001533841926143 -0.0001212982834167312 0.0005607961145550684)
(5.001191463902671 -0.0004237508552579604 0.0007847261401127944)
(4.989396815115168 -0.008405077709391168 0.02821135969382572)
(5.080020266344389 -0.05927839433583746 -0.05203079132007143)
(5.06213892319861 -0.0898392767151935 0.02247874003489263)
(5.004842041199023 -0.005374899689322895 0.008374768608276854)
(4.966084400285601 -0.007843299351757588 0.01189826967991381)
(5.006415257011692 -0.002680281015775997 0.005934338924088827)
(4.992181776245574 -0.01161997186838694 -0.07209436584207736)
(4.988457977559063 -0.01111233815606131 -0.01606970170573396)
(4.907536737398865 0.0197301506816779 -0.08042465645979104)
(5.037009409252926 -0.03433477576093969 -0.01980465015108102)
(5.043048877780698 -0.03705286339277513 1.624114915627054e-05)
(5.117560872278041 -0.1919822418467356 0.05477490763546577)
(4.986474308433143 0.00816519982870173 -0.002473456188617435)
(4.84383059963984 0.0922828247755922 0.06106100680501612)
(4.127914810220228 -0.04608006574632792 0.2195304949254364)
(5.109850849810089 -0.09380215495477567 -0.06279606941723766)
(4.99159864415001 -0.007373746882982524 0.006245248550588875)
(5.005574313881476 6.142687246572371e-05 -0.001204120094801797)
(3.51473249666333 -0.05808735635030484 -0.115366086740617)