/*--------------------------------*- C++ -*----------------------------------*\
| =========                 |                                                 |
| \\      /  F ield         | OpenFOAM: The Open Source CFD Toolbox           |
|  \\    /   O peration     | Version:  v1906                                 |
|   \\  /    A nd           | Web:      www.OpenFOAM.com                      |
|    \\/     M anipulation  |                                                 |
\*---------------------------------------------------------------------------*/
FoamFile
{
    version     2.0;
    format      ascii;
    class       volVectorField;
    location    "0";
    object      U;
}
// * * * * * * * * * * * * * * * * * * * * * * * * * * * * * * * * * * * * * //

dimensions      [0 1 -1 0 0 0 0];


internalField   uniform (5 0 0);

boundaryField
{
    back
    {
        type            fixedValue;
        value           uniform (5 0 0);
    }
    bottom
    {
        type            noSlip;
    }
    top
    {
        type            fixedValue;
        value           uniform (5 0 0);
    }
    outlet
    {
        type            fixedValue;
        value           nonuniform 0();
    }
    inlet
    {
        type            fixedValue;
        value           uniform (5 0 0);
    }
    front
    {
        type            fixedValue;
        value           uniform (5 0 0);
    }
    procBoundary2to0
    {
        type            processor;
        value           uniform (5 0 0);
    }
    procBoundary2to1
    {
        type            processor;
        value           uniform (5 0 0);
    }
    procBoundary2to3
    {
        type            processor;
        value           uniform (5 0 0);
    }
}


// ************************************************************************* //
