/*--------------------------------*- C++ -*----------------------------------*\
| =========                 |                                                 |
| \\      /  F ield         | OpenFOAM: The Open Source CFD Toolbox           |
|  \\    /   O peration     | Version:  v1906                                 |
|   \\  /    A nd           | Web:      www.OpenFOAM.com                      |
|    \\/     M anipulation  |                                                 |
\*---------------------------------------------------------------------------*/
FoamFile
{
    version     2.0;
    format      ascii;
    class       volVectorField;
    location    "0.4";
    object      vorticity;
}
// * * * * * * * * * * * * * * * * * * * * * * * * * * * * * * * * * * * * * //

dimensions      [0 0 -1 0 0 0 0];


internalField   nonuniform List<vector> 
19632
(
(0.01399716217699163 -0.003483372314721287 -0.002217327661956507)
(-0.0004424699398154809 0.0001185393741469582 -0.0001410698639918286)
(3.254900360546376e-05 2.872047066429015e-05 6.239107592667903e-05)
(1.825097433911312 -3.758823142326481 -4.701077125197633)
(-1.624567539802149e-05 0.001992579655935524 0.0002535397577085664)
(-0.000201661262778791 -0.0001516678796478262 -0.0001286967534074325)
(-0.000456238325663995 -0.001932854018168227 -0.0001186696028823966)
(-0.0002269434643992701 3.514650720285506e-06 -4.991671862901297e-05)
(-0.0008487911595220312 0.000619466376591249 -5.133132310755261e-05)
(-1.432688160209636 -0.2933301256215717 0.3957508089116928)
(0.1592336021215953 -0.01963061887206527 -0.009430766143126847)
(0.0001339234531701452 -0.0001276758575060174 -4.611900804479731e-05)
(-6.507296609336197e-05 -4.639753120790406e-05 -4.170887947593533e-05)
(2.29725761306217e-05 -8.047973964565887e-05 -3.859156950778808e-05)
(-0.01335598238178246 0.006763382695596638 -0.0006851222774789745)
(-8.016652687184962e-05 0.0004401418036731133 0.0005722274139507372)
(2.34470765842165e-05 -4.734751256076442e-05 -2.840323070727878e-05)
(0.001111908639116506 -0.001889129136237244 0.0002805086483213026)
(3.180667368733004e-05 -3.429688469147216e-05 -2.751191908867726e-05)
(0.0003516511550578395 -1.859821141933066e-05 0.0001035204986686508)
(0.01704098009235774 -0.004559936361347088 0.003175101401754558)
(-2.549040780920275 1.589908478864631 4.554077058371638)
(-0.003241979813947722 -0.002813548768644011 -0.02456656399865886)
(-0.0002466919828814141 9.501933352589643e-06 0.0004904335462758877)
(9.827378202237031e-05 2.873089920739224e-05 4.629455273955714e-05)
(8.113439027932002e-05 -1.163320717704407e-05 -0.000145846911869904)
(1.668515655671168e-05 4.373168462613065e-05 -0.00018405110808912)
(-1.978387185512668 -2.128719361416015 -0.142837256283709)
(0.0004337547180324745 -0.004948549118533983 0.007769541842845113)
(-5.155916566887891e-05 3.826558908193295e-05 -1.764107763040799e-06)
(-2.468869733427236e-06 -3.184540172373401e-05 -2.263363842411229e-06)
(3.321322602834412e-05 -3.803172538898602e-05 0.0003274754672983487)
(-0.01062063084917973 -0.003351419409524839 -0.0003238553058594398)
(-1.739113579746309 4.550105288473129 -4.698079028122377)
(-0.0002423849130112461 -0.0002371446420022353 -1.781381087525403e-06)
(-4.237979428870143e-05 9.169867919477498e-06 -6.671486103198743e-05)
(0.0001020588177748707 -0.0002334441027943014 5.693971275530334e-05)
(5.766709143253314e-06 -1.333395978402086e-05 -1.109292760821083e-06)
(6.354259070066657e-05 -1.501591858037053e-06 6.48017600312266e-05)
(-0.008715019108821841 -0.004030062355222769 0.002898278372168167)
(0.0001949066960939641 -6.814653227226846e-06 0.0001089443694809743)
(0.0003227008761195953 3.149908330831654e-05 0.0001979509744595676)
(0.0001808552992265403 -1.658464712905409e-05 -5.951445062164239e-05)
(-0.004954159780222847 0.003225430391547504 -0.02885804337856777)
(-9.580698952284859e-05 1.090439316309886e-05 0.0002509504614357159)
(5.926711591236785e-05 3.60313839970135e-06 -1.970301008353794e-05)
(-3.256257534416297e-05 -1.319661130085182e-05 1.179124210333453e-05)
(6.442939845847572e-06 -2.804674843542724e-05 2.337283167007717e-05)
(-5.966693673455124e-05 -0.0002055718925200788 -0.000269631861988788)
(-6.204119929434115e-05 0.0001575642024749316 0.0002493687635857732)
(-0.000441883617663332 -0.0003261328790198821 -0.0002468458913498604)
(0.001244193859714622 -2.322776200259129e-05 -0.0002497661424739783)
(-2.17829139576164e-05 -3.436749454474359e-05 2.368142482512614e-05)
(-0.0001423085428800689 7.010241039045724e-05 9.494854640391703e-05)
(-5.791709370007244e-05 -0.0001786385072994333 5.723392017640465e-05)
(-0.001102867884947175 -1.157080260418176e-05 0.0007344914584671617)
(0.0002457710505472348 -0.0003910144415439299 8.286926166977306e-05)
(-3.988399624572921e-05 -0.0001050849734578105 -0.0004551979697901969)
(-3.739106478171987e-05 -0.001004854981648813 -0.000633455869282019)
(0.0400068773167386 0.3087394999263802 0.08277541095109525)
(0.0006709920552501543 -1.867783203913251e-05 0.0002637033640571256)
(1.514813578911181e-05 6.013879360251038e-06 2.89420362717899e-06)
(1.221665109628409 4.356039526672296 -5.853892970580132)
(-4.931520595741511 0.1847965603680901 -13.15248381954274)
(-2.299094898840622e-05 -1.890981467031687e-05 -2.529233164131702e-06)
(0.8830406653867131 1.722390967786557 -1.055020006369559)
(-0.2620148247627671 -1.074023443135832 -1.736334281861296)
(0.0004384424468101497 -2.081035463298366e-05 -0.0001974428668294708)
(8.248348998917803e-05 -9.335433652047064e-05 6.452700036424851e-05)
(1.081352702379419e-05 7.59129519611675e-05 -2.936990281659889e-05)
(0.001455943669403339 -0.0004401999383523516 -0.0009585220463584746)
(-9.860009179892974e-07 1.585415057495211e-05 -2.180252282363569e-05)
(1.488144455252575e-05 5.608468255041381e-06 3.462434169451015e-05)
(-0.0001918228236117189 -5.158244871625904e-05 -0.0002445305297698261)
(-2.741122114886438e-05 8.192171982959275e-06 1.660130579802548e-05)
(4.303183616920299e-05 3.236767998062068e-05 2.699229900091072e-06)
(6.31990607391047e-06 6.152665510183937e-06 -4.508030402184318e-06)
(-0.005592412399533344 0.01196827140852257 0.02822824508755487)
(-0.001038717322841979 0.009892875201563065 -0.01358083407551841)
(-0.01094396159177608 0.04963442098082529 -0.007059151580358931)
(-0.00964804101709053 0.0001624533168414575 0.01754100072638318)
(0.2894173511841825 -1.342482430984582 0.2275753947587971)
(-0.0001448734866978017 1.171569945785641e-07 6.110892030042675e-05)
(-2.220686769766593e-05 6.243955765638498e-05 1.145797878878713e-06)
(0.0001872645985664851 -2.271211712348577e-05 -3.780402637894156e-05)
(7.664181144177857e-05 0.0001198728189375693 -0.0002247345068225902)
(3.040872693138526e-05 -4.133085710966444e-06 -5.10242508827039e-05)
(7.923792468467691e-05 2.260403787514779e-05 2.326630841316344e-05)
(-0.0001496367789057882 0.0001455227337571508 6.761763973368734e-05)
(-0.0002047850273488663 -9.161088530512001e-05 0.0009196766189245883)
(-0.09514620067271819 0.01827311412821945 0.04385660885413231)
(0.0008214513436068671 6.207027665077738e-05 -0.000752119162633028)
(-0.0001377535939085799 1.312495893764979e-05 3.66209937895151e-05)
(0.00533345328356856 0.02256467598383328 -0.002009918131525136)
(-0.0007881025066001027 3.197382397582426e-05 0.0001364072663393408)
(0.000368343476948516 -0.0003845883377230122 -0.000401083519313379)
(0.000576401024911381 0.00041254094491148 -0.0001711229152975174)
(3.964774403640192e-05 -4.151039628197826e-06 3.301131290655596e-05)
(-6.482197263614686e-05 -5.031449220236582e-05 0.000134029600412826)
(0.0008799754035422981 -1.142497952228391e-07 -0.0001501803183458398)
(-0.9720899853958738 8.93897578553471 -1.922441657435721)
(0.0001128704461798358 4.715435409796269e-06 -5.544902118417271e-06)
(-0.0006283223848521335 0.0006686061771143188 -0.0009452483192243569)
(-5.876299506887923e-06 2.483704554127139e-05 -1.698735859917911e-05)
(-0.161144010206738 0.3158787136977085 -0.3074060964911966)
(0.2349462486121562 -0.1546860183987595 -0.2016198030800281)
(0.08043945365215763 0.08200862065820524 -0.01735372788555128)
(0.03430082938955471 0.02582518119655209 0.02083576501336719)
(0.0005342827010431565 4.133306177796901e-06 0.0007764548765109876)
(-0.001040440836622677 -0.0001120611912756542 -0.0004011256308024719)
(-1.334053053883117 -1.65708206323528 -0.8947983251059577)
(-0.0001596358567383256 0.0001450955230313082 -0.0001001128987757076)
(-7.800827523589532e-05 0.000265135738725943 9.928296918333199e-05)
(1.420534428868439 -0.6328399229628561 -1.353239346259979)
(0.0006271391790470797 6.620314884198318e-05 -0.0009468090270864947)
(-0.01081032897944373 0.02431632650937295 -0.07874744356926594)
(-3.642721237039507 15.39710344165009 -4.440757606855257)
(0.1241387608323245 0.4640758611478298 -1.8093289726776)
(5.044873974259409e-05 -0.000166961401322059 8.350476761715542e-06)
(-9.293486326320254e-06 7.869807690380732e-06 -0.0001421072375291966)
(-0.000249356315079084 5.737878724804458e-05 -0.0001091633805883806)
(0.0003372035654201653 0.0001581372146211073 -0.0001983697237310899)
(2.417149311305804e-05 2.930042377996183e-05 8.814024181199372e-05)
(7.70512970789492e-05 4.918411667082204e-05 2.97976614755441e-05)
(0.6128492444913198 1.342341379529997 0.4887058682808176)
(0.2396157465882321 0.1278914539773596 0.01186634325556491)
(0.0001270588609314582 -5.286496760895037e-05 1.171849776118354e-05)
(0.001099336026093129 -0.0001054390670853552 0.0004226549506141264)
(-3.47204070821295e-05 0.0008298320653719733 -0.001460537462691146)
(0.000291827933046453 -9.10145256351377e-07 -2.312076667631475e-06)
(-1.269714182013635e-05 -5.628007984629893e-05 -5.129353375466495e-05)
(-5.688501946003625e-06 -5.389595048558867e-06 -1.69955569745884e-05)
(-0.06666157482296607 0.1733600502050074 -0.05212898819046061)
(-6.525234431462106e-05 -3.940770849781104e-05 -1.799000078089643e-05)
(5.848113156262699e-05 -0.002415887599153089 -0.004647677072374526)
(-0.006328116735838411 0.00791659986336467 -0.002376820172654344)
(-0.0006172925886204462 -0.0004034222596432426 -7.169958003506297e-05)
(2.541271847970882e-05 2.148931870927399e-05 4.364263957502047e-05)
(-0.0002834450767386139 0.000201506885663125 1.974809412226232e-05)
(0.0007592815956564234 0.0001539270169480102 -0.001286973349557008)
(11.00718270625514 -15.78030768877228 -50.21381330789114)
(-1.355686299435293 5.8005049530456 -2.557404932077274)
(2.26898157243339 -7.981579204230948 -4.294351713601937)
(3.677522862946587 9.886247818185883 -2.451959211480435)
(-2.013043546140767 9.502387066267362 -42.55792591143025)
(1.765083989641924e-05 1.212562125153496e-05 1.760936752300434e-06)
(-3.186007018715386e-05 0.0009819524994090442 0.0005682741859888835)
(-0.001524112074344449 0.002565861780675735 -0.01019512861741318)
(-0.001772872952871405 0.003946761602953581 0.002308522416771257)
(1.028478946597861e-05 8.21768333436642e-06 2.951612946243602e-05)
(-0.0002710010076665728 0.0001775838976499977 -2.370161192267294e-05)
(-0.0002491802431809175 0.0001103219538059656 0.0001787875915642675)
(-0.0006191900353811786 -5.820576783375092e-05 3.470149567262782e-05)
(0.0002007997009195039 -8.248160282643677e-05 0.0004051514751525616)
(0.0001386494712693523 -0.005282338089690939 -0.0004529365215060533)
(0.0001275717209482833 9.861219901883444e-05 -9.73903006416815e-05)
(6.989119786664695e-08 -4.512085216432852e-05 1.764216505290203e-05)
(-4.14816005873946e-05 7.302785162175978e-05 -0.0005783050225210481)
(-9.209854835091761e-05 -0.0001167327970716127 2.054959176675865e-05)
(2.785052933439924 8.322802342950233 -3.564607113396877)
(1.475473742686009 -2.225152067911294 -1.757641014262671)
(-3.814752551939651 -6.598573439402873 -3.305136735485055)
(7.444105536547983 1.931819122592936 -16.95918225251894)
(0.5508725539486946 -1.543663662831015 -0.8433030370281882)
(-0.0002395757139328021 -8.261390052459668e-05 -8.7523868072163e-05)
(-0.0002540898744704953 -0.000284124522931384 -0.0002269337235350044)
(-9.452527947981095e-05 1.781412129826846e-05 -1.992348039963557e-05)
(0.0006076640270784589 0.0001423397485855276 0.0007720596329426814)
(-0.6887216455452405 -0.6092296568616439 -0.7948215250579007)
(-3.707514592358712e-05 -9.265658545295687e-05 0.0001644141880419565)
(9.906225161919913e-05 -0.0001360913821916401 -2.841894339141616e-05)
(0.001656209235102881 -0.001644180122579438 -0.0006989713228803944)
(0.0003464136317680376 -0.0002073373017858412 2.702206158443937e-05)
(6.353026276390017e-05 5.728998324418348e-05 -1.666228936142895e-05)
(-5.006370517450273e-05 3.794256810610649e-05 -3.319055802584346e-05)
(-0.0001314523242078083 0.001225312864733152 -0.001647447450275577)
(-6.862564488091121e-05 5.135602303061217e-05 2.073262750447704e-05)
(0.00124448434371835 -0.001499686944004654 0.006160287060651495)
(1.760980495473398e-05 -4.498848082473968e-05 1.007167643348984e-05)
(-5.039336202433227e-05 -1.269798911392503e-06 3.537965571966674e-05)
(-3.965778510546591e-05 -2.42661120376117e-05 -1.812577753697044e-05)
(-9.422727771070275e-06 2.592453448321758e-05 2.025892515139508e-05)
(1.087365876287993e-05 -5.076220612547769e-05 -3.561195769099945e-06)
(-5.731244037281575e-05 0.000681116755139819 9.221953558298784e-06)
(-0.0002993000442812948 3.915689101171381e-05 -0.0004975609196346587)
(-8.098497215401651e-06 -1.511787534117924e-05 9.342821548841206e-06)
(0.000233290542749042 -0.002494089013505082 -0.0009540756532248681)
(-6.378630377769979e-05 -7.343407768536963e-05 3.936340287391554e-05)
(9.87134838387155e-06 1.041189517818649e-05 5.738093873818716e-05)
(-1.752899546631313e-05 -5.271692830618897e-05 2.524870296355887e-06)
(2.901714859415062e-05 -1.996351503203335e-05 2.08667910220539e-05)
(-0.001737745230177954 0.005569930638559917 0.004228216523307302)
(0.01024673977479147 -0.004792896889981938 0.02001530869042383)
(0.003807777675788157 0.002981716118650024 -0.0001404004337376943)
(6.3060071190669e-05 -1.9311129602709e-05 -2.358031650503208e-05)
(1.625620420517834e-05 -1.157299876771378e-05 2.735221133691122e-05)
(0.0004556553590521162 -0.001237136168078302 -0.001392532081531511)
(-0.6592571664675895 -0.4216283749059129 -0.3463713825131842)
(-0.0001161544833824731 8.723567320689592e-05 -5.60464602208256e-05)
(-0.000718799779697099 -0.001956653435985516 9.72826539429246e-05)
(0.0006662708535147625 -3.470794392689996e-05 0.0004393712166438178)
(0.000195902342714706 0.001207918496634959 -0.003008509526908279)
(-8.043320249429544e-05 2.882656507330423e-06 3.691291847164401e-07)
(-0.000524887220394134 1.967914671049426e-05 0.000104712693064705)
(-0.0005597970550564113 -0.0001570710170734 -0.0005129847458787959)
(-0.005084804114514956 -0.001988140511502509 -4.739466785264477e-06)
(2.248081624758652e-05 -7.473075545088499e-06 -4.24681744793798e-06)
(0.0002521358058736236 -0.0001587035622385848 7.566845823243127e-05)
(-2.705769940273e-05 1.638616454058934e-05 1.818143744832277e-05)
(-1.975914883083668e-05 2.093576754716666e-05 8.461532892733756e-06)
(-0.0001932718517323085 -0.0007374021187955313 0.001022115413151701)
(-7.588335636309456e-05 6.985295649626184e-05 -2.360885764456194e-05)
(-4.594470803426749e-06 1.673699391543091e-05 -9.031796207720833e-06)
(-0.0001631564515380003 -0.0001506848037163104 -0.0002169499023438027)
(0.000678215424904528 0.0005058339450800225 -2.692950136587928e-05)
(-3.864507219773669e-05 0.0005891341776676615 -5.808526008129455e-05)
(9.749156748199144e-05 -2.069012450072282e-05 2.975298130553425e-05)
(-0.0008990952648437358 0.0001426573203246545 -0.0002161562725032144)
(-7.53449254453174e-05 0.0001104847475787504 6.521507171528435e-05)
(-0.000212755061220111 -0.0002389754425898784 -0.0009255652325462689)
(-0.0009714246862617133 0.001826694963714009 0.000275615626275462)
(-0.0008355126030129118 -0.000219746053519467 0.0001883202489349575)
(-6.303079687909689e-05 2.847913724162747e-05 -2.952706612256397e-05)
(5.460769031160567e-06 -7.046017328868724e-06 1.151104479401578e-05)
(4.348453473787501e-05 -0.0006917352218570585 0.00205996150628106)
(-0.0002402708239696876 0.0001393820372372622 -4.007555488633904e-05)
(-0.000191100551206093 0.000268157880967897 -0.0003782036528016177)
(-0.0001301469838659195 -5.652475122462618e-05 -5.271251160781445e-05)
(2.900988951978362e-05 -7.259283023688721e-05 8.812297142231698e-05)
(3.017726932028794e-05 4.192848593551795e-05 7.997972876937197e-05)
(-6.351073949083003e-06 0.0001122683292704435 -9.776455831618893e-05)
(-0.0001955944167495824 -7.820852008940668e-05 1.579003101546728e-05)
(-2.873511511196954e-05 2.721200863470852e-05 6.303725021743079e-05)
(4.402580049069499e-06 -8.107849169608173e-05 -3.748319019025997e-05)
(-0.0001512065842105536 -5.909190557084988e-05 0.0001442821592379706)
(5.019160413998184e-05 -6.361633238440861e-05 0.0001269082136921504)
(-2.882909549265167e-05 -7.577070323416168e-06 1.450260052399494e-05)
(-4.581129227601495e-05 -0.0009878552557689227 -0.0003941992861625626)
(0.0005248929922399893 -0.00121459946890176 -0.0009964428082143062)
(8.344445923005907e-05 -0.0001292953119043273 -3.446103974024772e-05)
(0.0002153503093451352 -3.523764404974964e-05 9.04964619381976e-05)
(0.007560576750552546 2.004295971408669e-05 -0.01103922202596596)
(-0.0005284933170312282 -0.002616663329418407 -0.001450226208643617)
(5.687020312465286e-05 0.0001980040567032861 0.0002475906805031659)
(7.160562717667542e-05 7.657704827059176e-05 -2.95053337712985e-05)
(0.001323803715293998 0.0006602277665644105 -0.0003917315672821827)
(-0.0002534864632157543 3.714072953500238e-05 0.0004517919858654381)
(0.009666718610693067 3.780910327543408e-05 0.0005830795751287309)
(4.463431376724315e-06 1.299012236564251e-05 -1.559944967957072e-05)
(-5.814906970527026e-05 -3.929049543626206e-05 -2.956281293638749e-06)
(6.25638439318703e-05 1.690322426549136e-05 -1.555104654063122e-05)
(-9.520832029630022e-06 2.37027036734796e-05 -2.945430084865097e-05)
(6.815214644033873e-05 0.0001042752459611649 -5.299024471692873e-05)
(-0.0003552258258222489 0.002348897241434696 0.0006598306725250497)
(-0.0007523843197801831 0.0002580068002943686 -0.0001273593623396763)
(-0.0005755673120043617 0.0003011992131627386 0.001526484700864504)
(3.422056391175507e-05 7.40010930446788e-07 0.0001010984866158603)
(0.0333878323767336 -0.01122112817047249 0.009749703254493832)
(-0.01654594261427997 0.00173845854912235 -0.008825000424945845)
(0.0004052709797381099 -5.487483278051376e-05 0.0001515836871330806)
(-0.001583390973355601 0.001897071353042033 -0.001299028624140965)
(0.0006266191464052494 -7.175691274397314e-06 8.044986236472182e-05)
(-1.342670614600251e-05 6.452266902674747e-05 -7.116905769898141e-05)
(6.435611205333472e-06 -3.183069671299386e-06 1.975054683053689e-05)
(0.0009763426398335785 0.0009095463993763228 -8.884439085192524e-05)
(6.377236879744328e-05 -4.293926895823171e-05 -6.999290697875728e-05)
(2.17781411149021e-05 8.495732894965579e-06 4.126419404830233e-05)
(-5.128882104737852e-05 0.0001329757788904981 -6.970046169725448e-05)
(-4.479626331486366e-06 7.804156146591379e-05 1.123719981889113e-05)
(-3.095094659654019e-05 1.272974377363213e-05 1.388580665493534e-05)
(-9.362330546495774e-05 -1.16860616526722e-05 -1.577247534901414e-05)
(4.821587146920473e-05 1.396735771946907e-05 2.949670001852125e-05)
(5.258096135777223e-05 -9.6812935919509e-05 0.0001491343992760557)
(1.065029250148892e-06 -1.446088650214431e-05 1.132656449280398e-05)
(-0.0001094697278162012 0.001190431266727891 -0.0002239924881833896)
(0.0007458849000817449 -0.0001039553884515623 -0.0007118825983504691)
(-0.0004072424071495529 0.000270420517974497 0.000158336067579515)
(0.0002244781154828059 -1.27040151241787e-05 0.0002715851144975217)
(-1.465110626294805e-05 4.240205545720906e-08 1.761032832671424e-05)
(3.156024203980017e-05 4.895744042637161e-05 -3.855555608720332e-05)
(0.0001971702858981814 -4.245436383248488e-05 -6.887210486595503e-05)
(-0.0002428026923044905 -0.0006343361043318958 -9.01884406623692e-05)
(7.987435419628843e-05 0.0001256702021642254 6.400393918017367e-05)
(6.156380489132982e-05 -1.863885305554742e-06 -6.321447396909193e-05)
(9.49383825909988 -4.75261260690524 0.505025468724428)
(-0.001638128312591623 0.001830846923302984 -6.425169843723863e-06)
(0.0004730621591922869 -0.0002025194242675857 -0.000383941103082773)
(-0.004372015831322526 0.00179812979401676 -7.445224314143561e-05)
(0.0007392301251254447 -0.0002183247678207863 -0.0002083391755223644)
(3.115210395836745e-05 2.575246397564583e-05 0.0001453708562037913)
(-0.0001371558964504434 2.490767531727565e-06 -4.837850250448853e-05)
(-1.667090173014722e-05 1.033864845511866e-05 -0.0002370096609722918)
(-0.0001095085145466977 -5.775724059631105e-05 -5.540828607058581e-05)
(3.455433306064655e-05 -2.26377179556996e-05 -1.260154994361726e-05)
(-0.0001734051903653944 -0.0002421613481326435 -4.979769391278032e-05)
(0.0005331334795373983 0.0002004191457107871 6.036580581294308e-07)
(7.115197389025354e-05 -3.917063899609085e-05 -1.249564704722658e-05)
(-0.001081552924302342 0.005388566710590891 -0.004336103187617635)
(3.45009538192292e-05 -1.41015150769231e-05 -2.530757838265809e-05)
(3.260158143810969e-05 0.000142876151124732 -1.001790506419075e-05)
(0.01453513883095363 -0.002412644614879472 -0.007296175936455971)
(-0.0002047786147811327 -0.0007563247032955335 0.0004074899576072398)
(-5.122686676585314e-05 4.288715569561152e-05 3.346746201616935e-05)
(1.498170952928677e-05 -8.86885752174319e-06 1.274906762972069e-06)
(-4.393879771313681 -3.234508568600659 -0.8004689487249912)
(7.201243581280768e-05 0.0001758073141970884 0.0002097496578143716)
(0.0001917408661425582 -0.0001240846896965587 -0.0001106733119056066)
(-7.316939866022016e-06 -6.674449147186419e-06 3.94209281896336e-06)
(7.936852133304611e-05 -2.899702561105779e-07 -1.003322432725631e-05)
(3.244741621091722e-06 7.172723548332636e-05 1.389713109954829e-05)
(-0.7179012434703054 -62.48651826553663 -2.067391184075721)
(0.554066016710701 -56.16175632544466 -0.3925997194161566)
(0.01207338231060939 2.102116443212552 0.7288340667999285)
(0.001118529827437426 0.000462376708552027 -0.0007933963016563701)
(5.112943587225198 -2.35057874543608 -6.132012537105726)
(-2.612670604734673 0.3894767518520239 -6.576293878915299)
(1.637145347121684 -56.45591380323304 -6.704961621157633)
(9.189864415221154e-05 2.601100572706692e-05 -1.628620098798943e-05)
(3.040306511031817 -8.114658290606448 -5.268043712528154)
(-0.6530877602630132 -11.53283804144872 -71.86568256593569)
(0.000110703791660141 6.134662789787186e-05 0.0002196726346195174)
(-0.0001177932403080539 -7.259629724430748e-05 -8.30085529248619e-05)
(0.002368597654447932 0.01537407336879874 0.02464954608266426)
(0.940124557885365 -4.772030076441523 -53.28126506298412)
(-2.039357290246541e-05 2.661947958185107e-05 3.29663493038936e-05)
(0.0002458850481155002 0.0002445189690336931 -0.0005744402158593225)
(0.0001239231711482072 5.036806008101863e-05 -7.054565178051691e-05)
(-9.473831815142425 -11.56233265220174 -4.420080341330773)
(-3.490961664088387 4.188118761397447 -6.512022400455598)
(0.0001229847948060665 8.838012194879982e-05 -0.001400923390217003)
(-7.118492272633901e-05 -3.940224971005594e-05 7.432271114645345e-05)
(3.376195707077252e-05 -1.221750302792235e-05 -4.14874929973782e-06)
(-1.6964775593718e-05 -3.729712093402648e-05 4.593277656718135e-05)
(0.0006442681734309178 0.0006491827168610192 -0.0004558171723395505)
(-0.0006705743177046584 0.0004511669334574477 4.605533420526023e-05)
(-0.002117572998640862 0.001554896537072872 -0.0001037394166170147)
(-7.20502487317693e-05 0.0002533761764441199 0.001060213920380238)
(1.008354151055821 9.630732727380874 -3.849243410231511)
(-0.0001223679779424325 0.001546050600114424 0.0009655767782487029)
(-3.115472480515064 4.603595008120978 -57.47426245904992)
(3.742252249898892e-05 0.0001467846831981404 -6.139194119965651e-05)
(-3.934814823153716 62.85426109013374 1.186093491515477)
(-3.720719780274606 78.46208907966111 -10.77191357196132)
(0.0002824437810424828 -0.0001710517881269762 -0.0001231107170312313)
(-2.272511776431511 1.294351014093346 -1.47776307100514)
(0.0003007145640458286 -0.0003676868676169443 -0.0004918330924947058)
(-0.0005908408886026866 0.002675599025996929 0.001290408385244015)
(-0.0002979137626606777 0.0007216879870418299 -0.000586833173086783)
(0.0005352202413137437 -0.008590481612181714 0.01292824823528026)
(-8.892389135470864 50.72063559708129 -1.788285092822505)
(-0.000266973209301848 0.000145450293635974 0.0003294049234931591)
(1.224666733484008e-05 2.696644922447962e-05 1.342379530644648e-05)
(0.001919260947356067 0.001067228219384425 -9.108956660767471e-05)
(6.101697149991246 -3.588053915216417 -5.13121630200177)
(1.627561694125063e-05 -0.0001092851193814975 0.0001487799855270956)
(-2.613408799297596e-05 -2.848366335763276e-06 -2.360947160845046e-05)
(-6.6288726623597e-06 7.739687066767004e-06 3.222114258900221e-05)
(-2.457158459175957e-06 -2.489015630538749e-05 5.401594281558085e-05)
(0.0001029697942995161 1.776733421753096e-05 -1.708561476899681e-06)
(-0.001429435187534652 -0.0001928801723679589 9.213465074306825e-05)
(0.02851722801941686 -0.02620055737015636 0.005167121643640021)
(7.756431318799844e-06 1.029317601182611e-05 1.460192027178461e-06)
(0.01719637063557608 -0.0110267894859877 -0.006286614004324283)
(8.286965029965123e-05 -0.0002341738354650354 0.0001024948531886871)
(0.001563014878666228 -0.0001734743686400602 0.01009899929722506)
(0.0009884780782831496 0.003288723045823989 0.009147929121511042)
(-3.043631420235991e-05 -1.086105233203609e-05 -5.061098947279202e-05)
(0.007623642022893073 -0.001294225386161201 -0.007535633951850211)
(-0.0001506233099040848 7.219424659335975e-05 -0.0001126073451352128)
(0.001505398622358611 0.004176252068583774 -0.009864072708538283)
(0.00038356864949909 0.0004650890878282656 0.001736755490805869)
(-0.000167588565805665 0.0006300382475980654 3.260345923987079e-05)
(0.001272553719608036 -0.003978951651638811 0.009442218821080289)
(-8.646026061131371e-05 -5.392372997187391e-05 -0.0002179029025082311)
(-5.842440064793464e-05 -2.91435913972716e-05 -6.313512068806306e-05)
(-0.0002426269767876856 -0.0005914680298274164 0.000614448972998817)
(5.261933519835066 15.83026844508236 5.335383257426392)
(1.951538474098005e-05 5.015643370756215e-06 3.054715378345032e-05)
(2.05902023617527e-05 -4.647723894683255e-06 -2.94664915378494e-05)
(6.935506025701115e-05 -0.0001535860792268714 1.304240397161197e-05)
(0.08797287626917163 0.03318537703442714 0.05790938632996467)
(-3.236287142086451e-05 5.441764453280979e-05 -6.566887206389073e-05)
(5.682193474170073e-05 4.245203993605806e-05 -0.0001129452170600433)
(-1.111524722555474e-05 7.355030171395327e-06 2.760623630512281e-05)
(-0.001183539017554233 0.009185895759138049 -0.004663815692707647)
(8.057981821788453e-05 3.437163360997067e-05 3.350007081383829e-05)
(-3.127056115001238e-05 2.800967844490383e-05 1.423118937273302e-05)
(0.0001398923597614049 0.0001566618849315012 -0.0001199093748448135)
(-0.2000093893562408 -0.07018463331732254 0.009637943798171393)
(-6.478632409713671e-05 -5.598879929142285e-05 6.487591174293655e-07)
(4.123480763023336e-05 -3.648181709838798e-05 5.544189753115721e-05)
(2.055579238211189e-05 4.479850063144926e-05 -5.29857961388598e-05)
(4.827755875264264e-05 1.778457249636203e-05 2.887141307279687e-05)
(-1.27955106976112e-05 2.31643244648922e-05 1.105932127411135e-05)
(-3.246937300454153e-05 -3.103011484736115e-05 -4.731274339790317e-06)
(3.088697403995651e-05 -4.520156431776266e-05 5.349395927031021e-05)
(6.763818330001613e-05 3.189189203373716e-05 -0.0001412788211047865)
(-6.265317793239844e-05 -2.842722597054483e-05 6.72055731677896e-05)
(7.33705979547971e-06 3.239268479658692e-05 -6.9985587152552e-06)
(5.644713049270657e-05 -4.99128588529127e-07 1.583310079537991e-05)
(-2.935687033280109e-05 -5.049011312442938e-06 -0.0001048068700235739)
(-0.00016906340215917 0.0001049087555691259 0.0001651466994770669)
(0.0006571108156959892 0.001644643320142068 0.000895262425248126)
(-0.0003058240432883456 -6.114119974108869e-05 -6.939083089158574e-05)
(0.0008900075231531505 -0.0004465251557912935 -1.709765954722065e-05)
(0.0001159725438689863 0.0001136427612723889 4.883071603627702e-05)
(-5.195358874835458e-05 -3.797588530699727e-05 2.248655120166707e-05)
(0.0004688965841362721 -0.0003282669228213751 6.298514530988924e-05)
(-0.0001812081177253898 -0.01732295958512667 0.002027589798748851)
(0.0005175873694807718 0.0007123194515661836 -1.71227333744908e-06)
(0.06901653121553186 -0.005503037488661294 -0.001910410281483761)
(5.315816508797655e-05 -1.767063849215253e-05 1.442997087605649e-05)
(0.009981457356010318 -0.01363835051644689 -0.01480458972795444)
(6.113742181281689e-05 -0.0001263193934738128 -1.579261010342724e-05)
(-0.003503381384717077 0.00180313442094083 -0.0001027058467615812)
(5.361337935918636e-05 -1.164801231686514e-05 1.971096563079922e-05)
(0.0001812325367767681 -6.158598536633345e-05 8.516979030244595e-06)
(0.05396686905156345 0.006856449547224426 0.02372687297185182)
(-2.576811558881003e-05 2.226434680246812e-05 2.863199623411555e-05)
(-0.0001257373127130166 5.54046521302922e-05 -0.0001425945300400766)
(-0.0001082115773895041 4.748286772645157e-06 3.84207160488121e-05)
(6.73387010012636e-06 7.458218300021319e-05 -5.641522896102524e-05)
(-5.190755946539575e-05 -2.716924787305279e-05 1.24153149347683e-05)
(-0.001394763103924767 0.00199369812650902 0.0006644549935755966)
(-5.672845689733803e-06 8.137820703509651e-05 0.0001161921630802074)
(3.230743011883991e-05 1.543214469776752e-05 0.0001131829855651934)
(3.954446900198383e-05 -4.338997023102965e-06 -2.617016987934653e-06)
(0.0001143152874063378 6.390579631226537e-05 3.887259514999386e-05)
(0.0003554608119933561 -0.0002125869406767704 0.0001465515556612903)
(0.0681569516779412 -0.04127103240303077 0.06316035895950646)
(1.552784815416594e-05 -5.597029670850657e-05 -5.811971870012367e-06)
(1.591090508364907e-05 -3.26672798407459e-05 -1.490421702859913e-05)
(2.345058915492426e-05 4.552816820999036e-05 4.040018621347351e-05)