/*--------------------------------*- C++ -*----------------------------------*\
| =========                 |                                                 |
| \\      /  F ield         | OpenFOAM: The Open Source CFD Toolbox           |
|  \\    /   O peration     | Version:  v1906                                 |
|   \\  /    A nd           | Web:      www.OpenFOAM.com                      |
|    \\/     M anipulation  |                                                 |
\*---------------------------------------------------------------------------*/
FoamFile
{
    version     2.0;
    format      ascii;
    class       volScalarField;
    location    "0.1";
    object      p;
}
// * * * * * * * * * * * * * * * * * * * * * * * * * * * * * * * * * * * * * //

dimensions      [0 2 -2 0 0 0 0];


internalField   nonuniform List<scalar> 
19631
(
-0.01922645468622548
0.1630133921745784
0.1779703775931193
0.880471710539399
0.2706797074255576
-0.2514773524961589
0.1400746369071139
-0.3495935226353423
-0.3735909493761761
-0.006091898498632676
0.4615968773699488
-0.1848717965505089
0.4862025777456559
-0.199157743818699
0.05005457683683729
0.3166311063779274
-0.1960115267445795
-1.034940003076422
-0.482846588972521
-0.6516142066739129
0.06967943687082913
-0.1552592897449497
2.69154234149689
0.03261754626856353
-0.1502496259905928
0.1168434608201614
-0.2099999772718359
-0.717239914792047
-0.01699401762311917
-0.01002005491983315
-0.1310812051220613
-0.1417439097948807
0.08310895024973433
0.07786779514973974
2.198495264496374
3.196352422766202
0.06353523520304942
0.1514020427030147
-0.3778827611615223
0.2774314585978582
-0.9495375495396008
0.04931994253928778
0.0567421458497024
0.2220710189412082
-0.2446059944658327
0.2519214818480252
0.08803224623629632
0.07469084650730398
0.0001347341179331531
-0.1754616661033079
-0.02789698020426637
-0.1315357233106563
-0.1699357117798247
-0.1553285459280355
0.1323097468713448
-0.03868065740773884
-0.2054845465479941
-0.193190004271041
-1.416859743485175
0.01237197931641803
-0.01511137060178893
-0.6506013161054883
-0.4293261739212849
0.1023119829385002
-0.1470910527497315
-0.4947851848659149
-0.1462156240857923
-0.1593092657662067
0.5745695950231705
-0.01249308490334119
0.005780403019812344
1.466479880757401
0.158164215012538
-0.1598477065661223
-0.1526275201172619
0.4954327352550464
0.0967564667295369
0.05943181543020126
0.606576859007213
-3.141626970655785
0.08181265979092787
0.1225158062813036
0.5360827125913218
-0.6299191729558872
-0.2860588768995606
0.2938678878378971
-0.1690188331644674
0.2148078931134398
0.7815379771674392
0.02775064166416618
0.3739776195899815
-0.1439617954922439
-0.1474003340123537
-0.1808945116973548
-0.2803096037379277
-2.259776325120572
0.01777117690652794
-0.3473666502883682
-0.194890819857787
-0.1280672788182684
-0.1612454584687266
0.09706569115502155
-0.3586413495368627
0.03536607523067593
-0.2832649004908603
-0.2259013511932127
-0.8454235156217065
-0.1136546310908927
-0.1205133287593535
-0.2946248271944722
0.2790129065982047
-0.8283764577905184
-0.2014402606682119
0.9932454523270491
-0.04990407013087465
-0.318225679364055
-1.284578313208528
-0.1880783614624984
-0.4053227260471007
-0.201639905743268
-0.1768021599530349
-0.1853984598271105
-0.1958015793404763
-0.2757609771145432
-0.1664607795171767
-0.1377297467521514
0.5687486382912609
-0.1941306976822618
-0.02522997405853533
0.1513500353747676
-0.1067988601180605
0.09023957729223638
-0.2539545318379454
-0.5188245187173502
0.09600600980640578
-1.640036387887662
-0.1430848498716243
-0.2398514536327945
-0.6003624437859392
-0.09979361503152998
-0.4149293468708777
-0.325005356985086
-0.01042083607817316
0.04340136177247803
-0.1520070534776065
-0.4129960006332818
-0.08013062425022356
0.0277949809943932
0.09857215933635485
0.3278641891910843
-0.144848266422429
-0.1093444055021143
-0.09531008750474512
-0.135384353665037
-0.09278061398532757
0.03348178933259564
0.1111313689018496
0.05567375479957785
-0.1078078266790177
-0.01268501408227149
-0.1297694041898852
0.1028523877530531
-0.1431869167763886
-0.1783417819702841
0.06600366019985963
0.1145611277263195
-0.215443375888761
-0.1208652994019545
-0.4512632253359895
-0.01167616256868255
-0.2869551295174141
-0.1951910695753491
-0.2159308709591256
-0.1518803632806493
-0.1101429411059127
-0.1926778864902646
0.03900177803530033
-0.1322775507972626
-0.0880190544047422
-0.6149034903184568
-0.2008458489097838
0.01401743883439287
0.02077060804352378
0.177160737928109
-0.004900441717954583
0.03020556661262369
0.04242580540199165
-0.1925773949917801
-0.1803359837471093
-0.1299182317761396
-0.1282746571079945
0.07898702739443972
0.2326923246211775
0.09943041007447698
-0.1701907204872849
1.144920884311003
-0.1702929575737379
0.06430108221029818
0.407283131289428
0.3323769869885556
-0.2099562083754732
-0.1935077855181538
0.2080475887177085
-0.2251876727225355
0.02791117016688708
-0.2113794367174559
-0.1798266366931877
-0.1789691530232269
0.06457520809206307
-0.166186675124796
0.1874044279352499
-0.1936200379725331
0.01387483033499873
-0.00476552351279532
-0.04791201086867259
-0.004791491274694317
-0.01331431387645882
0.02007300501796557
-0.008202199714168332
-0.007522258539559438
0.01775507439902121
0.1858867439976595
0.3245779533838022
0.05465791159667035
-0.04946062112843016
0.2543980467292514
0.01271973837532494
0.01460558049649517
0.8303928345104797
0.2170677494866341
0.1720054795011899
-2.801935975080089
-3.09586377477709
-0.3535596844482691
0.05207514442292015
-0.2803029787898599
1.229345079845192
-0.3340993438377005
0.0569928156828208
-0.3567795718415152
0.1114700537529104
-0.2332029035341276
0.05056658963452971
0.06703362274754007
0.07794977839088649
0.137968908459401
0.09822598971996453
0.01233210088797106
-0.3001214682024371
-0.01923590864714674
-0.3025152110203049
-0.4622478479152965
0.2608147315928139
-0.1532322317218834
0.08958374954110536
1.320732457987417
-0.1463684933011969
0.1393799784820263
-0.2919807056542034
-0.07690335609044717
0.1780712567216372
-0.2511658848149076
-0.2649443074994286
0.2423845455479603
0.01282732544024305
0.0878366657085386
0.2946060177916545
-0.1905121543957977
0.3478363719873453
-0.05091397234978114
-0.04613692435796311
0.1784679585178308
0.1341897149786661
0.02902289246113919
-0.4877306333930914
0.165212348713754
0.1457444149814922
0.1090423565759356
-0.3650786901020258
0.0306714025389985
-0.1429335380920883
0.1533214781752183
0.04083876569251559
1.005986014874716
-0.3502240715851592
-0.8450142152210746
-3.568681464836216
0.3040681987893158
-0.1008343473138942
-0.2212728868528993
-0.1918349753746019
0.2193423400193458
0.2527748071963796
2.308951351438304
-0.2815648540199281
0.05155497943998338
-0.212827453927971
-0.1082194529261608
0.2698513851846084
0.5880692334898354
-0.2660826394772963
0.02969030418342065
-0.1541934009070252
0.1996895725356781
0.676165986317678
-0.02578749653919662
-0.3644500860824836
-0.1855007665872049
-0.03052199656586978
0.5504670128041188
0.1229776399371959
0.03388811251611622
0.0057328423750251
0.2692362369851415
0.02305420939408922
-0.3645728906013143
0.09988189375947845
-0.3890177658498899
-0.3076666682550731
0.01260131766730246
-0.2843347086427542
-0.2505436662050431
-0.1740845517096732
-0.269639730980483
0.2268586935601252
0.105517602444736
0.1442405240459605
0.1005059168514102
0.1160371158989569
0.05130877842657685
-0.3700395174814207
-0.2277073512061589
-0.3222039853880887
-0.0825985105633443
0.529379204921276
0.01278148852249088
0.03430977678768019
-0.3783504891114031
-0.007871050975048264
0.08689405778977331
2.044176807730726
-0.2045635359524948
0.08680598774674701
-1.399826453127682
-0.181573320505836
0.08070485155568245
-0.2536604684280876
-0.1630803785391974
0.05530633569759393
-0.008672810224898353
-0.1127937774450397
0.07882938624937073
-0.04212194995746959
-0.09625533506164152
-0.03935182273506304
0.0458499518868422
-0.004879570693348516
-0.2699818910577901
0.5139725293405106
-0.2891760114357299
-0.1816383984995426
-0.4273654575546528
-0.6535297500892524
-0.0833226192978624
-0.08486523160539829
-1.20713582298976
0.1229517362506952
-0.1256674378614252
-0.6848118615161058
0.3885880626213689
-0.04461088767145963
0.09554963246839561
-0.1015785201558025
0.03589984387679786
-0.1525133088681251
0.01937043934510944
-0.02058103519125777
-0.001634378533004835
0.06094854998555221
0.1940822454820637
-1.196781964433399
-0.05567000430436898
-0.1461902330292295
-0.1177187200979453
0.1230744797512255
-0.1372788115077239
-0.4412407219183084
-0.3022417021789522
-0.3597558014633309
0.07816685027451084
0.1894109785894742
0.188206698759338
0.03875598648747657
0.08551049249217874
0.03325430883926814
-0.001829080063486999
0.06470678956201854
-0.3586194317800622
0.0765185478267443
-0.2541718082274224
0.3437658195441075
-0.03084021664502103
0.2295577895270774
-0.18666923184954
-0.1977690121094959
-0.03917417633885537
0.01547741494629146
-0.0252101534223439
0.2119631536242171
-0.01861822749989001
0.06601931295912164
0.7653915470425007
0.0828975379747135
0.455161903356547
-0.007139837377173979
0.05963145815935503
-1.126083253463639
-0.07046721187222668
0.04393717998287854
-0.09876726228007338
9.985084340067099
0.06836899125927133
0.02966345432119584
-0.3148870138874376
0.04288286073410896
-0.3411398522530471
0.4311390428250773
0.3777181950027374
-0.1617246061139677
0.03100394121862234
0.01984262613061128
-0.05676417136067687
-0.05036725582829842
0.03079970303662469
-0.9620029277108884
0.1017929332389845
-0.2221143917352729
0.3429550239355808
0.04955875190313295
-0.01770898762751745
0.4168621660974843
0.4440864395349296
-0.1345678968378956
-0.253979446173254
-0.2729047624508217
0.8846658591893261
-0.3854504753334205
-0.1750499279892013
-0.3698744152931864
-0.3998278741984748
0.2057680641639433
-0.07769698225075336
0.1339549336039366
-0.133537036703644
0.0052569143753973
0.08638020370693773
0.171348722795241
0.3700074197382782
1.574336232283111
-0.03248083348910059
-0.1336625735191037
-0.3583761923411731
-0.3158726472344483
0.008711042209578121
-0.3010329998321875
-0.171258851960633
-0.1598573106909058
-0.2700311504394812
2.109380781524196
0.8452200700138643
0.06039931552955207
-0.3691469946296182
0.1653881938967807
0.01562052967669407
0.2925094245432577
-0.04771713384306487
0.1468933417363451
-0.1280300224406039
0.01377027535324275
-1.292694253979684
0.1768736839591129
0.7083693596480174
-0.05854341933831891
-0.2088497497114297
1.244797766125657
0.03157390598583083
0.2534103997740311
-0.2932254597938843
-0.03522927261751731
0.1734500171435536
0.2421921349749116
0.02040091918428148
0.3755839616958226
-0.2347997837757728
-0.2572834978966692
-0.1906281750572473
0.0910205919854024
-0.1160368876536006
0.3875899397697939
1.103447138438407
-4.878810429492435e-05
-0.06075430446792485
0.4237740312735363
0.2832972380655082
0.8543831588193498
0.04984677756812601
0.08448566634128099
-2.795603765650739
-0.06429428735081512
-0.1407707147768462
-0.1484309005244853
0.07901579304579952
0.03494659714921972
-0.02989997437291466
-0.02291441907831234
-0.1028927295118493
0.3307052934218882
0.9468367125608724
-0.04164769457402135
-0.315428320117314
-0.166406146946765
0.06337987395662918
-1.838465345434822
0.06992967760391892
1.147767901153615
-0.4026672210740897
-0.09256054880912847
-0.3527387291094478
0.1594775641095387
-0.3258941139080813
-0.009530065343163899
1.873991302888846
4.415609159296133
-0.1985434060749539
-0.5052230430993818
-0.1914685443642815
-0.04295252099436599
0.2524630754266845
-0.346584780118746
-0.3955639133496998
0.06213376463418861
0.2506188231813037
-0.2927906712936307
0.01652187941323802
0.1700802630765761
-0.3420313087361309
-0.1121726670985601
-0.2474376181440406
-0.7286238988350858
0.314360973670808
0.8473143927840548
-0.02657871565325831
-0.003271021412559049
-0.8039674750238588
0.02011688981808166
-0.3019085277473009
-0.2531643518221717
-7.092014296055245
0.04513586328260428
-0.2765985545134168
-0.5814473715783506
-0.2269119938858704
-1.024341593217177
-0.1703377461587383
-0.3767863501891837
-0.8741701721351931
-0.2970879603207728
-0.1294075614304753
-1.074427697243425
-0.1557913966186555
0.1455872618344834
-0.211794892997467
0.1624345768700045
0.2203614985383085
-0.3367290780568525
0.01298415373260037
-0.06087558950961157
-0.5079247758965609
0.1816246172081971
2.20479121811041
0.7567679654026481
0.2511811505108197
-0.5066995199422007
0.7600088007442749
-0.1193074671720608
-0.3407398611858822
2.080547635870915
-0.2487152672473406
0.1925578562986308
-0.08950325241252069
-0.3669936790594812
-0.5022538811934693
-0.5644883641309375
-0.141895240097865
-0.3711427403137094
-0.1909372890190816
-1.123488460509638
0.09814181287333158
0.07741282174766859
0.0001397120796049248
-0.09690446135283991
0.08457214797999162
-0.01582072918126302
0.03686257300954993
0.9723527314493169
-0.1806947810208179
0.8462750564657023
-0.2376888541534465
-1.099238180346158
-0.202634435575369
-0.2407469170001464
0.5728946503351938
1.136696356335949
-0.01185652880276965
-0.03316824440812124
-0.4752870851155034
-1.358173124688927
-0.01770137602037862
-0.1031153114615098
0.7380442163286606
0.009320402768158403
0.01248103938455732
0.007369562969302739
2.177512447290492
0.05368539607471264
0.07059032713632861
0.319958503483891
-0.1945856706119159
0.1590717511420192
0.05172298212621403
0.1793675234446321
0.1901261776167105
0.1538250376053763
2.527934321717071
-0.1297645034178997
-0.1161161833798441
0.0137786422103276
-0.5385981348505681
0.1389777367662217
-0.1123822149937639
-0.1057457254428264
0.1743723486122871
0.1692127330040142
-0.2610151883937139
-0.9509272001868018
-0.5466701131385819
0.4257462573161177
0.4170026720964227
0.3084550856838842
0.4731193610860681
-1.695596155328853
-0.06982804778626801
-0.171299050064328
0.9180524323897455
1.167916305974127
0.03478168364319002
-0.1334560380115868
0.2955425028055504
-2.055106053349126
-0.177309210190876
-1.173087814561986
0.05519593933843946
-0.1617737965399725
-0.5180383138274686
-0.1563173371100937
-0.06115494432220832
-0.2082953837387931
0.1746313208185814
-0.03768229912290837
-1.289330617962556
-0.1580075363596575
-0.1244993516113198
-0.1530865334279058
-0.04016402061879232
0.8514508211836924
-0.2500862779759391
-0.2794022173610249
-0.1469983990456027
-0.004046884153701293
-0.2575199031604484
0.1161207443798353
-0.11793318029535
-0.3570767781286547
-0.9017059916136663
-0.1570106309182699
-0.4717679716895405
0.06691589771120941
0.07154554358553598
0.06618367413143937
0.07115792261087275
0.06064594520601204
0.1364578484656868
-0.3481835252248499
-0.1442213414981902
0.2370537683038662
-0.02012121447650777
0.2629312304657714
-0.5451101062707836
-0.2002669472298344
-0.03751932075319774
-0.1647324526134263
-0.2938728478341256
0.2662486676478799
0.1069460970171369
-0.2450835494556588
0.002783914036036959
-0.01667122493252477
-0.03804755104569563
-0.305557913190886
-0.06868568042797092
-0.648416350830921
-0.2706694547174788
-0.3280620035361952
-0.105441289282946
-0.770809254904025
-0.1960893317984784
-0.1184473401943444
-0.2781666809290965
0.7785293978411202
-0.09307585074927845
-0.3870268006354201
0.03149358398071941
-0.05628426169254516
0.04775512703353222
-0.007861989769838866
-0.06425215821270805
-0.09563133598735825
-0.8095420696580438
-0.2931187243799837
-0.03391300298630751
0.2078022043743086
-0.1501701578356309
-0.5558879088364694
-0.2482767908716716
-0.1242686739725405
-0.1557236840026155
0.9718128302365341
-0.210160879053352
-0.2229117928314086
-0.002960469788141067
-0.353227406303817
0.01438879076255795
0.01601520253414658
0.183893590708344
-0.3772997838771348
-0.2085739527123098
-0.2562486313628711
-0.1737796476239659
-0.1632038336362246
-0.2098796055005991
-0.03273708105470072
-0.1952605316971477
-0.4278569701676302
-0.228343239937638
-0.3606654834013596
0.01244836162757049
-0.3880991961337659
-0.3525363211736234
-0.3447570285977803
-0.3689683441124872
-0.273935150399121
-0.2684149447637497
-0.2603537305646882
-0.0759310519445376
-0.1388210478386226
-0.2245699169681526
0.07532231542862929
-0.1775401070745555
-0.1126688921473203
-0.6516634388758982
0.7487860260092102
-0.03499089533083641
0.02580093494227658
-0.7748689723776578
-0.5696791413034958
-0.004944909769159254
-0.2656281566734985
0.008228573477715103
-0.3326206155536736
-0.03839057646517254
0.4760003020316371
-0.59243205770969
-0.2208325546176488
0.1773807116893759
-0.3514596993915487
-0.3270401105136605
-0.5378697508001178
0.1519218780224846
-0.501241662206811
-0.01256468941524369
-0.5803437338463994
0.1347898886635812
-0.3074356798943283
-0.1326180465767633
0.177243621345637
-0.1258972021026167
-0.1117291699528498
-0.2905400081003437
-0.4362462681604165
-0.9036262094892171
-0.1934762798187854
-0.09153541761171953
0.5259278958864048
-0.5982084846181536
-0.5399876467438391
0.1639994297991248
-0.1310535808656006
-0.0132792154551284
-0.1161830362111036
0.02035350811353764
-0.09394413584159951
0.03385194490606319
-0.3248268722779817
0.6480762654003043
-0.0633295851204594
-0.04403341256586047
-0.3756692103519792
-0.5854254495748955
-0.2694738631822298
-0.5502962637093911
0.07865819240151224
-0.4618984664033642
0.5600696045909441
-0.256594360340877
-0.5295688516884264
-0.2511191536083634
-0.4775803234434263
0.2668915395510021
-0.2996321365101124
-0.08446112737913299
0.02773730470330787
-0.02717553611528015
-0.008510716804763051
0.04938275156604244
0.01574899127060182
0.01827018038776887
-0.1831328728805703
-0.1344296189986671
-0.2933275964589913
-0.01129225181814189
0.9493868858689315
-0.3257559259572367
-0.2962077967662608
-0.2643965815016919
-0.3034837751374502
0.02037396470578592
-0.30858194398629
-0.228817885181106
-0.01277706677411401
-0.2472164183298481
0.2887165577084871
-0.1040052444438734
0.01905635899347256
-0.5029018424171907
-0.7054585419013992
0.09748356388289778
-0.3224300341601946
0.6106958470925079
-0.1217482353402976
-0.3178343534958962
-0.08270488646013316
-0.01810693171043404
-0.09301872778439932
-0.4951858337540467
-0.05158024128971356
-0.3101639865219336
-0.2501440178216714
-0.2575526495539808
0.3421194777590688
0.1487705357028098
-0.6770872659758915
-0.232812850977171
0.1892819854262897
-0.1608955908009851
-0.2949857483718558
-0.3092630385941225
0.1992779201834775
0.3006163783564825
-0.2630538319052401
1.148277564289708
-0.04600120068676246
0.7084439537654773
-0.7021403875765438
-0.3710817844361294
-0.1824477370502556
0.568637783835268
-0.07927784491254243
-0.405860956580273
-0.6104985132658876
0.7932722145681127
-0.2571525762470906
-0.02691011453891436
-0.4748857255062255
-0.238773097546376
-0.3643424844112912
-0.335078019242525
-0.1099799956924982
-0.3487555182221003
-0.495234467908965
0.8944812084511655
-0.248188273936425
-0.3873378795239181
0.01942293887857721
-0.1737905156144216
-0.01438303798751003
-0.2892474679703201
-0.01114208772967652
-0.3067620306637868
0.6939870131245768
-0.2468633045035479
-0.1027508328997589
-0.213295737693293
-0.5918721005037015
0.1929271625230472
-0.03825959725166778
-0.428191333699195
-0.5494499305544353
-0.2844013267467976
-0.8068262053327195
1.403207093359917
-0.399436880132085
-0.2828395544373665
-0.7450792825982622
-0.006261536342786789
2.093762601845699
-0.3932536234900664
-0.5023106140751303
0.09584261662690399
-0.4037411357760905
-0.4941165267117754
0.08473330203304594
-0.1422684268703744
0.1435959209193322
1.572655072768552
0.1098515247733176
-0.3292060349837013
-0.1668503572480364
0.08490602488473295
-0.031173673057798
-0.143339904914787
-0.3564716428148515
0.09928923079233502
0.01913777298850662
-0.2690644526877613
-0.04174805835735267
-0.1129011208691781
0.830946207527019
-0.2988801116564251
0.2204874280896441
0.5104104917319645
-0.007300504789289489
-0.09794602004895951
-0.04848024603654286
0.5436697103938479
-0.2966197701651633
0.6222085300889353
-0.3680315394668593
0.7844917780184897
-0.2402148087184301
-0.1804541878135137
-0.1713390524146292
-0.2246546902324964
-0.07758665595544008
0.01765046697053618
0.9641495874585252
-0.2844285938255987
-1.19558019452895
0.7323623566243181
-0.2109688668130016
0.3844105539429829
0.3571521273104766
0.2257480253257011
-0.4468552501710874
-0.2604484609683611
-0.2409753735118886
-0.3887642912781801
0.4815788219826195
-0.388858760917367
-0.2717949390941616
-0.3820612503825891
-1.868614132918304
0.03299448364862865
-0.08244439698909432
-0.2385714444515451
-1.499819414582361
-1.592027180896874
-1.998680733148132
-0.1636440100835896
-0.1000421323709684
0.4132372303027251
-0.7232144493987401
-0.4898428481411519
-0.1464222152006049
-1.746660735884323
-0.08208152474628531
-0.1266987840321478
-0.0676121990867263
0.2283723611114181
-0.699652454241604
-0.143624134228182
0.09540358075155381
0.05461400123151073
-0.1974117352042669
-0.4383465991674007
-0.2319668017220104
-0.3381470757476032
0.06369040668803361
-0.3958926714780912
0.01743442054292338
0.1426777169318013
0.08005755196963248
0.01403808949214745
-0.2968400897904395
0.143612288781662
0.1250579941094973
-0.7324571064577694
-1.324158288867156
1.616936855553935
-1.221681011872574
-2.261630826203914
0.2468590424048201
-0.1202485627770715
0.4476934486883932
0.2910875039738687
-0.4428488374843799
-0.3548722007732643
-0.4526785223385476
-0.6911659427516614
-0.4421315277808395
1.496971679314568
0.1132707837583097
-0.206100345643813
1.89220767034612
0.1060867520451469
0.04947838520605095
0.2011775774698349
-0.2595675241459002
-0.01300358195639505
0.1929436577852782
0.9298381362886169
0.1838227206213585
0.1784341505491892
0.2199521753338077
-0.4856391054741974
0.05048743332016732
-0.7468552877961132
-0.5176294966566354
0.05090925148267388
0.1149121421055529
-0.1408778288439095
-0.06247922472179889
-0.02271092491867769
-0.01888194217274537
0.1910521624315046
0.1426034742971046
-0.1624485701457006
-0.2358957214222567
0.2431885125621425
0.3199721317892794
-0.1695488971436244
0.3304514552758707
0.4219586513292569
1.12283031918518
-0.9344885337228327
1.771472454787245
0.3072530065880942
1.031406144434283
1.924701225704172
0.0204472010378454
0.1088721260775958
0.2091482538781585
3.888593479552067
3.443955815013027
-0.9887298521839822
3.337195299681188
3.631658809680524
3.131636999314074
0.4950986495534496
0.1921877491394578
-0.2496204437803548
-0.5136430735516916
2.935897234178087
0.03871180096663896
3.332187842154054
-0.0898482002228671
0.04850836468178343
0.0445013775928722
0.04527340341808641
0.04477669578880433
0.08143661096933316
0.0823102297709576
0.0936771628441133
0.09383111955442446
0.09853869161675287
0.3181506529008605
0.07744224133830599
3.486246400860385
-0.1929999026455241
2.84097420918212
0.0247316790488722
3.111472683553022
0.317046947034153
-0.9560677876699054
0.3586265829668537
-0.3995508730323815
0.06501536307592606
-1.78967890218682
0.426362497906404
0.4123713000727989
-0.0003786850080047445
0.3391583770282405
0.2248711967067947
0.2307813878629267
0.07583113621446341
0.09649199238417255
-8.703955499518596
0.147665516005857
0.2087408324648126
0.2391309931618648
0.1230004926172248
-2.65444464050868
0.06031872571453265
-2.440664872560756
-0.106092967493777
-0.855466024344862
-0.8434207049596186
-1.084988454605149
-0.07834616131520053
0.2520295085250776
0.3795380498614234
0.004819753364369193
-0.4218877546512466
0.3395955445161954
-0.2960364114897995
0.253761539694618
0.2550740646980131
-1.453295975580805
-0.07532696005528992
0.9671241345380761
0.05669155390605609
0.04872477083875893
0.9228514043906375
0.9183991170895414
0.2556514062735671
-0.5765009310534939
-0.2023110194200015
-0.0108354882252408
0.9374918367983369
-1.041137964837948
0.03933005345428015
0.8639502074603588
0.04346107499984313
0.666638750389578
0.03115931510291345
0.04586069871051975
0.2753180470365955
-0.08263376362757552
0.1141183621581356
-0.1330673098506606
0.1592882027854207
-0.06385083404318651
-0.6876581475786648
0.4343383528033826
0.2290833068674451
-0.1005654085192132
-0.04129386019215893
-0.7316060281341528
-0.008723464388210769
0.06136930810899642
0.2416919837007915
0.1686037089592067
-0.1984165077268943
0.06262118521452961
0.1506207059309763
0.1405103273127061
0.3217225464210546
0.1419316410645472
0.5758779684597402
-0.3964735951955854
-0.325107280787463
-0.1153491123474913
-0.2913713580418378
-0.5589348648005579
-0.6825409068740856
-0.3358498994783105
-0.3032856027711647
0.07183051748446154
-0.3438362880220683
0.1819556610064611
-0.5451221263458248
-0.8794763110149074
-0.8186012996888632
-0.212069701012871
0.06483748012809222
2.52166067832686
-0.4571986539076609
0.05079870684260799
-0.1122403995796544
-0.04886944519585133
0.06310619173686398
0.09587451772081265
-0.2631506356989263
-0.2093270441797901
-0.3424737798618501
0.1783230192915506
1.494507260065764
0.01392566452320112
-0.00907752551343056
-0.03828748546019067
-0.1473942676666814
-0.01697443731299736
0.04240505211278714
0.01771576297952857
-1.425064283976279
0.1122550569444308
0.3427974226076397
0.6222998918393914
-0.1544081114589244
-0.02645681499830609
-0.3352672171717151
-0.339934201111067
0.1101277333952128
0.2118408355786325
2.035214503058385
-0.008335866576275311
-0.003261214798673942
-0.0567391567055933
3.114922155237547
0.1473617454800371
0.009166886156681719
0.1529897713072352
-0.1128887252483583
0.1936435413745198
-0.02491544139256899
-0.1680923377985532
0.1750146477874306
-0.005643793646475975
0.2995693651178533
4.566800868373901
-0.0750500881333946
0.324419656563164
2.323303773793148
3.226210722339738
0.3435849903690587
0.4963087657065554
0.8374233179285674
-0.04322187672698625
0.1193722431218432
-0.04507106095816851
-0.06474458928671323
-0.1629274708108662
0.2746803652004297
-1.248926242557766
-0.03900802787903276
6.777243197878324
0.01726336842010395
0.3094188447501494
-0.1775223479174631
-0.373913697985001
0.3003046988209258
-0.01320999568156367
0.007970726158211035
8.346188227246413
0.6674254673129894
0.1924795721157192
0.08632661676109438
-0.1859631268508836
0.3646305341117216
0.2917010345591803
0.1045087123410829
1.077992772336201
-0.06714927691462755
-0.3103043124372573
-0.1552168346390624
3.846830484632231
0.7368698698353311
1.285707952835826
-0.1206995353557285
0.1152333167932844
-0.5879153910232635
-0.0964840232429232
-0.05346825573037303
0.6962209325226399
-0.1412354373744029
0.2856692111076093
0.1323359707034162
0.04118774903758665
0.2568578967347507
-0.1115951943017259
-0.1147536708686272
-0.1037736500939469
0.02154583164877719
-0.7498705888554857
0.1060393850139754
0.05418699672554596
-0.4782277865904748
-0.5230707315346272
0.9178346877510472
0.3016856625895539
0.0965548567999156
-0.1120062190001044
0.2662684409133
0.1214678451060416
0.03828499057527438
0.3419261370855783
0.3486313341731199
-0.7899123413341729
0.257290572254257
0.9309731416922129
-0.1035102048738859
-0.1878562678752739
-0.116408022081378
-0.2647948984064093
0.3427433844344131
-0.7202745181328799
1.870159376540027
-0.70865287093384
0.01265816886671176
-0.02336278083336914
-0.07468591837494128
-0.06912256979105606
0.1104853679704079
-0.09770070780692021
0.5272479984589022
-0.1317899743098965
-0.02938354019525528
-0.1411912448018059
1.09956120295151
0.1238297852752665
0.02289943510945048
-0.1119723005618235
0.0009448419648730107
0.2106418155056865
0.08902614125669917
-0.01723028305543113
0.04779359619924813
0.08561727032452922
0.2491667462148348
0.05308914922659513
0.05420526826759141
0.1055276871074821
1.428039231388086
0.1983386321284832
-0.3482812719904291
-0.2825807499245501
-0.07098588218542469
-0.2504427274527887
-0.145122340063351
-0.09919661745131872
-0.1354884495662148
-0.4068412993141009
-0.1377115476259352
0.06537577004742121
-0.08937233410235888
-0.07847009959858503
-0.0001462360943841751
0.09687880770890063
0.3545407633310479
0.02441664646282695
-5.062343968693557
-0.4402116039644907
-0.6992015159191121
0.0004298431965398618
-0.03509616512645724
-0.1425614005124476
0.001066761306066037
0.4040551025946825
-0.1169697645039729
0.6992001380864906
0.009772102343468278
0.04461119882599226
-0.006779505802713757
0.1914770728688703
0.1809705337462709
-0.2542922933858252
-0.3415304601564141
-0.04253619528150672
0.1068178118748345
0.1988934853229932
0.02375516884947352
0.2453075523962416
-0.1045705336983955
0.005464931064756926
-0.05608271033196003
-0.03885392019734965
-0.07563323770688092
0.1152589521775486
0.03011871203781129
-0.1444476062906525
0.03361137178882584
-0.1430997676120472
-0.1107344067214833
0.6168039977823874
0.9697901751380396
-0.4652384379638219
0.1363129122906605
0.1502142905046529
-0.02327218099106953
-0.1205428219224947
-0.3138485101153159
-0.2348798015272298
-0.02018919915276246
0.176761741919567
0.09690536369114421
-0.1437410138279636
-0.05328524289567352
-0.08568489378433405
0.02692292842120476
0.1786706683021624
-0.06479097126559438
-0.2981763628721821
0.180941585943851
-0.1777588294269659
0.2912663249476984
0.07391537577453014
-0.06639964450275672
-0.04676174305661069
-0.2242671972732873
0.05932764222172636
0.003836033234028778
0.06093170738634857
-0.04731346588803226
0.1624320106423234
-2.735646968874197
0.03699931541012791
0.6021206949729567
0.09979441353311583
-2.71123120720326
0.1162249610382435
0.03507237067498713
0.220083276338974
0.05591079140944417
0.05232816944814852
-0.25930431766138
-0.1459214151841699
-0.4087908883870491
0.04588596517688961
0.1497419594372395
-0.08287813105266713
-0.2496350708099018
-0.2989252429550712
-0.04379788542397976
1.102074456831089
-0.3289031966457155
0.03249353898481149
0.1548278168253367
0.09608188616527435
0.06458397744258737
-0.4019280179527315
-0.5744527203326846
-0.03318946305354888
-0.2402709852910073
0.4450967005548592
-0.03671365971616063
-0.1378615667821878
0.151613156249103
-0.405894151094252
0.1047489898814763
0.8308879620727175
-0.08459975226508717
0.2413106909501002
0.01756188214923854
-0.1023661511362749
0.101558419614978
1.87711867512494
0.01195466994543177
0.07317145839326876
-0.1775581009879416
-0.03103741532417462
0.07034924246213513
0.007120166085636507
-0.04133026068556309
0.01726069394834563
-0.02854365450430505
-0.111781762050175
1.75833089349323
-0.183477989353575
-0.0331089631052368