/*--------------------------------*- C++ -*----------------------------------*\
| =========                 |                                                 |
| \\      /  F ield         | OpenFOAM: The Open Source CFD Toolbox           |
|  \\    /   O peration     | Version:  v1906                                 |
|   \\  /    A nd           | Web:      www.OpenFOAM.com                      |
|    \\/     M anipulation  |                                                 |
\*---------------------------------------------------------------------------*/
FoamFile
{
    version     2.0;
    format      ascii;
    class       surfaceScalarField;
    location    "0.1";
    object      phi;
}
// * * * * * * * * * * * * * * * * * * * * * * * * * * * * * * * * * * * * * //

dimensions      [0 3 -1 0 0 0 0];
oriented        oriented;


internalField   nonuniform List<scalar> 
37423
(
-0.1101786013359185
0.4256325773008432
-0.4536350421079279
0.1381810661450383
11.00130712169744
4.810309185097747
-15.81161630677192
1.580904658147889
2.855188728469786
-1.480946199572604
-2.955147187055169
0.6945948152256278
-1.253138637213173
0.5585438219614697
0.1181110299604675
-0.1648542144731412
0.02813948479107959
0.01860369971647513
0.04731000199722821
0.1465563534766807
0.2996211531593975
-0.4934875086489821
9.166390785989591
-4.656087807937969
-10.85995623257945
6.349653254525673
-0.09738823521301532
0.1072677777286069
-0.009682371464970073
-0.0001971710583776352
-0.2222989610666221
-0.02027874280665858
0.4592157899977004
-0.2166380861311534
8.631518633843728
0.6853413365471293
-0.4788576076078365
-1.403590230908913
0.4526454435978158
1.42980239491202
0.2960067896120527
-0.5462809888669669
0.762007059241768
-0.5117328600153094
-1.141536000941622
1.416867446680122
-0.2753314457481384
-0.4543551573673172
0.4897506179487725
0.5997339179968486
-0.6351293786020091
-16.27768109498475
8.934513578650412
-0.06182019411768355
-0.0004066719100394799
-0.1177234315624786
0.1799502975834667
-0.4663261466395638
0.8067904621124858
-0.04445752587321115
0.2145884965362044
0.05337906192172261
-0.2003720116236931
-0.06759554684362216
0.1263043087695417
0.01806096326442419
-0.007352574769179484
-0.1370126972721434
-0.02630317713284633
0.06986043285944393
0.03372142402099117
-0.0772786797541016
-0.2153494287351132
0.3828076877866477
-0.4254327851321791
0.257974526074977
0.4069853761983325
0.6685356590696717
-0.261464923061628
-0.8140561122269919
-0.1235940393029704
0.129882214283703
-0.1137340917635749
0.107445916775099
14.78370172349659
-17.67326491519328
-6.368730018564627
9.258293210320485
0.5810987421685312
-0.06764807013561482
0.09158877074382585
-0.6050394427792882
-20.50949474360709
9.390722453074925
11.11877229053566
-0.1804394040130489
0.1302401105609325
-0.4161268531995931
0.112289780343773
-0.1136251995886973
-0.2242217244572647
0.2255571436952431
0.1714816210983513
0.0145021837111771
-0.1820492644950678
-0.003934540327039037
-4.256650015130277
-22.43663148023914
2.748063813328271
23.94521768212973
0.2101320139699167
0.3962107004740412
-0.1514616466018843
-0.4548810678521938
-0.08016453440921487
0.697281924572552
-0.01546630307005663
0.1084304607106896
-0.1058660796874325
0.01290192203941451
0.0626368116432785
-0.635466005583804
0.3315183830786633
0.2413108108430664
-0.0222475973942033
0.06664388946751144
0.0955280342181722
-0.1399243263051956
-0.03752017927527201
0.00855474862811002
0.1254468599278543
-0.09648142928563343
0.2771521887128522
21.68612336586702
-19.63989950449783
-2.323376050077488
1.175700302527601
-10.4217650836581
9.377431951104629
-0.1313671699291231
-0.0237590834957116
-0.04515717909195461
-0.1018140028433043
0.1707302654242578
1.639676591665552
-5.725221868229997
2.363684026995697
1.721861249530182
-0.1479793549849621
0.0140226440901817
0.1559382781850994
-0.02198156729463055
0.5505758986876468
-0.7014955880782703
0.1947043416637868
-0.0437846522788471
-20.99637950923508
3.667407228999383
7.162934222668325
10.16603805759784
-0.2180078525222371
-0.9266173875647501
0.9957054695213146
0.1489197705321501
0.3999881569261491
0.003662375132317242
-0.5463727376931686
0.1427222056350073
0.06234781177937788
0.6820886226587787
-0.07488779241908887
-0.6695486420381379
-3.605707718077872
-21.70355686241865
22.59573191083361
2.713532669669537
-0.9460379983891041
-0.6809447524536586
0.1812121997374566
1.44577055110364
0.5147589188554557
0.2467693257625925
-0.5162263829290151
-0.2453018616960735
0.4192870891508317
-0.1841435273343761
0.3664576577306426
-0.601601219556266
-1.051301427137052
-9.931805902484221
10.98310732967439
-0.6767513025975428
-2.828257842987851
1.164734944692788
2.340274200782695
-0.2445929617530421
0.5837155164924821
0.02714623284393829
0.2070878930448589
0.04739034503687097
-0.2816244709380931
-0.1321345474271012
0.04292899456657047
0.1113661377282627
-0.02216058487546094
-0.533789026266883
-0.09331467566200827
0.1060175778242008
0.5210861240768646
-0.09234532624369242
0.5871352392806057
-0.8587761441244572
0.3639862310768807
0.2600899784985652
-0.07959104272191272
-0.03562634284485439
0.01284360709851587
0.1023737784640955
-3.216799917810628
-0.5581362596933619
-3.056275339253356
7.243119524905421
0.07500198918177239
0.05729024323548638
-0.0471985454679734
-0.08509368695404604
-0.008816185701580973
-0.1086073914619217
-0.005211273121763712
0.1226348502815601
0.3869300893838848
-0.3764139073162294
-0.1328372167399319
0.1223210346567547
-0.3119682661160725
-0.1587542432710884
1.139258168438106
0.0318210802460162
-0.1341135873913467
0.01225536699990213
0.09003714013626814
0.114423702276554
-0.2962461677124513
-0.1579879389703048
0.3398104043996795
0.334394952522781
-0.7800034029312234
0.2165331612590503
0.3700609586743672
-1.150034214917897
0.5634400949701515
-8.535207506443339
3.965183352598207
-4.769891491768238
0.08300309244667269
-0.04811338913984756
0.01832224920290346
-0.05321195251974307
-2.395934586045309
1.032195329626198
1.105539219928828
0.2582000364720964
-0.5245169203033982
0.5300124883115784
0.09178068065186668
-0.09727624867786856
0.01349326449105567
-0.2771244913013159
-0.3610776225834381
0.6247088493913733
0.1130749046568745
0.07757542258861096
-0.1519304089031253
-0.0387199183538021
1.675521006234497
2.979987635744379
-0.9556522368735446
-3.699856405172517
-0.007656613020379005
-0.3974322078214932
0.7135446384745886
-0.3084558176639616
0.6674509329978032
-2.027205820282134
0.4033834534666811
0.9563714337944943
-0.0541019676061356
0.03405802303768708
0.02004394456416751
13.8336718402916
-1.118463064559684
4.762897487253871
-17.47810626295261
0.7313593356238601
0.07409720329306907
-0.006880563338534199
-0.7985759755882982
-0.1798905594446363
-0.5364782311378469
0.03271199732259126
0.6836567932512551
0.3312549390718647
-0.1504348869656455
0.0921118833824177
-0.2729319355004717
0.001892066440320576
0.1813561100445851
-0.1578982802336347
-0.02534989625892924
0.06789450081388092
0.04279554146220969
-0.1106900422804439
-0.08083693714867765
-0.5224952350078401
0.3587392104037436
0.06901885873592539
-0.04452982570387842
-0.1098551123089425
0.08536607926928752
-0.1096542266096747
0.1129904878440099
-0.003336261238630076
0.05827877303659857
0.4304010331612413
-0.06081900095536958
-0.4278608052518401
0.07252206821283347
-0.02773388890428878
0.1686133754379691
-0.2134015547523241
-0.116449678688217
-0.2276018206972821
0.4584752016587294
0.2914562142355958
-0.01169519245715849
-0.03394157373632748
-0.455138201791462
0.5321408694467129
-0.04306109392818661
0.1611151379569608
-0.01565868767053314
-0.1693443207401738
0.02388787044251616
0.02405826196923553
0.07813243129511213
-0.02956803992366147
-0.07262265334608574
-0.1031380299060015
0.5036486523664619
-2.06152865930255
1.661018036816576
-0.9282250278882617
0.766111878109212
-0.1313545231250235
-0.1450067370529829
0.1990803721439199
0.4218267052711101
-1.172390540170023
0.5514834627398836
0.4642212185022589
0.02074817021920371
0.09630596156921599
-0.08579545783938801
-0.03125867395406215
0.06567134600320695
0.07450646693669891
-0.2566956813000102
0.1165178683518061
-0.6214476534872364
0.5857827663280453
0.2356701049549275
-0.2000052178035051
0.1157593086238176
-0.04944970600177402
-0.1518620895210702
0.08555248689226264
0.1143131818773115
-0.09540893562257242
0.5260618896004284
-0.5449661358602003
0.05304357831137326
-0.08944562182154536
0.1690813988735405
-0.1326793553704134
-0.1003709307551595
-0.1486476496562772
0.3749233093267917
-0.1259047289130452
-0.3227698722920101
0.4672496080134726
-0.2448506664736224
-0.0375071815525107
-0.05416811970255163
0.1895898959796738
-0.09791459473160347
0.1235809623410224
-0.04951478914132403
0.0853299236998646
-0.1593960969087957
0.09728464116635197
0.01249054867686076
0.0003559143672592734
-0.110131104215116
-0.06995182950556435
0.03157871413235538
0.1325871537096139
-0.09421403834990773
0.4381646747293133
-0.5658522373143643
0.1008617738005921
0.02682578878134404
-0.428876115244914
0.6545034011717789
-0.228439038883195
0.002811752945845454
0.0703990026374382
-0.2297674519169927
-0.205146281522707
0.3645147307949071
0.05786588324389499
-0.04655050861548804
0.1240596894041602
-0.135375064037472
0.6121906146912699
-0.3568989580133986
0.2867330697372841
-0.5420247264346267
0.098512033529241
-0.08502364165473025
-0.02417698926529941
0.01068859738478737
0.111813776855639
0.3181941410084626
0.03421330062806273
0.4536124452226161
0.1882138199383641
0.6920075299664998
-0.1137584890242426
0.2161741710499272
0.7789536240911712
-0.3031202651849749
-0.2719028780728705
0.1897973466417855
0.2126339623270302
-0.1305284309023119
-0.5238543024673047
1.293918249577776
-0.5585618441556262
-0.8941106487044143
-0.02814362670136191
0.08527559418338136
-0.02081079061808435
-0.0363211768700514
-0.1364175668438237
-0.5187534251809118
0.3621300940905263
0.293040897900567
-3.181383680663259
-2.977936366715257
3.793387738367806
2.365932309044535
0.3660533986888669
-0.3319886563351166
-0.6425649482126503
0.6085002058369594
1.815140815084938
-0.396061546682604
0.4705543913030936
-1.889633659706122
0.3544472888650814
-0.5285323111624798
0.2367218339271358
-0.0449822812555612
0.3340644092893102
-0.5423471243790551
0.2532649963385492
0.2488474187186976
-0.2548827405184428
0.118701632841074
-0.1126663110517265
-0.1290585390355366
0.03952884066349573
0.3167180661023567
-0.2271883677395681
-0.08974161348434967
0.01660278670216856
0.07099027022741031
0.002148556548070099
-0.2704540259678105
0.01743449447495065
-0.0180551226577713
0.2710746541416246
-0.07901218197048038
-0.50264290065822
-0.01170543565747891
0.5933605182719961
-0.256365137368688
0.1698741404907919
0.08649099687478093
0.2227214459038198
0.02818453586698643
-0.1692727656066655
-0.08163321617847376
-0.0275774809965128
-0.1802598641478101
0.2437734483525757
-0.03593610321472843
0.2077602141291306
0.07109758491451415
-0.09245845302175529
-0.186399346030121
0.3447346389136939
0.2327674535235268
-0.779058028366743
0.2015559359162023
13.68248119533082
-9.168786027971352
-22.54688330483722
18.03318813750916
-0.5720887125819882
0.02035056135371236
0.6096646054641002
-0.05792645425277626
0.1213033706476545
0.03726831702957043
0.003645913326959478
-0.1622176010140662
-0.07298042197458193
-0.5287795239383655
0.6071337409545278
-0.005373795046564342
-6.781009121612529
-5.394803170351595
-17.39743395409637
29.57324624613663
-7.673582665906853
10.9585388995427
4.230585818973078
-7.515542052636537
0.1390706572812931
-0.1181881298975135
0.07143364902814965
-0.09231617641882586
-0.4645465966168412
0.2322480128675166
0.08025255126590566
0.5322896132736312
-0.09944297128581463
-0.5130991932652238
0.2293965408021272
-0.1165007015302943
-0.2615434889314327
-0.2909282152863906
0.5024109243921379
0.4220123448663669
-0.633495053991649
0.01340292435464967
-0.137885157278513
-0.4473983816494382
0.751565749506898
-0.1662822105919276
-13.63727116034789
6.125366090566653
1.086226983391654
6.425678086422452
0.09154321351210869
-0.006914486752632274
0.1614821442575611
-0.2461108710254949
0.1253683931613811
-0.1079869136335675
-0.01738147953256446
0.1477239633457637
-7.597069766643632
7.449345803345135
0.3872883268760275
-0.3626064818461678
0.4748994600442934
-0.4995813050821901
-11.16006212545238
10.56361390253733
10.69800454599855
-0.04340369812540516
0.5224727056522508
-0.08764418799943698
0.0861184314281617
18.12439269694886
-18.04471164879375
-0.07968104813632787
11.89948039115449
-23.07866254048372
11.17918214932994
0.8856971935221415
-0.1373821530292859
-1.543070365406948
-0.09519525312397745
0.1724973894650411
0.01375275917025746
-0.09105489551605826
-0.1128794720901775
0.1826615909951627
0.2253182361229986
-0.2951003550290263
0.4643606157219995
-0.4365173460719211
-0.1936050860833363
0.16576181642613
-0.131522395523318
0.5407353156080529
0.4290389148974567
0.09564720570533058
0.06244911867110711
0.4851654296212862
-0.6014649662563295
0.01902328794561057
-0.3040236191436998
0.105302662897349
0.08222025471402045
-0.5367760122681955
0.8841485259817332
20.84039364739776
4.717744319944558
-26.44228649334251
-0.5729990277367358
-0.2143174411737793
0.4930924770850801
-0.3960648706597235
-0.1429682851794016
0.04594067874645879
-0.04567826134656582
0.2336798360385492
0.02511376046727349
-0.2131153351634035
0.3317939556221583
-2.63711042248983
-9.539226363777471
8.959536868499667
-10.46406674692049
6.269043357689942
1.557912966770289
19.7335864351858
-9.498995640249449
-10.23459079493063
1.089632363560137
12.40109840870967
-12.80538943569597
-13.69704335224577
5.838836469809314
21.20646341272697
-13.34825653029355
12.53545041380506
-11.55112269289654
8.603766663705676
-9.588094384625622
1.148707411259924
-0.6067560297107543
-0.2552183118348798
-0.4814547667917598
0.5758032654370787
-0.1377521967739988
-27.48956958589503
10.19837291389712
17.28893580847972
-0.01974597388093713
-0.1331331780031881
0.1881052992140108
-0.03522614734007839
15.95509793940627
6.733603193889006
-38.29847761485722
15.60977648155328
-0.05516269450627617
-0.597400421070128
0.05096189601746494
0.03423278571831429
-0.149915382475365
0.05290572854287659
0.0627768682062408
0.003440812654765687
-1.662559036331055
-1.960033224385285
3.935477024146928
-0.3128847634638464
1.853085305203872
-1.204279101218818
-0.105074937316812
-0.5437312666867909
1.393447499255148
0.09090599394063872
0.4873934550688691
-1.971746948289341
-1.132551655781006
0.1314277150257944
0.1762317918114212
0.8248921489069304
-0.09760273355126002
-4.712749053148557
-5.200437370272883
7.352955017383489
2.560231406015926
0.7303695465457497
0.1800117925621309
19.38997855711662
-20.84713451765226
-12.23988739173513
-0.166963079622658
0.4509952574626537
-0.5099796157894179
-0.2829948293672267
0.2742210199553387
-0.3831019351538225
-10.16602096086639
21.69492576373557
-11.52890480285135
0.7588285036472554
-0.581249189608262
-0.7014336165252733
3.875896270251266
-0.005944773647112257
-8.582700549766964
0.06665623961499229
-0.0326888649422377
0.05079147138404821
-0.05028240246599191
0.03217979602097763
-13.80439083687031
14.87312358076053
-0.1925948762972499
-0.01516123398179933
-0.03865829838001526
0.2464144086457723
-0.250546985375171
0.0137513225761932
0.3252420299243401
-0.08844636713248007
-2.759166734597612
3.542966406545401
7.195962623381695
-8.781434383781171
-3.184419731354298
3.920795589110749
-10.10782536650032
3.427863042819973
-0.03720560191868669
0.03458725034656888
-0.1075260587125509
-25.23308714379256
0.008152691928340835
-0.007344504866561875
25.23227895676705
1.859047407620189
-7.991314681317241
1.91883755371989
4.21342971988213
1.90505158616334
-0.3963312935068389
-2.946665916202332
1.437945623517132
-8.726359300714455
3.890662837778659
36.30699585851124
-2.955163425300833
-8.448545629163313
8.13281559793505
-0.7814595802424287
0.05861460846721261
-0.05987867102393517
0.7827236427890841
-0.05332393893479392
-0.2754479665204548
-0.1384436587340791
0.4672155641714046
-0.3537128966945634
0.1709635276740483
0.04314895425766561
0.1396004147452505
0.1046118003353026
-0.1027197338999945
0.05644712533286465
-0.05447618370710082
0.2350383756819865
-0.2370093173169091
-6.559418888704618
6.565852193682507
-2.945260799948751
2.938827494929212
0.0007933194413281645
0.00110223067515825
-0.001895550117420114
0.0007933194409684072
0.005200121709890289
-0.01997919149452101
-0.188226213835089
0.1106977770526181
-0.02081182593683776
0.08679278085052819
-0.1766787319736629
-0.1818925325728499
-0.3154859373819959
0.4472778418484156
0.05010062809807377
0.43569479466274
-0.5610875097104718
0.04692779469614834
0.07846492034787265
0.1782609490847054
-0.2690433758704679
-0.09381473108326897
0.1845971578600457
-19.64062437365359
-7.851004271286
-0.07420862579370677
0.1972941462926125
0.005873856369013414
-0.1289593768761456
12.97102377001104
3.736524400633949
3.389823040538798
0.02051440802603289
-0.3528997540045086
0.04021129247415884
0.2921740534926092
15.4730662318974
-14.04994324599436
-9.726000183604532
8.302877197703108
37.62660709797731
-19.53812479347018
8.102583337708479
-26.19106564221118
5.265457484208492
14.71986454458615
-1.460639717677702
-18.52468231110616
19.6434438824873
2.820109417759525
10.96521078205586
-22.87870388163815
11.91349309957155
35.20747508680743
4.95330256430598
0.6048343420338124
-40.76561199308273
-0.07584594210945883
0.136658982211683
-0.2493859121040242
0.1885728719898141
0.1952546770215295
-0.1453104220366929
-0.6176805424642862
0.5677362874823501
-0.1571801138789732
0.3040872052408362
0.07629033062189816
-0.2231974219961491
-0.06366567913473106
-0.00636950463614093
0.09871596101154828
-0.02868077724290443
-0.1304007039992626
2.00996807914161
-0.3750132852030981
-1.50455408995546
0.2823435825100366
-0.5199916186382074
0.2023475754948518
0.03530046062994971
12.34371913350065
-5.728994429776843
-6.61472470370581
-0.2396669442454651
0.1225728679995919
-0.0463223967407851
0.1634164729798968
-0.3505156622521363
0.4954966298527144
-0.2127057599967017
0.06772479238571362
0.185574305271682
-0.1291271799423695
-0.1155541906478006
0.02494050829294981
0.09061368235155347
0.664358305660122
0.4979538560906886
-0.5188712639136048
-0.643440897877366
1.932717830023341
0.3842717529470134
-1.088674138826618
-1.228315444176606
-0.136287880891298
0.105398241505381
-0.1002822348561441
0.1311718742338069
-0.05595274884562784
-0.1403288520882491
0.09218178719980043
0.1040998137259256
-0.8557492498730478
-0.7302543986107416
1.738237459747449
-0.1522338112797008
0.3645110211593912
-3.848272579476865
3.316155366467049
0.1676061918051485
-0.8430693450593206
3.410174919071385
-2.60773096563161
0.04062539159837927
-0.4728319166499569
0.239949807940626
0.3028870274510925
-0.07000491875266918
0.1764506815017778
-0.312775627848655
0.5132950545981853
-0.37697010825958
-0.1232651235831862
0.1323763001787285
-0.009111176601274775
0.1389493512089724
0.1848362947943243
-0.3237856460044808
-0.1161232024731846
0.002486438365519274
0.1346832083876655
-0.02104644428541617
-0.05650511792941419
-0.09512154107877745
-0.107798171447148
0.2594248304405483
-0.1239160632561764
0.1457408969641022
0.2484545178925303
-0.2702793516089302
21.17379010293703
-13.62114090058151
-13.9773668587454
6.424717656417916
-0.02223146641948459
-0.08523431740596424
0.002364360668513467
0.1051014231515394
-0.06116981521425018
0.07645568846177801
-0.01528587324978848
1.980221026824842
-2.57059463621006
14.66188268004841
-7.039405077275537
-7.622477602753171
0.05734914443302049
-0.1525592303474014
0.01197562404732017
0.08323446186052921
-0.01544760717743415
-30.38720464071682
0.006865178638574225
30.39578706927902
0.1155846398790349
-0.07163721284726497
0.219486661007736
-0.2634340880470755
-0.04797610749814152
-0.0273774414074589
0.06725763359884382
0.008095915301907808
0.05519224592794799
0.6335158659266419
-0.2495309172628102
-0.439177194613987
-0.09070030293236353
0.001387464644622591
0.08931283828226891
0.01729629520831234
-0.01845043155527808
0.09521150149898806
-0.09405736515731175
-0.03087451414940416
0.1089002679499745
-0.05764036993927361
-0.02038538386644759
0.09973197042025493
-0.06226482226034047
-0.03746714816456639
-0.006912747313855027
0.1198024107611501
-0.1128896634521362
-0.1277352947189915
0.5663666840929068
-0.4163524502646961
-0.02227893912220677
-0.01403371267317577
0.1044760774480148
-0.1094867064059268
0.01904434162446336
0.08654155761816854
-0.4198692133943625
0.4109758517588412
-0.07764819600233543
1.272314360878111
0.507889935518148
4.220432072368289
-6.000636368784921
-0.2823492413399405
0.1365856689560637
0.04585787380271951
0.09990569857246366
0.1149385375940481
0.005369435261986116
-0.1203079728630795
-0.01481812033972196
0.1534035591954214
-0.6200895408397749
0.4815041019703058
16.49599870613702
-21.12271683800929
-0.07520991183442331
0.149509226404659
-0.005285847537639936
-0.06901346703894508
-0.5514369092610129
-0.05178388764569211
0.603220796877019
1.583782976843926
0.6156564619656741
-2.273646770770334
0.07420733196361322
0.8521606334478212
-0.06089584160609521
-0.6937548568104859
-0.0975099350400766
-0.2630060665844429
0.313376055757236
0.09166447586096206
-0.142034465043408
-0.02661886249643116
0.4300866223692435
-0.4426508204949013
0.03918306060601445
0.1312272403733157
-0.2875361484671933
0.1609216006805631
-0.004612692592527696
9.916174119932958
9.890830096564908
0.05276294509942321
-0.4599886572878671
0.06803930570287471
0.3391864064778055
-0.2221707534519946
-0.4396608794844443
0.5877227184142368
0.0741089145206707
0.02098677299564399
-0.2222600700843262
-0.02506436189067343
0.2263376589719208
-0.2762965704341642
0.00769114318281964
-0.00752906860020853
0.2761344958422418
1.424895926878479
-0.5611222027231093
-1.670501793987077
0.8067280698046736
-0.02015004526041001
0.1202653387266915
-0.1086773208051607
0.008562027328731524
-0.01502031815837054
0.02334722572328711
-0.1029063125883933
0.09457940501859272
16.13006184527228
-23.66010371661054
-3.143186043479369
6.294327500158973
23.0384999329592
-1.391041453293008
-0.1743401281243104
2.170090114114054
-0.6047085327118628
0.1720110978267869
-0.2690021615745724
-0.243128154437767
0.3401192181793617
-0.1247026221597957
0.02353170526053445
0.04757440035422082
0.05359651653806164
-0.1258525873854239
0.0003514972116131212
0.1066551795681701
0.01884591060170825
-0.1352210753683747
0.1784485262526784
-0.06698653438766804
0.4807944081547656
-0.1888809402152094
-0.3919374734407252
0.1000240054906888
3.252906762467987
24.67393891234272
0.08490864400211867
-0.04421433324158332
-0.2390338676239437
0.1983395568543423
0.005357998524696077
0.383611202480255
0.0786909336682968
-0.4676601346831166
-0.5769937423139313
0.07249351361130835
0.08132983509944142
0.4231703935904479
-0.5130108025753147
0.0498766162560841
0.2541977651763261
-0.6193532292786763
-0.04009691041168232
0.7019646880150822
-0.04251454836207597
-0.01852884782714457
-0.2534830363390302
0.7423452629205288
-0.4703333787751809
-1.833095295495732
0.09380472340203638
1.739290572092644
18.57908329856161
-7.363271419099431
1.755211890543946
0.156402530006627
-0.2698658053625385
0.04544176782413936
0.06802150751773067
9.015789780739883
-32.49729197104335
32.20544074975712
0.07063152785198852
0.1117901060236773
-0.1167502878769578
-0.04455027668726315
0.164022475093138
0.000360989038870724
-0.1198331874515622
0.06156227608436733
0.03511151343872858
0.04951231046237442
-0.1461860999910814
0.03891192670107427
0.2593119194069118
-0.08329612129955995
-0.2149277248153401
0.4220613844217882
-0.2988945660169108
-0.5139225608085238
0.3907557423912804
0.1013842616697719
-0.03472300313029085
-0.109150517765228
0.04248925922139013
0.4804184874938686
-1.103433268395011
0.2537755024680064
0.3692392784016872
-0.1016666078224763
0.06182083815925081
-0.03536414217478354
-0.07753347188474488
0.06292944275451266
-0.1271461715236557
0.1417502006488087
24.09354801690006
-12.93915140138476
-20.74686176008107
9.592465144572897
0.2246623729395254
-0.2020547932723764
-0.02260757967248244
-0.3172382519385109
-0.03444196011697605
0.4515976413329597
-0.09991742928544689
-11.60698497107526
14.87084896408954
-2.144841424364997
-1.119022568687108
-0.02596925329958532
0.1190941266326016
0.01942481915319527
-0.1125496924911609
0.06444335407808395
-0.1885622493678187
0.1083613824235093
0.01575751285890356
-1.285730027721861
0.9673288125804593
0.4414805275038658
-0.1230793123727423
-0.03137173850783115
-0.2286662660167503
0.2306983867241927
0.02933961779425817
-0.8396700691598638
-0.6212136243162064
0.8541276637548257
-0.9771471948364987
0.2161228507828626
2.543605127513865
-1.782580783454824
6.928820311484037
-17.35274065622248
12.40139902423594
-1.9774786794134
-0.1103451118164824
-0.5242211493775124
0.7433313347442986
-0.1087650735489479
1.573514582666793
18.28506920322653
-23.46429150398375
-0.05477849285788933
0.1121068791743484
-0.04391511499892487
-0.01341327132270431
-0.5141626074788118
0.3189685695140421
0.2287410696837467
-0.03354703172905023
0.4964608654050603
-2.142501103460576
0.6843861322199559
0.242683550319172
0.08232027378266601
-0.2080614209755582
-0.1169424031347874
0.4913991184688833
-0.0424086468273346
-0.4863133127868261
0.03732284114695465
-0.09445453808023738
-0.4066803026655105
0.3244348099470781
0.1767000307888984
-1.821781583203403
1.712002919733277
0.1097786634628562
0.136434096032052
-0.1390143499809345
0.01921579076838974
-0.01663553682749993
0.0107861417923426
0.1182004708657847
-0.1111145648969342
-0.01787204776553348
0.01640488751436606
0.01449246215148828
0.1168436944571551
-0.1477410441284755
-0.02456605564986481
-0.08744508464261549
-0.07085735322988262
-0.003609269268142247
-0.3241526999324599
0.05976610965243514
0.2679958595425366
-0.1452780950129947
0.07877139778810278
0.1108083280361472
-0.04430163081751701
-0.2310523866945485
0.138828867831731
0.2305264933647703
-0.1383029745127226
-0.594781806493994
0.7165408368158502
-0.0442951506446491
-0.07746387971759583
-0.01162072722101515
-0.5114587855876083
0.1077457584393845
0.4153337543659066
0.008307264565597088
0.001474861919956316
0.1853341915588175
-0.1951163180475321
-0.3190633406937916
-0.2059490759746744
0.4313898684839311
0.09362254816972407
0.00318556932750239
0.1772796473301217
-0.1618006027455808
-0.01866461392105979
0.008634283289450595
-0.1420167459586111
-0.0221410822848522
0.1555235449446965
0.8826272585540452
3.871463714436556
-3.930212639544044
-0.823878333553425
-3.980511658201318
-40.78495387479578
36.56384846139513
8.201617071606048
0.06216205668660057
-0.1776131794644887
0.1024550204745832
0.01299610229785696
23.0365138808532
0.3173723005614552
-23.17100862336365
-0.1828775580394585
0.1478743888643996
-0.204251343473876
0.04595161532295258
0.01042533927462273
8.155320622362503
-9.794094731537957
1.904877788194439
-2.80848924021356
0.8194325186294562
1.989056721575188
-0.1095036550689942
-0.05016855015176083
0.03103750773240967
0.1286346974794857
-0.1155377038510446
0.1015022815924814
0.01403542225356926
0.1262374100785326
-0.06145594545848664
-0.2389893169564102
0.1742078523272815
-0.005898818030701509
0.002765790417779706
-0.1018883896255601
0.1050214172348007
-0.01801455087329037
0.09235574849672357
0.01179777266145951
-0.08613897029242143
-0.06888358036685037
0.005359019592439755
0.1671200060088905
-0.1035954452441182
0.03439388118500576
-0.115472168623919
0.05674611796848631
0.02433216946339416
-0.09653673216634677
0.0007289514778367435
-0.002422328063211888
0.0982301087465223
-0.685712586042006
0.1477860004814462
0.5379265855552647
0.1281070879828628
0.09637845213409228
-0.1898942599783891
-0.03459128014553994
12.53077604704442
0.6987140404069033
-12.7318477548196
-0.497642332602348
0.1789891016360605
-0.1029356874074541
-2.255595498788492
2.179542084536865
0.3293668000300602
-0.3657506853853774
0.5139261815389862
-0.4775422961945665
0.6492225538044981
-0.4412739902915236
0.05527800946559622
-0.2632265729897948
0.2308893846850813
2.21167206759507
-3.703619332273632
1.261057879953053
13.41987631665461
-13.47732002424646
0.05744370759866238
-13.64929665518485
-10.39122549061407
10.2361313089674
-0.2294092065734595
-0.2026946386606964
0.3776868512203543
0.05441699399882434
0.4569404408057948
0.2438081296939498
-0.7007485705252745
13.5857294048166
-19.29756362289257
-0.1851426750819586
-0.0337299384221898
-0.1849963628750347
0.4038689763671069
3.397529618505764
-1.207787442496413
1.765449743895035
-3.955191919861279
0.3982233219722194
-1.000174069894954
0.4694330257780442
0.1325177221262042
-0.02656807441781422
-0.001044203761974529
-0.06450196831144392
0.09211424648376877
0.3688469273081722
-0.491238536327854
-0.06136374019307564
0.1837553492072884
-0.2683946748056138
-0.09199667984102963
0.2572970973757628
0.1030942572596452
1.300167226114431
-0.5231319873978967
0.6478606881433316
0.1354458023669847
0.07828130548265518
-0.1150512773007566
-0.0986758305563093
0.2227757802482395
0.3227673172601421
0.01281643087776421
-0.5583595283923457
-0.2460543641571437
0.2214661698704756
-0.002343078186635181
0.02693127245801293
-9.556712878518878
-0.6039149406426634
-2.690023805243746
12.8506516243948
28.12249965171004
-0.7490271736560793
-3.73320119428781
-23.64027128377256
-0.00635333059221059
0.1455321315418949
-0.05529721958955553
-0.08388158137378877
8.316272844818243
-2.354056365082177
-1.362766732362339
0.710139715251724
-0.4072552488271052
0.2490438688711514
-0.5519283353193012
-1.214360931290136
-0.2210880501785793
0.08330426480771594
-0.3517671123121604
0.4895508976684426
-0.1078190674193683
0.02750252880291379
0.08031653861538865
0.3658083933135698
0.07867921045937913
-0.4480968730477091
-31.83268192995933
7.019273924590827
-3.636549399133393
28.44995740450658
4.293127381591143
-0.6904947099840477
-1.781178679277578
-1.821453992322243
0.01620917733162257
0.001114773972823769
-0.01732395130828647
-0.1893753805868421
-0.002056614499764007
0.6102477792758163
23.59731606608711
0.06538354020038435
-0.05613431320614822
-23.60656529303466
0.1942862353844571
-0.009290023287819913
0.1509193982530255
-0.3359156103549392
19.33560302307131