/*--------------------------------*- C++ -*----------------------------------*\
| =========                 |                                                 |
| \\      /  F ield         | OpenFOAM: The Open Source CFD Toolbox           |
|  \\    /   O peration     | Version:  v1906                                 |
|   \\  /    A nd           | Web:      www.OpenFOAM.com                      |
|    \\/     M anipulation  |                                                 |
\*---------------------------------------------------------------------------*/
FoamFile
{
    version     2.0;
    format      ascii;
    class       volVectorField;
    location    "0.1";
    object      U;
}
// * * * * * * * * * * * * * * * * * * * * * * * * * * * * * * * * * * * * * //

dimensions      [0 1 -1 0 0 0 0];


internalField   nonuniform List<vector> 
19631
(
(5.020072018370404 0.005267826990277759 0.02130026983458402)
(4.983101943336453 0.007335773112918676 -0.001947916139210996)
(4.99566960275762 0.009982555546448021 -0.01337161258264744)
(4.898778377536436 0.06330200326207966 -0.009444677049473412)
(4.977963604231413 0.01245090550122474 -0.06506396041076011)
(5.035042682195409 -0.03911317930225669 0.0009472251523923701)
(4.994732102349501 0.001744600308902818 0.001083387347460132)
(4.345291083007465 -0.1055573007823008 -0.01698153709974183)
(5.030888422832499 -0.02164830950728024 -0.01183265510413921)
(5.002999720176994 1.146617943648011e-05 0.001817498193641045)
(4.970795185932726 0.01081254085691993 -0.02239289564578193)
(5.027369320055205 -0.01374260261333435 -0.00173491567421723)
(4.869066282617829 -0.0002411571533857357 -0.03726745993885022)
(5.02776985763021 -0.01165785567046066 -0.002905343026390705)
(4.999905898963724 0.0001129413703405305 0.0001713314039288752)
(4.957463558295301 0.03665631961508701 0.008550212428351134)
(5.02293003583809 -0.01204836846304771 -0.003395978875212304)
(5.125485531208141 0.001621603458735311 -0.005363147525899171)
(5.078512106137499 -0.06750108364462694 0.00877166867152252)
(5.07601805561029 -0.04231600375801108 0.01788931944924374)
(5.014111198657947 0.02762509795588365 0.02177988739886179)
(5.028395840274288 -0.01392831201670033 0.01049701278037575)
(4.706839460598586 0.07641840317896426 0.4317948432058994)
(5.000804202094706 0.003583374146822256 0.0007085009359687366)
(5.030362921978354 -0.02614834802997922 0.001643562078417208)
(4.993938844832633 0.002262741327283233 0.000202484499954277)
(5.029008027846068 -0.01876187201476924 -0.003460295866402138)
(5.010945851746206 -0.09803048744253347 -0.0618898722401981)
(5.07047660655437 0.07144161128282198 0.1095894404727425)
(5.000482817395644 -0.0005857238034104808 -9.59075432943234e-05)
(5.027392247653919 -0.01970420363793661 0.01137455765483039)
(5.025094149805596 -0.01588186939799259 0.004455431721731139)
(5.013536628287376 -0.0402097230182878 -0.02453709016159275)
(5.000947542760453 0.02103537990955856 0.009806565961985994)
(4.694816032856316 0.06528225397479041 -0.1627712170627537)
(4.517866777965011 0.086431684393437 -0.5100973929628245)
(4.998145296558802 0.0005146293617853849 0.0006797570699531594)
(4.990388884078266 0.001303775565683856 -0.006514972709145095)
(5.0407114718149 -0.03095821858728616 -0.01699111175381677)
(4.982684320434647 -0.0005774282485257729 0.00177158105984517)
(5.202975825213501 0.01758572022310661 0.171454126296533)
(5.02571889376789 0.01117531114926286 0.03078086270042193)
(4.999377682003736 0.0005595896847189995 -4.19613682132775e-05)
(4.999496571501099 0.003235807647157929 0.04175646554286153)
(5.029169481913507 -0.01933891195399408 0.001506529828675461)
(4.980407510267105 0.0317663539500653 0.07126250226542519)
(4.999143923618201 0.0002228025000613434 0.0007519653984136018)
(5.014485916177759 0.01175681046760314 0.02202758742088742)
(5.012350537152542 0.003327694842571464 0.02315461501966607)
(5.03044905460418 -0.02060111854711758 0.002378752365929185)
(4.987050668234928 -0.001196513930829494 0.001172028378606635)
(5.014660350368748 -0.001493858595401686 0.006207714958091735)
(5.026997419557018 -0.02614104206136812 0.007275843165321792)
(5.032679813258847 0.0713241851187028 0.04754466226549648)
(4.966153343363543 0.02628636006937423 -0.0163591603481808)
(5.043354154324929 0.00141871875801133 0.02395061843310698)
(5.029936855474531 -0.02244786308723512 0.003228463521655911)
(5.023245225192349 -0.01056248207846072 -0.004576131603363078)
(4.476115346069214 -0.2021682288198169 0.262874301545258)
(5.001425336755384 0.0006214800267900862 0.001657242851924323)
(5.002778602799643 -8.662265080994796e-06 0.001735296487656637)
(4.604166797609001 -0.07625116562891787 -0.07351067575076771)
(4.914999584996725 -0.1260311344977506 -0.04564041481488831)
(4.996522583755181 0.01974328997144689 -0.008006722127883368)
(5.025210738741778 -0.01286152506250572 0.008895005655102543)
(4.983793887326394 0.01031520439229464 -0.07678041532630023)
(5.028615662672808 -0.02641071839256032 0.01866107154528255)
(5.029363945229181 -0.01210435824087928 0.004736873043860339)
(4.954659551660606 0.02561110081123998 0.004550664292677702)
(5.003958254854544 -0.0003026762800941094 0.002561021804406908)
(5.003088200458055 0.002349846621513272 0.002341742956858089)
(4.667713732642881 0.6221891921357072 -0.5947504189460877)
(4.996983166695681 0.01734629158068062 -0.01922026614816108)
(5.024735190718374 -0.02025021754803114 0.01534493266281465)
(5.041957761119805 -0.0217304489569319 0.008335115499467652)
(4.935210136428354 -0.05312976671208549 -0.02204439431169865)
(5.003016622757796 0.004744930214906126 -0.01077328760984213)
(5.02647627663105 -0.0009066369958779474 0.02329057710370946)
(4.969040648725281 0.017703825182325 0.006015080845270948)
(3.741211527718078 -0.3583723784239297 0.6191994527355313)
(4.99814825393538 0.001093306413447034 0.002242614098816154)
(5.01022934454404 -0.01437031128026673 0.05266503474080344)
(4.962372213234146 0.1086159248796388 0.04019596652660218)
(5.192844293027627 -0.006796210137342492 0.006920834434967816)
(4.553837467892122 -0.1391212123967974 -0.2033671583363999)
(4.195722281087925 -0.1192044250829498 -0.3113890161437984)
(5.028149866872903 -0.02130660317503995 0.000472034459116103)
(4.972122569535366 -0.03689822168696295 -0.1079936592008284)
(4.130175846929172 -0.1284631576894695 -0.06886663632634468)
(5.002536161572479 0.01033488921196943 0.02297918030420565)
(4.886085280750762 0.04702229861623812 -0.008893827014100939)
(5.024731059268823 -0.03161226230276256 0.02789701812316794)
(5.024040346507836 -0.02383499150917755 0.01469993548053743)
(5.02549825943556 -0.03260450280882455 0.01511413371528233)
(5.047926353370469 -0.06200968567159432 -0.0129244289329828)
(5.215897610623118 0.3453917205186556 0.3265718958644654)
(5.015933639243402 0.009128634290734322 -0.01600489806492513)
(4.697315416638538 0.01566971049557421 0.0193503460569003)
(5.027027305764991 -0.01534757274864702 -0.001412424598840301)
(5.02630790007917 -0.01208901262384974 0.008400192321737134)
(5.024351767607992 -0.02495039794012511 0.0211095430908519)
(4.885571058256402 -0.08903998493900879 -0.008788150426504764)
(4.97695710538435 -0.272127855006456 -0.1302253677497119)
(5.011910250269906 0.01444660255895446 0.01260901367484519)
(5.004425699553766 -0.1142736097890421 -0.01613671436772497)
(5.065972602176802 0.01024891156631043 -0.00341959575145775)
(4.574468290888211 0.02574858079629962 -0.05699795859500518)
(5.024209417579065 -0.04178213051726072 0.02995622668415851)
(5.025756518194477 -0.02141002626616516 0.005516022141509319)
(4.907827432617752 -0.001996479685651056 0.08844655634272543)
(5.015881313830485 0.1507976863339082 0.08025701932749303)
(5.084295177992609 -0.07293585670832145 -0.00659957996433568)
(5.038561560187599 -0.05227675910061211 0.02359472834321349)
(4.915150048851642 0.02542598137945681 -0.1270950885611878)
(5.012862755274819 -0.00611426930169261 -0.01692793506542031)
(5.042588636269196 -0.05211147976507671 -0.002471590615786183)
(5.079159593987306 -0.09999414878161784 0.2122545266401627)
(5.026152933125512 -0.01873716009877197 0.003349301982546127)
(5.044250228883602 -0.03125257062104494 -0.01261364252583972)
(5.030842630653958 -0.02447133786164106 0.003885948151965274)
(5.027603060398627 -0.02602807306403639 0.002651239252857117)
(5.024586870844971 -0.01463104120319873 0.003675103544808928)
(5.026446883853909 -0.01459604922107829 -0.0003199250327077491)
(4.920465617878956 0.07157125259486417 -0.005186056655785696)
(5.027840564289651 -0.01443781422826602 0.004373485544128771)
(5.027501941528709 -0.01253738926913664 0.006977968084211382)
(4.878563312248835 0.04296160475257219 -0.01283039308523688)
(5.027270743876473 -0.009411020058539547 -0.002170200025595328)
(5.004604426244073 0.0006390510668466968 0.002663867460867079)
(5.016806916462457 0.01910658836593081 0.05726461687170745)
(5.013207592347 -0.003989897706024232 0.001091659592173894)
(4.995434531092894 0.01219898468280243 0.01335182554325316)
(5.084505007054096 -0.01899232851220141 -0.04305308483926652)
(5.038822573137518 0.07106543690102883 0.03821487830115572)
(4.997687277808068 0.05227041233468404 -0.02015470902368147)
(4.386688648921617 -0.05989889139223451 0.8117198450859352)
(4.912777063213713 -0.16167821014052 0.04056908306716232)
(5.028384720728845 -0.02824155059809958 0.01841576885178611)
(4.31985493103631 0.3985461936355073 -0.2295247348426232)
(5.022262910467374 -0.04382187794653374 0.02138999559549093)
(5.01682248401825 0.1885596380420939 -0.1166532085733635)
(5.172028104044034 -0.1003799349914255 0.02363494531433612)
(4.985781709477775 0.03612043736795419 0.03044077454671952)
(5.001047859664645 9.358562583623917e-05 0.0005860553282361226)
(5.027031324494667 -0.02599502936383969 0.003512317073619646)
(5.043726923906295 -0.06411273448713414 -0.03451228343237106)
(5.016605973318836 -0.008593297095865954 0.02672869307547641)
(5.000155790497775 0.0002197464042746346 0.001591592934119756)
(4.996813813093592 0.00168763466442266 0.001893470233951302)
(4.703885207324041 -0.08038665301603794 0.0571951737261821)
(5.026685097309314 -0.02969811277564845 0.01171760719557323)
(5.022368270554496 -0.006340076279521508 0.01012118189783224)
(5.022080380603662 -0.004055699228168241 0.004588442357000382)
(5.022374977214976 -0.01365760316955394 0.01121978065815405)
(5.023059864799588 -0.02493666845859851 0.02358453055400008)
(5.031258599098119 0.01102077512616544 0.04087582112709581)
(4.996261848094767 0.002744185038284606 0.0001892137799507516)
(5.06610539094919 -0.006652395071308007 0.1440533741764121)
(4.160564435614707 0.1886278932569839 0.06955320102130488)
(4.983113089922101 0.001380741479208526 0.003791558704381952)
(5.022718919045193 -0.0135401230531589 0.01100169702579446)
(4.997306474088417 0.002696545881177329 -0.001678061860735997)
(5.021657951438915 -0.01665555443189212 0.01290301090491503)
(5.02472069735669 -0.01634008799093369 0.00356943985252968)
(4.993819595977513 0.003285042491142755 0.000580885176728036)
(4.994302145632827 0.001044427852505113 0.0003196113883054015)
(5.031660214515663 -0.02936208458220699 0.003026707444844031)
(5.013159250900378 -0.00323297277322976 0.000310171418260147)
(4.954791452946282 -0.2584354394129604 0.1309652851027094)
(5.027460472117951 0.008667636354314671 0.02413711540168666)
(5.038512208734443 -0.01312895798925483 0.01614839367783234)
(5.02518425070334 -0.01582206620499354 0.001138971853961552)
(5.030629920106795 -0.02482528776515115 -0.005191674198053855)
(5.024822877833839 -0.004874873792519312 -0.002701975322621732)
(5.018445349288472 -0.04651408458608321 0.01319731070734663)
(5.029518322018118 -0.02409799326114053 -0.0001240071054882923)
(5.000844797657096 0.0002328405536025234 0.0006624219871871006)
(5.029790285414876 -0.02204415870836779 0.00733198237384743)
(5.051150251517273 -0.005722904484325596 0.03696478094935218)
(5.089510316306378 -0.04500386705351078 -0.0383629293141007)
(5.028019548340885 -0.01312790918474262 0.001973548937559899)
(5.001782601167073 0.0003419368915827845 0.002791175157354073)
(5.00196289236317 0.0007650270643546343 0.002477042546593602)
(4.98986721310497 0.00159434340157386 0.001536955359998502)
(5.002444423515425 0.0003489421572328344 0.001427933587036666)
(4.998119642341993 -0.003214754607671269 -7.840645015532354e-06)
(5.000166729739131 0.0002181391344939521 0.0003830523886068694)
(5.025708696450551 -0.01236639172733895 0.001638810121652136)
(5.027938310420189 -0.01841081413937297 0.001572180360119682)
(5.019305728490786 -0.01141005459721836 0.006785882306596143)
(5.025289940297985 -0.00544541677890284 0.007691775132642465)
(4.999831387158082 0.001463820167048589 0.005794250151212862)
(4.980935654730558 0.01289163761042493 0.1162416951140184)
(4.99865320840088 0.0013516086193446 0.0007463524277525263)
(5.03200698699691 -0.02405563913497905 0.001670305585862486)
(4.884164725746176 0.1297142846183701 -0.2822606608442279)
(5.032033825072912 -0.02259658118142763 -0.001291286544217888)
(5.004210283601155 0.004603963400832318 0.01221899900796339)
(4.974335533774165 0.0234125913431056 -0.01886709817683615)
(4.975976021973497 0.03347830759278075 -0.02941042006410777)
(5.026058005392981 -0.015291169124283 0.004888715375987253)
(5.025192901124828 -0.01357221548707888 0.002031970306881619)
(4.993548703484164 0.007569262815116717 -0.007947024804303086)
(5.02852212483203 -0.01611705140968745 -0.001812588352259422)
(4.999807214458488 -0.0003026214648265013 0.0004132895533296365)
(5.028370931518877 -0.02392260846214889 -0.0003167797050383033)
(5.029168160875841 -0.009694256936076923 -0.001663559021380203)
(5.028780605293949 -0.01535784534952283 0.0003658269976283868)
(4.991351045645244 -0.002130818920735601 0.0004956228847988929)
(5.030363211064698 -0.006766190719664446 0.006858229341992524)
(4.993049312333999 0.005394608246359641 -0.00469034433615654)
(5.030280129255964 -0.009034317503422592 -0.0017559917197513)
(4.936984666172548 0.02853137549723673 -0.09096261221487975)
(5.001913824041401 0.0001822679141748356 0.001199656828048872)
(5.013321202909054 -0.02134092003162274 0.0601871039105468)
(5.021142825835917 0.005839312154594346 0.2049938359643898)
(5.003873061194963 0.0001005054225454458 0.001914765593030776)
(5.002225783421859 0.001937820483835258 0.003585356562001847)
(5.005880498750829 0.0001851337656993181 0.003303390925990037)
(5.126315471203129 0.130186741401144 0.05885862226353281)
(5.000337297363219 0.000340101698440502 6.827902764991076e-05)
(4.996044071616567 0.00497909451915357 -0.01388206031974118)
(4.980686742749894 0.01424445062279378 -0.01159970135437867)
(4.999792477835538 0.0001642818012359084 -0.0005817033061796412)
(5.005207750069874 -0.002243691895079677 0.001025382352262572)
(4.992920803472336 0.04623717644171466 0.02085814439341648)
(5.025938532764883 0.007710233944209966 -0.02835073371163264)
(5.011435200907608 -0.01607078581258575 -0.05480451547346021)
(3.692396490181264 0.1135624861850615 -0.3329004298332274)
(5.061765551781572 -0.01048378630143699 -0.03721327483351326)
(4.992859357588188 0.007712787766745982 -0.006249150834314129)
(0.2389130972237271 -0.07660725095093952 -0.06716190837617855)
(0.06289612082132412 -0.09603508725739424 0.04583377511705729)
(4.782244586523791 -0.08990470864940146 0.02798249785877159)
(5.049892170521191 -0.103841148975963 -0.1174607389659563)
(5.07424713972603 -0.01475679532884373 0.008585243756659217)
(4.755889480299516 0.01081768735932991 -0.131174699190141)
(5.053911039862168 -0.05278003904707849 -0.04309587380942739)
(4.999835974642345 -0.001532440062548433 0.003730422200437853)
(4.902716530309315 -0.03182534960475401 0.06154828750225988)
(4.994166178685283 0.0008821764006668844 -6.914599986650536e-05)
(5.025176009855521 -0.03384551652333945 0.01285596289028948)
(4.999947639483401 9.499969289727619e-05 0.0004952255140802077)
(5.000037420681713 0.0004047379171583636 0.0006096858187991742)
(4.999667288672142 0.0008654147114046934 0.000116187397604534)
(4.98804455594264 0.0007871091731698971 0.0003022405934865074)
(4.993846474479016 -0.0008231831620606152 0.0003368310922735797)
(5.000715203340214 0.0001294439386331506 0.0008228023060315361)
(5.037287934980514 -0.05798496429002983 -0.02838130074827286)
(5.008124217306075 0.005006709752403301 0.03122803332925572)
(5.025957650685339 -0.04098921264665935 -0.01653417144396954)
(4.707415637946156 0.1662065166206769 -0.2560853655537258)
(4.989474298647497 0.03187075175700018 -0.02107589942941101)
(5.048336919573179 -0.03491133159716354 -0.006088660432680479)
(4.986446738615015 0.0026676969515194 -3.513184495704198e-05)
(4.882772504490458 0.09332247307165804 0.1599495583511437)
(5.040112741917141 -0.05120692661361081 -0.007094287276707317)
(4.912880673661736 -0.08783508463755257 -0.09968323780593391)
(4.27804540277683 0.1594730662936716 -0.07907645447933981)
(5.033334827173849 0.002035943059108378 -0.01603558985105635)
(5.000603623275643 0.02314569660431368 -0.01970489372386292)
(5.020717575452397 -0.04264375707512736 0.007751584004251582)
(5.03559793360211 -0.02120250721678195 0.04112061046061697)
(5.001890472281076 0.003850510638068354 0.04451378244171601)
(5.010065108902035 0.0001502139421489693 0.01151086035903428)
(5.004659215099179 0.01257994910419299 -0.0124820458573189)
(4.999929161059706 0.03988671260593151 0.05235330582251029)
(5.029390700550766 -0.03730539387645247 0.006364752031508793)
(3.962817824824388 -0.005318477630275165 0.0001756431833086925)
(4.801303066629479 -0.06326338271174141 0.01710826990772786)
(4.455275487425618 -0.08996638302978381 -0.03997471333772406)
(4.980697387630953 0.04701111146125294 -0.05925901586060323)
(4.939487602884062 -0.2080750275207388 -0.0007167765802596629)
(5.000800419554898 0.0002390799690107982 -0.0003395984287812102)
(4.399424800810486 -0.02730810281338049 0.05357496580378607)
(4.425375958420475 -0.1589134443499571 -0.0884215184841646)
(4.999164180272956 0.01577386267961636 -0.008720765819517301)
(4.979437626405205 -0.003848819180882638 -0.0009173213096156765)
(4.889837507083375 -0.1605571066685285 0.09012923500983179)
(5.000090120274545 0.0003570958443346032 -0.0004006011338759403)
(5.030529819005296 -0.07179015278517853 -0.02974319878570759)
(4.974931309287045 0.04358280074265062 -0.07022930411386555)
(5.048419962852864 0.005168005909541879 -0.0272850434934307)
(4.121322965930567 0.411841645711186 -0.06011761098626577)
(4.381442036582402 -0.01331909035983189 -0.134425498373424)
(3.250387483231556 0.4410099540474907 0.783471456875926)
(4.153321320287866 -0.2427068934762242 -0.09674717826162213)
(4.657947017838457 -0.07114430847099262 0.1870579531501907)
(5.031873161171199 -0.01454227732109565 -0.01213155540683571)
(5.062616984086356 -0.04897757276940224 -0.04270927309036025)
(5.035423729080716 -0.03634407188796344 0.01090801166698652)
(4.98846291838423 0.01078053669539503 -0.001653227594833994)
(4.992398330914882 0.01266952899157072 -0.07419659019624757)
(4.069607168570192 -0.03312347430451135 0.1653865051297445)
(5.107454740702003 -0.03248626955969278 0.02647114664335581)
(4.999855057909591 0.0004275975780224247 0.0004150827838088841)
(5.056120834983922 0.024004288906348 0.001951211039641645)
(4.431608270188312 -0.06996539920998374 -0.1187462781666867)
(4.989569278739034 0.02293567241720713 -0.02189309839355445)
(4.967231208714684 0.01019780872254989 -0.02874950436031508)
(5.158039664737869 0.02695930072804474 -0.01762675215037427)
(5.016449724560614 -0.01115172594284022 -0.02405158057283723)
(5.03496421258061 0.002485883764545037 -0.001706930336636672)
(4.979398101746426 9.477206421491319e-05 -5.986358359319238e-05)
(4.956923628358544 0.02721549578400689 0.07236182627442754)
(5.018922663486566 0.0110452276633473 0.01773354000840074)
(4.896634538969228 -0.08929850382410406 -0.06325193556892866)
(5.020402113834069 -0.05993857171922885 0.007138370907023774)
(5.019327120380797 -0.002329329569341396 0.01330998387521957)
(4.96077271759055 0.1497470071324742 -0.1453002882339345)
(5.002758826688128 -7.697492829929166e-05 0.0034225634868577)
(5.000264485840931 0.0001573436342221232 0.0003692448478843981)
(5.001122897540274 0.0008471263960248606 0.00055246876146432)
(4.995323457980199 0.0102079692379053 -0.04154024865449196)
(5.090864171738991 0.006701660759574053 -0.1237370968631647)
(5.048361125482971 -0.06382720594989905 0.2428173188533205)
(5.020952499366584 -0.06637057573625417 0.06328651700998879)
(5.042255482483388 -0.02500797872873395 -0.01670373972713396)
(5.026348204378547 -0.02783707594884699 -0.02429900896004516)
(5.000668450011166 0.0002854483039973745 0.001187651589954468)
(5.026025675915753 -0.03134197247416817 -0.01120220943746591)
(5.025837861139336 -0.03662673135887343 -0.0007532187729250583)
(4.962110010752507 0.02233912618258988 -0.002358575789670297)
(5.03390258601468 -0.02635946691617791 0.001715678680728947)
(4.993517418284322 0.02974991336087695 0.006893053258067611)
(5.023405175126179 0.01281484397399931 0.0448310587812974)
(4.965429340274961 0.03598610660048025 -0.006152548337812273)
(4.99945336649113 0.001339154923877511 0.0004446641483570478)
(4.988104138840017 0.01380045729233744 -0.04393277233533991)
(4.999849852806711 4.482838070823404e-05 -0.0002413136668716906)
(4.563294787178582 -0.2556630497583284 -0.04039313569011409)
(5.055312194656787 -0.0850885290683857 0.02742213722685071)
(5.216833143295083 0.07394084597303176 0.483470447791078)
(5.021797702979557 -0.03589000343247933 0.0223924421139522)
(4.957125349696337 0.0445919681721006 0.009600533628453129)
(4.686489396397842 -0.05756463886152432 -0.008970529319499564)
(5.011386743314588 0.0159999982607187 -0.009783715424559533)
(5.102954056845461 -0.03853452879119718 0.07775269830324026)
(4.995679815104466 -0.02960751682009986 0.05810937614356129)
(5.000494929298729 0.0002519073514393233 0.0001213333622114681)
(4.584134707217477 0.1318208584142768 0.1163720646751979)
(5.030308826974595 -0.04522425257254331 0.02325681804979664)
(4.997721411324037 0.0009343451879074255 0.0001405145341304821)
(5.229955117028779 -0.08900444382781324 -0.1860386817894216)
(5.039772706936694 -0.1128719078294037 -0.03203865351313243)
(5.012444677136627 0.01842339458853032 0.02555781248275048)
(5.070848742389666 -0.03489977343415617 0.01508227162215898)
(5.024428120323831 -0.009973454518966605 0.005164992158989356)
(5.008815887553049 0.009612060642984839 -0.0127815161765859)
(5.00378170108894 0.0003885480073498887 0.002633532661079726)
(5.019275693566558 -0.01640649628434022 -0.008402239188658841)
(4.999356462698405 0.0006938521438202496 4.300952193564423e-05)
(4.95702969639757 0.07697603941369903 -0.176500342489564)
(5.019316303335909 -0.04912622364109763 -0.009834516647754371)
(5.00842729031714 0.0006433122756629925 -0.01342651620195065)
(5.028793833823476 0.001807145019085067 0.0748438066986309)
(5.0239381780875 0.01435989785570934 0.02690008622569101)
(5.029181366430469 -0.0079484214255892 -0.004188638591972186)
(4.933949338730614 0.05585558415285583 -0.002226623157532733)
(5.060324099842464 -0.08242944632587587 0.02420540686527111)
(5.008000059416645 -0.04648108234300025 -0.02920582017248697)
(5.127081069716816 -0.06081700910950995 -0.03456270038624049)
(4.923595070677892 -0.005037974771026734 0.3306998266900908)
(5.093061276527955 -0.004101453658411136 0.04612877824497254)
(5.044164256365718 -0.001401006049677649 -0.02285297333017385)
(5.047628760222737 0.5142198984167097 0.1126661528928884)
(5.006074392757871 0.03135784151585802 0.01791483964753203)
(5.037241486916993 -0.01330735428591782 0.0144136205267077)
(5.045280175312501 -0.07235565786561531 -0.008092580097426257)
(4.98000828822716 0.09474157441251048 0.02013543191803736)
(5.037371976093354 0.02574553890989234 0.01677191286061246)
(5.012416354567599 0.03602752279838024 -0.01138766825921809)
(5.016548263939259 0.003077402219806386 -0.006536714351923066)
(4.999727630867207 -9.314346751233893e-05 0.0001703323331551361)
(5.044456194028655 -0.07362820672634358 0.03174173998352762)
(5.00012156896791 -0.000200938230877894 0.0003407205132799929)
(5.035188668933887 0.02232074964433908 0.03206715966587684)
(5.002259835049406 -0.0003706283648816804 -0.001708294257369003)
(4.946122964095845 -0.001078381750534886 -0.004692219034499847)
(5.001843925841615 0.05431614271882566 0.2685120292128138)
(3.707318120616481 -0.1226672733040807 0.653055555058174)
(5.026160868420285 -0.02227172607487869 -0.01699960422642047)
(4.83089511773185 -0.08600147070806989 0.04479517183614785)
(5.06963585885138 0.1022982428824694 -0.009815841064792106)
(4.972664930084241 0.01430498918530763 0.1453945248191444)
(4.742723842832484 -0.1416237883621497 0.1345210281572235)
(5.07168066108903 -0.1073898784713637 0.01351175622499439)
(4.795961102685943 0.09387486650475781 0.007298169407118416)
(5.047228735582006 -0.03680521022226262 -0.01254662575780398)
(4.997821254043766 -0.0005399895740647403 -0.0002582658683933452)
(4.998114503310401 0.01101276755966888 -0.03051615667628737)
(5.014152113713132 0.0354413592613417 0.05008605488101004)
(5.010178767038274 0.0129174532002171 0.0158201195772301)
(5.006458167676614 0.005136750497731303 0.01573329455031741)
(4.993737826092103 0.00340431741773499 0.0004610721201258342)
(5.002457958565023 0.0004695384800743769 0.001155870988669664)
(5.003207770984579 0.01086737335010937 -0.04865402331901062)
(4.547803693528362 -0.01872826349230822 0.03465662081866622)
(4.999982333983151 0.000487245410967837 -0.0002756815272538167)
(5.036565959952402 -0.05288336448337251 0.01158641170170687)
(4.987022243925839 0.01138025659298287 -0.01127787398476211)
(5.028589533085722 -0.0005722303358102964 0.0208837366867144)
(4.662656024222569 0.2697312105019536 0.6000819077311359)
(5.050026114788052 -0.01838007397497536 -0.01784564810499869)
(5.019868721788343 -0.00644539308144391 0.02634118325376862)
(5.019182289819448 8.076220960591288e-05 0.01737693654641841)
(5.011371320421579 0.006876394883206691 0.001917748598824449)
(5.031974428101186 0.006114058794308081 0.02176814947357954)
(4.978184387566754 0.03846786463058396 -0.006187064319174067)
(5.001931114426664 0.0001506437103450941 -0.00012240629525059)
(4.999565372345685 0.0001047405959813516 -0.0001241139232790872)
(4.940866183565356 0.1358271233658091 -0.05923410886184571)
(4.999364102315037 0.004300168744187027 0.005481048684612787)
(4.975210367104197 0.02477143502408747 -0.05039999884001681)
(5.000566546321651 -0.0001537798200311526 -0.0004353746256384728)
(5.01193126571965 0.02465473876174384 -0.006018929815220927)
(4.548729928792919 0.03137855292986583 0.1263572853409678)
(5.073406041413724 -0.01564764521830098 0.05920313962281802)
(4.999762907499372 0.0009193927523128751 -0.001589049516733544)
(5.011622738673466 -0.00324396280304773 -0.003313732675546845)
(0.8737695355651642 0.3595162716366341 3.622751121094987)
(5.000114702868645 0.01773198637379155 0.003620994935280728)
(5.000320267662592 0.0002431513867506899 -0.0006812464697657562)
(5.036404855411616 -0.05442993451536104 -0.01346873575241017)
(4.994389664144065 0.002068707682090387 -0.001059103574805633)
(5.02586720603403 -0.02391748316827015 -0.01942501047440594)
(3.720933728419364 1.136882955875007 -0.3601775727735299)
(4.958967811340234 0.1249942706108914 0.0260705215061964)
(5.043242844726977 -0.06447289240641035 -0.0365587916769361)
(4.994706154772507 0.002064706985037067 -0.0001364660324431764)
(5.000324407852856 1.426518945649246e-05 -8.958271611849748e-05)
(4.377562283796241 -0.06917051038919581 0.1312082683899172)
(4.544031378201644 -0.1519918957239328 0.04083147094308784)
(4.994889819819937 0.001052576369754177 -0.0004970816796791813)
(4.290530462342894 -0.01348852981199617 -0.0007239151293388368)
(5.002010332084688 0.005018444518020201 0.007470113322946172)
(5.046379161176699 -0.09085032231080899 0.04326000435531127)
(4.992901583677138 0.09690900620648422 0.06962476447839294)
(4.999927226701282 0.0001057198108417766 -0.0004395088951570832)
(4.206116724196473 0.01539232121810517 0.05166367645985306)
(4.996300194894439 0.09684657313386515 0.06790519195558786)
(4.543973419956655 -0.1335465455466591 -0.1768075939884355)
(5.025332653537077 -0.03781239082211603 0.04295458601773677)
(5.029331028931951 -0.0382444895413036 0.008113454327865808)
(5.015018302052713 -0.03772117558961833 0.01456142963317309)
(4.925709005395388 0.01793780022400693 0.06368587872318983)
(4.388001115160145 -0.1330219534230719 0.2909197362629084)
(5.018906569670238 -0.0438443528647476 -8.956685127006574e-06)
(5.046005348689203 -0.04078228492813807 -0.006150031200390805)
(5.048150343373995 -0.02542503331703418 -0.02156310337677524)
(5.014178578822439 0.1393074966163127 0.05847468558522113)
(5.011127806682209 -0.002040192094884157 0.003506180469384518)
(4.993168810414289 0.00117476488157693 0.005248756970397978)
(4.794014809669202 0.00342995012264431 -0.018562409725127)
(5.036952486126611 0.1888727528011213 0.0343813434690766)
(4.998708720855221 0.002204137703313738 0.005358046739029396)
(4.992824668484381 0.004928987047430214 -0.001157523658303478)
(4.981408957740334 0.01333080957521368 0.02609162518109729)
(4.859760849526864 0.009925932486698751 -0.1732020102690449)
(5.012339391414533 -0.0006283872963453842 -0.009039290497931628)
(5.058177042822238 0.03002895180794597 0.02626514492221274)
(4.39400724003125 -0.09491564592012423 -0.004420459124553569)
(5.037520339425654 -0.06736692696162423 -0.0182154635920023)
(5.003145626876615 0.001359886611954307 -0.002831392699293861)
(5.033268863515676 -0.03531948313686428 -0.007485168212149526)
(5.034605413856817 -0.02895698456449488 0.02411343407543363)
(5.034570825228411 -0.07412799827458896 -0.03785115014733941)
(5.029763990261785 -0.1399526417309492 -0.05489761791527644)
(4.741538457546078 0.04505683578618891 0.05271379576216835)
(4.912188843583628 0.02238588932208466 -0.02149994188909808)
(5.001146433345833 0.01574760579280749 -0.03253415056219008)
(5.164341272780676 -0.03673166624656334 -0.1026086476215366)
(4.99652089885502 0.02567031472026807 0.01897409690336267)
(4.507169881896742 0.1541917694806015 0.2461717129294602)