/*--------------------------------*- C++ -*----------------------------------*\
| =========                 |                                                 |
| \\      /  F ield         | OpenFOAM: The Open Source CFD Toolbox           |
|  \\    /   O peration     | Version:  v1906                                 |
|   \\  /    A nd           | Web:      www.OpenFOAM.com                      |
|    \\/     M anipulation  |                                                 |
\*---------------------------------------------------------------------------*/
FoamFile
{
    version     2.0;
    format      ascii;
    class       volScalarField;
    location    "1";
    object      p;
}
// * * * * * * * * * * * * * * * * * * * * * * * * * * * * * * * * * * * * * //

dimensions      [0 2 -2 0 0 0 0];


internalField   nonuniform List<scalar> 
78526
(
-0.06032273071768533
-0.0192215102751384
0.01339849400310242
0.0465562225629207
0.01025599734084883
0.001289421253535971
-1.085736098716768
0.002296639556800159
-0.03180189363789301
0.003296921471708435
0.1515802248566204
0.2777791400402762
0.1164524116605594
1.814566193096274
0.1587849398044523
0.005086572083887283
0.03297390304557125
0.02926558425486175
0.005723124312886511
-0.02411366304046072
0.3243956392450755
-0.5393938902371487
-0.01185086998775452
0.003774487032234966
0.05296254194081283
0.06205868575104168
0.05360730003572874
0.01454819262457905
0.03380094867066573
-0.03779222871815064
0.9806940921781887
0.05991770517206121
-1.003793482436437
0.003668448390003878
0.007992460447262581
0.06929527672936064
-0.464788527983949
-0.01043388226657241
-0.03398229599816308
-0.01209750311117554
-0.1149538171506569
-0.002404706162330066
-0.009399536129230902
0.02100044769056898
0.00796770280839406
0.007720085228332448
0.02881532432453334
0.003516914536157864
-0.003708367568153103
0.05854516204512752
0.1883688728214366
0.05089044272057884
-0.5600248969999286
0.0670085626156193
-0.01744090755870994
-0.5019609459121955
-0.2189875886925305
-1.626342001639319
-0.08915555911303594
-0.3416595716831962
0.05255836537149996
0.00709997734415632
0.05875028257796103
0.01791949890322738
-0.01080946956364486
-0.009260809505979423
-0.005591459042242145
-0.1230918268836187
-0.007500313596207018
-1.445408491701952
0.02251527513079233
0.4243888466595204
-0.2727418959564112
0.4470960607089882
-0.01080815931279061
-0.2117687303640175
-0.0006209712944151355
0.01550789975738705
0.06114435566686416
0.0437548259971885
0.02271054262210141
0.006974863572926589
-0.8690025026999113
0.3370460584466465
-0.0459278191292607
0.006976345535167923
-0.2702228266760495
-0.9629721162690665
0.003201685836643811
0.03831191193102138
-0.004077027821507839
-0.3104219080942599
-0.01089645108755848
0.006580147227012857
0.01228172568636564
-0.01233730276531761
0.01385561049964565
-0.004214995436208766
-0.1880430570988262
-0.0004352748243038659
-0.01655269821012412
0.02343067916225266
0.004849653494109291
-1.159482027312688
-0.005518852974199429
0.01636572621639696
-1.117242626377751
0.04288005421602789
0.007078091812583227
-0.3071810737999882
-0.03918517436800331
0.05780081200517098
0.04747736115393245
-0.1649698190443838
-0.08386511598186046
-1.836023893347277
0.009773682494157101
0.02737809410111038
-0.005323349586797839
0.07053595154468928
-0.01496803110645664
0.01731094241232861
2.206453341697094
0.03939652622763898
0.1010905271553099
0.02230438087594854
-0.001817159026058855
0.004548435399773027
0.05492144819204138
-0.01514694642572806
-0.161954332518266
0.01313629986284837
-0.1190009285287374
0.05229239607504809
0.05589151704704637
0.001335296807650169
-0.8096404615350806
0.008210359773029531
0.001465750640735212
0.001027858066837967
-0.0236460621626936
0.0559123771446767
-0.3683696909637418
0.005607819616118438
0.01616024421626719
-0.4938311485364618
-0.3727559512273823
0.0738721257281337
0.05098286455295673
0.02661586809727037
0.0001802183364600397
0.01258903989694908
-0.003805242778088574
-8.199853953509231e-06
-0.05720450618293529
0.05110002378295399
-0.009616636210127748
0.0003826091837678339
-0.02960196943767507
-0.209756316814021
0.0512427663122799
0.04755707867115649
-0.05343153540464429
0.007906377272355394
0.005615324952428158
0.003083302716651933
0.004793556187161587
0.01654757353382394
-0.01210860765896398
0.02297531856544291
0.002207073985667729
0.0240726992404061
-0.03792374238654807
-0.2187463475510563
-0.5619190379957267
0.008372726292598309
0.0120702669836049
0.04036007581566059
0.009903655073111785
0.0004168499668512847
0.09780220909724689
-0.07346508589243729
-0.1747963062796126
0.06645741358850417
0.003682465396247484
0.01899988525206486
0.09707312904300855
-0.05416550540474303
-0.03573484049225745
1.478148823955134
0.06895785644417388
-0.07797170740136146
-0.02669833141809866
3.001816520004981
-0.00262065873956829
0.05334616082998203
0.1139156536247041
0.02327850270887714
0.6099110358324225
0.05937493568133937
-0.5205950691635436
-0.001787903783374759
0.01595561193655349
-0.002039976344483993
0.006819561308991856
-0.007359083405555785
-0.10129933997551
-0.3964119850912137
-1.232177935337746
0.03343186654086286
0.027648282445524
0.02839544199393905
0.1270110971325355
-1.979556426632574
-1.101055144338874
0.06608215913889148
0.0002030285200251767
1.551212199053822e-05
-1.267148895201037
-0.06224029711878995
-0.453974635008539
-1.58451338888928
0.05722020520404668
-0.004773899672463318
0.02544950063240817
0.00266970581788656
-0.04579884947258055
2.259353465981917
0.04915575865866442
-0.04792389779749698
-0.06173427556056227
0.0001240999370898871
-0.001505070170901781
0.3951885792394957
-0.001900959336196191
0.01758956743233772
-0.0001459107150471031
-0.006011721429616236
-1.0421380577695
0.260147535018943
-0.2910402889156129
-0.01719227032161038
-0.1338016130331345
-0.06693445696669736
0.003372922010464884
-0.09100456299104026
0.05192563899753762
0.09359842148340652
-0.06532467844792929
0.03682945113328445
0.04341648034280845
-0.03033363810116234
-0.2573753923278496
0.01892905914554384
-0.1285377154563417
0.02048492731084468
-0.2400496821455835
-0.04270802978462026
0.3406497977279301
0.01224445885867069
0.0122668389230614
-0.7213298733949725
-0.2805042125662277
0.04737190169779165
-0.04443135024800714
-0.01000861160489881
-0.3345665347127859
-0.008752266247379058
-0.1524949999172844
-0.3160035131415775
0.1357890620795423
-0.7682498847989123
-0.0008810403191352283
0.106000562452214
0.009846651178766482
-0.003797805680139178
-0.3139461228490686
-1.347339162713639
0.08042144927730284
0.06274520138637558
0.06412040174390829
-0.004206891988878417
0.06966454078497243
-0.350073992393972
0.08344013502925195
-0.2553052491583567
-0.667239570921313
0.04879526118182988
0.102688756858677
-0.1451021739200009
-0.00848349974683431
0.00192703111736789
-0.1345397584874161
0.05566295263762762
-0.7035572608005727
0.05838833869334841
-0.02038332954275753
-0.611856967841909
0.004014322925698192
-0.448017116051201
0.05945261928233192
-0.008442743340408142
-0.2241558872611028
0.02042830543100232
-0.1727812182068279
-1.268357979109213
-0.228594336410521
0.007074103060507841
0.05217205704592649
0.03192980643247832
-0.2499217043976376
0.01130178601186041
0.005199284092656245
0.001863148997933197
0.002979174434367891
-0.02210044572489662
-0.2029189409128492
0.01757510171802741
0.08605742389831751
0.004986177825145517
-0.1018554624677608
-0.008151756215008167
0.5068688409904168
0.2319096667877698
0.08810496829201292
0.001532301359308278
-0.172772214757749
-0.005919740961607168
0.7145390690313217
0.05715734940890395
0.06632372824188079
0.0151833280808632
0.007994044234115651
-0.004862484769210995
0.05285331006303454
0.03627139990504281
-0.006603873221961337
2.121788402674021
-0.01833693617870607
0.009411004016977236
0.002593817900601549
0.1017448457909473
0.05007845288706694
-0.139026075810014
0.04664176465239417
-0.1569368651044672
-0.108782371568706
0.02061979188905354
-0.2948032893701256
0.0457263243789054
-0.186830862785804
0.04242484606911125
0.06918300411914814
-0.3605898806640837
0.04653690177691268
-0.1095564974075327
0.205043558920534
0.04908987967136499
-0.2375306016963573
0.1704358814562376
0.02954747587069382
-0.03820648827958596
-0.2089153970111307
0.0650818954379721
0.07032595046528267
0.06173936063617578
-0.09112390909101786
0.005111356195606292
0.04226822541908171
-0.4702801997784908
0.2250345153373259
0.002209440341309082
-1.018020938395085
-0.1742051831244929
-1.235690989363158
0.03441198650765752
-0.04094683303031534
-0.01705368721467427
0.2136977874522198
-0.009228031094514566
-0.9763202987952591
0.04907689458617512
-0.4057658309067051
0.0681256463938498
0.118705138527042
-1.554757246117419
0.3204649119566006
0.0175186586205779
0.07411030046377015
-0.1115649235870341
-0.5576038146686931
-0.424971906910414
0.008081874571796731
0.3818875591070849
-0.02583379157636606
-0.2208606440188279
0.2904312748610215
0.0007483981239386784
0.7320675762666082
-0.08549113821271401
-0.213627984105153
-0.3723451133911485
0.07190821558765313
0.05033759659206786
0.006408981099395378
-0.4496062779434342
-0.3759307250192154
-0.03759579075455304
-0.2254926869242543
-0.323519904855861
-0.2626921369855535
0.08852217694398208
-2.024796178945147
0.003830049968875638
0.01563313866011457
-0.134446102512778
-0.2031074566102687
-0.2388813721353689
0.004552060524890084
-0.04098897278064415
-0.4474122738766306
-0.2296115539223866
0.001020860624284628
-0.0741723485384975
-0.9953379799185087
-1.08224381788743
-0.0454593785700079
-0.001188391028636515
-1.087982920657261
-0.5765075281458552
0.03632178150105524
-0.0780406318540635
0.1173942841304354
-0.01931037397625597
-0.3695346818629209
-1.701708696627243
-0.4117394784252337
0.03942916759935058
-0.5744583491325748
-0.2175428508644252
-0.247632839025161
-0.1280617290372297
-0.4677088312074309
-0.3493348290683487
0.01548109897685806
0.006251641125293291
-0.5434534139195198
-0.3015681837448478
-0.6440218703382867
-1.005207665183523
-0.2025185450052853
0.002978853582962255
-0.1612630165770371
0.2763589606460588
-0.4435926453959114
-0.01618509679479932
0.4356592586756531
-0.392872509278251
0.002193489855560215
-0.001809763032973116
-0.3260515323774837
0.01223564917895565
1.192352860073034
-0.1081379433279625
-0.4997580535673602
0.001473438294461899
-0.4262387982122862
0.07608866505741414
-0.1969758703304712
-0.6354997612781259
-0.5086643444737693
-0.4928707443771788
-0.001229838338446385
-0.0878798529336262
0.003415396062401277
-0.007712188552374227
0.003499898677602643
-0.1141544050896418
0.07625389340462994
-1.272987909788355
-0.02646820690363256
-0.2499977890404676
-0.5880457247681751
-0.001799696261123846
-0.2246551429941442
-0.6484358330101596
-0.1646868222128749
-0.1952796442347162
-0.2232425856463831
-0.2506284749374218
-0.01811660447136015
-0.4907078862888576
-0.2189864804087003
-0.1426891383200882
-0.3675804778592095
-0.4005129124112218
-0.002601571744266048
0.05224930772893784
-0.2428486599274856
0.6555662726338833
0.008893576394946126
-0.2092025289224733
0.01042634755873221
-0.002387732930018199
0.01905757534783676
0.04214619955281432
0.1230718300573582
-0.03485825347043062
-0.01687237216991102
0.008129118937782421
-0.4791722284827505
-0.01328228727082349
-0.009786510366002796
-0.2223718826016139
0.02489695176688566
0.002444710108390667
-0.02390830995821597
-0.4808058102756271
0.03020322530887473
-0.2010217486840203
0.0237360090502745
-5.87218895581263e-05
0.00398014379733425
-1.55003385089416
-0.1282824615470603
0.01753155551298151
-0.04148988467068423
-1.519059486636026
-0.4622185269552702
-0.382007697944667
-0.0759743301689467
0.04966591503488448
-0.8981529708418418
0.1428572288793755
-0.7599701678830881
-0.1497791627415611
-0.3870548946112374
0.01876143581276571
0.05284243659197884
-0.163216013434355
0.05197271001755378
-0.1843938872440039
0.07704166269424867
-0.0004378158558761792
-1.790557538250207
-0.07994726854968046
-0.350473915443018
0.04041111829275758
0.03297557359286117
-0.3230433683779425
0.09563345043579695
-1.589894367638936
0.1301241995700973
0.0344947836806923
-0.008701411507390403
-0.8291114530915553
-0.009982838054826103
0.04949019701326432
0.025450911243827
-0.1571472923926389
-0.2227997347075703
-2.678620652045384
-0.328062317346408
0.5671420097692272
0.03480510931134978
-0.21286458744276
-0.7365571120882711
0.06493515775382735
-0.8239250375216846
-3.848914543461921
0.001718231556556761
0.04492066592929661
-2.02248844279507
-1.884389371179271
-0.4261847532408069
-0.05272741427622176
-2.743235716673702
-0.1272480716801946
-1.051872075405247
-0.004506886469070826
0.06006475496209733
-1.189666028194605e-05
0.006309697614784982
0.05054162950854699
0.01500930710653766
0.008047697845896205
0.01282388359792213
0.1390868986239026
0.04634677705054914
0.04188263775916545
0.001200270568837723
0.003609076714286296
0.08127033655201422
-0.4114389677044863
-0.0007562129339530701
-0.2226468344870876
0.01485580457479112
-0.1865095876251689
0.05524121833135213
-0.06374161658912805
-0.002551181022032914
-0.002196013716460212
-0.002796312078181437
0.01045001451486781
0.06682687630934711
-0.02086309149542693
-0.01999901191042913
-0.1900993812015264
0.02117087399755433
-0.1615534854262336
-0.1903902407372108
-0.01526878531413355
-0.003157246071982498
-0.01481435907158344
0.02303514100908613
-0.01993180708369611
-0.003452849520281489
0.006153850689258192
-0.00943925129977569
0.003517002006023846
0.08935563563758306
0.003679248425406883
-0.06586115415373289
0.1097800323164632
0.02094707796946522
-1.342193452400654
-0.02863345118279723
-2.847012463570856
-1.965566721567118
0.4635396382477799
0.0106768066747811
-3.179373607544745
-1.156324075749749
0.02227204538539345
-0.007348210425300376
0.006358563118086384
-0.005914411447734331
-0.008712266531759877
0.0003362381732484476
0.09568973941243156
-1.369445706665744
0.003963262878160042
0.0616685539151454
-0.002325484538608156
-0.006585106761874902
-0.06104458659270214
0.007364014597387499
0.002645789222320329
-0.001380768459759528
0.001081421158210754
0.004177403844886147
0.0002556129354474731
0.1668919625708999
-0.009868167729188861
-0.01206117105093628
0.02170087082899173
-0.05065364079890483
0.1602037203020941
-0.05309382402459861
-0.004913794985363051
-0.07063954557492812
-0.004322565287026257
-0.005887293678228342
-0.00209961955073622
-0.2096257606153275
-0.003845566938297591
-0.1614360391669865
0.03097741538613874
-0.00507272799897582
-0.006113960128942573
-0.01636205665560669
-0.008772006678665711
-0.4993940944131869
-0.02294974656819396
0.002198163105881075
0.2266376640007057
0.00559419169372211
-0.1919144307231996
-0.009610926232076659
-0.005912687987471584
0.005313374075535944
-0.00525019124898498
-0.02395999812112999
0.004358128401164544
-0.004249712615461977
0.01118887648770335
-0.1260260256439305
0.4821185903464766
-0.1647127117781038
-0.04730021698917283
0.01779698653756177
-0.007197500618325102
0.0416503085108742
0.01777121430190893
-0.0001411514851719198
-0.02326063642693636
-0.311286722129863
0.03168720413882795
0.01240791298184997
-0.01548032592828817
0.2311818386752694
-0.080711379518624
-0.01390042477614495
-0.1644138298585891
-0.0009820001949455148
-0.06633320217938084
0.5934158422998362
-0.2907977382615645
0.01707345912849731
-0.001695438925462708
-0.02587953811364009
0.01430292927858024
-0.005639000103110094
0.1596201668605998
0.006859079799816707
-0.04454612828985446
-0.003781653443639314
0.1752947544659162
0.007660495916404261
-0.02515291284755556
-0.0003996725027786432
-0.1518422638355585
0.003766591492939254
-0.004187249576341609
-0.2022706270351392
0.03593675844579415
-0.006000241604378091
0.04495558024301528
0.01868513829667387
0.005253764859441089
0.005504660413057516
0.03789873378661161
0.007156497862325007
0.008608684900376121
0.002091450607249838
0.07341457255982434
-0.1488944813145901
-0.01973416224678641
-9.633044251837024e-05
-0.2502865895262495
0.010074585579574
-0.003410943673199095
0.03270195681499257
-0.02814276140001057
-0.005625129107952725
0.0008588913772218958
0.04207531748679071
-0.08135774389133103
-0.0008635125229707091
0.007625298873739348
-0.00626293963821615
0.04502381467719779
0.007636968027398918
0.01733771705828882
-1.136388563467449
0.003553754722617558
0.001109839088936222
-0.006884813931819206
-0.1071549119950183
0.001167823959446703
-0.005385129335425067
-0.001658354509973753
0.01048585952738705
-0.1198200818144229
0.01814502891512634
-0.06571295466551547
-0.003633551471715444
-0.002310098486151328
-0.01655738802920555
0.0104345343904296
-0.00969872689861143
-0.003443508878051819
0.04615605492847295
-0.04501171370318105
-0.006588578553217104
-0.2852829596697753
0.002910210759033228
0.01161085191892438
-0.001495311499017448
0.007944484820244523
-0.08416087402199852
0.01585181376297432
0.006904839791592884
-0.01114263677910663
0.001450144388678999
-0.006589679093264324
-0.008028630582502111
0.001658621369008425
-0.247552809704987
-0.03158844910596768
0.5501815410366189
-0.3195335948449907
-0.1708169075560384
0.009265077715204734
-0.1892937534738048
0.001645008793075514
-0.006410752231898082
-0.02393912088195231
0.006485509484897982
-0.1006654895456568
-0.3029552468287696
-0.01210263713685093
-0.01158198691037124
0.216739661989005
-0.02452010035429198
0.007414949385336394
0.004213777819463342
0.03220556440493678
0.01014227643726591
0.008422067312515784
0.018225522499759
-0.1811548089779451
0.05799032031753341
-0.1299037482271886
-0.002420152767843736
-0.000887911635908961
0.07282989450471844
0.007848578847120766
-0.6142758720835383
0.006689303256147239
-0.00191835310068653
0.005489713888935337
0.01337688753507558
-0.2854980063093583
-0.00797427791752856
0.007674568760713413
1.460649726371576
0.01511314594209218
0.04055384170372831
-0.009630683906623715
0.03904576029714941
0.101625325115958
0.01019935071606926
0.09043163705002302
0.009021236557437922
0.08585499282735604
0.01607428967621029
0.06391955076689008
-0.0001933916591480878
0.4294813823376987
0.01779216667053387
0.03171885518814203
0.09092381294818698
0.04055343184811143
0.01557108256628998
0.06810014949527947
-0.06384218992838711
-0.002132399255059509
0.006189708229351723
0.04506371523517029
0.01864673745700408
0.004633136538196437
0.07136434553021095
-0.0004117979376726761
0.0250360480190665
0.08542469928138477
0.05770991654991926
-0.005388198925430149
-0.0009753457100575551
-0.006443963635753916
-0.00160764564423916
-0.06293820079994571
0.05681354488435428
-0.0006520776975404707
0.006337725369331111
0.06372125684415042
0.002476381583439811
0.06475707813557494
-0.471910470465603
0.05842767571930577
-0.1816890875034735
-0.2227644037205366
-0.1451116684018161
0.03342623906979757
0.003364595216212869
-0.1908398705085173
-0.1729660551173201
0.09446062677133264
-0.01692783294393259
0.1592210921394785
0.009595743645890881
-0.001385634578718188
0.08067095193283481
-0.119766329560261
-0.2684610149682116
0.002275695110586634
-0.0008429161312136611
0.03022259056485375
0.02472568311487714
1.330717630888851
-0.001373089172033235
-0.2608404338915365
0.1167119145026106
0.2940658170083429
-0.004805291914189661
0.3065381909317699
0.005524555091525747
-0.2639736287879576
-0.002856732815264168
-0.1625147646637387
-0.1840229913409743
0.00225616925393294
0.1435393386503263
0.004999800035961326
0.05898829407481695
0.003399354361395097
-0.187826024189076
0.01523851964154005
-0.006240499778863353
-0.2472778650354538
-0.02108383238132144
0.00170034683016225
0.02743013592526336
-0.1407574119480539
-0.005236831483300632
-0.007565268901387284
0.000961219468644522
0.05457434423078125
-0.2232540754505032
0.109197078963278
-0.007707781170108003
0.1041992960867025
0.03740213354436101
-0.003906609078384364
-0.005157091428473264
-0.2484561487381744
0.1225813574192569
-0.006832251250428377
-0.2275403567253609
0.0008075271902058115
0.02406847893316728
-0.1499768090400599
0.009399934490023002
0.1443718497836241
0.003115675737337785
-1.076725064926577
-0.03082131860528712
-0.06921628812274175
-0.005503156283741368
0.01315319658552334
-0.01429848886307686
0.01875904752660852
0.006123059641492647
-0.06870716916653641
-0.0968952334055211
-3.736766908143458
-0.001990261731551551
0.08500951392796777
0.01384535623868255
0.005399249098330915
0.0361107385502589
-0.06655556119212223
0.005462955880674634
0.2663218046489192
-0.003620001313038702
-0.004214237601469294
0.04612782886267214
-0.04983140954655602
0.269745637421116
-0.02064349876286732
0.05867501442934106
0.03526499136618667
0.0268679721244161
0.05242163738494956
0.0004632012459858663
0.07303046090776943
0.01028767746339412
0.06261351754335084
0.03133831431733079
-0.04155399255374689
0.01000717773908933
-0.4726804450346718
-0.2792415756560932
-0.2292597934585055
-0.05549014346199853
-0.57782972938703
0.023688069602688
-0.002845518019977551
0.06626671556925368
0.0233089807661516
0.02479800394412203
-0.3076853396360952
-0.03847160181014887
0.05797293157886175
0.07443295546463302
0.05441067945593119
0.05699462176231914
0.03602756465886918
0.3392093668970038
0.06941937615202798
-0.003578928891803624
0.04705733300611359
-0.0409163578553435
0.0271083372563579
0.04611601960776855
-0.008668981566610268
0.9417951415472767
-0.02815275406673768
-0.07711237564643451
-0.03969126477862451
-0.03864246412551062
-0.0007028045132904048
-0.01554843665274294
0.2856185439402028
-0.007906645286359973
0.046369664819915
0.0415333975130607
-0.0105069690611382
0.02449900396471989
-0.002882335803435536
-0.002451499182698437
-0.005992219703954292
0.020991029907076
-0.005606872169461644
-0.156368962087648
0.02574202195688896
0.00256729161534254
-0.71400693247916
-0.003943293543733139
-0.3732806989370684
-0.1789817926351908
-0.3514893956214248
0.02417169888398714
0.02784813619134546
-0.4830580237510985
0.003907883629519973
-0.005459424886123443
-0.006802683357456317
0.2566209012060779
0.003410448132269934
-0.1388699985379078
0.0009141003601815872
0.01776450551572294
0.001372980510568485
-0.1529163341880876
-0.006415194006060579
-1.294417384393251
-0.01259176536074822
-0.04885379417083408
-0.009073457903624606
-0.3498666159316778
0.001558519389409693
-0.1909050932577001
-0.0004085597174268768
-0.08188304614547731
0.001804241075651686
-1.383061267835961
-1.185545430589518
-3.919176489904371
-0.004961892433430377
-0.2322746602223277
-1.610730571280335
-1.908247619222108
0.0106837428251172
-1.245886752466094
0.003897912567226723
-1.523700795878072
-4.317073516564824
0.008611844162578319
-0.0005814986003051002
0.176810448539455
-1.09736059734743
-0.006702007698968689
-0.01234322724901173
0.003075974140207679
0.0485037434907904
0.04889345168623641
-0.8624183196511943
-2.512189552195331
0.003460785768322522
-0.0005940173194700215
0.04014023200328747
0.001230351563110003
0.0009748739412937809
0.02559370986336482
-0.01204121650086371
0.04747927724021874
0.02532405591071485
0.06629257541322409
0.1316085686453534
-0.0383324487498964
0.05085477875747624
0.004629082755310902
-2.626536559475718
-0.005869764931576736
0.08369740781130774
-3.904321568431067
0.005929704375628549
-0.02234438382417165
0.003406996197595036
-0.01738181251711303
-0.7738801843464075
-2.179139243895104
-2.157252767814874
-0.01120615343178948
-0.05221907040456172
-0.309174906031306
-1.75987328232338
0.01250748836055652
-0.02111888012692256
-0.08971761092220026
-0.04515203819466772
0.1988000394286796
-1.976261821613022
-0.222632088422784
0.1574910566440438
-0.01950438447483407
-0.01047415136564027
0.04528192224218909
-1.216984050018726
0.04950637391230772
-0.01113970377888597
-0.004060454342814247
0.004263407118023484
-1.388266838267017
-1.602960947364701
-0.001856832695070398
0.08128391267891046
0.01185654363931323
0.005646167704130289
0.04326293013341143
0.04698503958415488
-0.1207663430508329
-0.01032184460443335
-0.03310595829066652
0.05967316344420596
-0.1066043317034912
-0.002469886523472449
0.000517467019260376
-0.03021780005508157
-0.1346247818955603
0.008476426628923374
0.03192175951443008
0.0009494193070008212
0.00031199260357746
0.06306164782572314
0.003260245788198205
-0.09686256040521508
-0.0151251926547379
-0.1518291375154218
0.001786845981945652
-0.01491158657734039
-0.3333627039741184
-0.0179997214707662
0.01450164029975321
0.0007700857650603493
-0.09287201983969572
0.09575331678542139
0.004065998898196755
-0.01924700732292792
0.02481392994972804
0.01055074484230805
0.0008402638406179884
0.01002127864104449
-0.1737805572243808
0.0101643406499193
-1.908645465940305
0.04523082778708919
-0.0007433372625376166
0.002951722012193044
0.00519331883419964
0.01324541229401513
-0.3372187960578463
0.008339880166997198
-0.3475203328834136
-0.0161162642279776
0.0002779503644962235
0.001752541195269348
-0.01720077069573071
-1.158963722460631
0.009317360146848742
0.01791564749582195
-0.3632886172839226
0.01548243640381263
-0.01233395624794353
0.006497756663409975
0.171903502617661
0.003744824468700024
0.003417988307032254
-1.5615460730591
-0.2105873814472988
0.003147796655468057
0.2450832354754973
0.002291363760249948
-0.1259258527805637
0.002229470449188442
0.01005722775498426
0.00379487391173085
0.006465293702005278
0.00297169405317375
0.00191127704851558
0.001203841918028637
0.03678588205578613
0.008480380201554068
-0.3346221283620225
0.003663108479040631
0.002064492147981083
0.01530334032818529
0.004217887630672473
0.004213592328454729
-0.2228178381068743
0.0196643230877329
0.144829608383345
0.009053316976940838
0.4059146007332463
0.01851698323148033
-0.01776954629916784
0.122818875689749
0.05030823768842398
0.00640837078425027
-0.001670980891603339
0.1117386605661767
0.02798195642824544
0.0437143139621659
-0.06109288594145831
0.006421372307271175
0.008937184062389908
0.1098992415451182
-0.006193183648279628
0.002308412441681189
-0.4508441927322157
0.01027555407558412
0.001670887655122599
-0.004491148526445296
0.09111690612515466
-0.005146090566255829
0.007552016844182731
-0.1730916869641107
-0.2028826064408473
0.02529986006479678
-0.005644421342284592
0.005385993297875364
0.0032882025307943
-0.003867584070448724
0.004416484604093598
0.004452209271323344
0.003537009450723445
0.003206868636136562
0.02377761620466471
0.006046323211408395
-0.01341398133701049
0.01479126820719494
-0.1722684567008206
-0.006242465524853865
-1.380197968909183
0.02879008342024979
0.0321809594086804
0.002761921225416423
0.004795116548307757
-0.004150945513281127
-0.7465055873147052
0.01446887466852341
0.001965480442494557
-0.4809313434607123
0.01603938497176709
-0.02760717124281946
0.01562969234796109
0.00579309875568845
-0.01593449593676444
0.02435807386278259
0.01271156899507479
0.001683433063611079
0.2209880766883123
0.1229969370328852
0.0117683179969534
-0.005981161452005604
-0.01232967200417263
0.002805431799543158
-0.0126565484490661
-0.0133347488533724
0.01601780981616757
-0.01340535258625732
-0.004897114589759002
0.005094334891159399
0.03587940121029733
1.402385850071543
0.003529249044663312
-0.0716823081306405
-0.2623468311506442
-0.1380171261005234
0.04911666179853463
-0.01267446624188353
-0.6995278777356534
0.006376775016477949
0.01512227246664364
-0.0008244553654070483
-0.002397333242909694
0.004604825912766567
-0.4139173116096367
0.5373093726199827
0.01107284442983607
-0.04244718090638835
-0.002528299201462776
0.01048660497909785
0.4231803067680047
0.1783639929903106
-0.3838750874479857
0.00699893253000889
0.01620610187129752
0.02853906732814821
0.01286483761549503
-0.1333303711267965
-0.006117686987656084
-0.1299532161000165
0.002315087709487962
-0.2606332819159315
-0.1334813489535022
0.01766880086503009
0.04232255184276282
0.7354989532364568
0.03223205666510554
0.00704780220423688
0.03913733510203758
-0.006655775265295364
0.02301195235374835
-0.004049392052300696
-0.01938491640766618
0.01243112733244109
-0.01285997445077302
-0.008450232825399771
0.09580912131979243
-0.7225351203798428
-0.01200915703360205
0.003696249900087601
0.001649661596307521
0.006193656045427797
-0.008251473334984116
0.003459011648676328
-0.0126811511737311
0.01130792376220447
0.01147859332831117
-1.068814338594713
0.0001635361004680771
0.02095792274552306
-0.01035630772223965
-0.003140690930035067
-0.005762071391016692
0.1273454079710269
-0.007732766258162826
0.01320310215953068
0.001753999148945294
0.006187698275339356
-0.03605262353311022
-0.00433059359599988
0.000679525732197263
0.003186097433703178
0.0005248129275134855
0.009403451272105633
-0.2209235047166372
0.006456816655149471
0.0008682135562298081
0.01301722193410015
0.01456899625876462
0.03260389798035142
0.03025427406262845
-0.007953534314878238
0.001895610486524315
0.0002393496574117372
-0.008356897745544134
0.2601574388486064
-0.6292604136278752
-0.01110481246432224
0.00982836446468068
-0.008826841440844177
0.11692931356042
0.001563505524615768
-0.1430269309649424
0.003904511816352908
-0.009175744109013543
0.00820352475653853
0.006800587072165912
-0.01075356266741105
-0.01027953586892431
0.01968651962003427
-0.1779071197323518
-0.131072258327777
0.03337857105865957
-0.01041465363121921
-0.01544977968318454
0.1104019761562394
-0.4271563286329724
-0.01986894646983883
0.01828260521351267
-0.1305889240977745
0.007089480859114928
-0.008886048740697497
-0.0118085676640749
0.1817746637236097
0.0004847084492628418
-0.007780426995106938
0.003760772567962488
0.005710608109563046
-0.01007834511195535
-0.01000104980874146
-0.01068446953200361
0.01259270595702641
-0.01085477071019373
-0.01365920709405606
0.002834531612675665
-0.0145322562766086
-0.02329566406944587
-0.01083038047253041
0.031117731146867
0.01785653016897634
0.02918919920471712
0.03490547445245387
-0.1381120475242953
0.01347542518829305
-0.004621101795892034
0.01964639597324511
0.0237467300390184
0.02148136141384695
0.03342094774572619
0.00149500268273357
0.04483796853144778
0.002004545898788131
0.05157208420414706
-0.05996421756001066
0.009385459307531287
0.01601344784002699
0.05456210909065398
-0.01415525774375185
-1.024242993521222
-0.008374118906677282
-0.01743479836916366
-0.2550980559745173
0.05526545849195957
0.008894709525568983
0.1517856641605236
0.02344289316705351
0.1839617469547256
0.005184626512811483