/*--------------------------------*- C++ -*----------------------------------*\
| =========                 |                                                 |
| \\      /  F ield         | OpenFOAM: The Open Source CFD Toolbox           |
|  \\    /   O peration     | Version:  v1906                                 |
|   \\  /    A nd           | Web:      www.OpenFOAM.com                      |
|    \\/     M anipulation  |                                                 |
\*---------------------------------------------------------------------------*/
FoamFile
{
    version     2.0;
    format      ascii;
    class       surfaceScalarField;
    location    "1";
    object      phi;
}
// * * * * * * * * * * * * * * * * * * * * * * * * * * * * * * * * * * * * * //

dimensions      [0 3 -1 0 0 0 0];
oriented        oriented;


internalField   nonuniform List<scalar> 
153371
(
0.0157225187272649
-0.8077749598612979
-1.449846723421827
2.241899164544032
20.6194870516195
-4.648252134973234
-15.97084080451449
-16.56143396429234
8.221426948919145
-13.29078499542429
21.6307920107993
-0.3774434856244616
1.001673994797368
-2.775460776011123
2.151230266829818
-5.161431949712714
0.8038648646858629
52.37064754956664
-48.01308046453854
-18.28128389305461
21.92235478956673
-22.79723972675894
19.15616883023395
0.2219165238050186
-0.006305956063999266
-0.03703121720799319
-0.1785793505204746
-13.91290759661575
-12.07898024357712
25.99183860480442
-0.1082425245545735
0.4225253466938799
-0.4557237663277469
0.1414409441835616
16.79462810388214
18.26640191222384
-18.54305034259628
-16.51797967351002
-7.332139503147012
-11.01450977035549
26.11385581762261
-7.767206544245119
11.00187133700002
4.694664183979448
-15.69653552103675
1.587572925504807
2.840032977959607
-1.485034869014169
-2.942571034428438
0.6133757977437455
-1.188587889558113
0.5752120918770246
0.1167931352989942
-0.1665634161609567
0.02976837859274031
0.02000190228287873
-5.078210684297589
16.72713515346413
2.821246119189042
-14.47017058835733
9.385876938579694
28.05440546626071
-20.94745084270825
-16.49283156213871
-10.19600881777876
-24.85880466124453
44.44069041760027
-15.08043192512189
-30.35227594405252
29.13055511689751
16.30215275227395
-10.57836905234938
4.550878827606532
16.57996524019793
-10.55247501551536
0.02600045461043534
-0.6790679330239286
0.8499517889549975
-0.1968843105365916
-0.1037748624281927
0.1280610404105933
0.003514063367107605
-0.02780024134036072
-8.943495480971844
-24.34343416396872
21.26058861470868
12.02634103020041
22.75619252468025
-22.15955724892209
0.5019454495696293
-1.098580725335902
6.970554288504624
-2.979916010354025
7.608003582491296
-11.59864186062367
9.65359624463748
0.4390472011560646
-7.435115134851793
-2.657528310951974
-8.918442435002319
7.614525237813187
-3.178077162890601
4.481994360129497
-7.538716058141238
-7.296429719381003
14.8345774168601
44.36168784397389
-10.65265084943122
-22.33878861225649
-11.37024838228978
-11.27333354528396
-5.809366540179064
17.0842712572474
0.1770452343901786
-0.4803140106311249
0.357160816636052
-0.05389204035005248
-0.1038859201482393
0.8390397298405577
-0.6152767227883137
0.5139153551725993
-0.6629805506427445
0.7643419183035542
4.8512409742556
6.943909150766224
-24.12748259175561
12.33233246673313
-14.94183207245658
23.74721276955731
-3.414708871092955
-5.390671826002719
26.58943245060441
-24.13999784122738
9.192068043910066
-11.64150265333399
0.05054710390788015
0.1480513336725065
0.2986436198092944
-0.4972420573543808
1.511525656806063
-14.6229202219206
-14.31332474314178
27.42471930823903
-2.2812294421788
12.38673648300504
7.193835478174561
-17.29934251909632
-10.10303829623635
3.662633019908256
-11.81866787725822
18.25907315355973
-1.432373636825769
-0.128300328782479
-0.6502082725800653
2.210882238267387
-4.876638453199837
-9.485034067237022
-3.430057915719791
-17.14124918403093
14.55476462668978
-25.46322314029858
28.04970769762401
-1.49756616951162
-0.961925330812286
20.45373667265635
-17.99424517238107
4.408021861415691
-0.01544682825595339
-19.33440710561604
21.12641319330966
13.41296483532808
-10.79216525908197
-14.9007145849288
29.47758626838338
-14.57741331241676
-14.16097397144342
-9.92186201890544
-1.580268606722069
25.66310459706457
5.336862877373686
-18.78051628040406
-5.077432662160558
18.52108606518404
-17.94945070631419
2.308548328651527
0.321321344749631
15.31958103294031
9.145254349095877
-4.645633537589272
-10.83552400975713
6.335903198255383
-0.08077522697420093
13.59784947387189
-6.546519958371658
-0.0546154173097949
0.05804458456430873
-0.01057741430434193
0.007148247069535462
7.27800261097251
2.765869363957528
2.521211992817653
-12.5650839676102
-19.60298519673217
18.71986392421904
0.8834890840955404
-0.2390330727662675
-0.005146912060532201
0.3892073505647197
-0.1450273657209203
-0.8208850315625975
0.3084196416450573
1.123352182111109
-0.6108867921559508
-0.2363563226770883
0.1644372467071032
0.2113673411414606
-0.1394482651591762
-14.08247041668696
17.90344861234832
-2.549746474313072
-1.271231721416734
0.6042075283858702
-0.02179801782380481
-0.08549208376557478
-0.4969174267838415
-4.453812466439567
13.59406822145956
-1.525730517105103
8.275319789889737
16.64817897322268
-3.797085569810725
8.637802992965897
-9.41382275245458
0.6721338393102029
-8.331302866618469
15.13564892993513
11.10067174321775
-17.90501780647417
-21.67696340516839
-14.97651711900041
17.05049532743578
-4.709488450724443
15.79242946331767
-23.8893524518864
12.80641143929109
14.84958725571918
-11.62372131734161
-0.3796797627575296
-2.846186175621093
0.08348969697142607
-1.612626593770192
1.577543331525351
-0.04840643468831207
-17.09456424916679
-9.023547043798429
14.70431237896226
11.4137989139997
-0.03268450842095547
0.01824470955094676
9.721542907664846
-20.2580707359077
-8.172669665762173
-0.465877994378239
-1.421681779028849
0.425477037322238
1.462082736100847
0.3021131185095829
-0.5554621929766225
0.7714074101014076
-0.5180583355659397
-1.053580534057638
1.303182886819791
-0.2496023527396749
-8.444383874726443
32.55824374441872
-27.41791504263751
3.304055172938437
-0.4608288768646364
0.4944244145023434
0.6104410717575551
-0.6440366093401535
39.66747393886558
-16.63545114907803
0.7779552848222682
-23.80997807461383
23.5318708705678
-16.2879641639249
4.244929011869048
-11.48883571852071
-6.218060788920177
-2.203641249824899
8.860749239930033
-9.722795906063325
5.607051400652557
-6.40859311365698
10.52433761915665
-17.20842995072087
-16.29161262388914
24.55360803731693
8.946434537240851
-3.230616486909119
-15.90749167254502
0.7839394121664259
18.3541687472951
-0.05874705891711727
0.004441826184242625
-0.1244998972057153
0.1788051299539576
-0.6604832302426691
14.52352754216218
-13.86304431194689
-7.713436166390922
-5.780450609544838
-7.834980393326749
21.32886716916786
-5.091892703283891
-16.73022577573164
6.426556580590556
15.39556189842236
0.1602286088941091
-0.2636738788974557
-0.4853260228468498
0.5887712928864776
-0.1205699800276612
0.09898156025089042
0.02171802279990483
-0.0001296030123498196
13.9946139681667
19.53499445229005
-0.9046432200146972
-32.6249652004415
-10.20418915743304
3.516565735328212
-11.99574626724498
18.68336968921916
-10.1522518897264
7.738317826514701
3.935154676103771
-1.521220612893969
-0.466261634301122
0.8194777446835161
-0.05110299183713744
-30.54197560300294
25.67576216688547
1.530636307680149
3.335577128423934
20.81252841949902
0.3782551861947391
-24.42140009260266
-17.59015110260336
-25.34404658963288
19.08134243017018
23.85285526204231
16.61383848262486
-19.01157819895598
-17.95704947922363
20.35478919555451
-14.33549108303243
15.42565439713673
19.72236510539041
-26.56076801950971
-1.131496421067517
4.120569238984637
23.57169520159104
1.793320327817251
-3.127745142493307
1.48624143422867
-0.1518166195219294
-3.482896854083244
4.90710945844714
18.21484055216121
-19.63905315652846
1.474098530238524
0.1890257934011062
0.4046945220568669
-2.067818845714879
-0.942124432535694
-1.520968378823899
1.35262740271354
1.110465408645579
8.562148473927053
-8.748712715566993
12.9739313987173
-12.78736715708244
0.1809768398546819
0.04956702269391145
-0.1823629099022697
-0.04818095262263453
-11.21939407364256
2.015450845128541
24.95085347113241
-15.74691024261837
-8.053369805643275
10.60363560684762
-12.91648606468016
10.36622026347171
0.1022493458881459
0.02874744109157075
-0.003742634931456135
-0.1272541520300038
-23.75735476129049
7.421813764711024
-9.019439398552711
25.35498039503411
9.291099049823201
8.777368710264273
-18.06869007676151
-0.01612455544577246
0.06123994524785384
0.03032130177922577
-0.07543669156593293
14.27439966719844
7.286449674203867
-5.891605643093106
-15.66924369839277
4.579459706271581
2.628940710066304
-10.1883164266669
-0.2211537599319538
0.3804558633466721
-0.4245609090386079
0.2652588056377675
0.4049763119028937
0.6849053645321576
-0.2698449460920315
-0.8200367302910753
1.717054765162176
2.115318853772712
-2.715660610611309
-1.116713008394051
-0.02762081706050444
0.004553709744968603
-0.02985143661998112
0.05291854394701576
9.076166751410598
-7.3073514073961
7.522283705807922
-27.40623818619331
1.955932792157513
24.24236385015962
1.207941543886915
1.095307024640196
-3.564510518129917
-1.022142274512779
3.491345767875567
1.463253797646794
6.971877966914533
1.292508906947283
-9.727640671747388
7.328845561720251
19.98021299840444
-43.19451239616239
15.88545383603558
3.051192917150583
-19.40573563251604
-4.034965342551128
-0.1156940242161947
0.1257034648553055
-0.1101789380151044
0.1001694973921446
16.38175990427592
-12.79798146392593
-3.132566154393623
-0.4512122859581078
14.75504434263074
-17.67938501627937
-6.35797223362412
9.282312907129905
9.115327572820419
-23.36759940286856
14.85743494093517
-0.605163110886986
-12.71852719015325
-10.77110381689584
-15.57473749591375
39.06436850296286
9.212652676029958
-11.8371219493354
28.1310920935405
-25.50662282023877
19.29820190678173
-8.682017266486145
-8.2387268379407
-2.37745780238264
-0.8882358529921466
1.968452593949086
-2.778247423591504
1.698030682558513
0.5957302792812392
-0.07786463629253412
0.0951986452524234
-0.6130642882340905
18.89075253991707
-18.96732070540686
-0.8280119162405465
0.9045800817109837
-20.4006367886453
9.322217043843846
11.07841974479315
4.259900031405899
10.58597487874293
4.5430045033351
-19.38887941342619
4.819738908859678
6.970857191305703
8.369819766169551
-18.93697036902256
28.59552628496956
-5.702501655647017
-3.956054260304795
-0.01262752468800769
-0.1632777731409557
0.1448842440756067
0.03102105377405983
9.438435843397261
-16.67753364434162
-1.056448745940748
8.295546546873414
-1.891639844263043
29.90277849401413
-2.919585013762347
-25.09155363599636
27.32179223048765
-27.16857750227375
-3.800154639365314
3.646939911147598
2.091761051482099
-4.642951529083767
-1.985805651290504
4.536996128785066
-15.57272337410848
-9.506223365208667
10.23657249273656
14.84237424657636
-0.1819198316073636
0.1435791682869563
-0.4279209709508492
-0.1407644575045077
-12.2782130562054
12.41881567688976
27.85860372139224
3.22240864060965
-10.75782748903737
-20.32318487296553
0.09415165792292787
-0.08729461571893715
-0.180923895330949
0.1740668531408478
0.1645421589906188
0.01177996288173853
-0.1817132594066142
0.005391137558846081
-31.90089876387615
-0.4233841690850569
33.6130841651774
-1.288801232333581
12.32040727813467
-6.316696848303351
-4.656559877328775
-1.347150552508431
37.08814238197946
-25.54584162599335
-34.52459438597824
22.98229362997168
-4.255926967064065
-22.45047458230906
2.754206776641853
23.95219477252209
0.1527698727764784
-28.5656879758742
-1.043520587512918
29.45643869059719
-16.75991691415258
13.07750829541213
-14.30133577533245
17.98374439405964
-21.59108494207079
-16.49674645339101
10.12503444123122
27.96279695423681
-20.77586111608258
-6.633244164719579
14.15630386433452
13.25280141644133
-16.12159529639689
13.55879592354449
6.850232237014723
-4.28743286412628
18.59404456008103
14.13754322064442
3.004271824066382
-35.73585960479579
13.93608381650179
0.354754608045373
-17.24327743769103
2.952439013111332
-20.22677289704043
-6.320806341437851
28.0814082309745
-1.533828992564309
0.2187510802934655
0.3984049858282083
-0.1589834862500294
-0.4581725798451409
-22.19235585796581
15.41278578771425
9.942418479803068
-3.162848409561588
-8.118117082589968
6.94852857113665
-8.126339256530295
9.295927767940661
20.0381625792327
-25.70989766530253
12.02741227833357
-6.355677192404503
22.83489357638448
-22.06691475859389
-15.38089557506193
14.61291675726876
0.3906216655460638
6.646721566434827
-23.83910749276123
16.80176426077655
6.199774340460357
-8.321934863186202
-16.82235709225453
18.94451761497777
-22.64072972725643
2.170483695763
20.07357923535521
0.3966667961452849
-6.758742881509687
-11.49014772119957
25.64281926122529
-7.393928658517709
11.48756305524224
-20.38135528114315
9.050904144214295
-0.1571119183121399
-28.99286879032312
-16.98223588967113
16.95326867077918
29.0218360092042
-21.778808814073
7.073630789146197
0.5961375968681893
14.10904042805664
13.88226532866642
-21.00567381646009
-20.28282969837854
14.58141227772218
-17.49616442773248
2.915734225705159
-0.08364332471964211
0.7073707169273553
-0.06219605731795767
0.4618611356920356
0.02765639200861709
-0.4273214703728782
-11.08613646938211
16.29854785270457
-9.21456799635884
4.002156613035423
13.58157776933997
-18.67639090616888
14.90974261804259
-9.814929481225118
-21.85805458440062
30.73467224224828
-24.92416742211124
16.0475497642478
23.17848867311286
7.010326798334703
-27.70174085100828
-2.48707462043884
-23.26472420703227
11.40090180380667
10.94376789449126
0.9200545087336804
21.61067474870983
5.186699452379764
-2.023560636748928
-24.77381356431952
-0.4503870428509007
-2.183897508338814
3.729591575759291
-0.01532723437165749
0.1097335845853838
-0.1060528430128383
0.01164649281620966
-16.79543799965104
-3.721885642561282
12.21147722689115
8.305846415316053
1.396395249153197
-2.670088704919295
0.3854576027202806
31.04027079099527
-9.158100144262997
-0.9236677675276023
-20.95850287922191
-1.324367444760772
5.205444170127679
0.06090136298255928
-0.6393873593116015
0.3346557535078369
0.2438302428633602
-2.966142990837924
17.54852781359912
-0.02549221772006058
0.05690928818611227
0.09077367088252095
-0.1221907413187012
11.35390537536796
6.685497442629316
-18.9077773906407
0.8683745725553306
-1.440040857129868
1.914333330407724
2.211480399550493
-2.6857728729237
-17.5133845616909
-3.566884580312011
21.08084747096441
-0.03465367177937027
0.0105414802293544
0.1186612162325856
-0.0945490246701141
10.32098672536331
-4.164428429230789
6.501983647353033
-12.65854194349006
0.2200660861870527
21.49523668237655
-19.33968591995137
-2.375616848622573
-0.5088273755686782
0.05850446641433139
-0.8837364024922816
1.334059311695161
-9.675841411400679
-9.556994801792733
1.239750845062724
-10.42288984055346
9.100369636126347
0.08276935925218956
6.176057531466499
-7.814658614099478
0.2530043044734362
-0.2796546727802433
-0.04304265569088598
0.06969302402781455
-0.1003520888794421
13.08273486208786
-27.28318415190011
14.30080137866703
6.987503804995625
-16.31458314101904
-9.492076422336819
18.81915575827404
-14.69376142318955
-2.096727720321109
16.79055512613446
-17.15129996824193
26.88798206985301
-9.736843120878946
36.66892099470248
-9.097922666761978
-16.74879056014302
-10.82220776780094
-2.307222989463646
0.4597672364581496
-0.02339754021739288
-0.04609120372438236
-0.1041355900927601
0.1736243340522244
0.02924654774636214
-0.09733745661727886
-0.052479071151089
-11.30994109032824
-10.41702930365956
21.72610101243194
24.59258325628532
-10.46823793701092
-0.242079990604492
13.54136290642188
11.34417090328785
2.626315657140696
-27.51184946685772
1.614924631996533
-5.661057460163965
2.18625498041133
1.859877847845606
0.06247593250999633
0.1126732214323589
-0.07616759368227062
-0.1296943352272328
0.01151340855526693
0.1433260156482964
-0.02514508896422204
-20.93531008118126
8.143268565064737
6.581659107402527
6.210382408612286
29.21890468084331
-20.03701586482284
18.46666515950254
-27.64855397551491
4.422341719657048
4.842025799713448
14.41012652566751
-23.67449404503349
0.136093334918449
-0.119052601738469
0.004677289628795872
13.10083205898193
-16.18841700931828
-23.76775699862143
26.85534194905907
-0.149444601131737
0.1274583544355856
0.0765794580272839
-0.05459321131666835
0.2139845633015444
-0.08799105084386415
0.03844373425516327
0.5541867256994228
-0.7018197915296788
0.1930959627362819
-0.04546289689031052
-19.97817470194714
0.002930305481875874
19.97536007215933
-23.79764412579878
23.96542629289161
5.818529382222787
-5.986311549308366
-21.01799553916309
3.667839971945783
7.173098253277583
10.17705731386808
-1.556393655791753
26.58120317908315
-10.70313724319022
-14.32167228021127
12.74596308098929
4.217747620603747
2.621791157349282
-19.58550185896787
-7.845905698266869
-12.41808881617625
2.355888264703056
17.90810624968098
-1.549260671201245
-0.9994716354710264
2.098345263725701
2.288072331382391
-2.215285687163005
-3.680774160946538
3.607987516786041
-0.1432348591599347
-17.28616716448303
2.527220081887047
14.90218194177228
5.843545823226925
-27.41764024895069
-2.277305589638013
23.85140001536006
-0.2146782029063452
-0.9210232053505679
1.000738083211167
0.1349633251214719
0.01975179211169868
-19.99787985027395
10.46123775883463
0.7850963164064694
-15.8475675050382
4.601233429804087
35.21795961694274
-9.092601230039994
-46.46871887411663
20.34336048720861
-7.246085334933103
-4.339867825362528
32.3638954986285
-20.77794233833295
0.3274084554516826
0.02898317288690321
-0.4885546629097285
0.1321630345701021
0.04627616459020073
0.6449693716933806
-0.04304958531084831
-0.64819595092854
0.2271140869698985
-0.02362926243746688
0.2063581484866552
-0.4098429729953907
1.32781659456737
-1.177136825179567
0.5137714879992789
-2.057337206967756
2.720702544068793
21.43337280659413
5.089654201179334
-4.451718904898189
-22.0713081029854
-23.05801479054668
14.84841953656076
6.140577273495676
2.069017980492882
0.05439500815152679
-0.3130470199894517
0.1171002297599104
0.1415517821026734
-3.590165405011821
-21.73860849852829
22.60980582216141
2.718968081363355
-0.9473819207052703
-0.6682020549471759
0.1729378106712298
1.442646164985906
0.5179358308230229
0.2494519650715398
-0.5242445426786388
-0.2431432532003396
-33.12014786668699
-1.71296493634146
8.334024754359332
26.4990880487215
-24.37604519907316
3.869473231478867
-12.61357589908342
-14.35091835134414
0.9672555943510349
-5.765649499792787
0.4239776088127363
-0.1796589841082629
0.3748594680929325
-0.6191780927715539
-18.48948228448063
-8.606994674073697
13.90290458891449
13.19357236958368
-1.122584406990925
-9.736014706989788
10.85859911384828
-0.6973078332590568
-2.737864319337243
1.115241775174157
2.319930377695447
-0.2517770674255912
0.5921113515249606
0.8090278000835486
-0.5490306094341318
0.2059027622946649
-0.4658999529336607
-9.68720733994191
-20.30316480511156
9.347839767001288
-16.20922738324755
-1.05396592545827
30.44599100146308
-13.18279769275955
-15.44479934137902
15.93784704765049
-0.4935258955470141
0.04423987753511229
0.1596230745222819
0.04076503819480144
-0.2446279902241852
-0.1343133120935072
0.04479013071763569
0.1072174862689353
-0.01769430487837875
0.07427095351110632
-0.1175409561357621
0.02704009672245499
0.01622990591663519
-0.5107710854278702
-0.08956361272058147
0.09357587351671022
0.5067588246981134
5.39659811255394
23.76890898691163
-21.51324446937096
-7.652262630125682
-0.08959551321881305
0.5947367327717171
-0.8753723731444019
0.3702311536201074
0.05070064318348202
-28.53267698782793
25.79175826902469
2.690218075603651
0.3121856252438092
-0.6088090392509752
-2.163509459495669
2.460132873548556
-0.03391342244491752
-0.2318462973055533
0.3751074292316351
-0.109347709460511
-4.15579970882175
-12.63512033378437
-1.656891687144389
18.44781172969338
-0.05739035246563693
-0.05116626031878393
-0.003444209101093239
0.1120008218965443
2.398043802658338
-0.3936153133393299
12.56924659472287
-14.57367508404248
24.21211318393238
-0.2501593680008041
-5.28044031206022
-18.68151350389542
15.51918317826177
-3.140801051215989
-1.415563184692709
-10.96281894233867
-15.87340037833467
-0.17500234674958
-5.628560680086935
0.2690533546084019
-0.07387583912823061
-0.02299779182570045
0.009598946230241295
0.08727468473462589
-6.98200625170956
-3.235069448754497
10.77884215634011
-0.5617664560547381
-6.603017122089776
5.862629669959161
-0.9670767779567772
-4.921960102980401
-0.7139802411289415
16.45594819205793
-18.38683606913928
-24.62988014242941
-3.064581249170214
7.248571775724189
0.03769677591686094
0.03488658434923519
-0.02675672633694331
-0.04582663391753842
11.78996122113675
1.860405791895485
-15.06796610958641
1.417599096511857
-0.4979107838668497
0.4493223713481582
0.2982409932776842
-0.2496525807380794
-0.00881770323089714
-0.07695637207024841
0.0001370659762401628
0.08563700933488526
5.890923760416156
-0.2082516833607474
-25.42568893537096
-0.5677800212865859
0.6581837621283969
25.33528519452724
0.8957729866992976
-0.9472978836157049
-0.3266476272428295
0.3781725241803127
-13.11828669550156
0.2216743040405323
12.89681812857673
-14.55653772022888
15.0349335433137
-12.699477533564
12.22108171047661
-0.07603294447169924
-0.355616853478728
0.5884350296736415
-0.156785231683558
-0.8098359344805232
-7.703755779432657
3.898730780546609
-2.527526260414365
2.317111755388947
-3.688316275521062
0.3919956639867808
-0.3775559494533705
-0.1345971142419225
0.1201573997460329
-18.25071884256899
17.08770455457103
-17.07216345144603
18.23517773935817
-0.136523933208253
0.03151628319991102
0.02213647069556323
0.08287117932445748
-1.725810748733468
0.2460481944197674
1.45664851026192
0.02311404403612165
-0.03568244492877717
-0.08672589392537934
0.02926199253523146
0.09314634633544212
6.235925882422861
-11.04210030721629
-6.396885483337417
22.85310492778859
-0.02963821142547132
0.1160865812806824
-0.1361839249885979
0.04973555514470805
-19.34439923706931
-3.464482608179551
6.59965446200074
-0.3188161244691486
-0.1554387478257767
1.159160236872196
0.03023379183582488
-0.1045671307191618
0.02028071585343614
0.05405262305183871
0.1157916703386495
-0.3006618587859772
-0.15854240453867
0.3434125930033141
-14.25212978702566
-0.3046335332176773
13.00545500639709
-24.87280218333143
25.29975962446568
-13.43241244742438
-3.37001536317208
7.939272622593542
13.10275426942592
-17.67201152879787
1.960188530406451
-0.983576651511775
-0.246123172420873
-0.7304887064593811
-0.434617822997635
18.54393858203743
-18.10956289768862
18.9547267299828
13.24615133482482
-21.82710482601535
-10.37377323879613
-38.06594977832628
0.0701939754516669
20.92492274194466
17.0708330609253
4.405015645238355
-30.71928944162167
-1.868524366675514
28.18279816305336
15.69988949393289
-19.44567835760741
11.04330397109126
-7.297515107420016
0.3419908394671273
-0.7914947696374635
-0.6627771008719656
0.1828854027091906
0.3251323978109032
0.1547593004120289
8.793362640167548
21.06417586004522
-27.30107959868857
-2.556458901534196
29.21090758255589
-25.17446824994028
0.3685763126197482
-1.25001114731897
-0.08077120578860193
-1.384878257535691
27.80553673492781
-13.26415729418875
3.666416983165383
-18.20779642395678
0.2230816228263168
0.3587162634257837
-1.145234361557948
0.5634364753419815
0.4547616457758515
-0.123600956351164
0.09611730656102067
-0.4272779959750515
-0.1119277154592314
-14.36347234975209
-10.74899746278699
25.22439752795222
17.65566693084239
21.89959523789699
-22.27473013195869
-17.28053203678612
0.8158918409432673
-2.172732891651598
-0.950381938806896
16.75519300418955
0.9006360314144942
0.1490813261530641
-0.004477456842679947
-0.08928278637543841
-0.05532108292125808
-8.547410614695851
3.961797426952584
1.521031938531796
3.212259410714854
-4.787792058336122
-13.38784909098753
-2.603895712591201
18.2853577469083
-2.293612943330273
-26.7943257433914
23.42879820987607
-30.65550111297698
34.02102864648158
-0.2136921047861292
1.51606676936583
-2.094276941969169
0.7919022774355585
11.85939903860312
-5.764116734102426
21.20635425052419
-18.58668941150118
-29.64429655940443
27.02463172039749
1.843978626181435
14.08496609618146
-10.87076205214686
-5.058182670216995
0.07995293972391182
-0.04562683275021501
0.01582709213553235
-0.05015319908657954
2.797531916013892
1.388043710083789
-1.424289527688915
-2.761286098323913
-7.692344333867436
-7.461031123081405
15.15302357793784
-11.65883105532453
-5.959356850684967
-2.599563473828087
20.21775137983153
-2.389671927276886
1.019548295053223
1.113465856826367
0.2566577754399908
11.24867563013373
-13.51494289123275
13.94831467229957
-11.68204741120572
-0.5334201109185228
0.5336727248051766
0.0950842677770425
-0.09533688162150773
-20.1847464447397
11.56726161099813
5.856538361468854
2.760946472301845
0.01998362123178947
-0.2876068422154431
-0.363315808246411
0.63093902923598
0.008466159415112995
-0.123044529177267
0.03260103322979824
0.08197733654151061
-4.960269077708012
20.56372542649965
3.25535932983138
-18.85881567861575
-0.1569103190397781
0.2162186976392631
0.001445815984276259
-0.06075419456627686
-17.0132279697228
12.54885406043238
-5.14202470089678
9.606398610242172
-0.2352494123588358
0.123657294368913
0.1762551666547821
-0.0646630486479134
-9.910881745645472
0.7864567946597318
12.22892671222484
-3.104501761216356
1.043805037287479
1.000068359079067
-7.256866195060725
5.212992798691921
0.3491865941640869
0.0749093927477788
-0.4171221592369929
-0.006973827658611392
2.463964514294608
-5.918396560442644
0.01869654378072152
0.5808821718641187
-0.6067672242907426
0.007188508660925876
0.1168896003873218
0.07788053997828036
-0.1540197328581769
-0.04075040748501785
-13.23878757030181
1.641699496771618
3.007121595987491
-0.966736107564189
-3.682084985044465
-0.03267580890398025
-0.4016018482510083
0.6946784176097871
-0.2604007603752578
-17.67395823238988
29.31939644388826
-10.17374057425471
-1.471697637253216
-0.8995914833032458
-0.5297961267680684
3.164417674409927
-1.735030064179935
-0.7656771697917898
0.6944181457052254
-0.6005006427136887
0.6717596668697099
7.063672626831687
1.202745704538561
-7.222613294062592
-19.52336594035555
-12.21857154837957
16.89474617467809
14.84719131405014
-1.718062765227406
-0.05137248816924723
0.3260528505073688
-0.3175127448435097
0.04283238253374219
8.157463446747492
17.77493246417324
-37.31409135532889
11.38169544440593
4.985665541367505
-3.329285675952464
-0.002959241791548464
-0.1124833968281934
-0.02236030180077044
0.1378029404403764
0.6328284672138048
-1.958694900136225
0.4529317968887102
0.8729346360913272
-26.03597039775154
14.37934443356935
28.41181896836667
-0.002438900851977959
0.05368708412947391
-0.0847552627597464
0.03350707949298509
0.005991082377635086
-0.1344084268567541
0.1198614525548038
0.008555891941468117
-0.02256729541769884
0.01206888550375961
0.01049840992455355
-9.169912203696681
0.307448704667882
13.84812904036577
13.81619547591453
-1.084800527652507
4.752481383711966
-17.48387633205431
-13.88249232556627
-3.613108990008216
-0.02920737100053653
0.1546808740956457
-0.1254832162435376
9.713159708751059e-06
24.20572381778013
-23.65162363065846
-3.520243177960704
-0.07495970847670995
0.07219781246377266
-0.03024926910747354
0.0330111651275909
8.00615926258258
-13.58351342134355
23.77022210180421
-18.19286794318149
-0.2408737771874152
-0.2299599583206642
0.4583662208557393
0.0124675146852905
0.7354975606791594
0.069056807841629
-0.02294173747896635
-0.7816126310181647
-0.1530889244287455
0.1190621217412456
0.04971164207359115
-0.01568483937282295
0.02117509492539466
-0.04238604290641958
0.2351955112904331
-0.1835800309071806
-0.5315012138779989
0.03586497165534115
0.6792162731524574
6.807101467973838
15.06423782758919
-14.13447600437697
-7.736863291177285
1.571882845760248
-7.553820738423886
0.3031519732414296
-0.1397146903152782
0.1034684318430558
-0.2669057147397624
0.008953646870884848
0.0814717399590028
-0.07828494236469825
-0.01214044444686247
0.04071400392698733
0.02896756154589003
-0.06968156546274742
-15.79991040901109
6.971208909322169
15.45718547390776
-6.628483974232772
-0.1053439552964726
-0.006918766302848565
0.09836776942257369
0.01389495219011579
4.272536405028958
-21.78523712212458
-0.07865008811254254
-0.5348376862293488
0.361710706917582
0.06582259814053924
-0.04144096776227655
-0.1080489106909528
0.08366728032905731
23.13599246616311
2.758678587100473
-18.85861413157078
-7.036056921696954
-0.09088060704302196
0.08513844268396657
0.005742164371444467
-1.937236166726774
-1.152616706070299
0.05492374858632002
3.034929124092705
-20.00664603091373
19.50725358986443
0.4993924410327434
-0.1601321432994705
0.05201583352894529
0.08154027110546894
0.02657603868292898
-6.832361616041422
-0.5841653100046877
-13.51878315519556
17.85514122258698
-14.69422439034421
-15.20666268505654
12.04574585270346
0.06024954825413859
0.4318100470424811
-0.06000966139159312
-0.432049933881623
0.08987674915340679
0.02645321356941905
-0.08365059057411928
-0.03267937212798421
-0.153184020143912
-0.4890214145218078
0.4378512429224323
0.2043541917669365
0.05085385386809332
-0.01378868963420267
0.09778462789091243
-0.1348497921111436
-0.1176644887763004
-0.2312185389020202
0.4646746980267948
0.1235857009240468
-0.58230935345041
0.486321268164472
-0.02759761557953262
-0.3109146662112933
-0.2455016360893605
0.4131682033701023
0.1432480989559924
10.7733460080711
0.7848553906926823
-5.739340016160933
-5.818861382580547
0.02557178941491906
0.1729974780185037
19.00545071218005
-18.3889669633602
23.11426594966652
-23.73074969848875
-6.078965725471237
-12.15685717333074
1.55095200458129
16.68487089420265
0.1412191049275519
-0.07845180869120824
-0.09525180161207358
0.03248450539655728
0.2955293584650945
-0.01478886139382803
-0.03014730252458292
-0.4632777393233749
0.5394537613097298
-0.04602871943462775
-0.2501153911141054
-13.09544581541217
13.34539402542621
0.195619632139174
-0.2227469788413394
-0.1515520017080847
0.1786793484372993
-0.08068367671681899