/*--------------------------------*- C++ -*----------------------------------*\
| =========                 |                                                 |
| \\      /  F ield         | OpenFOAM: The Open Source CFD Toolbox           |
|  \\    /   O peration     | Version:  v1906                                 |
|   \\  /    A nd           | Web:      www.OpenFOAM.com                      |
|    \\/     M anipulation  |                                                 |
\*---------------------------------------------------------------------------*/
FoamFile
{
    version     2.0;
    format      ascii;
    class       volScalarField;
    location    "0.5";
    object      p;
}
// * * * * * * * * * * * * * * * * * * * * * * * * * * * * * * * * * * * * * //

dimensions      [0 2 -2 0 0 0 0];


internalField   nonuniform List<scalar> 
19631
(
-0.09479130498467951
0.1357746799160218
0.1614575776756778
1.300910485837163
0.0292208341617174
-0.2597027370819569
0.1202792923887174
-0.7946487842156661
-0.6723331006024914
-0.01486392510961048
0.4156090444266388
-0.2660349185324743
0.3973324147711835
-0.1916592613652598
0.04082873240030458
0.1108901373453834
-0.2876408967692408
-1.18040457746757
-0.9398832373843908
-0.6512832465221532
-0.03750551019413803
-0.2139656822614981
2.212724869872946
0.04809009209927233
-0.2265950262403776
0.05281932427261908
-0.3231978849416708
-0.6790952232680619
-0.1815228772054649
-0.01575484681721865
-0.214964339787358
-0.2122073035958174
-0.06913615632144463
0.0115722360527552
1.761411928729548
4.324356638564487
0.01732067329991503
0.1319529230241201
-0.3945819081767697
0.1464604300201999
-1.316367519095628
0.007424116471607152
0.0415405067418884
0.1018658383389971
-0.5562244658892442
0.06434054751762221
0.07689119129205334
-0.004566545848434234
-0.07982177238109317
-0.2264564629628934
-0.02593027037981261
-0.3168747211237493
-0.2195432533391888
0.178557850367092
0.05296092885779133
-0.2889180123566246
-0.2484195215263728
-0.2615594447975294
-1.342012173463078
0.001255104692170149
-0.02308712836033906
-0.07079174399005955
-0.4836386019420733
-0.004033968140947278
-0.2252576814058604
-0.2459057836637596
-0.1895149803807337
-0.2288666207253382
0.5360429880140888
-0.02363765645618246
-0.009427017383941106
1.82986434859416
0.1021020478916414
-0.2236080067056498
-0.2673514262602132
0.4297224438094711
0.1998097618570199
-0.1295926819967262
0.4481718543119009
-2.089181686975735
0.04335969054891561
0.01421806497415589
0.4724955511586063
-0.9001674978692348
-0.8196005559469327
-0.4497276986007261
-0.2129360993861346
0.06817694765153288
0.8968713921821438
-0.0008748083916787915
0.158056085727605
-0.1999753235261094
-0.2036992669607697
-0.2189463879852188
-0.4230121520099951
-1.979733494026428
-0.03479370251247848
-0.7901194208012833
-0.2487488636969649
-0.2436332525484849
-0.2168498840707995
1.485293629213424
-0.7897228411640054
-0.03152971629701921
-0.7114069010425499
0.3000625291188945
-1.669511481194019
-0.1868725971318649
-0.1887901264433512
-0.4195233997321922
-0.005217138591122841
-0.6817657098776675
-0.402068177702778
1.039967167827254
-0.1176410128701066
-0.3722426791572296
-0.6432324646643662
-0.231058958951987
-0.4017846654577653
-0.2434553415351554
-0.2548678961761741
-0.2317036971799964
-0.2573710782778735
-0.6769541591291729
-0.2559059517405023
-0.2156919620840654
0.5231343360558296
-0.2277612302264535
-0.03644394194566763
-0.7020514372267448
-0.1444386111698873
0.05174802679978981
-0.2731848179802317
-0.9026545259259575
-0.008861417794693372
-0.7762922476034754
-0.2507959074677815
-0.2785071149839689
2.054161787228189
-0.2717460423617783
0.01536346748502255
-0.9914957192646885
0.1771246667672644
0.02975644765242925
-0.2254870734691223
-0.3819333406022817
-0.1108839507499856
-0.01313193356857554
0.07545504731965975
0.2311518879325845
-0.2088265686297809
-0.1589318174327708
-0.1583676793027324
-0.1977815471028925
-0.1528012729213109
-0.09927607456199057
0.1033628573712234
-0.04199085311633801
-0.03708141367562607
0.03894257111021875
-0.170823079576916
0.09273664766716742
-0.1972569776048298
-0.2130166690754308
0.07894204933854236
0.04478379346592036
-0.2722527566474663
-0.1643784130092693
-0.9376088311046128
-0.08728688041391906
-0.3359284418492909
-0.2097159634253146
-0.294325801314627
-0.2275578972803393
-0.1554523260626204
-0.2485657025170853
0.02548571606797105
-0.1864088900929839
-0.1514878675295292
-0.6594252689152397
-0.2019746947556031
0.006839021886394917
0.02168151317712723
0.3273825331080962
-0.01307311771061204
0.04468513498910489
0.0008648702094991269
-0.2457182579286578
-0.2658957318634686
-0.1890868367933887
-0.1851840101730233
0.1177147967936439
0.199426535403083
0.07668919148732774
-0.2258614146737959
0.6457138002779491
-0.2005090956541985
0.02884502941831439
0.4191158585338207
0.3499421986965292
-0.2417863407907536
-0.2432240530082917
0.125452722083429
-0.2823647217994495
0.02273663274057407
-0.3056211704296526
-0.2060860112707738
-0.2143752263122818
0.04913968752447353
-0.2811027124292446
0.1553464662592991
-0.3249094467584988
0.264198028106699
-0.008629978105110323
-0.06417770901972498
0.1297885059093863
-0.0237224826746104
-0.003273364296146369
-0.01372981782399363
-0.8699749586429629
0.004595107504305436
0.1168832950364669
0.3286089896843105
0.03934220936966364
-0.06010042745913689
0.1264209205943392
-0.07979833305343507
-0.1055211209146723
-1.079784413470539
-0.1155473952745356
0.1412611526003577
-1.471985940788894
-1.651931479397668
-0.2849644166412115
-0.476011888324114
-0.3105279152082976
0.9399051951517845
-0.3955821182450318
0.1230976549180378
-0.05883699281238648
0.1763034177643674
-0.2262123450859633
0.0194899345731887
0.05370192680466473
0.1121815695510903
0.2960602479875254
0.1055471821264409
0.02538040025673042
-0.3009801219546036
-0.06588486749958387
-0.2694969219588575
-0.6400236801390806
0.2166808519565493
-0.24168088886167
0.06220082989488429
0.9214770729367601
-0.4099568005727069
-0.09919608174009917
-0.3950220026974733
-0.05763541740230139
0.1310645148250235
-0.1582703339682277
-0.5246544148852585
0.05926479508846171
-0.07905253803524291
0.05464685987577221
0.1920410703780737
-0.1358148141511636
-0.3340210165369799
-0.1978431871341947
-0.7562877793836934
0.1463749427795237
-0.1574428908765184
0.0353413467032989
-0.7141656460642853
0.05284703195141383
0.1171048535667124
0.1125218049297085
-0.1414933861612843
0.03389664224850708
-0.5386618475359261
0.2968807771265882
-0.009057889379134392
0.3425381026418948
-0.9037357344275718
-1.98038788438365
-1.542280272088622
0.0720879893620307
-0.2776667589493574
-0.3962618752137859
-0.4020750121388414
0.2377199123285526
0.1260845572736871
1.792822504287867
-0.4841995975594062
0.04305801692033436
-0.3869223282056269
0.01673898059606395
0.2159688356858893
0.5931456802403787
-0.8622593228606398
-0.2993143706434179
-0.2175995800134089
0.4852607590260195
0.6660249672979059
-0.1018731337781327
-0.064651636284367
-0.4502455372141829
-0.08097318647615361
0.2440267074934176
-0.04280519868718984
0.02167687190433683
0.02020470197978457
0.195209844506451
-0.1164272102086686
-0.8600554987502984
0.03924063447857159
-0.3825396112612444
-0.1675826440103357
-0.003525976714709667
-0.3106187293327343
-0.266316771829433
-0.2741182240885625
-0.1976444257962972
0.152733070709306
0.0293466231936351
0.375680525025482
0.1341897451920973
0.03482562736632473
0.03419230192069275
-0.6798021955560087
-0.5805918310443887
-0.4540461245296545
-0.1406218256548352
0.4522007565562186
-0.3343514298122844
-0.04406012755662915
-0.461437792177836
0.2555447043053248
0.06422762420074556
0.8713121563407348
-0.2673553027563051
0.07241775647111581
-1.312616824734198
-0.1598743117858791
0.004680325235646554
-0.3498695102006343
-0.2160744563056246
0.03796489354034788
0.01426758040775544
-0.1792814222082597
0.06784700127636389
-0.0791116521577855
0.04436822642166322
-0.0863940918569709
-0.05951394024833867
-0.07454129809557498
-0.1214359368591567
-0.645209823820016
-0.2417926856000052
0.2031402744105872
-0.494466946578661
-1.06756882503609
-1.365294528995159
-0.2065484249716934
-0.4479954028840016
0.04488068803855381
-0.2190018394290986
-0.4192237343777098
0.2255915131627504
-0.2103244982783637
-0.05618225943270259
0.004172753611217419
0.03768271950265675
-0.4207836567617988
0.02976147848793661
-0.1713982931130396
-0.009445832730278422
0.2998435988007465
0.2056608269067929
-0.6910055343513698
-0.1958734243047311
-0.398422608406918
-0.2504595864261412
-0.1019927958056917
-0.4727708403219066
-0.6451442683979868
-0.09452681274252329
-0.1423959931080248
0.06450111770052946
0.1658282224271356
0.04052929591690465
-0.02261576346156034
0.0371693041080368
0.09241162220262153
-0.01086895243582235
-0.02364575818887024
-0.1598659476918075
0.08632009243687476
-0.303448460444971
0.3930232671271193
-0.09466331080759487
0.3615286778268123
-0.3158895943095473
-0.3280709275967777
-0.09705123934079121
-0.05875474726394739
-0.1115405081333012
0.1630031109577798
-0.003598729478080638
0.05964115225027854
0.7672814816142598
0.06774704791672681
0.439042470509981
-0.01413891096037433
-0.02577127569462421
-1.597203774543471
-0.5711556632755542
0.03559739265710096
-0.1606921407397759
9.404728312140744
-0.02425108695622806
0.04683696375750911
-0.1988711525136129
0.04592758089961776
-0.2478123613395273
-1.631777180686913
0.3246919383763112
-0.1201878779176311
0.02291471530788527
0.02108936701380356
-0.2524904371566382
-0.5042214703023781
0.05945601581689561
-0.7025736176310734
0.07859650832086222
-0.1921788972855321
0.2652339508872315
0.04176135744557082
-0.2583592713036457
0.2212951339795957
0.04260437258210695
-0.2113228841643511
-0.2156220254326447
-0.1613048462315785
0.8770471414002339
-0.497162282113336
-0.1664266023869638
-0.5035534065621722
-0.3638383460155681
0.07106476320547141
-0.1053171477650973
0.05472903495114464
0.007099227830210533
-0.09790562571737128
0.05747677013263273
0.1641948976719802
0.5508640519650719
2.172232998501899
-0.0626035710533544
-0.2535998934351275
-0.6060653124369281
-0.5054448702856101
0.004988711110852343
-0.3562024830402266
-0.5336900020841687
-0.1114064555037449
-0.5243491863729152
1.720468016679791
0.5615613545441117
0.01995737780788471
-0.2991172022119653
0.1063517618408265
-0.8523324033842313
-0.1739674674978226
-0.0442176895366567
0.1005887781509656
-0.6198027453413796
0.02195953470007871
-0.238613622905288
0.104339175683327
0.623865296560964
-0.1058759042003738
0.6529064835375872
1.039942012342927
0.4544684138799455
0.07548553756377667
-0.3971618381342509
-0.06175346638714136
0.08992981466335789
-0.3559614869285286
-0.08389316980083386
0.1848358287216937
-0.5111716247345232
-0.7616901137864474
-0.3878409012403425
-0.04901967138759805
-0.1625623118605519
0.1272087284727113
0.8898912743353709
-0.0938381870380811
-0.171717189926805
0.5370033418069866
0.1973820489868525
0.7252228155725217
-0.09259543128486715
0.04977700969384875
-3.446542764420091
-0.1069365182811871
-0.3207247583747806
-0.2970407789293857
0.04620522578311013
0.01885734889102337
-0.06237894068762391
-0.06564401061942729
-0.2206130045472218
-0.3072982587114189
-0.7072264855438601
-0.3858626522927059
-0.6433042560489136
-0.3489790548697467
-0.01164044420732556
-1.362759701404336
0.02322941099047123
-1.187676975417829
-0.9101134039857507
-0.1511417364861816
-2.064816103953624
0.08555285656988407
-0.120422100035597
-0.08040343523557235
1.796117470412455
2.229015091155572
-0.3231284544806829
-1.257897767388171
-0.08485292370168461
-1.163112110408222
0.1881542935568217
-0.06381060548739682
-0.7707822841242128
0.01536370854614703
0.1859234468167199
-0.810816360940162
-0.1107227978947797
0.1208635813076675
-0.5318743350333168
-0.1565090382450665
-0.5485938124349353
-0.3348566001241043
0.1840184620929539
-1.386733356109458
-0.1650083314440763
-0.1344876899334463
-0.1790327516915582
-0.02795811018812391
-0.540815960532205
-0.4868382549253661
-6.464824283815425
-0.03070054584454938
-0.2563771810471286
-0.01610238907295477
-0.1585813935945323
-1.129282504500593
-0.2222653027498082
-0.319067374876329
-1.095133420114437
-0.4413115675005226
-0.06972892925821256
-0.1207162743829421
-0.301081517492235
0.1162308411447437
-0.2225152784981948
-0.03643535581334039
-0.7526236444339502
-0.8757018369247468
-0.06189307855160484
-0.1963695529087886
-0.7931271663206386
0.1500909464447786
1.366856273535429
0.691129735126283
0.5006884277168098
-0.7467183930484215
2.140445094638137
-0.1766365974733797
0.04423710683686498
1.873956547932647
-0.5585069544253648
0.1261434591607375
-0.465407538584879
-0.5745660650331188
-0.8705891984108559
0.05862675462212401
-0.2358079810534796
-0.5944466222975558
0.4114925076666517
-0.7672462793449404
0.03797516092287258
-0.05592805145390214
-0.07421872270394247
-0.2330147659068727
0.08547027693466445
-0.07742505083981349
-0.0401207919970359
0.9758982241911363
-0.2525982745986167
-0.1055669605885616
-0.07151041555660763
-1.107251150859321
-0.3034040709107924
-0.8926015155185582
0.36765135058849
0.182571661412767
-0.2914003687494995
-0.1459867153845531
-0.3479702901385989
-1.128345791968515
-0.1453501828158539
-1.105563237046477
0.5861644191405941
-0.08631564030285514
-0.04852939651095458
-0.2278511978568563
1.822378979419477
0.03382379939543605
0.04043394663171405
0.1614432966510593
-0.3159725724151658
0.161737208393251
0.05525940411385815
-0.01691797932755481
0.1554835872418082
0.3985853399759391
1.887083812407315
-0.238245694783569
-0.2917560619998534
0.2672495846663461
-1.372555564780392
0.0734801449870407
0.3531529012705709
-0.1549153369083044
0.09778569283510395
0.1478883491670515
-0.5009385126954399
-1.068724418032251
-0.3529371110521687
0.458956132230096
0.350889245900438
0.06933363296216018
0.3759073716680589
-1.527648543849113
-0.1634381321717406
-0.1167757183187418
0.8634222062516154
-1.297201745187849
0.02197847334798091
-0.2199993093012397
-0.3315579972802429
-1.741581318528826
-0.3424427840826239
-1.355255806195118
-0.3346947299424153
-0.3882385001446629
-1.172147043458169
-0.2039384281020255
-0.1819775989180768
-0.469688923040976
0.1313717485098784
-0.1086424287425986
-1.569445842092418
-0.216203790364793
-0.1802642362640036
-0.4701045298132031
-0.4373237652392736
0.7880102829480298
-0.3050838946648
-0.5050060224213562
-0.2977743487973893
-0.3669162653312798
-0.3880185500866505
0.02208408859955263
-0.2706813553823552
-0.8007051874526047
-0.874875499570864
-0.4429894113430147
-0.9169680926351997
0.08207354544866577
0.09151315406378083
0.04411896333106879
0.05841433325623343
0.06822582841896702
0.01228773594865345
0.113938716802141
-0.17666807310863
0.2654772079216856
-0.117073055354937
0.01684277196725286
0.02233947059162663
-0.2186249470270782
-0.05686180737954164
-0.1935636776482619
-0.469387301877874
0.2152081427887749
-0.02990920878637416
-0.4552589982231445
-0.04746481471910537
-0.009717996932036501
-0.07358103055298169
-0.2435453480067267
-0.09863984839340403
0.02124775592254726
0.3947803515644956
0.140446766208868
-0.1831284951181164
-0.5750832145703445
-0.3226941112974564
0.012755072647122
-0.3023435997357004
0.2217282314346968
-0.1964037863507496
0.2079995783742862
0.004610156440533734
-0.0879166094597819
-0.01414815146468246
-0.1425613455722327
-0.009272416846375166
0.5334266179511745
-1.4509231393141
-0.319879112393429
-0.4247494056170386
-0.2468200866251026
-0.7938650935571108
-1.442181759522643
0.2304937056797553
-0.193306448885329
-0.1716744872103079
1.439513977463841
0.2204702064264612
-0.1753019467787938
-0.06851001464971809
-1.124965736212916
-0.04673384884205371
-0.103898735755609
0.0420333426832863
0.1824102420331286
-0.1624105183599382
-0.4062737177357968
0.03077392635365366
-0.47421621848393
-0.3814692600770089
0.1684680650521448
-0.3109398988119064
-0.4701699587423923
-0.3729981659909425
-0.05637546537855036
-0.3712646785202038
-0.3318162756099691
-0.385107557739938
-0.197410569326589
-0.6560304994177996
-0.1626306837421454
-0.1678143027454994
-0.2820555538013774
-0.9804656209269904
-0.2747663943593982
-0.5393654910077634
0.08311402881112678
-0.2275143544465653
-0.4734411808852482
-1.379404336063733
0.09318294573848027
-0.08067106482970748
-0.04485786474650701
-1.615415725076963
-0.1222384678191004
-0.09713917065035881
-0.3799360288140573
0.0620297883697017
-0.3833207547517419
-0.4956934483963583
0.07384310619284837
-0.7331521792645288
-0.2050899834777992
-0.3305408078172729
-0.1634004100003394
-0.6132368525169732
-0.2660955441296787
0.1088384579932244
-0.6175651202056529
-0.06974297519640892
-0.7490831933330161
-0.1647568398706698
-0.2080385948110189
0.01133452569923314
-0.281029787593416
0.3592981254733927
-0.1216086144438951
-0.3220876083360665
-0.117399478440878
-0.770638211809401
-0.4451312155885659
-0.5131699767807066
0.4230253366590974
-0.6048205674414298
-0.2494342235471713
0.3401067985460876
0.002215501058747752
-0.02216623437182478
-0.1637019851976328
0.01680740743743226
-0.1418108119896382
-0.02313499481297966
-0.2967518812295322
0.4402754110194045
-0.1242390480277974
-0.1371735510611752
-0.09227931341653335
-0.8558754447415003
-0.04594129093824518
-0.7067610018356038
0.07232845749749918
-0.3096816805758517
0.4946113969064397
0.2752814805088038
-0.2635450162875303
-0.3962932618148848
0.1092343916689338
0.1949668133712198
-0.328476415251337
-0.1434499225296124
0.01918377026271067
0.08767543100139155
-0.06607714333281804
0.00665037643141436
0.1907653720217581
0.03462037581817618
-0.432346032005926
-0.04174456017521131
-0.4395030558262139
-0.002329141343631939
0.1246603414243785
-0.4765810044446108
0.0699592773517122
-0.5802164253225613
0.1989637857644051
0.05151994606208324
-0.07149461317436913
-0.2180658154773744
-0.5557444232484562
-0.2609653832295967
-0.4791328436222799
-0.2089307101270156
-0.07242134768176239
-1.319715219170416
-0.6579272223638749
0.01192976599818632
-0.1746389018661357
0.2908036757448295
-0.2810889256013323
-0.5658115219662357
-0.146746840978271
-0.09334182624876054
-0.1558527418088523
-0.364482780559531
-0.1361918976534915
0.3836337966554892
-0.1766781010805242
0.02378994138490756
0.1984998271192932
0.03278080477637502
-0.3116993904905392
-0.2870115192726113
0.1244660385645796
-0.1655022821162558
0.4865147003306194
-0.4347085624373879
0.2940372478361347
0.1086276464129085
-0.3991296629103107
1.090674072378037
-0.0747247636079965
0.354523963414647
-0.8136849821743541
-0.5483284972330358
-0.2333051540822093
0.4428179036037534
-0.1479203568076719
-0.5463225017747471
-0.3611431510967256
0.7108045841041711
-0.4863753802123547
-0.09445320621029321
-0.06975456831188559
-0.4369976829175021
0.5953403073762326
-0.344955774503164
-0.1485395869353388
-0.3389434901836316
-0.7225715957088926
0.7655912850190868
-0.3172572635564432
-0.5609408239952091
-0.03069450055689149
-0.2926404047372063
-0.06856489419135191
-0.4923925724938628
-0.1451976039356275
-0.7768226317665754
-0.5982114624043976
-0.2903732960086178
-0.03069669435100316
-0.4009884056930383
-0.6512645196079547
0.1565886593629352
-0.08473828203395888
-0.459094374823232
0.5068099448668976
-0.5602025174772477
-1.651458525374214
1.004800070648114
-0.4584817697295843
-0.5198196017968645
-0.7845599633072579
-0.01530893548764179
1.705629730212084
-0.4892192859088879
-0.5652887778303599
0.0774592666820767
-0.1439989600014491
-0.1322229690675454
0.06080386530408557
-0.1136574247588159
0.07990136859793444
1.404754778929492
0.357227194291863
-0.9790118849957729
-0.3715151561532671
0.07324401010193909
-0.08066068528805161
-0.3947694953079648
-0.5449564920619596
0.08261344762959841
0.01517072466990213
-0.05040701471662882
-0.1094442036100146
-0.2632112628369508
0.8542721607436119
-0.455504669098178
0.1660848030828299
-0.1345901708266895
-0.04080980541447649
-0.2612672558365727
-0.1618480975845672
0.5174974191322406
-0.3234604486700461
0.5579746062828824
-0.3294989369802547
0.8686203700668906
-0.2527985796752275
-0.4460476491346515
-0.2220869432652036
-0.3438248265128503
-0.2225013578573773
0.05369826491897454
0.994671569170154
-0.766276011212883
-0.7981188390604296
0.6307303245980115
-0.2107063044568628
0.282421338681334
0.2454513841253325
0.2028393067532085
-1.523887879446542
-0.2931277735779796
-0.2876087870275106
-0.3890370443290577
0.3861751205659579
-0.6165630731623163
-0.5992339676379311
-0.2215009221021262
-2.145750833810414
-0.7514641567465519
-0.2492403382559682
-0.3271144331683902
-2.078720115588221
-2.211816769242016
-2.080835573065658
-0.2490463719383589
-0.1378033663205837
0.3707279840598117
-0.8984191576935189
-1.232580085988961
-0.2226971936210816
-1.752865921488924
-0.1862457677671247
-0.1107551440518965
-0.2060404732652583
0.2178043408302907
-0.5721533811731463
-0.3955567814731755
0.06296834093843401
0.1199386569851139
-0.4419307474400679
-0.7435026967129317
-0.3254333856031232
-0.3608559982622703
0.04973974710729565
-0.2150407578734889
0.3429278715253158
-0.003263647513400268
-0.863434666656209
0.01489987893889068
-0.01944183041432451
0.02999880149653483
-0.008833406186585025
-0.7943000600814021
-1.602861496829945
0.5865518446173793
-1.320310885877891
-1.219832005077017
0.04300252519328222
-0.1433709980988981
0.3885925721137608
0.1669367663048967
-0.2598648816827767
0.1630303544593343
-0.4365401270824313
-0.6308923950864398
-0.2228619125048343
1.526307875204355
-0.3095841958742218
-0.3378199154059983
1.848605244300084
0.05265520139304029
0.03353821066709441
0.4164422555100215
-0.4907030099644355
-0.04199396399951242
0.005120407690655963
1.50098060525594
0.1186485594951523
-0.2475630924284295
0.1258836135719819
0.3056689045151908
-1.052315533873713
-1.179951268483436
-0.8963042731186147
0.1978030154729238
-0.002805158587368667
-0.1655963070386731
-0.3129680482798557
-0.06900764091684562
-0.005202605393395591
0.07250330071334762
-0.01103738900036325
-1.250535065132086
-0.4376393720580621
0.1255925391219949
0.04627660154148772
-0.4029950403926781
0.2643461717162154
-0.2095122024343779
0.9653185415351878
-1.547924436938315
2.205785339815799
0.2840752758311914
1.057349360190453
1.833735302231541
-0.001837941870696553
-0.07448308487583173
0.1414711936115655
3.892226141246683
2.837811312231629
-0.9105820198223835
3.453683845922477
3.682172229603835
3.147354755136722
-1.31339984205363
-1.369229380502904
-1.349231720698996
-0.6854980433383824
3.063924979615358
-0.03502157636566604
3.528234253044605
-0.207996272074662
0.03015856243906917
0.02855778371961237
0.03481911811350917
0.0395614004842397
0.06627317176174531
0.05595238086702376
0.08547402306712559
0.07862697385073987
0.1015398349973984
0.3022480251993432
0.04778312033072491
3.466794673294312
-0.8582528391517066
2.695582290048848
-0.02721927192354874
2.669929147164876
0.2934927201914564
-0.5862154967627117
0.3630831293805659
-0.9288561558725947
-0.7390174421632087
-2.957541847188404
0.3977947274649132
0.2749307057500832
0.02713299282975218
0.08727842365297106
0.1409547579654251
0.5155029303515644
0.09194720286328922
0.06037904296320595
-8.45995945708442
0.02631176177701433
0.006629441465556898
0.2335258453634823
0.003663206116187126
-1.173662156153503
-0.01443970124134969
-1.572930294820789
-0.2215038867309697
-0.8696080245202621
-0.9128621964238292
-1.633222316015599
-0.182628893999466
0.2655726138839086
0.186156738605656
-0.05439453265126371
-0.4740433934910802
0.2254164565472935
-0.2362553431123083
0.07599753588194082
0.1092823795857106
0.05999498843231826
-0.101902688462571
0.8990405354285104
0.03392594354276855
0.04377603869063078
0.514227674147781
0.6932537210386798
0.07329422281261845
-0.4633159334322399
-0.2767930207821424
-0.01355962376183154
0.607838160028403
-0.7358849179386115
0.02966213348656338
0.4285216058992706
0.04938225408933093
0.6551793835168161
0.01779245944543085
0.04098800284527255
0.1565007206893463
-0.1225750120500907
0.03445500544342533
-0.1872908784624385
-0.2020364231599522
-0.4802103008726969
-0.6977371988437679
0.112624240482745
0.05917634330823544
-0.1368077789234198
-0.1018625989691241
-0.9782239681765431
-0.02876473702879973
0.01448745823938088
0.1197788065960658
0.08748805372481816
-0.3436560659834825
-0.05390765563728121
0.07076291740118087
0.08701440201312899
0.1476660789783163
0.05236517729697174
0.6993426950866013
-0.5655444741334368
-0.7733447303277401
-0.1771305888842723
-0.4262874151577034
-0.79157982673672
-0.7905553601489409
-0.7508298532367514
-0.5081007609729233
0.01529932219100068
-0.5925759084708498
0.2157969900103789
-0.3161396033061024
-0.5448625117447949
-0.8432345106855333
-0.158214030661457
0.02661155448780581
1.989913831872454
-0.5680224475369522
-0.2982501580773183
-0.7387565765251894
-0.1035675624445902
0.01718851021705168
0.009546819402628739
-0.281297648093795
-0.2909904932172446
-0.7546733446105247
0.2433595705190447
0.5192038765599092
0.01871699495189092
-0.02639902522834089
-0.08226584303107524
-0.2604897418113398
-0.1147412011915715
-0.01835937577232186
-0.01367779454372773
-0.5286707706330815
0.1010926186008774
0.4625376898209502
0.750021881352944
-0.2306997973952716
-0.08107482048387057
-1.105506025509139
0.09353243719472991
-0.04453751206884235
0.3158243110310094
1.742699743549615
-0.01979075715117442
0.0001696012905490856
-0.07539628143399789
2.283469590007106
-0.202536399724585
-0.00382311692696424
0.1588607932889206
-0.05196906946632869
0.1361641396664371
-0.1192759142514396
0.1613590842515582
0.007816515118534676
-0.1254759529722608
0.2264719039533502
6.68930217075059
-0.0127490648205428
0.39337064125476
1.796731395345186
2.921250995890114
0.644543637964392
0.3755265548512167
0.5263346537771517
-0.0896192572372351
0.1863653039806839
-0.07652962406510157
-0.1113496740084539
-0.181749198240928
0.1335904352078701
-1.488225703929553
-0.09182255319040863
4.673421524726302
-0.0139185682964563
0.133479195623739
-0.1179911139240327
-0.5484324718972877
0.3013360417875962
-0.08459254048078925
-0.2284077429511339
5.982969822359818
0.5677709217588781
0.1166250455286843
-0.09986649042605507
-0.272959557791467
0.3091963564990883
0.187249766501951
0.1031483313516833
1.145877647986586
-0.214357106893538
-0.2785047369337402
-0.370615667881329
3.050775747613785
0.8555583653512193
1.041306226738964
-0.3125479783552759
-0.009193343437624062
-0.7296018053168437
-0.1203786167151899
-0.1948410292720291
0.5398038807700078
-0.1965075942102875
0.2664220640323763
-0.05196490239352947
0.003876642808655674
0.1689288174898125
-0.9927411703383452
-0.2020937662070352
-0.1635585375367729
-0.01969230529903199
-0.7138937632761894
-0.02144817522854204
0.01645800398299235
-0.9596548955059443
0.4148169643532528
-0.264666651612636
0.1489651910856691
-0.02745910872259982
-0.1841569885209645
0.2132278587653052
0.08862978972285562
0.07617415958468123
0.2964618323282034
0.4707548650247377
-0.6911116164274488
0.2849923892436962
1.129585068811323
-0.1829302486085946
-0.317380143720655
-0.06707816274759651
-0.04077580005893622
0.3143836275903232
-1.237461542564517
1.261136341248946
-1.201341200218189
-0.029136253780677
-0.07646962909314524
-0.2761525918932161
-0.1403781730292399
-0.04779525558451347
-0.2450161371464819
0.5052475703802426
-0.2696151040779408
-0.09428684403656327
-0.192171778731662
1.00046659694835
-0.09750411539170373
-0.07737170520523461
-0.1311984392484169
-0.1722231234635323
0.2680266777110174
-0.08193312987765673
-0.1304965539008433
0.03544697877579706
0.07224820027716944
0.2110971563685784
0.02164323870245135
-0.0224330799826011
0.1163105160028451
0.7475685489264687
0.1350714342038452
-0.4886823273926046
-0.3632030211269712
-0.1800653892804669
-0.2545247841082376
-0.2028567992073195
-0.1152697554617814
-0.1074417978874388
-0.2336653440673304
-0.1767404289643302
0.03163926769087062
-0.1496060494354093
-0.1248727400750123
-0.5411565129619098
0.1236939630630804
0.433988068593066
-0.01903961347541374
-3.737703261639747
-0.1928648473336076
-0.06997450008247205
0.04787247850916396
-0.06765429780916027
-0.2575914593255774
0.1720519118481047
0.4606720051416678
-0.1868098288017381
-0.992949154114837
-0.09020859473035392
-0.125702049660022
-0.1177508116343251
0.1264034278591231
0.1401433787164112
-0.2211749999290836
0.02536930608459603
-0.231542429188003
-0.02528194536545949
0.1698755026072278
-0.02460728475062121
0.2709847982622693
-0.1000324456344693
-0.04416099325166128
-0.2629790592374496
-0.1149956120146942
-0.2250783952540085
0.08139102350185801
-0.07643820808565924
-0.2001699764300389
-0.095341282394748
-0.2029202099027147
-0.1896398345335941
-1.063013003468226
0.9878725711477941
-0.3076278819166283
0.06494541019795678
0.1097011472621031
-0.05332149717933339
-0.151761260210851
-0.3217346484989984
-0.2737894316351362
-0.07558797502126247
0.1570798103977662
-0.03675192112625681
-0.2795336944977305
-0.8353669468394005
-0.1642925133941508
-0.05248669954634102
0.09030675774089993
-0.1057943894040988
-0.3751891454727688
0.08615160998831883
-0.2871955745384907
0.2168914419998858
-0.02819682592603488
-0.1714340297990816
-0.1043644699632437
-0.5586195022983653
-0.05938953179270805
-0.1742079131033321
0.01470118543748672
-0.1129714498716216
0.07278747809174994
-2.16489585225792
-0.05787662571396857
0.5643348680104219
-0.06226156922144141
-2.95342539532112
-0.07717834999363356
-0.708460181820658
-0.2779437826068267
-0.002402063624785241
0.008437778922649759
-0.2289871909968517
-0.1908776523617882
-0.7234166158955389
-0.03974152707989183
0.09343900319380881
-0.1432680203585585
0.1154659238415818
-0.3664819689570732
-0.2996992291838987
0.2974257748376975
-0.7417286372660457
-0.06375799640950912
-0.1257539088060561
0.006455641242988351
-0.06687032355482372
-0.4379579103963284
-1.028547349321351
-0.1276537722287921
0.08418711889712469
0.05699261272509408
-0.1077791857239735
-0.2062996721852846
0.05642815440017637
-0.5934902083691495
-0.001816509249989033
0.6951249689662818
-0.4177216010241342
0.2013352190336561
-0.06091820445705241
-0.1299076238530262
0.1553914306083831
1.723741193531857
0.003648686121351318
0.06971447212482861
-0.2501691970803541
-0.05903482650106646
-0.01446646207318011
-0.07579561723539942
-0.1210418892158553
-0.04258714170604762
-0.08248034038397896
-0.3440904628898455