/*--------------------------------*- C++ -*----------------------------------*\
| =========                 |                                                 |
| \\      /  F ield         | OpenFOAM: The Open Source CFD Toolbox           |
|  \\    /   O peration     | Version:  v1906                                 |
|   \\  /    A nd           | Web:      www.OpenFOAM.com                      |
|    \\/     M anipulation  |                                                 |
\*---------------------------------------------------------------------------*/
FoamFile
{
    version     2.0;
    format      ascii;
    class       surfaceScalarField;
    location    "0.5";
    object      phi;
}
// * * * * * * * * * * * * * * * * * * * * * * * * * * * * * * * * * * * * * //

dimensions      [0 3 -1 0 0 0 0];
oriented        oriented;


internalField   nonuniform List<scalar> 
37423
(
-0.1098534148852405
0.4250854845845637
-0.4549479564485275
0.1397158867491825
10.85726371918075
4.885977195124327
-15.74324091428431
1.5885717585029
2.845629205233297
-1.486563727982715
-2.947637235760519
0.4987333967376697
-1.074194434954379
0.5754610381899501
0.1189815175876743
-0.1664137139662988
0.02853872296771807
0.01889347340623098
0.04922547375610858
0.1447096476770904
0.3015410301674503
-0.4954761516145675
9.159772461454759
-4.652272978468122
-10.85518694958913
6.347687466600234
-0.06765732704818422
0.07305630052252607
-0.01010359503266767
0.004704621550056154
-0.2046054984597685
-0.01505608899508285
0.4247731069225253
-0.2051115194749777
8.636042038815305
0.6831797625670238
-0.4906210381993945
-1.392743955373186
0.4501209698665096
1.433244023699853
0.3019331501298117
-0.5526668652718559
0.7648968531170266
-0.5141631380053717
-1.039197312835047
1.36696775459269
-0.3277704417663438
-0.4552255475650811
0.4874913860599904
0.6055363234835557
-0.6378021620055603
-16.28297791371246
8.934005253908827
-0.06166712907395468
0.0007464372581511127
-0.1177206645909542
0.1786413564018155
-0.4663813533617699
0.8127726227213447
-0.04445811924398294
0.2016079414511133
0.05221053731313183
-0.1842312249595796
-0.06958725381460032
0.1027001549568543
0.02614348964321803
-0.001884754433738237
-0.1269588901725075
-0.02309174087670783
0.06928232842451726
0.03325229181980555
-0.07944287937478141
-0.2188853474945962
0.3816786268565676
-0.4254409321066479
0.2626476527402756
0.4070792481583473
0.672704356574398
-0.261535515029164
-0.8182480897242324
-0.1176403662139008
0.127399881927438
-0.1111670230859219
0.1014075073657374
14.79619502811862
-17.66781557795685
-6.354376412352535
9.225996962245757
0.5851161971002526
-0.06584466437019434
0.09113832897156346
-0.6104098617054647
-20.46495418497512
9.369415765354967
11.09553841962335
-0.1828833784397813
0.1359680083394604
-0.4194659832738349
0.08987542293120142
-0.09970557733811217
-0.1997824482705071
0.2096126026712094
0.1681248977208953
0.01296548441038752
-0.181273498877792
0.0001831167378529477
-4.260782846063475
-22.44440201715277
2.757879222701926
23.9473056405906
0.2152423593797528
0.3969839996338732
-0.1530759333984379
-0.4591504256254907
-0.07927809518711
0.7015997027208095
-0.01579771872855617
0.1091847079068219
-0.1063614213142059
0.01297443212943183
0.06086514263439428
-0.6375580897871609
0.3332883936259862
0.2434045535139322
-0.01458724776734857
0.06249073617142255
0.09491897624805318
-0.1428224646625213
-0.0336671180545333
0.004664646273495392
0.1215233899510236
-0.09252091817477849
0.2652100527425291
21.60309238978139
-19.51688036251377
-2.351422080007465
1.113265509704081
-10.25791403001697
9.327270388775275
-0.1826218684213163
-0.02425366242750307
-0.04514588732710801
-0.1024754634280299
0.171875013175146
1.619599786387942
-5.711089152695108
2.383336994688049
1.708152371586372
-0.1435350855469416
0.01067423610975148
0.1577714328977211
-0.02491058346478912
0.5536710385019952
-0.7027403869050435
0.1947466326891207
-0.04567728429151572
-20.99223961154567
3.666058197506798
7.172304914988946
10.15387649907613
-0.2187092667244217
-0.9259069152863663
0.9981980704057105
0.1464181115740431
0.3983706119279282
0.006214426153139317
-0.5312958368905963
0.1267107988094731
0.08088174236110479
0.661050142806098
-0.07859289392703132
-0.6633389912575328
-3.598513814835053
-21.71827410757188
22.59695771745664
2.719830204955616
-0.9482789013313777
-0.676834230340103
0.1775591390198974
1.447553992650451
0.5160900924715555
0.2488314977902673
-0.5194952616119179
-0.2454263286571224
0.4207303271041304
-0.1850841417676842
0.3702177661794273
-0.6058639515263047
-1.049571498873756
-9.874755129821525
10.92432662874547
-0.6510522027627177
-2.82782191342984
1.149706875452669
2.329167240634181
-0.2465289122027013
0.5879811441165761
0.01425513130035341
0.1995036230529544
0.04757851035437929
-0.2613372647171728
-0.1317927020484582
0.04398770952587688
0.1070450398801039
-0.01924004736200892
-0.5234256293390871
-0.1064136508430697
0.1107208586309631
0.5191184215267017
-0.09474375346703877
0.5890592358091052
-0.8648374933071246
0.3705220109527285
0.2628033216859244
-0.07589135519274168
-0.02499253219051461
0.01406834036417336
0.0868155470153979
-3.217152750919436
-0.5615241410991009
-3.060157505475381
7.248523421902449
0.05183393006208832
0.04488787904890766
-0.03517954687322877
-0.06154226224211469
-0.01192144554602332
-0.08893114369668992
-0.004896652913437316
0.1057492421534828
0.3888970237447291
-0.3770917647984762
-0.1341344494067059
0.1223291904489062
-0.3131793141885106
-0.1598775111918063
1.145761181934964
0.02982497287375624
-0.1067177637872982
0.007691350965598935
0.06920143994039253
0.1158052362672343
-0.2987247912334695
-0.1578498490722619
0.3407694040300652
0.3381904234117561
-0.7848100802212098
0.2166216543206267
0.3638493754822011
-1.144639302830644
0.5641682730144564
-8.542673758746512
3.965298968231237
-4.777301793682952
0.08186796221823345
-0.04567131941664848
0.01351118222590934
-0.04970782503545987
-2.391204157043716
1.026726959417575
1.110397079936966
0.2540801176738507
-0.5285173694209925
0.5329503627572043
0.09103319308068081
-0.09546618643356883
0.01455431828697245
-0.2792844883771963
-0.3659634740060458
0.6306936440934611
0.1149249920409687
0.07324870850462692
-0.145199167140191
-0.04297453341269599
1.678711047847939
2.967180208548023
-0.9479377519364089
-3.697953504513278
-0.01899714619544043
-0.3896467040540365
0.7152175055116103
-0.3065736552935046
0.6769215171731225
-2.016857863683161
0.3799166891348352
0.9600196573566431
-0.03392998198309793
0.01583738784362203
0.01809259413539257
13.82710471844551
-1.130879420590272
4.760793739817657
-17.45701903764275
0.7333191936435703
0.07372665450835705
-0.01083425826369275
-0.7962115898973762
-0.1804750165830612
-0.529156288850737
0.02639093996405846
0.6832403654598239
0.3237572006315594
-0.1489092402658958
0.103795188453343
-0.2786431488305364
0.01051411695869701
0.1154338921759244
-0.09811284057430943
-0.02783516856631529
0.04901248812952368
0.03516178007344588
-0.08417426820672097
-0.08243124436498107
-0.5252018930501153
0.3611042252109455
0.06723064079879656
-0.04507565814199616
-0.1087403259650623
0.08658534330182401
-0.08541153803452325
0.0885721958363931
-0.003160657808446597
0.05896153886587164
0.430607656155695
-0.06000385440888866
-0.4295653406229528
0.0652652180297081
-0.03513186528868691
0.1515904908459977
-0.1817238435915978
-0.116686389671738
-0.2287080149867075
0.4611996409205616
0.2942492476560467
-0.01395163770118824
-0.03443426405528931
-0.457644487215757
0.5361123776117703
-0.04403362635240193
0.1604006466272041
-0.0129036359331398
-0.1705412357862762
0.02304422508191954
0.02178143693196172
0.05812617515702061
-0.03109052104279322
-0.0488170910524745
-0.1072570320425405
0.5122030606082218
-2.067241183855767
1.66229515526686
-0.7842558312989784
0.7695292662336438
-0.135438316794408
-0.1465995633988471
0.2007066963426964
0.4254136084486417
-1.180701972812847
0.554581668006467
0.4673315809535805
0.02064678572200597
0.07454632185326768
-0.06109491283464747
-0.03409819474709332
0.06328479074140354
0.06161242308864287
-0.2304402454039075
0.1055430315668819
-0.6215024040750183
0.5879494791975738
0.2337070545503701
-0.2001541296790475
0.09135265811241537
-0.04496543362419404
-0.1147946230484432
0.06840739855415884
0.1314434879077518
-0.09509740141432257
0.4986369286479806
-0.5349830151453047
0.05080057866793982
-0.07553623499020379
0.1201402453947086
-0.09540458907943515
-0.09922442342990598
-0.1503884920914827
0.3775877020994277
-0.1279747865784512
-0.3240086048755475
0.4716798512664506
-0.2468956698199803
-0.0358122460831336
-0.04513719539022943
0.1665341665570405
-0.0855847250884495
0.1221131996697334
-0.04910874913255877
0.08724912320414316
-0.160253573748165
0.09782322072537147
0.002592221761236371
0.0006436818011829843
-0.1010591242919539
-0.07305241953605894
0.03352883974136674
0.1344479300064691
-0.09492435022220155
0.4085971385367352
-0.5597318319036302
0.1075129310561363
0.04362176230721192
-0.4295964655637535
0.6567042630330516
-0.2293673825617581
0.002259585083711042
0.06988805323970378
-0.2295869430579846
-0.2049005738046711
0.3645994636154411
0.04920221306596558
-0.03311662132089741
0.106750584211949
-0.1228361759625318
0.6150203203470498
-0.3581406924485452
0.2867734503702321
-0.543653078290009
0.0995950702929666
-0.08496619018740369
-0.02619897970758694
0.01157009959514876
0.1131647012354501
0.3181362090883719
0.03603067061826126
0.4546198639757484
0.1914952000095438
0.6960374345564857
-0.115451378278531
0.2163345352536092
0.7835481772992965
-0.3038452780093163
-0.2460697911487126
0.1528331179432757
0.204682541426357
-0.1114458682279626
-0.5276557560551712
1.301212909299133
-0.5611135208635488
-0.8999768996382669
-0.02997122301538496
0.0859000095934673
-0.02091969971994581
-0.03500908686335025
-0.1358180444625155
-0.5234385457512287
0.3629276897460041
0.2963289004326256
-3.182646265938867
-2.981765223880882
3.797632727314034
2.366778762537664
0.3386454771479506
-0.3207309491105219
-0.6170172139253611
0.599102685870291
1.821255183983545
-0.3981548453136053
0.4701144378748063
-1.893214776544122
0.3528990674381832
-0.529070391053216
0.2370364662404156
-0.05077621452730409
0.334194949981018
-0.5413313393212362
0.2579126038619831
0.206110241633873
-0.2114603324695718
0.09593272381879002
-0.09058263299288452
-0.128835672808256
0.03856710141749034
0.3184780601506145
-0.228209488768115
-0.07288171531904405
0.008755290268189612
0.06643764047169429
-0.002311215425657376
-0.2375319103933854
0.01156516851824334
-0.01850548318120748
0.2444722250485858
-0.08077658096584873
-0.5015636424780224
-0.01462759930778205
0.5969678227408444
-0.2113019342206016
0.1637111157632163
0.04759081845400073
0.2231687798010474
0.02925209014911974
-0.1686747101999243
-0.08374615976264196
-0.03102768664440948
-0.1361410278422406
0.1972519314636055
-0.03008321698455999
0.2051855686149683
0.06355957063317723
-0.08881973876913719
-0.1799254004865659
0.3296303484207944
0.2269375916056316
-0.7493828465505818
0.1928149065112995
13.68624756550905
-9.164147601161975
-22.53877975582294
18.01667979150299
-0.575355609524472
0.02018285494454174
0.6145261108813058
-0.05935335631445341
0.1268107362757341
0.0321886198028894
-0.001860676317301229
-0.1571386797725199
-0.07261861897275391
-0.5283839396014641
0.6085246604218026
-0.007522101854867094
-6.773373258549422
-5.408845821242042
-17.40395124001076
29.5861703198704
-7.671195032861903
10.95344309595373
4.235086392762675
-7.517334455878173
0.1095713439756843
-0.0981059252356961
0.05470621369218342
-0.06617163243876997
-0.4677808470509585
0.2322736692875381
0.07967251450304928
0.53633608305588
-0.100458258920526
-0.5155503386499111
0.2314329198258364
-0.1192123261791178
-0.2626090857429534
-0.2896173797761895
0.5053885855969537
0.4221298701835269
-0.6379010760242037
0.01238064309433763
-0.1461498120391414
-0.4462861610877531
0.7562799675581093
-0.163843994443901
-13.63327145522731
6.126233968475914
1.085018701294843
6.42201878548528
0.08597686567632244
-0.00490883167536295
0.167071223984704
-0.2481392579931181
0.09402820257734729
-0.07977806783093043
-0.01425013475111794
0.1043653718094138
-7.52469681977633
7.420331448012031
0.3905826262029962
-0.3645345962824299
0.4763563206423013
-0.5024043505714531
-11.1642102939637
10.56765411884582
10.68705853213599
-0.04258006034593696
0.524195879627593
-0.08815864685009256
0.08513402360600879
18.05344214402053
-17.97798471608534
-0.07545742791902084
11.89173304977601
-23.02921786804728
11.13748481827181
0.8900723000043409
-0.1376253871434425
-1.544423071024405
-0.09342848511659699
0.1549628661625581
0.01330388652142485
-0.07483826757167231
-0.1138254009302654
0.1821318489449906
0.2279854285676469
-0.2962918765841679
0.4687938447606415
-0.439061732722036
-0.1984750790071988
0.1687429669624555
-0.1334265174506183
0.5448150912230257
0.4299868086303462
0.09923933543621535
0.05983309173482807
0.4875961950748733
-0.6018504671391117
0.01878808561827776
-0.3072170554243746
0.1059845578887976
0.08202017135350645
-0.5390778463729924
0.8998607030801739
20.84219261006264
4.72589136850496
-26.46794468166447
-0.5754343927537844
-0.2163550591751731
0.4969057030071746
-0.4047405414383733
-0.1408551376141976
0.04868997603786138
-0.04551228518848367
0.2108558400371379
0.02092325263735122
-0.1862668074906136
0.3362917615627128
-2.646431239710323
-9.536772613641256
8.966051102471086
-10.46494258801371
6.261575479439307
1.556935868890975
19.62887578340536
-9.412412960668965
-10.21646282273135
1.093264310334663
12.40620875090934
-12.81629329865195
-13.69724982067136
5.832705955738616
21.17095989039358
-13.30641602546372
12.54731800752262
-11.57714645764536
8.561931625802201
-9.53210317569043
1.153403961637803
-0.6103149545340132
-0.2563155567578385
-0.4842210095456909
0.5782043491434027
-0.1365633999481416
-27.43122298152935
10.15664339973847
17.27078671216298
-0.01843058125169576
-0.1329923312278191
0.1894865605129905
-0.03806364804149895
15.94334774133774
6.714096381550419
-38.2803138510471
15.62286972815098
-0.05601043219381346
-0.6019075611650492
0.05205404182906285
0.0337089898606113
-0.1504349576710328
0.04187930593710748
0.07484666186572281
0.003903871856475448
-1.659891708128373
-1.966840041203058
3.935754690585791
-0.3090229412852336
1.842460272391366
-1.191620581635514
-0.1062251023661719
-0.5446145884053242
1.388329853331816
0.09830181555128482
0.4832271636227988
-1.96985883252716
-1.137835564850432
0.1315446302447271
0.1791013599775045
0.8271895745898911
-0.09988298149769212
-4.703390157959044
-5.214616988979017
7.356564672113174
2.561442474806828
0.7324061140375379
0.1826866934952652
19.38324469868184
-20.83998671633895
-12.24050780303714
-0.1708369810083871
0.4542242262345156
-0.5147821713825336
-0.2857839855207703
0.2771276111315048
-0.387687480275762
-10.15128972210327
21.59220460721016
-11.44091488509149
0.7653866532632541
-0.5858631757592331
-0.7071792335764767
3.879348878884415
-0.0126178419062538
-8.570121194948578
0.06834013681425159
-0.03325008253158982
0.04568324193127835
-0.0431110538173689
0.03067789441543597
-13.80950052870234
14.8793143514223
-0.1917485429420227
-0.01497634130293302
-0.04066909909351421
0.2473939833271463
-0.2456499543926638
0.02498451416451642
0.3080422504209767
-0.08737681019913873
-2.762606358163369
3.545259060468165
7.197612515958867
-8.784544619778343
-3.190369689850162
3.921625926895462
-10.11512813333455
3.430895848302004
-0.04282662660659331
0.04317316861105801
-0.102217374232618
-25.23879090076412
-0.0024736565144616
0.001254711459872778
25.24000984584994
1.866089533745676
-7.998164301424898
1.918618096447865
4.213456671149269
1.897914814702783
-0.3949441089506372
-2.946287895595657
1.443317189818621
-8.732667563967595
3.889469402522901
36.31399594755873
-2.956830156172049
-8.45942822650446
8.144381809416517
-0.7826636415326765
0.05416085589120998
-0.05735924864850292
0.7858620342796921
-0.05680063138946485
-0.2732508435361694
-0.1403905601049687
0.4704420350150242
-0.3551831061059722
0.1717273596405018
0.04284017603630204
0.1406155704156066
0.04815616678657599
-0.03764204983233543
0.05085757576355682
-0.0497558154165953
0.2037429150534074
-0.2048446754083942
-6.555903358940326
6.559484817065225
-2.938683342167321
2.935101884008872
0.0004315634257164726
-9.588505344276308e-05
-0.0003356783726704576
0.0004315634255433013
0.004526620489818651
-0.01645374702522887
-0.1508378174757442
0.09127970550149729
-0.01841727908034401
0.08142585253511053
-0.1542882789640344
-0.1823788224640158
-0.3259832662336621
0.4415955195974995
0.06676656909241735
0.3742132557138327
-0.4863346145369206
0.07156144953586799
0.04055990928356229
0.1751576246005311
-0.2715383497817517
-0.09210745223157327
0.1884881774051961
-19.57496998451412
-7.861287869917604
-0.05158559270356522
0.1665227533401918
0.001691795176044407
-0.1166289558205363
12.99159285219432
3.747669390893622
3.356757972777317
0.02074949204675363
-0.3540255923815727
0.04262950551104806
0.2906465948131606
15.41499516214832
-13.99658302771791
-9.717471024752262
8.299058890323224
37.64811067675666
-19.56283797175515
8.130262866210714
-26.21553557120837
5.26036669574398
14.75059347949527
-1.464926239690584
-18.54603393553904
19.58234023793918
2.875970508683136
10.95220487038667
-22.82127842333449
11.86907355293834
35.21187284274824
4.963698677730711
0.5859239669630208
-40.76149548738292
-0.07653933512347559
0.1363378201302308
-0.2497673810878552
0.1899688960710859
0.1936463000508087
-0.1447949986148799
-0.6182005055423891
0.5693492041047017
-0.1491195330455234
0.2942830934835683
0.07815451072218763
-0.2233180711721714
-0.06160657552863925
-0.009232180762724272
0.08786624864263164
-0.01702749235357315
-0.1260556348588562
2.008948545015996
-0.3872210246810007
-1.49567188549057
0.288416854166953
-0.525710815626943
0.2026576554076701
0.03463630605007857
12.25973057193961
-5.705609682146513
-6.554120889778893
-0.2394221771400139
0.1268467048744683
-0.04654030562931582
0.1591157778887417
-0.3538700897780757
0.4967867648817315
-0.2113771666054021
0.0684604914928207
0.1674181741724378
-0.1165605984116905
-0.08256289846787042
0.01751288301241104
0.06505001545267784
0.6639242403137505
0.4980037667558391
-0.5185881922867719
-0.6433398148179504
1.929756581488513
0.3841833588091146
-1.080978817424003
-1.23296112290253
-0.1375072188067885
0.105960861120673
-0.09975606138514984
0.1313024190643602
-0.05109857448755065
-0.1392826566842395
0.08600217153951678
0.1043790596256412
-0.8369593392000226
-0.7246863688572547
1.73567729445546
-0.1740315864136987
0.3624311071986225
-3.873937705733987
3.336639956916596
0.1748666415773532
-0.8432812913294914
3.420288252998863
-2.610970832419675
0.03396387073286811
-0.4740265363465156
0.2359767855662117
0.3045714489220391
-0.06652169815236189
0.1759650554880417
-0.319327462662508
0.5200056237692995
-0.3766432166080486
-0.08524417404678916
0.09496398909183998
-0.009719815050262178
0.1232963702433232
0.1644122520716294
-0.2877086223166237
-0.08564122764760605
0.001877600323741973
0.099465285260302
-0.01570165794104371
-0.05858268809436901
-0.09572814201746133
-0.1056152288532735
0.259926058952805
-0.1016572016021041
0.1297048957773163
0.2115782111852122
-0.2396259053674093
21.18065975935924
-13.61180915755586
-13.99353257563925
6.424681973860513
-0.01239502887595091
-0.06961696488488239
-0.0006829387283033718
0.08269493248304373
-0.04550489833532038
0.05798211802105953
-0.01247721968732736
1.97920198443162
-2.578086479090018
14.50716058445053
-6.985126018684531
-7.522034565748509
0.05237086568406751
-0.1270562575776291
0.007794083848249702
0.06689130803931113
-0.04770660332523519
-30.35912980407281
-0.0113897263358548
30.41822613375448
0.1174316470158133
-0.07347467656202451
0.2191245368454287
-0.2630815073055545
-0.0485717885304511
-0.02454294015432142
0.06806369078495
0.005051037895603815
0.07220965285799887
0.610980176652823
-0.2550419402807143
-0.4281478892490075
-0.07152656179717048
0.001633312218355295
0.06989324957379697
0.0160058917588922
-0.01064241616601708
0.07008609180979282
-0.07544956740708046
-0.008150302803956544
0.04709888101106625
-0.02452908659369619
-0.01441949161899351
0.06712265936742572
-0.03998099248584064
-0.02714166688554686
-0.003369235158567144
0.08545210383776812
-0.08208286868329324
-0.1317357110134493
0.5702454097929974
-0.4171978046537387
-0.02131189413674736
-0.01196044836009349
0.09678252849872596
-0.100241867404852
0.0154197872591839
0.08481068592827874
-0.4268234549399559
0.4171922335563544
-0.07517946456170105
1.250390469854126
0.5172162175552982
4.216114604077074
-5.983721291504963
-0.2832925714961417
0.1385281203182307
0.04478413885467658
0.09998031231621061
0.1028811728668607
-0.01660713162818044
-0.08627404124518213
-0.01685090446865345
0.1318940356656288
-0.6171786467181521
0.5021355155082523
16.48538506575068
-21.12313522187203
-0.07593333757373016
0.1481783710495762
-0.002040011307825653
-0.07020502217336891
-0.5239294599920472
-0.0203644783446869
0.5442939383121069
1.577398730638663
0.6173592659973449
-2.272791543902738
0.07803354727110098
0.8430966305197067
-0.03407049014217617
-0.7081042701149293
-0.1009218702703533
-0.2576647274794013
0.3210664831739474
0.08089794785603195
-0.1442997035609909
-0.02419735360460629
0.3901135452413368
-0.4107343576393537
0.04481816598979985
0.1338515495564964
-0.2886643588199844
0.1594670038149117
-0.004654194556408962
9.887604409294918
9.910766663566806
0.05074852157153901
-0.4540674718610408
0.07433899373222673
0.3289799565487451
-0.2230209873263424
-0.440325566954477
0.5901405983493994
0.07320595592828702
0.01346497051531188
-0.186900432999123
-0.02242908374825275
0.1958645462248513
-0.2774285739609459
0.007567917117294219
-0.00763700206890157
0.2774976589052315
1.428495585260733
-0.5655210000715969
-1.672399510638806
0.8094249254231675
-0.02732847521937436
0.1245890871240456
-0.1080186833279703
0.01075807141547286
-0.01445386521766379
0.02379872174796302
-0.1034606176658469
0.09411576113178981
16.13596306599393
-23.67031990513459
-3.144541386899615
6.285479589999646
23.04308620321946
-1.373367743719078
-0.1814847718450359
2.17074140830678
-0.6158888927540486
0.1685601323754792
-0.2665402599152295
-0.2435159007130118
0.3414960282475706
-0.1074074120302856
0.01996129703506137
0.03863744682766148
0.04880866816144176
-0.1134273734959141
-0.00195485939832778
0.09897578380527158
0.01640644908593306
-0.1374742878012056
0.1794688833366796
-0.06624825796975203
0.481075742731429
-0.1904598426374828
-0.3918178825947788
0.1012019824897294
3.258381044816195
24.67834380708496
0.0873093724563697
-0.04787575070078077
-0.2391164820876521
0.1996828603230415
0.009216104600980943
0.3831504292119001
0.08025430512982762
-0.4726208389557841
-0.5377755015749686
0.06721428649288577
0.07998157443592403
0.3905796406368431
-0.5143007005063607
0.05123142249137438
0.2540819066314512
-0.6159767770817467
-0.04370531599599178
0.7038604991005447
-0.04417840605467838
-0.01777254869214737
-0.2508537004615277
0.7425899477324405
-0.4739636985978333
-1.743387470598452
0.08151506023042171
1.661872410367418
18.60802123654378
-7.359944249738036
1.743515865384047
0.1570897793212199
-0.2705094680207548
0.04714490191146221
0.06627478677639266
9.016707459258772
-32.5042620201973
32.21592342127749
0.05961110333970055
0.08740838295141028
-0.08373469555451056
-0.03708531425700093
0.1567039458792045
0.001341696132131509
-0.1209603277601225
0.06903063837872608
0.0289658642972779
0.04958446963287971
-0.1475809723141446
0.04110084397067009
0.2596960241454476
-0.08419759325212216
-0.2165992748728661
0.4268674698022192
-0.3002757357532979
-0.5111062018911707
0.3845144678309559
0.08253727351851169
-0.02861947161381837
-0.08545345548792366
0.03153565357945989
0.4810677566001055
-1.106756083571333
0.2523415095263436
0.3733468174199958
-0.1022943075902237
0.05943793618842302
-0.03307696617476047
-0.07198760018860023
0.06086953404202056
-0.1197043455395354
0.1308224116839012
24.11472143992267
-12.89953810653934
-20.77086247380745
9.555679140430332
0.2193180042033217
-0.1751274119842512
-0.04419059222346089
-0.3152395125652847
-0.03925324898062636
0.4549984542274207
-0.1005056926864108
-11.60772241794156
14.86866025609469
-2.142181246196672
-1.118756591989303
-0.01943934493849913
0.118238753629746
0.01676607273625763
-0.115565481432116
0.05869792030645674
-0.1806833587639258
0.106121972116115
0.01586346633534721
-1.290271021077748
0.9649986278004545
0.4462755670790038
-0.1210031738096007
-0.02150309356436489
-0.2067149288039214
0.2034087651127507
0.02480925724914044
-0.8427978052663191
-0.6248579582416207
0.8573408089624177
-0.9808979270274718
0.2138430491412376
2.548418631554642
-1.781363753663739
6.943655208476309
-17.37141554009463
12.4166193880527
-1.988859056355385
-0.1114274233925614
-0.5261517374892717
0.7460604775562912
-0.1084813166712591
1.574347401462137
18.29161310525059
-23.46447432155864
-0.05050930651435564
0.1026562268743267
-0.03892696015237009
-0.01321996021370867
-0.5109266109633641
0.3152959061595852
0.2316857457941028
-0.03605504099967152
0.4980133908257991
-2.149413049222219
0.6864259175474448
0.2114140828255436
0.066029184465521
-0.183685728423255
-0.09375753887673741
0.4931158638011875
-0.04318828917103389
-0.4867398016164599
0.03681222698691013
-0.09431745713755128
-0.4082343729603917
0.326899329936269
0.175652500151965
-1.739786557614505
1.661107739262639
0.07867881834541014
0.1293401206199296
-0.1319402909379606
0.01609213570332485
-0.01349196539364288
0.008569390760656577
0.1093229862170705
-0.1046814644712261
-0.01321091251175535
0.01323706088182826
0.01560935673100543
0.1197896624303046
-0.14863608004827
-0.02038017501673488
-0.08679196724439586
-0.05472110758735343
-0.002387845233832637
-0.3073844123981639
0.04849082623086715
0.2612814313961005
-0.146427384144019
0.07849635800245797
0.1141713259819901
-0.04624029984521862
-0.2100381944491495
0.1069907179829427
0.2081069469010327
-0.1050594704508726
-0.5971918200857547
0.7184543017506047
-0.04663850246221817
-0.07462397923743212
-0.01108595248404828
-0.5148700338499783
0.1062291080114158
0.4197268783193048
0.002335320099747731
0.004947535948107777
0.1531572510364474
-0.1604401070870396
-0.3230914423494502
-0.201543873014925
0.4310038164603533
0.09363149888957793
0.001948526185318576
0.1786187610461321
-0.1620385674523905
-0.01852871978875361
0.009118515060825194
-0.1432684018474671
-0.02278888893162608
0.1569387757114906
0.8158327600765376
3.903309215422976
-3.908151653875257
-0.8109903217191342
-3.965622819047915
-40.79765568447858
36.55645832320455
8.206820180325446
0.06071549001034116
-0.1695556694843535
0.09751724528210079
0.01132293418639077
22.99937180416449
0.3129996130582753
-23.1568569115583
-0.1555145056541783
0.1483876018928277
-0.2032021995867039
0.04605955211670491
0.008755045565819367
8.157136831315936
-9.802018174723681
1.908856014152388
-2.793999314424374
0.7903037329122554
2.003695581505637
-0.1115215298786753
-0.04998201748220741
0.03195565697825303
0.1295478903756986
-0.07168008153865708
0.061167821650456
0.01051225988322848
0.1265202412714673
-0.06164514454443768
-0.2413520249507133
0.1764769282158941
-0.007750762342842561
0.003660700023365622
-0.07758354685269667
0.08167360916966668
-0.01675530943911589
0.09324992846507588
0.0106529775838509
-0.08714759661788446
-0.06779996034598572
0.00433175379956909
0.1669695831322543
-0.1035013765933785
0.02860609413341255
-0.09165554841747836
0.04515880703969181
0.01789064723780922
-0.08634948337925484
0.002957197767187555
-0.003254977609348064
0.0866472632154924
-0.6525192351228056
0.1481028299962168
0.504416405121175
0.1263516265273107
0.09391984260152401
-0.1871085273673975
-0.03316294176772067
12.52742315913259
0.6956868482219596
-12.73048260030323
-0.4926274070249832
0.1819389537899727
-0.1162031968026245
-2.246729777315324
2.180994020309976
0.3239334918843949
-0.3634644698249808
0.5150225570158059
-0.4754915790864471
0.6491657693334408
-0.4426530159007714
0.05676877926174406
-0.263281532703262
0.2343367109252714
2.213514858009079
-3.693432196873645
1.245580627904598
13.36801380768393
-13.42454293439228
0.05652912671471061
-13.65573418123292
-10.39030253855951
10.23653619112608
-0.2305259692575457
-0.2029456557546785
0.3784496817410344
0.0550219432594702
0.4096823672645224
0.220773119256431
-0.6304554865431053
13.57814711679314
-19.29749266958154
-0.181627116657982
-0.03296106552063957
-0.1908156161299038
0.4054037982994306
3.368635176986738
-1.188684771708699
1.790918788647886
-3.970869193889757
0.3979874690124797
-1.002803302828183
0.4769326680803541
0.1278831657170463
-0.02828986795613226
-0.001485203262357678
-0.06038201752658551
0.09015708873928896
0.3760037858982753
-0.4967170898820308
-0.0664244963071173
0.187137800286618
-0.2675165816260772
-0.08733135832430669
0.2553155498266074
0.09953239011468731
1.302963646060586
-0.5264921405784991
0.6520240797594713
0.1364759117570564
0.07798903737938852
-0.1134409436916699
-0.1010240054506715
0.2262089749121673
0.3218356857318409
0.01478752477094365
-0.562832185420525
-0.2466721410456476
0.2210864194629604
-0.002784748761477956
0.02837047033234543
-9.562742418912036
-0.6043897426533755
-2.689925876817245
12.857058038374
28.09564905390068
-0.743677635793458
-3.698509210501637
-23.65346220761165
-0.00293861852399312
0.1424202152846926
-0.05864697891679288
-0.08083461785322053
8.315619625354662
-2.35947561009708
-1.358068965325021
0.7053834249220385
-0.4156380107970857
0.2480359776959827
-0.5377813918405336
-1.214857352889043
-0.2234816534183583
0.08571305707154206
-0.3524830171309346
0.4902516134657274
-0.1026485338123463
0.02714590521158107
0.07550262859989755
0.3649435913130395
0.08429052980934926
-0.451621966362637
-31.81328452524294
7.02659844320857
-3.678796263414243
28.4654823454535
4.309136096056529
-0.6970281980847099
-1.788150286534269
-1.823957611430457
0.01709286054150493
0.01869982988138803
-0.03579269042709386
-0.1900407879509247
-0.003148663508528209
0.6124234600974231
23.6260838598715
0.01574082513693947
-0.05930134912308857
-23.58252333584444
0.1964351711543752
-0.009994350574766695