/*--------------------------------*- C++ -*----------------------------------*\
| =========                 |                                                 |
| \\      /  F ield         | OpenFOAM: The Open Source CFD Toolbox           |
|  \\    /   O peration     | Version:  v1906                                 |
|   \\  /    A nd           | Web:      www.OpenFOAM.com                      |
|    \\/     M anipulation  |                                                 |
\*---------------------------------------------------------------------------*/
FoamFile
{
    version     2.0;
    format      ascii;
    class       volVectorField;
    location    "0.5";
    object      vorticity;
}
// * * * * * * * * * * * * * * * * * * * * * * * * * * * * * * * * * * * * * //

dimensions      [0 0 -1 0 0 0 0];


internalField   nonuniform List<vector> 
19631
(
(-0.05425464335662279 0.01231505306818789 -0.02953628248445163)
(0.03049558040371565 -0.1448967886308713 -7.891420679411644)
(-0.06981313114967956 -0.03543248102847352 0.001342817929751997)
(3.111125560548425 -1.107857640349917 -22.7703841334889)
(0.03725085815362926 0.1403496053589852 0.09557235836465909)
(0.02055352433044023 0.001848890075390585 0.008448222566981939)
(-0.00254291735423179 0.0002247234815268631 0.004062617195379963)
(0.6919343187777225 8.910120316832447 -8.362542413559533)
(-0.6496325267059936 -0.3803308282663727 -2.913883314931316)
(-0.0003326023243195186 0.001319616036954453 -0.001049465451687862)
(0.2970269905892034 0.08868737168530619 -0.03518006848300206)
(0.1043573503645846 -0.0510145294961051 0.01247732856749252)
(-1.607328149434162 0.1427109905906584 -19.49120909212705)
(0.09607626189695995 0.05598433879679313 -0.08699288416609184)
(-0.001550165210305145 0.0002958794990327796 -0.001023301814364523)
(0.003238480017115158 1.317633457228412 -0.8679812333827159)
(0.03658745633285461 0.1365284257703634 0.2009137842482305)
(-3.579353970422433 6.792758233515742 6.734481598036012)
(-0.7259554141775035 6.740696189630336 3.814711061132853)
(-0.03405261060776986 -0.2100294085490471 1.648286976701197)
(-0.1313521566756723 -0.001320324047712137 0.01625817829334912)
(-0.01814930250230499 0.02357168350920242 -0.004057050201722852)
(0.2540594402968036 -0.8457430253534417 -0.858197199781266)
(0.003100331260813801 -6.653745658874688e-05 0.02389751246824327)
(-0.1133191550373635 -0.01435298319744217 0.04465807626527557)
(-0.002620542347115557 -0.001894122320879086 -5.466257998647248)
(0.02592875818852174 0.01038812048464819 0.2492627424638537)
(1.787664345362252 0.1771032183938852 -1.540502282075241)
(-0.4459436902407899 -0.2436626626770234 -0.06877991762907648)
(0.0001448918768127158 -0.0001003765475864278 -0.002247712809445264)
(0.01359875751137131 -0.005820415122569141 -0.006717897845947222)
(0.005898856325307407 0.001736492374042707 0.002753330241202983)
(-0.3651002809855503 -3.796056500098672 0.1291046330897277)
(0.01454801798440807 0.01563153109056745 -0.002130961313408674)
(-4.949152850583167 0.3019863700909172 -2.127499915918501)
(6.189912197414295 4.793154045367277 2.942900081694322)
(-0.001445216309051549 -0.001251540326606804 -3.43034779707492e-05)
(-0.0176870615398407 0.09908986247434201 0.0230742859093894)
(0.1069369188045804 0.0525390307490103 0.08826841510928198)
(-0.09569197747803118 0.01156341783250011 0.06380931604483638)
(-0.0613153193318392 1.596093578922521 -0.04008359884238644)
(0.066198991237632 0.01105573892221082 0.03108271081552329)
(0.003124374476599001 0.001127169564956512 0.0006827266772825233)
(0.01799030138881181 0.0296716515916597 0.01145290519064477)
(-0.09429780018232926 -0.2783111511067172 -2.880295580233272)
(-0.4386899323412269 1.089912732714508 -1.835090533028724)
(-0.0005552536401816949 -0.003774455644472922 -0.004028621463921185)
(-0.01066994686447182 -0.00242878054053983 -0.006442694771572317)
(0.002306390624969162 -0.008956434376170729 -0.004826876889477808)
(0.02409380555712191 -0.0198643457136237 -0.02855894926911065)
(0.005765174446339397 0.08492273786726647 -7.217314095458457)
(0.05477330404673298 0.5040164825459226 -0.9660324463373017)
(0.03586642741104305 -0.01272369116486797 -0.01439096831234268)
(-0.8783559536925402 1.956659242770107 -2.673961657499332)
(-0.2121422056301466 -0.520801033539243 -0.1654090183935491)
(-2.052197903572435 0.04641750156009011 -1.640096441664272)
(-0.1448160209142738 -0.01392625160765032 -0.07632122573818906)
(-0.03171311690889652 -0.103441113847984 -0.1909050367912156)
(4.824592969044653 -7.024804537279673 -5.08274043878185)
(0.0002967252892812482 -0.0008537379839047475 0.0005737012923986182)
(0.0005718762210277047 4.561375552129734e-05 0.0002903461058575092)
(0.01798022004356555 -9.35445171842278 -1.804046451010253)
(-1.713232867559501 -4.406534526267292 0.7861326473508468)
(-0.08545074712626632 0.02198863869334043 0.01340892847352532)
(0.02137956870284998 -0.03812085329649122 -0.003291548748263314)
(2.862425462706507 -14.24322274249092 4.625878548066372)
(-0.03079406337087952 -0.01052571913240863 -0.03025094627724891)
(0.01679282497355536 0.0008920323699488147 -0.006091735862579788)
(0.06934746233303998 0.02636487544815003 0.04746876120638593)
(-0.001038559402808664 -0.0003404245724380027 -0.00271077698577236)
(4.03124338363827e-05 0.0003524913767561323 0.0005972614593714211)
(7.352400323096116 -7.280019536376527 -11.70676354478404)
(0.006962917312801067 -0.01578838024752482 0.01716061677893245)
(-0.01243212669417325 0.004113060599076705 0.008292653478261792)
(-0.02481099185718279 -0.01546552032951078 0.06658755224430285)
(0.2992077200257952 0.6398353853826589 -0.2790636061704949)
(-0.02378386033783085 -0.01032926564872641 0.02088404271917578)
(-0.09708663365735226 0.003057663296795965 -0.3576703252226367)
(0.02362895950743593 -0.04779282258072837 -0.07305292957178147)
(7.584766661254399 -14.51997120545689 -92.0148349667536)
(-0.01529980900554246 0.001367643283422766 -0.001340853232864283)
(-0.04219978300559227 -0.00570606666901121 -0.02007635529328872)
(-0.3364096928027501 0.1653858361326328 0.07984426205148962)
(0.5821922589750178 0.4051131244234875 0.3619838440638762)
(5.350724850010162 12.88935755735416 4.035511677778584)
(3.781266036078494 -53.10864088853487 5.323971800840015)
(0.07549202251307599 -0.007741806923633459 0.006783724285351442)
(0.7725100722761814 -0.5624682898961397 -0.7615808518388879)
(-1.865105954741511 9.647994123946308 33.8510015849083)
(-0.007265878384496726 -0.00459331652573633 -0.04028948324954239)
(-1.064643838651929 -0.3944807839253972 1.222785121281805)
(0.00472664713711736 0.0111867029754077 -0.01576031218257455)
(0.001684615151434228 0.01001734944973578 0.01523597899568557)
(0.02363071507153506 0.004720569318336919 0.02195157679454409)
(-0.1882282888068916 0.5278756783640896 -0.5265678207792611)
(1.443505120518246 22.28877802858969 1.941466923660853)
(-0.00670100708345127 0.01657818573272164 -0.03946342198262839)
(0.5722021633152384 -0.9608088870248005 -28.51736260383854)
(-0.04513411394797966 0.1370493430755013 0.1652862525893655)
(0.01335249298441042 0.0383426649511965 0.02509845428096872)
(0.01455895750260492 0.02115062897266349 -0.004875489869252547)
(4.189530180517425 8.942274459032012 -7.148383236769719)
(0.72149604604386 5.453271853335893 -4.067799768489998)
(-0.01421507988614631 -0.01008713886807015 -0.01992510004657208)
(0.7793616556426605 -7.694148196157511 -0.7647556426855754)
(0.1435236777387633 1.091682106182115 -0.9473241789252365)
(-0.2182442640330942 6.424886243251526 0.07212087243517473)
(-0.05971628669026663 -0.006638992336694266 -0.01289479799459907)
(-0.01152161440420875 -0.1060882703072339 0.006475366462349291)
(-0.7869707306226408 -5.255102870246652 -1.663323111709517)
(0.5098417984010558 0.08901300813926716 -0.02994115621905644)
(0.7172634120636956 -6.054341633757678 5.301084081105786)
(-0.2426735160444093 -0.009843918898465573 0.03857823681198187)
(0.2939665581295731 0.4502642872488142 -0.7899145995143502)
(-0.009085451621629666 -0.02720727163519313 0.0176300676950748)
(-0.1797702241207663 0.5569932112943612 -0.8069016236060509)
(2.197698103030399 4.57378169124739 0.1069676807231619)
(0.1009517089229033 0.004776673554436075 0.04596542959215449)
(0.162896534967543 0.5954406437478208 0.6348754563824655)
(-0.01148499537387896 -0.001200281417978568 0.01060649239598067)
(-0.03693180651474454 0.0006981102365141208 0.006215889665766732)
(-0.003960810011778282 -0.04424376917446069 -0.04499200810344828)
(-0.05548340675530453 -0.07017255615936913 -0.0655021345672087)
(0.4267519912464025 0.9990195737474661 -5.435782713753064)
(0.005000646657701488 0.01445109302894615 -0.01220803016136178)
(0.006865089283892779 0.007770070955790799 -0.002472568459311271)
(-0.8797734806485881 -0.4879537973793582 -0.7562814250981015)
(-0.0262415019738059 0.01495182828761743 0.04419903539037652)
(-0.002994080318128057 0.001275536386099968 0.002324569599136957)
(5.382387426480456 -3.350745102599907 -2.995585975479072)
(-0.002411713500802772 0.0006232180544278884 0.001873593927888976)
(0.05226450892902822 -0.002713932539840373 -0.002453610952028458)
(0.1363919685657913 -0.00928273520609435 0.04250577653524119)
(-1.60081946750195 -2.957236057335691 -4.846618850568134)
(-0.02789576259866964 -0.1053271889806073 0.09933573774323691)
(3.356588300178577 19.28620113381574 -10.17717869068684)
(-0.1200973662541599 5.365874648549657 0.3079908697721361)
(-0.3067311260487643 -0.2389226686779166 0.1249372598313001)
(-6.707572561278349 5.988466930785878 -34.80966227303115)
(0.03788521656176781 -0.007207705237720435 0.05437587174318999)
(-1.863131939037914 6.788992622879102 -1.926930090741005)
(1.552242754553782 1.891590204631742 -4.199135371936673)
(-0.9686912509817138 -0.4945751262156778 -1.025451779324608)
(0.003313339431780141 -0.00706133164702029 0.001188599973071033)
(0.04070328117575213 -0.001688760796664322 -0.03249713071736587)
(-2.939386134036398 -0.6103458781894231 -4.138279406987665)
(-0.03298913483948961 0.02991057806685455 0.03348523639237173)
(-0.001884086361059794 0.0009077041424415405 -0.001556154965631106)
(0.001782453796650263 0.003492828630944666 -0.003817168091188405)
(0.5911426290119184 5.434392180006441 -4.278200213299187)
(0.003657764538806515 -0.08096492353177906 -0.03585864043356997)
(-0.05583954760815836 -0.009704883006137428 0.02090257406518661)
(-0.09373310033757112 -0.02226605823605428 -0.05131786025635092)
(0.0109157070652268 -0.009087065922515385 0.00961311644338708)
(0.01362073890165628 -0.02676668624507791 -0.03464457054102792)
(-0.02633782734197819 -0.01453901766953473 -0.009721800434791896)
(-0.001210575949913761 -0.001042429089583461 0.003769789532451982)
(-0.1343061336839335 -0.3090667433339194 0.1057161029604356)
(-0.6925972486640286 42.43060136022984 5.625848795133023)
(0.0008220956730773145 0.1450321467128941 -8.932620187581986)
(-0.01777416297219512 -0.007214882458296169 -0.037685769133427)
(0.000168467006011513 0.0001598136099298284 0.0008740493399055963)
(0.01854005065014298 -0.003088468672880826 0.0191627297324081)
(-0.0352827337695017 0.01033120785871565 0.01223810379988709)
(-0.001868526673929084 0.002359418357313636 -5.558834387092219)
(0.002583258554972562 0.001943971161887574 -4.911119320203087)
(-0.02711977365204488 0.001659125493822241 -0.01189754690108558)
(-0.01190992973942009 0.002883338614896702 0.00254212826916172)
(1.748026262234039 -7.384587921939445 4.413058571906677)
(0.03911119628282274 -0.01345177755469585 -0.00360496938674916)
(0.003240156868410678 -0.0190452585078523 -0.002989244125865681)
(-0.02603458952790754 0.0583356620045921 0.1454039554950938)
(0.05069570847028419 0.01798723359853507 -0.07635047998405306)
(-0.05139261742009674 -0.003401944161224005 -0.013811765927638)
(0.02315562707449868 -0.01736343091055608 -0.05950582634691688)
(-0.1494544387648915 -0.06349045460806296 0.04141911001642321)
(0.002362337735655416 -0.0009710260877501248 -0.005066695318610663)
(-0.08990523889018463 -0.1469999794650603 -0.01483981859545684)
(-0.04761805285874618 0.0832112291263261 -0.08640402266754307)
(-1.054796955259464 -1.48527282349162 -3.113487767703199)
(-0.0788638106504139 0.1380616052497765 0.1176481094042687)
(-0.002198249410538309 9.821432745027363e-05 0.0009474359845103172)
(0.0005739934879433667 0.001526755353283867 0.00102689176660534)
(0.003930448874462719 0.02768659189127194 -5.68650819828787)
(-0.0007636158297684877 0.0007917771124022676 -0.0009367090814267484)
(-0.003886915030997177 0.003480206617325192 -0.016431374418262)
(0.009121774296189373 -0.02211995684999354 -0.04501892808522304)
(0.04971876024602573 0.004702504086496456 -0.03437126529850409)
(-0.03344965325592838 0.07695329412232352 0.05248603595235261)
(-0.01510292890724821 0.01315282037391772 0.009465720778543739)
(-0.07205327016491597 -0.01454702871163787 -0.006959323762380797)
(0.007977648789842973 0.01306609898211291 0.01100605850742053)
(0.1396394495999665 0.3554065984753066 -0.3274866275690327)
(-0.003659794811847352 -0.005228036320766877 0.003146766359257771)
(0.05163628170865772 -0.01374876858160124 -0.01507731421437095)
(-0.7613574321016425 1.982189168305991 1.26126743139634)
(-0.09049219590117377 -0.05216756400514219 0.03758347034373586)
(0.0009479842950851471 -0.01377174225482832 -0.002024791809100137)
(0.03913132082967666 -0.03045915808567002 -0.01501967754744156)
(-0.01552564887140521 0.02180434339068223 -0.0002158318759811206)
(-0.03189423285649384 -0.03080563513027038 -0.006454563249676543)
(0.01342740253911191 0.001415352447863712 -0.01814361070734723)
(0.02674073389274886 -0.004807885548931105 -0.004762283484750704)
(-0.01200849268048548 -0.03190567303671456 -0.02978002842578643)
(0.007349359902195922 -0.003322348913265816 -0.01222722892813725)
(0.130421229128156 -0.04779168424887903 0.007348077643751776)
(0.04921912309546466 0.06224387663385936 0.02836832720524272)
(-0.06480933211935921 -0.04962901915792746 -0.04982606387255673)
(-0.001560783633264828 0.009409678949680526 -4.882541141422041)
(-0.0471652285930181 -0.0477547680356387 -0.05018724950948823)
(-0.004675464880394798 -0.0001131994956603604 0.008126523279183388)
(-0.2502773553994929 0.0124513702597224 -0.03470927836616229)
(1.521319167133787 -0.07781846174822302 -10.23826920184213)
(0.0001604124488624471 -0.0004856753807980093 -8.938863218012751e-05)
(-0.04130520297420427 0.05429728603793958 0.009450456902088615)
(11.2050314165104 -1.217426317240606 0.9815906114643926)
(-0.0002721752817470321 0.002624398211146425 0.001641067283542633)
(-0.0005128924633736958 -0.002674982046242837 0.002069374525861848)
(-0.0004677934643904447 0.001418545831993429 0.003444235799500602)
(4.298599894162729 3.433410212116867 -2.253957313151019)
(0.005327758995642464 0.002436727064938336 -0.02846797292960354)
(-0.03126941505801605 -0.06090979472814387 -0.07872258972907784)
(0.007395646920253277 -0.00808212587847092 0.009087360215164878)
(-0.001442422375162256 -0.0001403391802231082 0.0004929940283930415)
(0.003969915435540708 0.002271952243209198 0.0004523824056913428)
(-0.0886426198904843 -0.08177941315836751 0.08486345225399516)
(0.06213618263998864 -0.01071959575712386 0.01531057677737821)
(-0.002933712697658405 -0.07534151902171396 -0.03616977201424831)
(7.124762469057519 11.44786826214578 16.23937805845066)
(0.2309198101990756 -4.563277955513813 6.087442345626129)
(-0.006943464581089819 -0.01029541685881137 0.001300665462024114)
(-0.5235377010860141 -1.603604215688228 7.24758874376399)
(-1.178924152524835 0.9090394696171329 1.995061629270809)
(0.6692309771671824 8.458991419248873 -2.918992886911302)
(-0.552537285109985 -4.530043638461237 -5.838030818009101)
(-0.4269430683554073 -0.5730369537970003 -1.250065398558591)
(2.833811585634655 2.689334074899722 -10.28822789017918)
(0.01228991864103566 -1.154392420388784 -2.705372713038388)
(-0.02840415653896808 5.100714739077151e-05 -0.03413828478446376)
(-1.413645000584397 -3.048199832938246 1.745282405877339)
(0.003845161355254039 0.004616880891676222 0.006248137159437386)
(0.0290515966527542 0.03382342462082021 0.0512310938700431)
(0.003839957212132181 0.001243674411049247 -0.0224905605006374)
(0.004381895817645819 -0.003737428020200487 -0.005485777011840534)
(0.002596952276748965 0.001530449756918045 0.001590481621354882)
(-0.0163030509918138 -0.05004678838784561 -5.044655023654792)
(0.001864326425665184 -0.01515438316893709 -4.873090148976162)
(-0.001408031550870242 3.375465196414217e-05 -0.002103239595222709)
(-0.01643378151718012 -0.008554927382179334 -0.2354499595755421)
(0.03257273234616728 0.001949503013655934 0.001099721791017319)
(-0.5392329315717762 -1.52496930324643 0.1726756599077924)
(3.615180208075464 5.139675371305421 3.041697679884038)
(-0.04016433904859268 0.007403799151429821 -0.01178086758436275)
(-0.286500678797634 0.08200070426485138 0.08757912614455327)
(0.004063847018777915 -0.01014507060403141 -7.935820781083906)
(0.1216358064466587 -0.5396905012852371 -0.3560839606011023)
(0.1418074513294424 -0.4037968840888797 -0.4314355754268452)
(-0.5999098542177665 -45.72635943147726 -1.408744078570731)
(0.3560932935521876 -45.43088470555052 -2.786631129658016)
(0.2032027369647793 -0.05448821419909314 0.07608812289082642)
(0.02586340343143154 -0.01763543480403357 0.01424005662597414)
(0.08989091349879622 -0.1569066938247944 -0.09571171794877539)
(-0.6387391415228157 -0.234050162947915 -0.7225953878908598)
(-0.1942341170837334 -0.05963239511936444 -0.02959809089410699)
(0.00170182776732668 -0.01510075376699075 0.005710418975203102)
(-0.02944870098658423 0.007884543621203822 0.03897184069093013)
(-0.01986717534379402 -0.02132245680977062 -0.06476846130647013)
(0.1173443385800539 0.2982627800618514 -0.08842230588612801)
(-0.7541588588768808 -34.65029320188734 4.019675054568039)
(0.01493669218353827 -1.432145061315807 -40.42270770669094)
(0.8045034033189393 -6.245388603083636 -2.489334583620775)
(-0.1361482561092489 0.1793924793304858 0.101745874847152)
(-0.9998288604669116 -2.791325422269994 -2.816307446520304)
(0.0002378313455131586 -0.002556855530397489 -0.004322947497847898)
(2.967558156644545 6.219127995189695 1.658486322731717)
(-4.629101476527953 -57.53527960722246 2.800020785324092)
(-0.01016590050255039 0.003646588829476668 -0.003002473242016892)
(0.01111204529327648 0.03088856449132442 -7.658430976117743)
(0.1305456086476235 4.265497910909668 -1.335803070725713)
(-0.0005866344483190468 0.0024008073990643 -0.007390163698720519)
(-0.3011435113980889 -2.673369209125613 1.62495066759564)
(-1.570143119095271 0.4051595426740628 -0.7886863014782115)
(-0.07507396956699194 0.3730053629013872 0.06118261170804749)
(0.2813863242809553 3.572908195167251 -49.88908341093732)
(-2.706267335187988 -7.152302529796255 -1.653948170846587)
(-7.705104381239648 -17.72641303005332 -3.948164760317484)
(6.89754329881734 -13.23538228165943 -55.5237541547793)
(3.329514408781484 54.38511429319691 -4.283691834833491)
(-0.02538354130620052 -0.0311659779032828 0.02857767529358966)
(0.3359309035107909 5.887667087545137 0.7049965256426488)
(-0.5349567250616982 0.1152852888658607 0.1175524382351004)
(-0.02886633259300476 -0.001759816881232251 0.004204997365601666)
(0.2297319615809687 0.01340701857432709 -0.06680508228970121)
(-8.770432392751562 -10.91331146917993 -52.47784893355936)
(0.1104481454393031 -0.3423968006083701 0.156164976567988)
(0.0001798504414963894 0.0001390106479226768 0.000169505612579012)
(-0.1917178181866913 0.6269166570102227 0.1406880168219551)
(-1.262322966039007 -0.2187600438306468 -31.06039926891407)
(0.1309288417267178 0.01135643415240823 0.01707926483711375)
(-0.2816311377935272 0.7422101597517274 -0.1319020922637592)
(0.1975255041910857 0.4389408409363368 -0.5096678172269692)
(0.5356942150788678 -2.445668831495234 -1.707972983054015)
(-0.4337936297200505 -0.2293896577746855 0.01998674427806715)
(-0.004613861008830134 -0.02973768429949182 -5.681226349059332)
(0.4265328447041428 0.5893413536474365 0.7576609194050637)
(-0.03774354166443589 0.01138394166584491 0.0006447344418988657)
(0.9019949640861278 -2.306614086883495 -1.421288617533506)
(0.880478791782184 -0.4727998607574345 0.1212315284906604)
(0.01580038651824931 0.01388907967213507 0.01037781315960649)
(-5.316973326283417 -1.941603064619767 -0.559032957978512)
(-0.5091245034157064 0.9656973871963445 -0.3903540278941666)
(-0.000735259717350867 0.000590880131293877 -0.00114062202227203)
(0.0001787292941852952 -0.0009650253993188096 -0.0004159917875773593)
(-0.01843453052087855 -0.01151351600763793 -0.08269657668890949)
(0.219298035520632 -0.06292167079236353 0.01383300351924287)
(2.524572349591213 -4.84782419061401 -5.699621288066088)
(-0.5995471190550732 -8.214786578762581 -0.1387465085271824)
(-0.003308591170150324 -0.09908175057060693 -0.2632731781127319)
(-0.3107378459312407 0.162365253800338 0.6305895846008237)
(-0.005734162992492956 -0.001041794546335665 -0.0009319861907114177)
(-0.08286533272545003 -0.02077643049417236 0.0191510714022342)
(-0.05946803746072196 0.3918925528948423 -0.131558149340433)
(0.05490447926061608 -0.4302994136354915 -0.2515644671632662)
(0.06311159768785583 0.02306738107879937 0.006135779733011142)
(-0.004951297215888674 -0.01121754509240439 0.01164369252052739)
(0.03692222868446197 0.01309546065470406 -0.008986109376171284)
(-0.04202917391485218 -0.7021302140571675 -19.09190309531448)
(-0.006204879836727799 0.001682600701766285 0.00294021802977069)
(0.2858091991638371 0.104493981618296 -0.09841944757204688)
(-0.002464617704611228 -0.0004747020852451494 0.0002726939117866259)
(9.093625263680133 4.888038897307318 1.648168132004852)
(-0.1114031736548414 -4.312504168695605 -0.2407176858921585)
(-4.605778022513446 -0.7811826835344647 -1.817123420939612)
(0.3624190964533123 0.01688404650910781 -0.1913423590898561)
(0.102300569888845 -0.005623410017862267 0.05481887795350689)
(-0.2822526945918566 -5.793425508623687 0.6824718988526287)
(-0.02456325491096851 -0.003423679085590995 0.002293602409491915)
(-0.3970586083030424 0.5206197621239599 -0.2779460175987764)
(0.6307605919271713 -0.3254267974158325 -1.267121470875312)
(0.0006868789401998437 -0.001817955423482433 -0.02741949892792028)
(3.011809755106715 0.02832835804718475 -49.72568111193779)
(0.004519323599650324 -0.0807907866878218 -0.01686953988095871)
(0.002652491000528693 0.001024357961548529 -0.001123572445631466)
(-3.237235965377402 -3.64328450068882 -1.671462881165764)
(-0.2829476054423284 -3.634951225492661 -1.240434392216072)
(0.02832885775204318 0.03525114156402563 -0.05301640698196438)
(0.003976902185572978 4.690099571851612 2.431957944019259)
(-0.01374340913000152 0.06534472075764323 -0.0128828635382163)
(0.0148167332832274 0.01349379706272954 -0.00672332085303046)
(-0.001930578034869011 -0.006843254439890166 -0.003304755880611845)
(-0.03806963115613973 0.01967977299913227 0.02801994433791801)
(-0.001231700840012613 -0.0004556554327162648 0.0002610279171152227)
(-0.6181307659837159 -1.31106715748336 -9.35374953663522)
(0.2012052985219376 0.556613998543138 0.1992452247551224)
(-0.008537610597523955 -0.004815477905366164 0.002013564690146447)
(-0.9000724733229905 2.155844683416329 3.497125501897162)
(-0.0120601077605018 -0.04450705303661444 -0.0140009862575175)
(-0.5949040608003742 -0.3273052645105305 0.3203792463885252)
(0.4941661477186594 -0.1261325430230078 -19.70774648988985)
(1.180466904437376 1.775015746808178 1.281571824003797)
(-1.343426377758603 9.188178737408391 -4.587045366404718)
(-2.376892615314433 -4.727860566592442 0.3746390070013556)
(2.102170255867429 5.795943345646616 2.970409320045914)
(-0.3942264680319654 1.293168616092663 -2.058282925081788)
(-0.186459505606997 -0.2166169428688215 -0.259094825906553)
(-0.1176135435712769 -6.218226636668485 -7.452238753908555)
(-0.002199097311782923 -0.009091785552092706 0.01190887070407515)
(0.0398818262152343 -0.007626183202031414 0.00818531900240047)
(0.9511092645298186 -7.614564901331046 1.697611105947709)
(0.05024080090424955 -0.08406240353484402 -0.1153967339314894)
(-0.1463119207552823 -0.1672274202921037 0.09913105607406811)
(-0.2109259293592045 -0.07316200753640484 -0.2043209038945098)
(0.07332676109366246 0.7573794467583114 -0.3061581746488177)
(0.003070751558183725 0.001790017297101813 0.003246561240554914)
(1.317612508352999 -2.028540961948199 -1.61912353170904)
(-0.004267469097794078 0.003669184113514707 0.002024536798602191)
(-0.0687995219315686 -0.09219103515711757 -0.1777461261053382)
(-0.0005678576426963401 0.001158329875247873 -0.001410795914856283)
(-0.3892969736214797 -0.3127820163741039 -17.32465141848534)
(0.1480114968843135 -0.01813004618039626 0.07913203724486906)
(1.919972835794743 42.68832610985916 4.818170519482567)
(-0.1646485340374154 0.01621239492671642 0.02260858015284958)
(0.5315978450455018 -8.426438701010179 -5.076884372022237)
(0.3343444182985335 0.1925192465386227 0.454560214809679)
(0.1887226085926145 -0.279185578025048 0.1238445402122221)
(5.146983785612431 -6.698877841588512 2.085610598447343)
(0.9925163436584259 2.709945916090091 8.311733665218508)
(0.220099857955229 2.661542584711174 -29.64932728694606)
(0.8519304485949515 -4.102499922567139 -0.215865229361222)
(-0.001646909254184469 0.01112870842426733 -0.005388921970723898)
(-0.006753700968767188 0.01189385763003557 0.0102677737568891)
(-0.02583866620350975 0.05931442780117496 -0.08284555000560917)
(0.02132859157198842 0.01532070393484685 0.0394171893618861)
(0.01778265033481399 0.04816626308596943 0.04114973491589889)
(0.01256858020786088 -0.03182039470892818 -5.52326849104156)
(0.0006036601705435875 0.001908993915020559 -0.003367349180827574)
(-0.00105445022772712 -0.05359759030311437 -0.01871333203389985)
(0.6509709774641734 -0.2417249244270025 -28.01935102483223)
(-0.002051688014663682 -0.004960915432662308 0.005804009847785711)
(-0.01409225465247717 0.004647503229671973 -0.1499640883230306)
(0.02715597773412867 -0.236735448651914 -0.1311411965884087)
(-0.0637502134084499 -0.02629098014583851 0.02430508082405311)
(2.580971522459058 12.6041046582571 -9.406985524550949)
(0.1240623934937456 0.01661284070268856 -0.1305157090238866)
(-0.4323320934152048 0.0447988999889477 -0.158027189743807)
(-0.04824136724332372 0.03627843201044686 0.01658405461591279)
(-0.3238299978635066 -0.1295321029888748 -0.0599503467870616)
(-0.0375414581914124 -0.01118828220767048 0.02304231798978031)
(-0.09148457719224125 -0.02262764807355508 -0.02594361044662987)
(0.002803383245100897 -0.000750994480345178 0.0008333029088543022)
(-0.001370118704124528 0.001865856609198772 -0.003668761313069869)
(0.7618140027780268 0.02623027464674886 -0.1366629531980282)
(-0.0009748102882550392 -0.0004723414980738568 0.003729641125140259)
(0.1418660115900501 -0.03224832325767105 -0.2131446562863221)
(-0.000738300164869857 0.0002517271128632382 -0.0001093227130060285)
(-0.029764540830212 -0.01534413773091534 -0.002814845903163252)
(-2.257288866111209 63.46376269543128 -9.38262178038033)
(0.7431014855243682 -0.6044207744673554 -1.440833458757478)
(0.0002093042577251385 0.001725513787343011 0.001080408103887002)
(0.02189162145748558 -0.002487786219515023 -0.01323908989917449)
(17.1950991952945 45.62152232013077 13.35439870972301)
(-0.02674324179916494 0.01428209345084725 0.01098790578855313)
(-0.007383899451202366 0.0214158624363103 -0.01580762984626087)
(-0.09311037075028719 0.05183058290101318 0.1156420198208872)
(-0.003651899301131867 -0.005768329089226296 -4.999521437843237)
(0.4319632638892932 -0.2057705009974788 -0.2029766252955684)
(-5.843035395194398 -1.419874387303035 3.333278881495137)
(0.3482774000506157 0.06285763439138606 0.1429633941311192)
(0.3990622503588104 -3.734670817010454 -0.2505595444629968)
(-0.001026029326029631 -0.005523496509562863 -4.806372190910997)
(-0.002688269384077961 -0.008817137906665332 -0.008853643698735175)
(-1.668833625174582 73.37902285092711 2.755035052893747)
(2.475633294822887 55.00981798552724 -3.026855495501093)
(-0.000563654295566565 -0.01557977168218972 -5.015010520437094)
(0.2943719864610324 7.730204244245043 5.138387890502001)
(0.003694999141358155 -0.004430643428565024 0.006063690035413781)
(0.2381192504277175 0.1687090243071227 0.02692574784910473)
(-0.04973109875299551 0.04620827238493402 0.05150963601777649)
(-4.68348774808986e-05 -6.743721889140182e-05 0.0001141576084969961)
(0.7008323644782528 -36.07031530556648 0.1524289239053531)
(-0.007734753215863172 -0.07730265627247078 -0.1379986163885113)
(-4.76341960514759 -69.30061510687315 -3.91745397684049)
(0.06803675289349999 -0.06001635764406583 -0.01061787039610138)
(-0.1883459519085628 -0.3703271753388379 0.2765458546951491)
(-0.3150406225961602 -0.5682209582498395 0.2117788333381542)
(0.2454509829049377 -0.08963810138639572 0.2158147856751096)
(1.010594517020947 36.0918702449595 2.786776078523928)
(0.1815490285166283 -0.9746138685270767 0.2881997382061289)
(-0.2609164027021226 0.6824934556055866 0.1771276389787842)
(0.5029009279287058 -0.9609886653579778 -0.3207406747524837)
(0.2351880419224421 0.04982335677916445 0.1872408209310379)
(0.02403811443236649 -0.01582962307189999 -0.3341628101018295)
(-0.00310244661030481 0.002924976324250854 0.01331906319519257)
(-0.2866949526522022 -0.2387226385169653 -25.08145314790708)
(-0.1486087847887977 -0.2360689119115498 0.3578187236463549)
(0.004241563598443586 0.0005077234462388652 0.0001826402673053818)
(0.01746701282336813 -0.003230718327703142 0.003027922545425671)
(0.1631520485181877 -0.09422261762191285 -0.1538143764539073)
(1.543510184025833 0.09646419619836988 -2.240587136681237)
(0.003697449387177401 -0.0007982601972021429 -0.0008469211672417912)
(-0.3406121635699154 -0.03660938138313377 0.03877823204624865)
(2.165590537966572 14.84731913967551 -4.260869746116416)
(1.183631534178845 4.934155210338448 -0.4596146975129316)
(0.001689429745220844 -0.001050154875314579 -0.0001242149425287062)
(-0.03907274369206339 -0.04358958494087708 0.04787948605807024)
(0.01823508402575884 -0.3419878513240134 -0.6931422786431889)
(-0.0367602892606097 0.3412510173862883 -0.438288298349233)
(0.02633682909217805 1.103211521830231 0.02571543840690549)