/*--------------------------------*- C++ -*----------------------------------*\
| =========                 |                                                 |
| \\      /  F ield         | OpenFOAM: The Open Source CFD Toolbox           |
|  \\    /   O peration     | Version:  v1906                                 |
|   \\  /    A nd           | Web:      www.OpenFOAM.com                      |
|    \\/     M anipulation  |                                                 |
\*---------------------------------------------------------------------------*/
FoamFile
{
    version     2.0;
    format      ascii;
    class       volScalarField;
    location    "0.3";
    object      p;
}
// * * * * * * * * * * * * * * * * * * * * * * * * * * * * * * * * * * * * * //

dimensions      [0 2 -2 0 0 0 0];


internalField   nonuniform List<scalar> 
19631
(
-0.05738215833048134
-0.1352524038946336
-0.4022051509226033
-0.5680999263090671
-0.04825408068205121
-0.447804669550441
-0.116465941776927
-0.198779783252726
-0.1035696850058648
-0.1398628068005493
-0.0361757016375136
-0.121460892104478
-1.768331392336587
-0.1320214829128949
-0.09350445545464629
-0.02827857210922236
-0.6988000086727322
-0.08501705688975247
-0.04752836850989013
-0.1320106220212223
-0.1056848955820306
-0.2093526510024527
-0.1417063783570347
-0.7330757568883426
-0.1263602731097487
-0.10451724618195
-0.1431654525961892
-0.3022775960950863
-0.9719219324058919
-0.1248200607386765
-0.1153672695412079
-0.555711553867682
-0.1249260882544102
-0.1357569718105354
-0.4126548670982014
-0.1147312751549381
-0.1871543729983225
-0.1479829098417321
-0.1721789740016003
-0.179058576741989
-0.7410702928808676
-0.5589069390138434
-0.3525036015444176
-0.4622450681191042
-0.2255350114497183
-0.7446462310130618
-0.6436466036055003
-0.8128310469541843
-0.2740308292087507
-0.2033642038084612
-0.06319372403094516
-0.1206179007324874
-0.2202167408133888
-0.139490801216092
-0.02433551490491041
-0.4689076923700385
-0.3340725903051593
-0.1091753352259819
-0.1495525879063347
-0.6354392787700093
-1.61594197830183
-0.9588809843610825
-0.7373609643299875
-0.1698943820836407
-0.6916516724999301
0.008242042446906985
-0.1724897299080344
-0.04422389222878911
-0.6653024662124531
-0.05372668881005326
-0.2840627328542607
-0.4269234915900719
-0.3178817011916285
0.2350248424377131
-0.1584034464936759
-0.6613718530619136
-0.03284270170980005
-0.5266774495891277
-1.811524974618449
-0.1162340879198568
-1.23300773416932
-0.1917303012358768
0.4468592210869601
0.2560087322866304
-0.3856564405129285
-0.3719071061766085
-0.4265310802257921
-0.3832879645491832
-0.4662061670614699
-0.5163922463948921
-0.5964355704824459
0.1279667608482064
-0.4547158131224869
-0.5630388845281981
-0.4662524718384297
-0.5336084796756608
-0.1622152044345546
-0.07253698194708723
-0.4626304711333057
-0.3621252122237607
-0.1027085423634899
-1.61187325277127
-0.1044794014638355
-1.976456682206113
-0.421098515160172
-0.5875078284924888
-0.1550530589004679
-0.7995375499471088
-0.1398353248329926
-0.03158578612417581
-0.1899217579238237
-1.538523706765152
-0.122147084692221
-0.3115979630874139
0.4518904423134319
-0.6108681972089531
-0.4244226905701785
-0.1890214256873833
-1.699699066787631
-0.06177712623125048
-0.04028164404579538
-0.1050473771453109
-0.09710027521338011
-0.09183275877069214
-0.2438029079368907
-0.1194234516944994
-0.087891621552947
-0.1225725336358143
-0.09215240830738797
-0.1158852377831851
-0.004417948707217683
-0.4194855276285111
-0.3056699553416512
-1.124363044617321
-0.1098445793858306
-0.1482710564588036
-0.1708399764336396
-0.01267724689409967
-0.1700771481646304
-0.1726551041796678
-0.03128604996458072
-0.2654825920433549
-0.07282254771253971
-0.5403034806927951
-0.2216990719364728
-0.3128607396337005
-0.2541822978690558
-0.1108304007537951
-1.245193230522334
-0.6333493119070088
-0.05496902142473933
-0.1246758830671265
-0.116648376714081
-0.1357543416534377
-0.07413779540860847
-0.1485603045031752
-0.4353417036075061
-0.1979088672841491
-0.3599809805420963
-0.1412052963060559
-0.05130996704331912
-0.09923976865685523
-0.9827989849118186
-0.1669379187589422
-0.111447269118694
-0.1145344920425277
-0.09637622152546273
-0.08618321817131247
-0.1663525029861952
-0.2523935050895924
-0.1531622209741177
-0.306303349248957
-0.1363657987515204
-0.1402379852631727
-0.1121660114638011
-0.1441574317092334
-0.1042865872346815
-1.104232414823938
-0.1607765887209081
0.3294631556017603
-0.3927527648791652
-0.06356614705089911
-0.0503621738039889
-0.09318675576798743
0.1034825723995747
-1.156463944019546
-0.2151820914812841
-0.03382133265047331
0.2881755118871196
-0.1575948149770198
-1.086338746832243
-0.4531294930999122
-0.07023328970510616
-0.1492506616562618
-0.619914094194648
-0.6631720782362158
-0.09531365739624036
-0.4509513168937324
0.2172114100735478
-0.6379506865449843
-0.1987940231865642
-0.1223148804771183
-0.8854295550429043
-1.066522422087866
-0.1133947837162291
-0.07812830960197759
-0.04534037021976153
-0.8591720229957471
-0.1434628136339436
-0.1879591365594527
-0.2906230287644428
-0.1630333101352971
-0.3400102029958041
-0.1157577166973484
0.368379824028196
-0.6948317639540071
-0.2937118616779529
-0.7224486233416155
-0.1698003034997438
0.01071875848989079
-0.08818563865907565
-0.641447798330151
-0.173627783972171
0.04006741862819455
-0.2580422958233759
-1.390434326632354
-0.2634464043671496
-0.2067384159141651
-0.3644003465190071
-0.3873331823087215
-0.7581019498938768
-0.5044927009954672
-1.024007511790376
-0.6295540918634727
-0.03866207830550613
-0.249506281173332
-0.3965003664993645
-0.4588944503036889
-0.8547158890874474
-0.4095291958183657
-0.1623817085241419
-0.1301878371715467
-0.1139373413016071
-0.04177628643277797
-1.13697593764756
-0.8025060456602553
-0.05190108169875279
-0.4752230146812831
-0.878842985135624
-1.887878389460492
-0.3346572485689165
-0.5003063393353451
-0.5836057723001439
-0.5521588976223881
-0.7380920004151065
-0.7015037204386687
-0.2766684208725611
-0.8128449844649631
-0.04361836319786154
-0.286716530065489
-0.01927609621142472
-0.7002448991975758
-0.4909266561499211
-0.3854964199609021
-0.171493977656113
-0.3480008012357543
0.5657506761737142
-0.6895087520530853
-1.362550620515671
-0.4434331261740974
-1.448300014744751
-0.03513343026606099
-0.7255253684776
0.0412500252379021
-0.03038456476006006
-0.3761840630114642
-0.6819784398153893
-0.8056131473680435
-0.3233762609110271
0.2239103335634111
-0.9824405944577763
-0.5215147925479015
-0.2285097122586888
-0.3371523337255954
-0.880909112965708
-0.462483210168659
-0.05886829521693032
-0.3489483580859352
-0.5682915851398753
-0.2181769684183111
-0.3308136099810637
-0.8526105547516151
-0.1153439465228617
-0.1279227522554225
-0.02741624084932012
-1.819559202856851
-0.6055436392499538
-0.8159513831288667
-0.5707047533487005
-0.558009180466067
-0.5147085726735383
0.1731558784379504
-0.09486974600720462
-0.5112287182681663
-0.8633815132996951
-0.254709565970476
-2.356608493907539
-0.0771426768413698
-0.1110298631464818
-0.1102547627387409
-0.04423555122636792
-0.525184606893395
-0.8516535375644083
-0.2903289157335571
-0.1423813310293409
0.04558146988296012
-0.07018191474308173
-0.08315695618198382
-0.2511346050091914
-0.07833255707946973
-0.7387951308796
-1.502707833075222
-0.5105355655394811
-0.1762130768631405
-0.1498470639325822
-0.640928446302888
0.2597650628621123
-0.6231367800103558
-0.5099737808525868
-0.2204170390023086
0.002773195255583292
-0.2126234842891906
-0.1108482945711179
-0.05035477155498876
-0.205608297875968
-0.07388519561000741
-0.6655893931014031
-0.6715074161960867
-0.1594688547955486
-0.2968506101608814
-0.1973311435228205
-0.4099839414932474
-0.2656831038951436
-1.18682446091192
-0.2816089799410898
-0.6270338265791743
-0.1465008448566565
0.06578300904101492
-0.3249514227479023
-0.4312274128360646
-0.3765370706044098
-0.6500480135253122
-0.306649119096986
-0.6443525931003926
-0.330634999145194
-0.8037427271142622
-0.2270774887491756
-0.4727210409977241
-0.2407369125094709
-0.4817664121940761
-0.3633063044943869
-1.063154618213681
0.2197783764712266
-0.05707295872558825
0.168574488449459
-0.2679835017168926
-0.9297786534818454
-0.2023765360826021
-0.1766132360344909
-0.7257917221382161
-0.1029060177658708
-0.09768051409066893
-0.5029494221441877
-0.14591735245819
-0.1303282594536447
-0.04878235779788743
-0.162667100874185
-0.1076236927964207
-0.32234768165547
-0.07659087711627494
-0.9002221408886107
-0.08883838775517128
-0.0813624201220378
-0.05831641905640848
-1.261258943855877
-0.6261060157789647
-0.1397429460442857
-0.1030854920056573
-0.1094975633861563
-0.8487450531582897
-0.8249525040057827
-0.01406499693436616
-0.8196131309108988
-0.8816110676881349
-0.3264575926803293
-0.01825133442770569
-0.02350130365753507
-0.3813604000863288
-0.2295394222643114
-0.24624482983103
-0.4533868496940489
-0.5689357223339558
-0.01579869943823881
-2.106857158280329
-0.8542123882076714
-2.532134657510286
-0.9650286732476545
-0.6145746077959606
-0.7660731910161518
-0.5116304950867361
-0.489042781735932
-0.6459172851166817
0.003364693805084242
-0.5716236574447507
-0.4259743021725491
-0.564503896173486
-1.13846007851649
-0.4282900792964923
0.1975834457347171
-0.9318193377189371
-0.08328515260344609
-0.1174803006132411
0.8514371484535854
-2.39072989766807
0.04310426412696822
-0.1891508668185687
-0.3167867639450406
-0.4082115580993218
-0.1222083973031476
-0.1513938423104089
-0.0141630882948066
-1.61604737803085
-0.4126899453317243
-0.1167946920353911
-0.5963400969565102
0.6414761250515276
-0.07817844263278373
-2.477301155453675
-0.2812625020639704
-0.8219480385700805
-0.0797033645260979
-0.4698673977006407
-0.1813005880164435
-0.555255000027947
-0.0477384996707747
-0.8308628681474813
-0.05430723759509396
-1.319746095131233
-0.3261453821308039
-0.2140656865314912
-0.3194978892771974
-0.4585635258874216
-0.4415027469231173
-0.5262335893959592
-0.0439631216504562
-0.04873115035820008
-0.03184720091901495
-0.411917210740168
-0.4119321192947534
-0.2169191560518788
-0.01141307784766402
-0.1753998925701219
-0.4061174069965455
-0.02372961093005751
0.1975792625084104
-0.2757063452891021
-0.3676905587812274
-0.9675714587444697
-0.02894718921977535
0.02101262810869341
-0.026808727493677
-0.5363759963133673
-0.05911833778774989
-0.04326938949888034
-0.3986074922904728
-0.4339426781709336
-0.04258247519749496
-1.033222402422552
-0.4320653544400324
-0.2999508171180758
-0.6598034071351642
-0.4961638935844226
-0.07666134330700231
-1.715882554099482
-0.5165742712577051
-0.382528896057951
-0.3051741729757412
-0.2546654768403878
0.2129076833188275
-0.1702527090395866
0.1434844084504686
-0.548279654488976
-0.03612668518057566
-0.03225653566954966
-0.5371082315052128
-0.03325715717998824
-0.9395239723374599
-0.9582310791985843
-0.4411958162984149
-0.4951987726059104
-0.376338450502108
0.009272761084731821
-0.07686312084274272
-0.03572339589697094
-0.137805675232457
-0.1415343604249298
0.3664633547820446
-0.03552544158053721
-0.0734371162668359
-0.09208521933374453
-0.2965629185692087
-0.1412723744632436
-0.357596007855653
-0.1411290945053908
-0.09156213470017081
-0.08594831984553242
-0.1874741268267866
-0.09278823543013451
-0.5224597465957792
-0.8807021400096665
-0.08822552062320559
0.02142941921390277
0.4970564324307346
-0.2768466820558045
-0.02438675108322604
-0.1735957509358663
-0.4200387488751574
-0.9391179514974326
-0.5440961997286883
-0.0794488900903231
-0.09483270791139778
-0.1149112231554621
-0.09290230596263958
-0.1143699215139087
-0.06130032474960981
-0.09149950915334118
-0.3540051799033767
-0.414660299483373
-0.5787463151471707
-0.3067133679897991
-0.747265594813599
-0.3680486457034308
-0.4156049549757022
-0.2914836250531457
-0.2248363288316671
-0.5054491456964255
0.0707734248835651
-1.112785342744196
-0.545687263590995
-0.103145028129634
-0.4949375050328475
-0.284676906811449
-0.6557084565766059
-0.5195963037084007
-0.5082854201164458
-0.1070292535331588
-1.172125359086575
1.225353385387696
-0.2459407335090702
-0.6388375369035487
-0.5052092495485562
-0.2471611184738736
-0.9075720259854925
-0.3791120154252482
-0.1811769030168585
-0.2736145659309069
-0.3445355650802223
-3.30605772266825
-0.2454388368065638
-0.3682418897664623
-0.402806963684872
-0.4841734719820784
-0.1362032611962528
-0.4101858163205777
-0.8051452336504649
0.1179829402222576
-0.9849389449159063
-0.05112034361065822
-1.137001860184777
-0.7149879702387213
-0.09244948245897182
-1.603473578953285
-0.1806852656741298
-0.5894452890325652
-0.4956279809080701
-0.5097627677749769
-0.7692391829801304
-0.07682327785156964
-0.5387564947842616
-0.3725156862145309
-0.2178819466662633
-0.216392031798491
0.01695121373702589
-0.5707435819233438
-0.4475933934701726
-0.1743907914920194
-0.242049574188598
-0.2514177209821201
-0.32967831676836
-0.4279671958833354
-0.6779797932960886
-0.2792459520359317
-1.676204988755636
-0.6842209116349847
0.005429729463654873
-0.3378476398814095
-0.286720591077843
-0.1357387202942083
-0.02113092165946182
-0.1157521219085473
-0.4918141289321523
-0.4241045799853895
-0.7299961562816919
-0.2018785902871149
0.1417336357967815
-1.191149092756381
-0.5224376138870511
-0.2929994087207338
-0.6215714155004008
-0.8062578342826617
-1.366586682633945
-0.5802066010647451
-0.2922936631912189
-0.1582706416767176
-1.499605971852075
-0.4522535808725666
-1.092473419440104
0.03869822753306643
0.2163854982979838
-0.1503160649756258
-0.5878233557287632
-0.9963574850169491
-0.00860412346968893
-1.67906725079271
-0.3602749755414165
-0.4330641324645847
-0.7904559597817139
-0.8588731021767499
-0.2741973745197573
-0.4891634249526783
-0.2385492679892912
-1.205533211928343
-1.507637750414922
-2.272726091294864
-1.221400895320708
-0.2629258254466649
-0.586805781756089
-0.7949093496123075
-0.5994863212935285
-0.3040269377084966
-0.3856640076629379
-0.5832373581339931
-0.9555396667108085
-0.4981751136615571
-0.4520122783202395
-0.4690501629787084
0.01788129768940914
-0.3973587556418406
-1.022995805944272
-0.3178070668470159
-0.14766804462882
-0.04757721605103186
-1.52849568559423
-0.4688069842608142
-0.4559693300587904
-0.3558492457111664
-0.4740104717955376
-0.8885391960224679
-0.09106655610093385
-0.9013631946193899
-0.1486192137390384
-1.327829059554038
-0.2442249814595335
0.125323064155361
-0.2757821787247655
-0.4810784374806751
-0.5599041199517037
-0.2607021708227327
-0.7850485127323626
-0.4492135420011168
-1.292388393500937
-0.4879652302437439
-1.358935558416426
-0.52851508924843
-1.049735417977382
-0.7534667381910353
-0.1376573934019925
-0.4832838869394053
-0.8470817619710698
0.08734269801837596
-0.5595105706289866
-0.3125492754154506
-0.4243697831670246
0.1392626647502503
-0.4388843569098316
-0.4325911184261245
-0.6763717997227047
-0.8748167501855127
-1.595794817518647
-0.3232748167288778
-0.03131071997042893
-0.2394999452670387
-0.1899513776812909
-1.32501501326948
-0.5798101355643008
-0.05619061457444576
-0.461172986181686
-0.6126902267503059
-0.4585140078987441
-0.2015665191304482
-1.173917864262571
0.5759486996709403
-0.8511389906847071
-0.5442454085559433
-0.309832197273556
-0.5480350855268297
-0.4875407875485832
-0.6865053305524036
0.1722272344474219
-0.6920623477933381
-0.6006609185338033
-0.3869494651082698
-0.8165596928149332
-0.7798548424361098
-0.8575989066455703
-1.000060058819588
-0.4938053743377102
-0.9890931426680738
-1.075757670970295
-0.08329669197467528
-0.09432217962251804
0.2754966159104617
-0.484885078358306
-0.4634543487688225
-0.3988333466460033
-0.5388646960458717
-0.5797457345380044
-0.309553201309988
-0.506440975612383
-0.5774422840778869
-0.05908167400003176
-1.317645615315343
-1.378243778709942
-0.2767667286986913
-0.2557792759073191
-1.243777373377305
-0.2581791769066409
-0.4872167464406706
-0.532567726749765
-0.7606167609122914
-0.687992389446115
-1.165835444716928
-0.6773726416954751
0.01487176617643862
-0.5733882441844402
-0.3592645671289526
-0.6545292798562078
-0.5399670042557726
-0.5163447709088683
-0.3734405336916575
-0.6408873474689003
-2.049366315400763
-0.8916615323003682
-0.3894218828912056
-0.4624141994689311
-0.3175184494880652
-0.6841987082932469
-0.6331307143043358
-0.5578371866296045
0.03994649072724885
-0.6658421661396681
-0.1483302842342377
-0.0539659156542406
-0.7887078242925332
0.1408147648513155
0.003682902368765532
0.02636512049364462
-0.05273690651247989
-0.2858230483105196
-0.08823345108440483
-0.8458083307682638
-0.7728463682401033
-1.472680126646816
-3.767644437992881
-0.438931647355326
-0.1858275487234677
-1.210644758922317
-1.069519905254478
-0.319586608542575
-1.437803978383349
-0.2293116811018876
-0.2873423193471052
0.01238513606349148
0.4229420901848814
-0.3665125484006899
-0.1148214878767341
-0.6755290521432207
-0.5468158120920841
-0.1329611506508699
-0.375833102272185
-0.5097232399711333
-0.421677396948153
-1.070865501536805
-1.923471534655768
-0.9828940295729263
-0.5862563782626882
-0.3273283403984347
-0.6439649196820134
-0.7362568993106546
-1.334479010974781
0.04738385513842337
-0.4849166011938352
0.1829119877720092
-0.1428920844463536
0.01315286847898644
-0.7283169095648674
-0.8970222860007447
-0.5532320552560331
-0.4873749517501524
-0.2733425292809161
-0.4999700448552215
-0.7229049720026529
-0.7253020498758809
-0.5110431282666875
-0.3265129098978886
-1.329893205437506
0.9094236920532632
-0.08620123470553166
-0.4966631940445113
-0.3496460381324604
-2.764951841489482
-0.4923333253102414
-0.006294478474150523
-0.6956464701169321
0.07872466846615608
0.04921987440715026
-0.2777662611232514
-0.2953932332561151
-0.06263748376201639
0.1386149381695229
-0.1647653133330476
-0.5050386539538778
-0.4820818152688791
-0.5527661416755688
-0.3809447102888966
-0.05621058427274424
-1.934429275250745
-0.4361726514102236
-0.09360036124073755
-0.09438075305978742
-0.5387211231375116
-0.6986736581348526
-0.2490997740038468
-0.409940084097858
-0.8019320543250702
-0.04970089443390294
-0.2813386869369331
-0.5515510270725404
-0.2833072889891873
-0.4242567814532566
-0.7198667240456395
-0.2891736153210643
-0.2211303671738463
-0.3959339858741479
-0.7616171854904062
-0.4432427559847434
-0.5132312126421482
0.4103699586467873
-1.146357413229925
-0.7827375107065231
-0.7302478245409224
-0.2351784040643457
-1.491968830292258
-0.4002266198870538
-0.3764961977056802
-0.2907479430351206
-0.07564276966886868
-0.5952210758994981
-0.6125173447937613
-0.4867189723467217
-0.4486435539263844
-0.8443048774155181
-0.08396889465544775
-0.7989841510439414
-0.1131614724821806
0.4977903008578479
-0.9674016311555714
-0.08069943262808671
0.08953334018960415
-0.5586810858907103
-1.274284495514695
-0.6941885255837748
-0.5199595924837189
-0.1422614977297508
-0.8454050586126393
-1.187790943802918
-1.096475526373486
-0.3549460245935728
-2.546919387240629
-0.5168002679660443
-1.162369230162967
-0.4794146402028994
-0.4187526234533471
-0.2346195930248566
-0.02462046969039953
-0.5111706256020919
-0.2486543014298886
-0.2094491585585698
-0.599139640935856
-0.5146185989892466
-0.5962348410184358
-0.1570679149319163
-0.392121813362456
-0.5214329030270171
-0.7272811848871369
-0.7720839165883439
-0.6386192166509437
-0.5835733492040482
-0.1518323708765863
-0.2769148889233906
-0.1104210117624285
-0.631875392009596
-0.1575208539020284
-0.7336568024459674
-0.6112259312751573
-0.7068062671233717
-0.187800313910365
-0.6142757096273392
-0.6394556659876837
-1.725225366367795
-0.1818543253307935
-1.116553398966959
-0.7631131781537005
-0.3260594462193845
-0.8666055105318051
-0.4984153696778994
-0.3065713030784767
-0.1631796143490236
-0.4822247602976763
-1.620733810656883
-0.7546455611801584
0.8136482010756309
-0.4277413867478962
-0.5774051887276821
-0.460290507577129
-0.5035495659665262
-0.5536590392349902
-0.414233976156941
-0.5744839415041965
-2.021640567529973
-0.4496850971402173
-0.09918968393256115
-0.1056589929934273
-0.06036985371654315
-0.08974709266203354
-0.3826728779544125
-1.701263415630953
-1.579800415682616
-2.445738474564884
-0.4124450761678798
-0.2264249675940838
-0.1416773981077892
-0.5091237792343007
0.06561614505474045
-0.1134986561257991
-1.67224324487525
-0.2949835807973631
-0.5133556372125128
-0.5115344069804557
-0.9220938029123753
-1.801531865575362
0.1486722442901069
-0.5223849131366011
-0.8503728108828214
-1.793750113567007
1.088060300669548
-0.7164804512695339
0.01232179152596704
-1.021983801800713
-0.3483084835617887
0.1360924035354218
-0.1675823105183077
-1.132134383765822
-0.2855408810940425
-0.02353838183719672
-0.2755473388884931
-0.04672066604148534
-0.4995905351255721
-0.9417688050706485
-0.1830004606469056
-0.5147442808180489
-0.194072456065101
-0.3538985165518119
-0.3406413308625332
-0.7003946259408554
-1.058949098937208
-0.4692769938592082
-0.8173065030877708
-0.4185296893577984
-5.5600271681344
-0.1463414728225626
-0.5336651081399629
-0.3651017086876121
-0.1842090869297872
-0.8458996323226629
-0.5156833433241795
-0.0786637676255211
-0.1129854038402597
-1.740557881929697
-0.5040531627924584
-0.1292907205291414
-0.07923293016144577
-0.1197715560346984
-0.08207929862139263
-0.3757076280883187
-0.1906840133076378
-0.05936980640014264
-0.02816645944318885
-0.05188203592699115
-0.233762187226843
-0.2483734137992723
-0.0360271729537036
0.233939356310001
-0.5164836672603582
-0.08374138562666522
-0.3970752395247931
-0.6538347505365405
0.1017179685635157
-0.3109909711059735
-0.08044998587869141
0.2538520291170085
-0.2916642300903421
-0.07411947863597008
-0.06546699072452289
-0.2531276574261467
-0.07929801303560614
-0.02732727217664453
-0.1877582557518235
-0.6659112627985891
-0.594188704871195
-0.2514996603611327
0.0611488289422475
-0.3041044611625868
-0.4795705544791752
0.3825735159164023
-0.1432767756964408
0.04469524108406252
-0.2541422194075353
-0.838794432821631
-1.675333961402343
-0.8473811283388175
-0.6098635907003443
-1.09905405188245
-0.3188522879080062
-0.1056583117141596
-0.2267423281522092
-0.2088017640232096
-0.76665401206076
-0.5484214642224449
-0.3099226044676626
-0.2667784360847636
-0.401446988089708
-0.1183699714449718
-1.188733700775377
-2.039228442847486
-0.2068263512319439
-0.272031111249557
-0.0623715543487473
-0.6155024589524324
-0.2123425810306241
-0.45122602140923
-0.7111765053305364
-1.667145981190283
-1.091953982390096
-0.1467254213724078
0.128051708823438
-0.4599810221445639
-0.7819176342194899
-0.8364174674544737
-0.1473991166561629
-1.137313760079495
-1.611492833245455
-0.1139056342651578
-1.171917743262287
0.006635395067632339
-0.5286244929165371
-0.6760614366682799
-0.8260850880075075
0.05143584802398254
0.4363067351453618
0.3974296676181399
-0.1123932675897241
-2.85697256352979e-05
-0.2336542396587945
0.3396790369827381
-0.07189065193606121
-0.8242456022028801
0.6851452017797751
-0.2655942935215882
0.3383402911588095
-0.8308902901802233
-0.4696891520723565
-0.5546276032872196
-0.8179146873534092
-0.5137070701315511
-0.2390952465864284
-0.3136352123152403
-0.6445901752434456
-0.9020084975895354
-0.03500927107140948
-0.1076900455131375
-0.2257084971536909
-0.4620856995793878
-0.02364339232805457
-0.6157396433413765
-0.1579722935459358
-0.5638110618570987
-0.9357740252823408
-0.1552029265294663
-1.706136375551662
-0.3384319049123939
-0.6264737011290323
0.0008617801989163096
0.01494142719629953
0.1511870367440087
-1.56381276244754
-0.02528843293591261
0.1982249897459905
-2.221171651397819
-0.1258237515382979
-0.839716016398797
-1.00419572271177
-0.3165317036728072
-0.6045989159109797
-0.8637285999028593
-0.01210112916116959
0.02860957816011965
-0.4275854696731429
-0.2811480541033518
-0.7342832911938942
-0.582502875639401
0.009338109684159046
-0.4367308705617448
-0.4665115059504739
-3.01549903532079
-0.6454141204761039
-1.263601668295139
-0.293047650694002
-0.4441588089139195
-0.49311396399233
0.03619068046034165
-1.072392333388622
-0.1152742660373008
-0.9135200255162316
-0.1186698983701386
-0.07174474308372647
-0.1263726512515605
-0.08688229483887502
-1.890798662088912
-0.03374628723996154
-0.09184456382868718
-0.9572500046250104
0.1349692656527862
-1.310882732960899
1.217369413670702
-0.7209720558882343
-0.1245694435808133
-0.03480705988349914
-0.06429635493531019
-0.852334556990388
-0.06104764394616659
-1.683741432778828
-0.3073206792549088
-0.4905427505632974
-0.1931187571427627
-0.0194953390418662
-0.2418276576251394
-0.3712013063145398
-0.2088383390144036
-0.6049423662821799
-0.3616215109634258
-0.5419322982319298
-0.05032500552328587
-0.5197753580371325
-0.3417626594721133
0.006145469388455347
-1.645124712425541
-0.950212489955836
-0.1879534568637261
0.4316366552276927
-0.4646815232815348
-2.462905615116681
-2.841632672856636
-2.05254796728207
-0.5947110139080652
-0.1293148790754099
-0.05065184309440423
0.8714509936196809
-0.03458458975937773
-0.2507417050933233
-0.03625904913407605
-0.164270774420835
-0.137668844884656
-0.06549778415538576
-1.261122913055519
-0.02606388055352577
-0.4125094399838468
-0.9883113799712403
-0.006259868086698799
0.2972200274287097
-0.2049316960985294
-0.4840426201983432
-0.1480189973882697
-0.0671167751981092
-3.785582187473651
-0.5258653906535128
-1.372456929504482
-0.5185090578824704
-2.038299052027301
-0.23389837682247
-1.504030956694678
-0.1609619110474331
0.07366715028528496
0.1244765031992207
0.01275823106226042
0.04737056249784338
-0.02002959576242215
-0.06476025138042479
-0.369653496346016
-0.3287886676579733
-0.6724352430444616
-0.003507911808644455
-2.48751199428396
0.05861532445306319
-0.1611394294752533
0.04096742388372615
0.3335089920144005
-0.06930574041841103
0.06746416376982511
-0.08068313620179404
-0.5713129286491265
-1.117905679431544
-3.53336202290587
-0.08119002865315146
-0.3437912330221474
-0.5302495550333471
-0.02434902874507297
0.1482873099609393
0.03952495057940992
-0.007692541173204856
-0.0438451106840631
-0.5225779823241626
-0.2503452059196651
-0.0139508740880641
-0.242783998141324
-0.7377876724516294
-1.783815729170361
-2.293827741225933
0.2150860057054572
-0.9907717283538988
-0.2319800339300123
0.1242299403706354
-0.1385112937602008
0.2622009236353755
-0.5579448594440082
-0.6831854432582108
-0.08157839400185128
-0.719568287893301
-1.047890489297869
-0.1340060935448738
-0.306838621765402
-0.307319023982384
-0.00104027080428097
-0.1208715772131316
-0.8559281528646575
0.7167619634484946
-0.7798846076861018
-0.9632280375873388
-0.4858761896096033
-1.617984099044712
-0.6220563588663289
-1.475387570029967
-0.3934893250919195
-0.5310802085247932
-0.1624357107634584
0.1078068811773887
-0.3291824701433937
-0.1786827892029023
-0.1290008710133391
-0.04080534030209482
0.1932898206149698
-0.5408186283013431
-0.3007735595986398
-0.3580340006672718
-0.1338008526918135
-0.5585081009078362
-0.5764769240595746
-0.1324907267742249
-0.245633366449326
-0.9008663285153078
0.7157326717376978
-0.755026067520631
-0.07210256999238682
-1.112003750088147
-0.3540887546628251
0.06237795721037484
0.2650418478481159
-0.2534091858481987
-1.654813214857304
-0.1686184262975055
-0.2553028668137421
-0.1890254770240128
0.1499554048582111
0.006965654156960547
0.4561055031781807
-0.493330999084478
-0.1124034915577212
-2.120382205772912
-0.1994499654031658
-0.2492527126684386
0.1197333342371709
-0.1356468883852467
0.2551808161090113
-0.342905095767776
0.2419368853326224
-0.8455236167655973
-0.1285389464413742
-1.418440779207005
-1.520767366660626
-0.07605846161319429
0.5756444531159078
-0.2981777509796703
-0.06762521047666407
-0.4378158993324652
-3.807652051438627
0.8122615106939107
0.6576398726446893
0.05487012094209137
-0.1736235903818718
-0.0964965232729081
-0.6899290196691967
-0.4010202341122246
-0.3185046552937591
-0.5945568180399204
-0.4065151032377636
-1.29430061368293
-0.06805922484858401
-1.056605237674566
-0.1659394209988054
-1.451431944931759
0.007420615264679394
0.2416058359703357
-0.02089556937566142
0.2252990284578568
-0.8599803374568357
0.2364639895228215
-2.058777007655095
-0.2021419901714617
-0.2905834736116837
-1.001008966924482
-1.108735063950465
-0.4455045184953677
-0.05033131814293336
-0.05048277007715186
0.1024424464758147
0.06160435119380525
0.04929073008351487
-1.624892984361137
-0.05663469674641688
0.06992452680610782
-0.05944666981720205
-0.6077025671178689
-0.7524702030661091
0.1009659313114705
0.4214177587909335
0.05652278172603354
-0.6314574545962865
0.2351281968548787
-0.2238035864491807
0.7433496594808833
-0.112582330229657
-0.03773930005795906
-0.175423336196391
-0.0749837958673778
-0.1767194647366561
-0.05399016214927741
-0.5662591489587843
-0.3154743043724233
0.1030087031450975
0.4825192905089683
-0.1719638048575955
0.04075930204719708
-0.7289858551193328
-1.072633827066333
-0.4653790715016814
0.02950288062694165
0.06719639227223258
0.6000748607430383
0.01563528961367845
-0.9102694027551529
-0.2944270412677623
-1.877298035342133
-0.2825168900661592
-0.105701318888457
-0.2644878983971605
-0.07458357719547339
-0.1893472882174684
-0.1053828877776279
-0.07296644321196007
-0.2775374113899993
0.3537552328136503
-0.1585346018363954
0.08229268224879165
-0.1006111675868109
0.1370389561733998
-0.1472398918875396
0.07166020885499767
-0.5361646797449436
-0.8448778109604852
0.09074017932837991
-0.2096302347892988
0.3004300111279186
-0.1139030367546416
-0.3891047254914397
-0.2879641569509372
-0.127414976256992
-0.1556171948351467
-0.05159020301416663
0.2509221657449315
-1.021413735813689
-2.114759219526904
-0.6771564486520188
0.265978155595687
-1.376006220541545
-0.8754079643545406
-1.451670763270412
-0.003363349776267283
-0.3945687438046828
0.06732716543761616
-0.6352806293566871
-0.4344654388229948
0.1353108998689967
-0.9198354643025142
-0.03308197353168509
-0.6618593359211592
0.1951646919644784
-1.887214807748748
-0.5503017098387164
-0.434944065124547
0.3716523043843176
0.02741011308836028
0.03195629216698034
-0.08032410562518545
-0.5030904258232299
-0.9043166861916702
-1.001971167966103
2.14972660304199
-0.5564365145564293
-0.4169601897481129
-0.603766735867
-0.4934862217248273
-0.9774450044521801
-1.52645916855742
-0.5892519330801613
-0.7481563541261835
0.1807771046391024
-0.2425129081725982
0.1785775227107643