/*--------------------------------*- C++ -*----------------------------------*\
| =========                 |                                                 |
| \\      /  F ield         | OpenFOAM: The Open Source CFD Toolbox           |
|  \\    /   O peration     | Version:  v1906                                 |
|   \\  /    A nd           | Web:      www.OpenFOAM.com                      |
|    \\/     M anipulation  |                                                 |
\*---------------------------------------------------------------------------*/
FoamFile
{
    version     2.0;
    format      ascii;
    class       volScalarField;
    location    "0.6";
    object      p;
}
// * * * * * * * * * * * * * * * * * * * * * * * * * * * * * * * * * * * * * //

dimensions      [0 2 -2 0 0 0 0];


internalField   nonuniform List<scalar> 
19631
(
-0.06882216852259401
-0.1670146434565315
-0.5414617061049326
-0.8006016302863012
-0.0451458790855548
-0.296664859678975
-0.1316899979952851
-0.5951312021664169
-0.1433038694370313
-0.1955639984348556
-0.1436377104554932
-0.188985516453861
-2.314154403338264
-0.1791848940363467
-0.136782426645937
-0.0308296871392739
-1.073380359296589
-0.1294615409706143
-0.07661915383185776
-0.1437387462568887
-0.1418932154768673
-0.2299910853128991
-0.1659073929713052
-1.376354851846669
-0.1577881941137762
-0.1515387852029954
-0.2366223015856536
-0.4085609801066526
-1.310300291355152
-0.1979254047960034
-0.1553281458467485
1.369337782252735
-0.1128583836018532
-0.1813364578248688
-0.3672775999341885
-0.149725368866438
-0.2942041796994503
-0.1778983955934344
-0.1198313259706028
-0.3278283280031142
-1.037294580963548
-0.5276494497168951
-0.3132250268357528
-0.6479158335157004
-0.4498237710220906
-1.257478260924771
-0.5776638077799389
0.4124547891317025
-0.2807916698222663
-0.002322013353597121
-0.1025672520991052
-0.1887729036161488
-0.1943403772201879
-0.2169839990523645
-0.1113272545294478
-0.5840510801743363
-0.4942544992871898
-0.125964024486422
-0.1184404807276613
-0.7478749949139417
-0.9586808054977114
-0.8418939932209019
-0.9971210167361094
-0.5281121153535689
-1.991599831791704
0.3850013227880001
-0.2322476312980629
-0.1218946218672282
-0.516351475676244
0.005245775672250615
-1.092558614146886
-0.5591198564166906
-0.200659236223798
-0.250775542104732
-0.1008759424020117
0.004309257788674274
-0.1639767859346319
-0.8251534260206946
-2.084835458253208
-0.2071540032568932
-0.4698932190426973
-0.3385901147339861
-0.009675681858995254
-0.4596265517046396
-0.5481773514461569
-0.6098249443255769
-0.5837916069313466
-0.5438092999140279
-0.5361185386196771
-0.4716366728969399
-0.850444169246233
-0.1461921808069071
-0.6415852939121763
-0.3112747427192695
-0.6367898697501341
-0.73193159314818
-0.3598345550685628
-0.03228638077363805
-0.4617610330823733
-0.3443535532004178
-0.1381649801806254
-1.371220954001334
-0.147222242741954
-1.695083404819123
-0.5791269548619992
-0.7209145491740455
-0.2228591442564202
-0.06300366157395253
-0.1717525759898097
-0.03876179009811417
-0.5047143300223197
-1.408207523303782
-0.1569841534617144
-0.9499985791163524
0.3717382941541612
-0.9300231010608093
-0.862430103780496
-0.09691056790148277
-0.9546539119623051
-0.09214351206051255
0.08253255640181849
-0.1558314592142943
-0.1808527420181038
-0.2373500339987628
-0.3330650947255765
-0.1674970611466019
-0.1614956316083482
-0.1724356617817812
-0.1340218115951304
-0.1751694972080709
0.0395264318523524
-0.9762660551502826
0.4890104926419229
-1.473233384474243
-0.2245436958384865
-0.201135394207802
-0.2579108068604573
-0.1469743331735376
-0.1528635800807021
-0.2785225576920699
-0.1222955670307123
-0.1839828840173668
0.006238335765574081
-0.6520764615554946
-0.2181200145354553
-0.2908306621330279
-0.1596642509832086
-0.1600234499510195
-0.1887139603751603
-0.5867890593269099
-0.08291075844835825
-0.2011263890853572
-0.1678111631534393
-0.2125495365646661
-0.1056854142288597
-0.1981564342498902
-0.8907512228020764
-0.1754538739865004
-0.286916420017933
-0.1800502675521184
-0.06700025200342109
-0.1493804760088495
-0.8358146458661462
-0.1777173068696694
-0.1583557152912179
-0.1664497896596519
-0.1437728285719468
-0.1355993899042213
-0.1979793817464407
0.8853877077862662
-0.3597282073762045
-1.287794621320159
-0.3659311007930904
-0.05942925339550541
-0.2113045405197851
-0.5937058686101844
-0.1172880039864859
-0.5122067078221239
-0.2139058164071591
-0.1098351486322127
-0.6576537872496383
-0.1118283516104877
-0.1418997428655745
-0.1170984451314248
0.4886521815020025
-0.2966177177753547
-0.3438136848447996
-0.04187493290742799
0.0538564434384722
-0.1981082979621825
0.1035992794709705
-0.6396397662269043
-0.2232717799840329
-0.03705259797902326
-0.8213950063253419
-0.7587290439695523
-0.1640297372353564
-0.6487483371499057
-2.1968180157616
-0.541533816832224
-0.5041685579586818
0.3127154754961056
-0.8792158309477908
-1.200573209779424
-0.1448039047191355
-0.1133835415989715
-0.05823474295793373
-1.032185489740898
-0.1849251041291219
-0.2485144077346152
-0.2820961871907255
-0.2555607597669332
0.07350966937889515
-0.2247525603276734
-0.3586813497177786
-0.01547997799317342
-0.3407703981482522
-0.336923380739401
-0.2056878452896155
-0.2338286929118797
-0.1236381141307854
-0.2117548418884136
-0.2135582962088238
0.4111733529943581
-0.971409925010694
-2.011419815280586
-0.2693515491469584
-0.2538475962066278
-0.774096726926632
-0.5841580305368538
-0.6866647681485365
0.1837189187838595
-0.2877571991720358
-0.3742855562776325
-0.04037768083953898
-0.3915118676555757
-0.2418554164022373
-0.4689428360941867
-1.328799170683152
-0.306585936764437
-0.200107560994387
-0.1637176344399633
-0.002912040409458701
-0.05959356205282899
-0.6712947769903449
-0.9925574001093543
-0.1386102516726243
-0.3167545915664677
-0.7307080978223951
0.5668903792003878
-0.1376764341559474
-0.5640295606907709
-0.7381005139817197
-0.7195486274493696
-1.332556421204117
-0.6531267814420315
-0.1962772933950175
-0.8205782891001531
-0.1145825895918659
-0.3537478252119484
-0.2059996438567864
-0.8254556994510381
-0.5895511222167775
-0.4981588536327206
-0.1966895964183465
-0.06362679662995088
0.04346661963611999
-0.3068541522049374
-1.243123033123844
-0.422351451682718
-1.875237370251177
-0.266747030570531
-0.4667572904394158
-0.09756075243087191
-0.01364090109047721
-0.2840237730173394
-0.03027950439098392
-1.022335220447631
-0.3720370798201089
0.4701893534136885
-0.5334475284095428
-0.5136827325703611
-0.10449467046402
-0.3620704225661327
-0.5150441726905376
-0.7375796836164643
-0.08054746891742857
-0.3372676014435902
-0.6257672225532089
-0.3618737105738389
-0.4552943639425159
-0.3633006859730661
0.03235035502711303
-0.1633318652943359
-0.03278916599218419
-0.3654821760257298
0.7399072856845962
0.05148928664938972
-0.3579683331124187
-0.6536923117098543
-0.8473330262963189
0.6789605526275364
-0.1622727315303405
-0.560394557586495
-0.730853417465464
-0.2060368013141759
-1.571450125118453
-0.08781708025676249
-0.1463052585447436
-0.2136262759056669
-0.05649570966623332
-0.4601130882997694
-0.8083069675538135
-0.3754701378408418
-0.1591871694476757
-0.1049761235265059
-0.1214216747775716
-0.1267229853555074
1.228424410894477
-0.1080416447452715
-0.7476059798966525
-1.994189042155058
-0.6084245107242509
-0.193670421611393
0.04583489835089605
-0.7914687345929302
-0.09015049211590184
-0.9968393653376858
-0.6230009792392852
-0.3749407265644493
0.2298847415524469
-0.1825888941593782
0.06169715819244028
0.124506117712657
-0.7794937313287116
-0.1143740152308945
-0.7491262137265143
-0.3003085950564739
-0.1706732593739808
-0.34826780453924
-0.1607320689428646
-0.8883174625074716
-0.3143755662410397
-1.003955904208325
0.7815309758700442
-0.07009975905011051
-0.158527835206684
0.0007174322353434242
-0.3262325741836526
-0.5270028051165506
-0.483674441024124
-1.070356019864657
-0.1231105920800661
-0.7765208837532932
-0.3778583130019024
-1.273954187190699
-0.2528463382464041
-1.263155527531208
-0.3769340220584377
-0.9877168854970027
-0.4616312894530524
-1.039734264635185
0.4342428539693294
0.127883968419487
0.4163417469640395
-0.3088977874017172
-0.3694697175595125
-0.2504232433848383
-0.3050674359483081
-0.4474206344409208
-0.1371991540218376
-0.1406062565049808
-0.7310399332918835
0.01542789972821809
-0.2032272158437253
-0.06713347842447277
-0.1072842120186932
-0.1088812887027194
-0.4188302770723449
-0.08713728473615935
-0.597762857668299
-0.1240624725392328
-0.1363582239092963
-0.06098207072652483
-0.5595746343561634
-0.6880906024115031
-0.1854417312679243
-0.05900314257399211
-0.1110257979469483
-0.5729499765103111
-0.5812003694125708
0.005134113619830649
-0.2744911850319875
-0.1051703747066001
-0.4193548115109363
-0.00977627061777899
-0.02235770665177584
5.471296340779739
-0.9758176228988318
-0.6392761816290711
-0.6576894966697898
-0.7087348637217487
-0.02707657328423585
-2.20639127414031
0.1764659011008289
-2.039398165142391
-0.7703667406447691
-0.1029083596833165
-0.9625330807256218
0.1373466021481985
-1.661807412499616
-0.5020720242700401
0.196156077212155
-0.4963926995427069
-0.5186698132956319
-0.5387214430604705
-0.1190967743420173
-0.4041688433185422
-0.1220227462127775
-1.394450917142539
0.07863089498036231
-0.1520780785226977
0.5248016009113439
-2.023980827009634
0.2915498036948372
-0.1886474395458854
-0.6147979796620915
-0.5109942933718803
-0.08816827822725494
-0.2591065886988541
-0.08791058396068546
-1.897408101736264
-0.6368018605326672
-0.2123298752116013
-0.9490716932970457
0.1530206647179139
-0.1051261362464288
-2.169856241767511
-0.4422134611964589
-0.283118419696327
-0.1102438486289666
-0.3839979698541859
-0.9223799487029377
-0.2720899248182267
-0.0821970683717454
-0.9212695989989476
-0.08277084366943578
-1.577626735616854
-2.296852753084168
-0.2568846619954234
-0.4529976299511938
-0.8359615605174892
-1.501136623120608
-0.2896856695352943
-0.06748820927366736
-0.07238284881485881
-0.1128246537608892
-0.7397212442618477
-0.645719048891587
-0.2769765590849694
-0.1466885464277022
-0.2381297603989528
-0.9645660316097714
-0.1167056890533686
-0.09904583473090084
-0.3403569706864292
-0.9767134280664993
-0.9131786545236767
-0.05233744739697611
0.07246257119990675
-0.5710591152896519
-0.5852086775100868
-0.1192739613795407
-0.06444206604897774
-0.2443995501786405
-0.5881591224510279
-0.1475060721858904
-0.5946024185696064
-1.04226914742291
-0.3479397132463518
-0.8184935103789729
-0.8147434813656644
-0.0975313654671371
-0.7138501756083716
-1.091232949762655
-0.3777502592470391
0.0121873265692809
-0.1379399610702047
-0.0859212944845907
-0.222263333792746
0.08296895047151109
-0.3026582068616381
-0.05232593085602012
-0.05060772495346878
-0.773745782367222
-0.05298031986359201
-0.356253389682594
-0.8595713148520565
-1.098877742186834
-0.5459985386772684
-0.2624980914661135
-0.127113280639926
-0.1929708316439517
-0.06592418646937284
0.01757235483752063
-0.1731643224847372
0.5276400718085935
-0.04944921156233108
-0.07888742082993974
-0.1350019416132881
-0.6650574124437085
-0.2065166494689829
-0.5148405650714256
-0.1217435026451296
-0.1344632187223844
-0.1272484458487259
-0.1333523495304477
-0.1201672315214879
-0.3906363037273405
-0.7669595854365844
-0.6975139633311406
-0.3265042125749244
-0.01865118466952088
-0.3308940246862875
-0.02440425692548449
-0.07480092461543462
-0.4757223835972374
-0.6097751120820643
-0.8934628318975083
-0.1208817632195185
-0.123521564353315
-0.1446545319946686
-0.1337448581965259
-0.1497286138750596
-0.1254489517385698
-0.1251448235348684
-0.5094739361814101
-3.576484669729064
-0.3418153957624722
-0.2645393374619123
-0.5469251942565625
-0.4823960777440956
-0.2293456019893082
-0.4883334188096584
-0.2647707825033745
-1.660437025687758
-0.06918890860406704
-1.668549472679741
-0.4665439994863184
-0.1780164728807221
-0.3708030322442831
-0.1954322949495957
-0.8846529070451629
-0.0934172235943211
-0.8495871749219019
-0.1408977139496398
-1.090978417020809
-0.03094733440341999
-0.2945047459620138
-0.7953086803500613
-0.6236716474379765
-0.3038433723173936
-1.778142945626406
-0.3480357578883975
0.1493845495705339
0.05945866170257166
-0.7574369401372323
-0.808303441834459
-0.3063416971330137
-0.6990166767762512
-0.8715878752140944
-0.6307755438546168
-0.180962863883627
-0.007029727993404892
-1.06391789510845
0.01697315222697336
-1.243515867185782
-0.0847328160434811
-1.272885709634146
-0.7247595341773895
0.07102892020100773
-0.7922109644982579
-0.1298433313126652
0.8999550362599781
-0.6722933741017911
-0.6269085557319596
-1.070178749280218
-0.01271100373774507
-0.4044109288226082
-0.4578537176530026
-0.254610634472559
-0.2459295948724855
0.7442390005199289
0.3224084199613239
-0.5990893845722103
-0.2073054869093935
-0.3461390941811997
-1.176647748673131
-0.2810950465943307
-0.5730690031849835
-2.103926780488035
-0.3213443049659353
-0.1903639880447422
-1.256053091142802
-0.08685982806666467
-0.2323118665571101
0.4640702142114806
-0.4572175687805831
-0.1279275966979915
0.06216950781303177
-0.9868508688280544
-0.3374777994031841
-0.2092788905842748
-1.156351183786156
-0.1698311734511211
-1.217636876015166
-0.4127530678833063
-0.1088450707704702
-1.128843962039002
-1.120687775592053
-0.05670957912247167
-0.5250478692080693
-0.3518599926658978
-0.1921454761432409
-2.012618406285603
-0.4385016789550409
-0.5893855784737158
-0.1565997921031404
-0.1306345809719321
-0.2075594839755293
-0.5507687154726685
-1.079137494565051
-0.09068765450292425
-2.074187334716537
-0.2667430346325198
-0.8315197386278584
-2.231436622322124
-0.839881253041768
-0.3886265360433917
-0.4910367865325317
-0.1977480570425838
-0.0287394148068138
-1.551571745711046
-1.638581449273433
-1.113251760589903
-0.3204821191568272
-0.8216063407016668
-1.037194332241011
-0.8449148467795193
-0.6761210107394796
-1.092853218967932
-0.713430748755052
-0.4036055564173523
-0.2030791414594584
-0.172112248176574
-0.7190636450165665
-0.8177474693745601
-0.6264843759553033
-1.2017291728455
-0.2354317993506446
-0.2249319313007822
-0.0927840117746304
0.07289694224972125
-0.5330739915188822
-0.5497832608535189
-0.3454266265915585
-0.2461488788034839
-0.2244542223121808
-0.1858840133141514
-1.33005415088642
-0.1222967616710164
-1.461265888772779
0.1326357422853179
-0.4889812102784003
-0.3301261521857192
-0.8014301429541447
-0.6585880951961925
-0.5915239328017771
-1.02147390073869
-0.7476654334848342
-1.625371160547957
-0.4645693859376596
0.1472283634791163
-0.4182758239128075
-1.451971606893257
0.02146585096017754
-0.2110817061571159
-1.241837439473618
-0.8477182688761603
0.05318584632271754
-0.7146280838492973
-0.4883541538410032
-0.8369463642462688
0.2211431645653466
-0.8487995790097556
-0.4513252905609921
-0.6144637487702911
-0.6777505157162554
0.4135435222264598
-0.4508166140074736
-0.4206010835654893
-0.4296602368642314
-0.2670616888704281
-1.100391728440199
-0.7730899178123827
-1.749593070309934
-1.472671313184999
-0.7559851502493595
-0.7450612128618962
-0.2623409800626331
-0.6845176648160531
0.3169085533682905
-1.125412597648272
-0.242839431494017
-0.498091412484602
-0.6479075989686408
-0.5301437944800256
-1.117682900835759
-0.196800426737622
-0.8164054303282213
-0.7611266762462291
-0.4850090475486883
-0.6385765872164115
-0.7772033281299986
-1.186982355842563
-1.157868667059344
-0.9617439546564641
-0.3439730987390386
-0.3793971151067335
-0.1820151752201039
-0.145056246909051
0.5827233716055363
-0.2355451687776084
-0.7806175101524028
-0.2864199627794413
-0.7070387542712133
-1.535097097807928
-0.3912206692516196
-0.4964578523936074
-1.690151414219141
-0.08278686323083255
-0.4944828287892926
-0.8209167212531351
-0.2582575624625428
-0.2366328981410283
-1.217247013510472
-0.1387276868947132
-0.7645417723705006
-0.2915643703859415
-0.2826817560838326
-1.023961734486672
-1.01036360335418
-0.4988167611691796
-0.07789952739434652
-0.6813378450121683
-0.6053577266473549
-0.7714366539200613
-0.1921664910086215
-0.6578155953622565
-0.4872406879882371
-0.8829522211799664
-2.609918387906358
-1.289735154234046
-0.5142370873846692
-0.3868391912378378
-0.3118600155816399
-0.7363521589970392
-1.015772087861452
-0.6536977546285111
-0.3564952120113687
-0.512742240799541
-0.1222333625142207
-0.1174204306845014
-0.8276195788457048
-0.2174570423843831
-0.1280430329015464
0.193524947767817
-0.1574793004016962
-0.403252927040527
-0.1297756755274757
-1.147651411312356
0.397027766045178
-1.626266757197986
-2.323720763699957
-0.8887573704488148
-0.117711824010451
-0.4591988312219673
-1.762732618267719
-0.1830835314395655
-0.9156388429539362
-0.2383110221774678
-0.3559061978640154
-0.1509619416535513
-0.4461460361614492
0.08852365025361557
-0.3744223876207938
-0.9366108735135158
-0.6540661271955182
-0.1503803382531422
-0.6122035522378662
-0.3794682772520842
-2.251310111223158
-1.13687091911484
-2.00469850044394
-1.551926385955804
-0.5470933500534921
-1.768955522561655
-0.7344924252312353
-0.4973492363827672
-1.294726236699105
-0.1251507157088807
-0.5834739614624087
-0.0918930436788193
-0.2222685069255582
-0.371430711386054
-0.5491390949523075
-1.753744621984617
-0.696538784210962
-0.6301039725869124
-0.4081592071314695
-0.6777218771766641
-0.8634033485166034
-0.8952374025440568
-0.6884152229227994
-0.2102897766985793
-2.268879733295352
0.2783450983670149
-0.254091426188605
-0.5237112715276758
-1.037509157395318
-3.337926106705874
-0.3172202973402535
-0.003837729854201284
-0.6771302315400088
-0.301256192376805
0.03623941938544639
-0.3107762343305419
-0.521979137761169
-0.1336760139022015
-0.08432899747833512
-0.319398652974932
-0.6692000618968357
-1.030481769733522
-0.417382429170713
-0.4436515037746486
0.1516795892627213
-0.577396768602551
-0.05870143303824701
-0.1205748004997223
-0.1156463120759534
-0.7302044265285315
0.1355063235944474
-0.1277386851884612
-0.770653619641848
0.129989973805457
-0.08535756780271504
-0.3473654652143695
-0.4333772374241008
-0.3416351088166505
-0.02832091178714551
-0.2695658038506035
-0.3272371597335924
0.1695268861553259
-0.4686102077494161
-0.8885780766192762
-0.5599228030131959
-0.7511716365585908
0.3255938362017003
-0.6951291694607821
-0.8619934027907612
-0.7690936546511823
-0.5361403045948195
-0.8197786320840347
-0.3821541220035575
-0.5671668351636316
-0.5848592403546246
-0.07088950758788375
-0.7249256466222052
0.6634386118191323
-0.5677016176894268
-0.5719567659651841
-0.8088644464587008
-0.1733308431365816
-0.859149478288963
-0.1268217130404958
-0.07021547990946465
-0.5920456753020045
-0.2269115263463061
-0.1486346274148242
-0.7119998444911021
-6.05619512664144
-0.228485369838584
-0.1876420723246513
-0.2178189226607221
-0.3382379478640858
-1.03452210987565
-0.7573421297205685
-0.3656002501849929
-1.524737465359596
-0.4805472600480122
-0.6852720931639246
-0.9477069572573185
-0.3529700482000937
-0.7451904835185602
-0.2731772425744545
-0.3838045804597147
-0.162218690479886
0.1742686221985226
-0.4246804437292158
-0.7390360101982927
-0.5106962293377898
-0.4327491902914823
-1.134839922983195
-0.6052906741941123
-0.8631459407282741
-0.7709367320055039
-0.7595538471828923
-0.5438512299056633
-0.2938412433454831
-0.4051101389743248
-0.5742801057668128
-0.2905578612527661
-0.1820206864881054
-0.4450962036401711
-1.060539903673271
-0.6713318786458118
-0.2485500105819619
-1.334942966042532
-0.647813840569751
-1.6408717296424
-0.2337959221616088
-1.063877322882026
0.1612312484586646
-0.1828282710950783
0.1066425854085923
-0.2761182632242331
-0.5967344281545349
-0.1058654398159006
-0.6392717146071222
-0.825715084384921
-0.8110281949256047
2.158986179011863
0.2460497761659921
-0.3335692007762521
-0.6149182184492493
-0.6271699032911934
-0.05688500109553418
-0.5406398639326017
-0.663966214739121
-1.02989905381186
-0.6027442021519145
-0.1265661759440409
-0.1439380490172973
-0.1623161447145735
-0.1310367829821356
-0.4923970347300148
-1.599670179763482
-1.411782462556232
-1.65115903574407
-0.3628271025011587
-0.2437887582986546
-0.3451551024808147
-0.7103195917147345
-0.2215507169296982
-0.262643195520637
-1.420266927394274
-0.515379768277467
-0.58413120388094
-0.5206026206774198
-1.147077775283904
-1.818552770419263
-0.06387568913425863
-0.4325356633451807
-0.7695852955742051
-1.984816664908928
0.6178294312617452
-0.7797799220475826
-0.1772915448407611
-0.1826832360800675
-0.2138831350515885
-0.3759197147471768
-0.02378271745627152
-0.184793848087639
-0.7420209955725972
-0.2187863070119944
-0.2978076200712363
-0.2035832130108101
-0.2304620975509044
-0.9957308936917924
-0.3223910166773192
-0.6879304470784218
-0.1925989783417371
-0.3666203245271423
-0.4320821827454263
-0.6701649182552777
-0.9118146425071515
-0.3660912100506147
0.3748508216488174
-0.5058815320245962
-3.827427940506782
-0.3736750121090452
-0.6039944660190787
-0.5004999847829157
-0.1996811594768329
-0.4656908889493987
-0.8306063136731576
-0.1330503947067729
-0.1711802904023424
-1.034198267174719
-0.5789475902625479
-0.167628675743044
-0.1324297700949868
-0.1493443714483169
-0.1902158893959887
-0.5117189659898023
-0.2331437449182875
-0.1639149419215531
-0.1081001984205941
-0.14240958161121
-0.4645933676486884
-0.4402495478117696
-0.1365868000744277
0.1068671071981576
-0.7212262418764266
-0.1522627637304435
-0.764271382792881
-0.4213798953760028
-0.1644860672165548
-0.3331847362022243
-0.1277990792347236
0.1623252257527528
-0.5948699246526686
-0.112238669889666
-0.07802060772613083
-0.4057890876539164
-0.1833068802544109
-0.1274733103117106
-0.1408231399908811
-0.70373916786035
-0.3987435890557277
-0.5011732931424953
0.09174519936457826
-0.4151310225209421
-0.4610233719916919
-0.06080591496563093
-0.175362923107701
-0.05262339237184183
-0.2714168797370262
-1.446717807878292
-0.3403421340495869
-1.216712145955349
-0.6271168857821168
-1.486672340467691
-0.3373107820299502
-0.1399478367720738
-0.3222259249439033
-0.393689366856924
-1.229376856136009
-0.842404248942439
-0.4353026509495374
-0.2494099559328479
-0.1089973855359323
-0.2301388883226152
-1.053090169582622
-1.598263718764117
-0.2006564299243417
-0.3440972987584986
-0.1566405435721419
-0.4723513848569593
-0.3013986978656142
-0.6871179808751601
-0.09445743386295671
-1.53454611006496
-0.9868222310401255
-0.2337754033489122
0.07173732010468227
-0.4495020064938009
-1.217995136134044
-0.6076516004885271
-0.2418326113502536
-1.74433368501613
-1.235437742340834
-0.2344882992187766
-0.2460582436363144
-0.6347776603088966
-0.5471822913337255
-0.6925043464680384
-1.036741409986762
-0.1076535673880158
0.618052935144351
0.3161519710720629
-0.1671898686122663
-0.1718452351550849
-0.2131835714220829
-0.3848179448144583
-0.1273776762451715
-0.498739617293861
0.2325440693185486
-0.3638552367228954
0.02002333968160745
-0.9240674476765861
-0.5090973187450215
-0.7753672642073864
-0.7704217074860477
-0.7337097009212179
-0.5519520778929142
-0.792716569617515
-0.8439300723136218
-0.2342096404358738
-0.1622600255695025
-0.227054028573261
-0.2776607694825324
-1.2237682446049
-0.1422483945942333
-0.751752015739249
-0.1625227976919941
-1.0104264291694
-1.149193679571863
-0.1563539241326626
-1.092112494512765
-0.5067146114952453
-0.7519654760400692
0.03424331355526332
-0.1884323493342125
-0.2306525421312471
-1.430302978757891
-0.2387721538789236
-0.1071471259695956
-2.279734299208955
-0.2089265932282897
-0.3981128514882388
-0.9818643653963489
-0.3235186264559476
0.3630211401258718
-0.762502695585883
-0.195325463105475
-0.1017865107092649
-0.4869853693539845
-0.2890116693454465
-0.8241293669582861
-0.6792778136192985
-0.115875038366744
-1.44202214371334
-0.8947126340194551
-2.064017622869275
-0.720105707162445
-0.9765964719190443
-0.7202709348504622
-0.4683185181087575
-0.4362323971601524
-0.1070750639385937
-1.518180491359267
-0.1086309218135066
-1.109724043210226
-0.1774959310449371
-0.1295078713010843
-0.1642377510462956
-0.1241556121133971
-1.789298220725558
-0.1285137219544373
-0.2257468579213464
-1.238889135342707
-0.1263896244791244
-1.343930842213478
0.1998899354584053
-1.133731243037651
-0.1707984709114201
-0.2445870355496624
-0.1240124095106434
-1.855553815273753
-0.1035232979383037
-1.242912841609737
-0.8367095200566482
-0.4064766821217269
-0.1620020008917393
-0.006907892241645984
-0.3112047163048324
-0.3536989521982454
-0.3636754099880308
-0.7337576651275111
-0.7252943000028413
-1.102827185774718
-0.1636759771978386
-0.7520547747765742
-1.005303547834328
-0.09236151531410175
-0.6244860209092834
0.1216198668460473
-0.2965386030161909
0.2273458441779863
-0.5619024993139665
-1.605957780620892
-1.689046277494759
-1.450485610930269
0.2181342312560805
-0.1957155080674525
-0.1239331657856485
0.2221900789948002
-0.1492761961644413
-0.3712491937218347
-0.1223953949758226
-0.7524703687991099
-0.2379467567527982
-0.1198456212520276
-0.3193232516257741
-0.1231699221169406
-1.258360432113256
-0.2953423275443021
-0.1330584997962119
-0.2812326911537671
-0.2500652357548846
-0.6790767409621601
-0.05015237764807746
-0.1894101937525746
-2.901150296868481
-0.6637141701192421
-1.839106471246219
-0.634590422048518
-0.6329549735104329
-0.4330403576655138
-1.006947810359245
-0.434383279912104
-0.1821050731719064
0.1111996291855603
-0.0824993011018651
-0.2751022477464853
-0.1724845995367787
-0.1101066335122608
-0.4247793938543409
-0.4300005762215213
-0.6703344461273149
-0.1081543267767344
-1.605732949285212
-0.1137712060932129
-0.32223880971698
0.02049975000462902
0.03144472933123468
-0.2304446053836804
-3.881539296795963
-0.1776246724298395
-0.8934553527599253
-1.223385381697509
-2.579536128256851
-0.7906616183080974
-0.2327922696839085
-0.5875560360596025
-0.2468750622325282
-0.2842359791844765
-0.09902835173192104
-0.07296776835289071
-0.1398288824228426
-0.867292259301655
-0.4610155686553696
-0.2461194744781169
-0.4227003871534049
-1.070801162451168
-7.525407805285264
-3.333854482052631
-0.904391959677689
-1.202705143338122
-0.4090345833508665
-0.4254623313157992
-0.3183204890909513
-0.05351799614120407
-0.6598929680451728
-0.7736501487288424
-0.197574955219594
-1.531824881160798
-0.7938754057665055
-0.242129272008111
-0.4159801514063695
-0.5385384469426955
-0.1444695990728819
-0.2879001098597133
-0.3766167486112783
0.0519746662139095
-0.4159653387914271
-1.023665698394688
-0.6859380035911136
-1.622697000320254
-0.9919608417734775
1.806197767441666
-0.5103287319303346
-1.012116142470315
-0.2091503836168709
0.1596197017449463
-0.32706223645372
-0.2426893144891479
-0.252648969631712
-0.1567062516908965
-0.04448667420887205
-0.974133397529381
-0.3870051794005724
-0.4481260317653026
-0.1804143313037102
-0.6322300103752178
-1.020169732856596
-0.2149205830522496
-0.4600456349615976
-1.523064172651568
0.03071421186384271
-1.402646916262434
-0.1623315863964037
-0.5388345090748136
-0.4548704426688149
-0.4686449940129339
-0.2606609107078067
-0.5520934757610584
-2.479116066582132
-0.1883115614613043
0.2146983346144919
-0.2794506311885691
-0.1038328570992016
0.01064264379264063
-0.4140823804460928
0.4143023638519573
-0.2670095998000662
-1.746977257394987
-0.2725944830502938
-0.2873290432945221
-0.1064971915288012
-0.3331395220504126
-0.1217319443149119
-0.3904398708377732
0.1867839079811359
0.1097473983930573
-0.226361167778733
-1.487121011344439
-1.471893948080287
-0.1192082324963418
-0.0551765473089489
-0.4053686352080263
-0.2664161735476034
-0.6016430869360893
-0.9587629714335562
0.2327856769182018
0.05785727545735945
-0.03139662985142261
-0.3415156486102153
-0.1896160389018021
0.9903735397156022
-0.5012972382433696
-0.3394405764644753
-0.9100691486656441
-1.289545504648397
0.3792826089985213
-0.2080157529250878
-1.218622044342516
-0.9811183467931185
-0.4231909721922273
-0.1940003024714097
-0.1060547482803968
-0.1840598539531024
0.0984758055136436
-1.161933491721814
0.3400947441719201
0.06151878269872547
-0.3452421973997051
-0.9629633856070128
-1.027527768804973
-0.5473533681759514
-0.3534598159285259
-0.1253084481278101
-0.1102882148721648
-0.2404147106521368
0.02708369400803246
-0.06953066949627482
-1.255425615507959
-0.1125510921021286
-0.02909699996326981
-0.113309484675723
-0.3986852114611582
-0.8857205410041876
-0.1385733619937745
-0.259952445739135
-0.182979942984745
-1.180182574398846
-0.07680451778974218
-0.4500726486083062
0.3177077164572138
-0.1371884117486382
-0.1546173980539
-0.2701000827820095
-0.1260273730856922
-0.399600009007766
-0.1231685387558194
-0.2241080057302426
-0.3530571166625618
-0.1208663342665364
0.05775650236137316
-0.3300449381200674
-0.203323477225863
-0.9682396054984372
-1.694137174514049
-0.3732922874927079
-0.1447954657124461
-0.5088591447445545
0.298683012892615
-0.1527121688468398
-0.9291782606130909
0.466541678576529
-1.225951269396366
-0.3145286604990384
-0.1296685126013572
-0.5464648267273949
-0.1345630355359489
-0.2399508635112
-0.2223894703253554
-0.1208536544203927
-0.2051213167050233
0.2234267762761041
-0.4977690405218355
-0.08416869834888899
-0.3856005914998734
-0.2016096124575265
-0.2112470844271871
0.3476967300451894
-0.7834308608867551
-1.030491411421292
-0.005963004622917475
-0.5390901557535495
0.1226095595992013
-0.1070764628786755
-0.5480727924794774
-1.156800722428013
-0.2747170056466828
-0.2740602613273828
-0.2007204503513859
0.2498454708247344
-1.276234045624341
-2.247697319135815
-0.6252538347531205
-0.1403767672040052
-1.459852236283562
-1.044019111042066
-0.7589785933467912
-0.2011673489824758
-0.631984220812088
-0.1687940732579636
-0.5566275674521295
-0.798857410620895
-0.2935609305482348
-0.7218360706975521
-0.1030104020305717
-0.9690392529154346
-0.02093422514871822
-1.655624472411322
-0.5713423875000688
-0.9878455294933474
-0.1543970757040224
-0.1277625003099792
-0.0715582791014541
-0.1285891292957617
-0.3036303282327406
-1.487884008830638
-1.312461462748376
1.040513486384823
-0.2956825690985543
-0.5022598916712864
-0.8381861970892803
-0.7578788214292351
-0.2428317596548099
-1.412828110381428
-0.9817953517983075
-0.9343151062729522
-0.196108816754283
-0.8942959105500398
-0.0008100248405514274
0.2723403854066297
-0.9606744467683461
-1.180626981573193
-0.1036082061475871
-1.732203340016052
-0.02965081293320656