/*--------------------------------*- C++ -*----------------------------------*\
| =========                 |                                                 |
| \\      /  F ield         | OpenFOAM: The Open Source CFD Toolbox           |
|  \\    /   O peration     | Version:  v1906                                 |
|   \\  /    A nd           | Web:      www.OpenFOAM.com                      |
|    \\/     M anipulation  |                                                 |
\*---------------------------------------------------------------------------*/
FoamFile
{
    version     2.0;
    format      ascii;
    class       surfaceScalarField;
    location    "0.6";
    object      phi;
}
// * * * * * * * * * * * * * * * * * * * * * * * * * * * * * * * * * * * * * //

dimensions      [0 3 -1 0 0 0 0];
oriented        oriented;


internalField   nonuniform List<scalar> 
37503
(
-7.3302964727141
-11.02309150056972
26.1333009634208
-7.77991299007627
-10.5070441428997
4.569731762045854
16.43849138300171
0.03461635959549299
-0.6074884285738115
0.8540771308226214
-0.2812050618505947
-0.1138617953981785
0.1384430425591293
0.001211307854088249
-0.02579255502043949
12.38984038755416
7.177828656203199
0.6072570544439529
-0.02121833166869241
-0.08870794046489672
-0.4973307823206534
0.0823346649322446
-1.607702732476217
1.575248062996016
-0.04987999546610957
-0.467910789661066
14.37864611810726
-13.91073532843259
-7.679928883151145
-5.801337713863489
-7.845288691815193
21.32655528888026
1.788379111903634
-3.123900324847412
1.488110769315967
-0.1525895563870291
1.472041018845427
0.1885034817899169
0.4165022281049701
-2.077046728729275
1.709954154261441
2.108357916391215
-2.707550188411026
-1.110761882213255
-0.02897218742751498
0.009192769668453973
-0.03970414715712638
0.05948356490945327
1.103085481851025
-3.580138261237275
-1.005614212230898
3.482666991677331
-0.8891807138547758
1.961047013697628
-2.768870557282917
1.697004257473729
4.249082766037451
10.60149800328159
4.503059404875902
-0.009106774649536487
-0.1634289777083222
0.1357771032671447
0.0367586490807651
2.090641808407856
-4.634071002687257
-1.985858942715521
4.529288137049717
-0.4826883162487876
-1.272586043905223
-16.57053837927798
13.08701892788885
17.96746413505847
-6.663162203167254
14.16705225949719
-8.120789739939008
6.981344055514433
-8.226582181162209
9.366027865608936
19.98681491172082
-25.72462009963811
12.04113156601141
-0.05101021072666736
0.4554169811644365
0.02035488075433674
-0.4247616511988186
-0.4501317893121217
-2.17695539278604
3.73017266398154
1.392338712781523
-2.664911338215161
0.3833919116014106
-1.445042217149418
1.92077173941983
2.203917456733779
-2.679646978951201
-9.801975438893603
-9.425403930600089
0.2827779404764539
-0.3038730339790965
-0.05374253122816477
0.07483762471342731
-2.293212061728995
0.4230279547715832
13.09342524688875
-16.18671751082564
-23.76129161106514
26.85458387494813
-0.148531473363079
0.1230072820980744
0.07944950248748647
-0.0539253112317265
3.551281487431809
1.928099517031142
-19.94648459002509
-1.547438030282771
-0.9974683729950378
2.094774614010327
0.226285561429064
-0.01802644313709536
0.2119201806241962
-0.4201792989307014
1.323741236395141
-1.192480347093906
0.50447424258513
-2.040294535488696
2.7283006400422
21.43799555456265
5.091721291243974
-4.457343042365319
-22.0723738033829
0.05135948397512173
-0.3100462569488389
0.1195212318012047
0.1391655411636462
0.3035568245269437
-0.6082898383077656
-2.149507552133868
2.454240565894629
-0.03550466216085291
-0.2418386047879087
0.3907691967609183
-0.1134259298265061
-0.06238590759708828
-0.05014361978614668
-0.005992223375853344
0.1185217507543135
-0.4980616295603087
0.4467644632267008
0.2996155896551956
-0.2483184233351278
-0.05710978953569056
-0.4018468691095391
0.63611105880977
-0.1771544001845214
3.903556142894156
-2.53345996635258
2.378924596335963
-3.749020772876555
-0.1487266528310044
0.03710605497611607
0.02219400076999611
0.08942659707887304
-0.03977900959026977
-0.08426950443763587
0.02800170307733047
0.09604681094236979
-0.01943081081697746
0.1125728516557026
-0.1379296220352539
0.044787581187972
1.957658261201687
-0.9779449536296915
-0.2492390645708868
-0.7304742430062758
-0.6604414075910109
0.1835649642226531
0.3209702765154557
0.1559061668185479
8.854808575726853
21.09784775107246
-27.40550813933606
-2.547148187455062
-1.250007332860224
-0.08480464019563064
-1.372738215344701
0.4720868695240897
-0.1292752297899614
0.09572604275102888
-0.438537682489629
0.8265761706210683
-2.155636831853447
-0.9641514004733222
-0.217993110768469
1.529507578288812
-2.099480450322322
0.7879659827771386
-0.1572439241660727
0.2151741550823323
0.002661696547844773
-0.0605919274724466
-0.2307702709261289
0.1223851246180096
0.1672579354023919
-0.0588727891036263
-0.9005674657668065
-0.5245148139433577
3.158488543930999
-0.04816398706332231
0.3263460080786268
-0.3169742851219479
0.03879226408997061
-0.005018133669180343
-0.1190784321693934
-0.02919101099936669
0.1532875768281935
-0.01048011991050884
0.06770966186843552
-0.08535581727811994
0.02812627531243701
0.007327057779961441
-0.1342801333427308
0.1204912927374299
0.006461782814910879
-0.0728023643025161
0.07223559992547636
-0.03462451032701633
0.035191274699096
-0.2403340815322546
-0.2276493436815742
0.4576457430160014
0.01033768217757814
-0.1632574864534155
0.07460055476798871
0.0777712520868707
0.010885679591977
-0.1039224431859859
-0.008477737801803045
0.09778687366011878
0.01461330731888452
-1.93200283003363
-1.154637168903798
0.05501254126560119
3.031627457741228
-19.91939911242894
19.77155754195703
0.1478415704805726
-0.1856307980840827
0.04471239247651872
0.1024639451425745
0.03845446045577256
17.84106482396379
-14.76270682432267
-15.2080189629943
12.12966096342197
0.09762804082023332
0.02511236993498042
-0.0928717303359077
-0.02986868042878301
-0.1511512231657535
-0.4906157080409308
0.4359576390402329
0.2058092921501946
0.1272299493209273
-0.5825036764011524
0.4835410441754854
-0.02826731713189901
0.1493492639541082
-0.0811996921698695
-0.09714411492813775
0.02899454313035958
0.1961138974142882
-0.2186279138266126
-0.1557067908172584
0.1782208072144345
-0.03704783228155573
0.1896400463695477
0.1969764639076878
-0.3495686780049803
0.8388319967918522
0.6175657924240088
-2.185220137518725
0.7288223482888031
-0.01743999509575372
0.1258646641312344
-0.05160456951029663
-0.05682009953495138
0.06794271848003523
0.01398188922882866
-0.05318265626228898
-0.02874195145572309
0.8068883136936202
0.8415454819634149
-0.05850637845917689
0.01711234873267685
0.04139402972307477
2.857416007095949
-1.720544116999277
1.026111517009548
-2.16298340712626
0.2437872825049585
-0.1061127659940309
-0.117323576350131
-0.02035094017408376
0.122291955848656
-0.0311742517202841
-0.05811786728919408
-0.03299983684333794
-0.07922864522386397
0.4489219715770573
0.4001757929158141
-0.7698691192952579
0.2532150314753054
-0.185699199547246
0.157783152929765
-0.2252989848618671
0.1195437505996551
-0.1691891580143479
-0.247753980864905
0.2973993882638307
0.06500492428900941
-0.1482161835646471
-0.0272215241379738
0.1104327834061353
-0.1083396373807637
-0.01897147112032106
0.01344931309913159
-0.08012666673954753
-0.1138754731079604
0.08834348835164778
0.1056586514873463
0.1906878924889899
-0.1104091962217466
0.0206527850095784
-0.1009314812793547
1.017119285490902
-0.6807112449514239
-0.3823549833255505
0.04594694275524631
0.06549695174592121
-0.2808494007470679
0.2998462461557159
-0.08449379717174084
0.2546891912596957
-0.03934775664378902
0.01960879361921679
-0.2349502282470113
-0.06313353005178071
-0.2395643705798908
-0.1874018231304573
0.4900997237589674
-0.02895384001117021
-0.1948432403981027
0.4088285242882838
-0.1850314438857532
-0.1148778301747283
-0.2907461629883465
0.09914156494479544
0.3064824282096232
0.03064347150487766
0.1411714057774953
-0.1954407031349095
0.02362582584229156
-0.1056570193794315
-0.08664683070212593
-0.248056256806448
0.4403601068803163
-0.203058386014712
-0.282015872324635
0.342757619325019
0.1423166390083848
4.79309987513992
-1.508311625033689
0.05305550083508604
-0.05340106880074248
0.0003455679599035772
0.9801001145982127
-2.208478029796509
-1.436533422998143
0.04420227709200383
-0.03219305970971564
-0.01200921738536764
-0.1971927869278775
0.04875487435342167
0.02413493244631212
0.1243029801197782
0.001618944860231894
-0.06550605430190426
0.1601497013288959
-0.09626259189732136
-2.326053530421063
-0.8093003135512056
2.598129873178748
0.5372239708329946
-0.04025245159220543
-0.092138698024297
0.1346096737318075
-0.00221852412337021
-0.4321951067506244
-1.17569804444573
-0.8656954239037071
2.473588575113271
21.12263703767463
-0.04125279422727143
-0.3387189298163753
2.92226850319345
-3.776029920450053
0.06524139287674115
-0.1096705004454163
-0.03290686894332697
0.07733597650739331
-3.048410998694437
4.848334789431539
-0.1429180208798938
-1.657005769906859
0.1293543409685244
-0.06007631068747726
-0.3402470535582299
-0.3091614708603401
0.4583844102896217
0.1910241141185741
0.1865012229404764
-0.0986893501869085
-0.0235273186061645
-0.06428455415502164
-0.06905911227317382
0.2533325846288133
-0.2359145021551365
0.05164102978554162
0.1816500332633403
-0.2887635937420388
0.3030858931708832
-0.195972332706114
0.04333124059516653
-0.01959983189641279
-0.05525371433626123
0.03152230563279015
20.19340221111502
-18.63403351402327
-0.404843998934154
26.7621016681043
-26.82516845880662
-3.344363874243747
0.2496962297270257
3.851086704016162
-0.7564190594635122
-2.042603250821218
0.3412060566731467
0.9183661467919509
0.7830310473617225
-8.027876656897073
-5.043064417736359
7.000294485962424
6.070646588553127
-13.74343985799313
-20.83832046838777
34.58518374991884
0.7621517681529181
1.584520784597495
1.383500111261671
19.24257388737001
-10.93819636854039
-8.304377518834594
1.195521005651576
-2.359567124316112
-0.0588591281961027
-1.729911314487105
1.128740188765712
2.318180249490012
-30.27316410695251
-0.9372589967055996
1.239117135379533
29.97130596833446
0.1120654631451765
0.004010848119649218
-0.137107913904115
0.02103160263046411
-0.20391173681349
0.03117258572864176
0.1727391510762927
-0.1190793416472899
0.05056302604908589
0.1314508180495939
-0.06293450246075334
0.5374044512822832
1.426527616612721
0.534880925488856
-2.498812993324734
-0.609259514022026
0.2039777230184978
-1.773849067829939
3.104899481067953
2.038328657639611
0.8218928929097048
-3.668022211414776
0.8078006608411507
-1.900659511777118
1.904007626833834
-3.149017017181023
3.145668902202165
-0.3792319246464397
0.1932685690139961
-2.006502790228904
1.705341875817713
-9.580763480942615
-9.155316123214929
-0.05605656685667795
-0.1517482627017337
0.1160208210862599
0.09178400846375388
0.1168243475316356
-0.3410040796573639
-0.3536665437773763
0.5778462758827438
-0.5161648769484266
0.3569618151481767
0.1181673354981276
0.04103572627430913
0.4580869793900764
0.2119659065797203
-0.8245225893326628
0.1544697033443554
-0.3563903939494621
0.4841553086981915
2.210887769053064
-0.1364355356517856
0.05205120773179685
0.00420071693326736
0.0801836109835232
0.01113326063006277
0.02417946920544672
-0.1317887409893535
0.09647601114882499
3.124189912710051
-1.080858180300026
-2.564098682762395
-1.164542481225015
0.6078337442735203
4.744733446190293
5.572544346866164
-10.92511153730716
0.198625757072774
-0.8923071664143408
0.5631700117145566
0.329137154694676
0.07216884331453337
-0.2748349939930875
-0.2136382017605835
0.4163043524243665
-0.6420609496567139
0.2489991342083645
0.5493025506727767
-0.1562407352387505
1.799287257271262
-26.13076594778417
1.882170016929417
2.879671856321726
21.36892407454988
-13.87846702304813
7.863568963920329
6.622731803452608
0.2011710451690068
-0.06656522878524221
-0.1358771455811971
0.00127132919310945
4.795257030839134
6.605294412254808
-28.86833041286231
17.46777896984719
1.656624332800723
-0.7749775063015188
0.2816715873438563
2.676237968347052
-1.762388550008043
4.069317653230431
-1.724710313503374
-2.968219817363888
27.60652884616657
-13.62780410207243
-13.97872474404966
-0.09550537809009363
-0.001794096406252272
0.1074421362323455
-0.0101426617433293
2.376112469343089
-3.678982799624671
2.170299513943439
-2.080188815629291
2.832157804920282
2.410049486842009
2.264802130276106
-2.298739147740127
-18.72858425380283
8.408769028545477
-8.67274858816671
4.429567562507412
-1.596490120869097
4.435101644236753
12.54680648097898
-7.734102543600168
-4.265383273937483
-0.5473206634799563
-0.01017781888802683
0.07901450535674373
0.01173189853693442
-0.08056858501461599
-1.281576891372821
-0.7408386604186978
-0.456972102198709
2.479387653956981
0.4073246441633595
-0.2363792066294066
0.1321777998029945
-0.3031232373499391
0.04752055420230695
-0.06568999818260644
-0.2126008269536342
-8.11450915857063
9.068808978528173
5.278909035398832
-6.233208855341802
2.696241204498639
-2.06150190653046
0.7156255763000523
-1.350364874312951
-0.05887045123542024
-9.054044509401409
-1.730718505728164
10.84363346623031
0.2605508851277707
-0.171173898458002
-0.08937698667414196
0.1247446721042073
-0.2303208910143945
0.1055762189035162
-0.05557277996854022
0.3261908768076345
-0.05922681101427578
-0.2113912858338347
3.705411005445821
-21.79630752018017
-4.101104789175475
22.19200130395016
-0.1506117600442184
0.153027965703792
0.1693340158714574
-0.1717502215477572
2.624914664030485
-1.264376629521875
-1.792733141245585
0.247934787459067
-0.1231901153600726
-0.1456278699866801
-0.055402634837442
0.2329708833435344
-0.0319403785336824
3.018369204412773
-3.569985659422786
-0.005561534614154135
0.5571779895771279
0.3638706697505968
-0.02500829019709908
-0.01851920290744722
-0.32034317667978
-0.01471813314422945
0.01606780075139536
0.09258822703350267
-0.09393789464905973
-0.4361975265033075
-0.1124743663174254
0.2703221730088706
0.2783497197925146
-2.308752299672668
-2.119627017413508
-1.439940528048737
5.868319845150427
-0.09593938004700722
-0.1663383095739732
0.1093701249799295
0.1529075646353412
0.0966467253356554
-0.2259015603704103
0.129254835027578
0.06773185287333865
-0.02121664490937658
-0.09032037707639831
0.04380516910257464
-8.046297907848915
-0.1318123747528601
0.003775995984308151
-0.0186213326433105
0.1466577113998981
0.01983189230984082
0.04752595028415091
-0.06735784260341614
0.02738503354014688
0.05870266159387159
-0.1085419488134289
0.02245425367179151
5.86735632498345
-4.047856465041779
-5.294275276336376
3.474775416333849
1.985902381131787
6.07015049926737
-2.402600343516121
-5.653452536898045
10.43003080363166
-6.648222609973162
-20.87248779080966
17.09067959719583
-0.08404298793791608
0.05969449849833949
-0.09476507870225573
0.1191135681298402
-27.55758106206235
15.29439456024223
-4.307351877450413
0.7114902505305283
-0.3545753469861955
0.6992949346931289
-1.056209838226726
0.7259021709932366
0.1475153455923001
-0.7164201682256536
-0.1569973483722322
7.397331446353667
-0.9007038335735918
2.083136677564099
-8.579764290370836
0.09999111751383814
-0.1243813820823615
-0.340293843579672
0.3646841081362185
17.03745270745362
-13.09343939030343
15.29856057021722
-0.643330689516819
0.1837364094903149
-0.06000362072619897
0.09612477768530615
-0.03612115696432264
0.06320502537611836
0.1291212051412551
-0.174010711330793
-0.0183155191930671
0.1101970371855828
0.03055150730511696
0.02032054493474297
-0.1610690894389155
-27.13424669545289
14.96409993949709
1.196208711255637
10.97393804478181
0.3269397137765555
0.4532421868166102
-0.3809781500680132
-0.3992037505378009
-12.69970313790134
16.41292678902279
0.09473619756030792
-0.3851141610128856
-0.1311514637137336
0.4215294271504206
-31.37813694550708
9.237891275496185
6.813834081510573
15.32641158853223
-0.1604950024670561
0.03507887312548212
0.05768335232063514
0.06773277701227927
14.39271903400292
0.0260214563644955
-0.06841983197174836
-0.009222509902743285
0.05162088550273159
0.4443311165754976
0.06649966681114608
-0.5481177518259894
0.03728696843793406
1.426562070194697
0.1567638596550393
-1.01407261119439
-0.5692533186847796
0.00417197588543238
0.4103467395235791
-0.1252238666012787
0.06038748236288226
0.2111952089345736
-0.1463588247061265
-0.0858534115208693
-0.1292964184421621
0.01587061975512261
0.1992792102008501
-0.2241403571782807
0.02495290763386476
-0.004232284336795366
0.2034197338704419
0.175907636406347
-0.04689738256862865
-0.1290102538463109
0.0225695806398651
0.05410301196873341
-0.0766725926133225
9.793220481014398
-14.25578285366638
4.462562372635048
-0.05758862031350149
0.07919769749953649
0.1776142061490519
0.213390765997004
-0.1387836686000651
-0.002086823699311523
-0.07252027371417664
-0.1037868498986736
-0.3030487798959094
0.8341547182052829
-0.4273190884203856
-0.1353572962418398
-0.3968723638496534
0.182160647230959
0.3500690128450622
0.2050964786023133
-0.3891961401455779
-0.3678938707338835
0.5519935322705314
13.56339344260878
-26.15699951482381
-14.5406406231725
0.9182668430843275
0.4196128453684272
1.762864639745804
-3.100744328208444
26.87007678372023
-23.84299411010579
6.905657139127548
-9.932739812716067
-13.1935636374749
-16.11316430698823
10.14828234017559
19.15844560433709
0.1625173021915119
-0.04312051503112408
-0.119396787169463
-0.02683510276275965
-0.001886150505472109
-0.1479754747489881
0.1766967280064837
-1.305909284591306
-4.787619789495518
-1.016141735481899
7.109670809564769
0.401200152093892
0.09131591616571652
-0.5727886310669134
0.08027256280291307
-0.0496622013657312
0.1502845127277566
-0.02135119028936656
-0.07927112108226658
0.04523389491055272
-0.01768669264121534
-0.07445437302143609
-0.04432618324881853
0.08225894464630919
0.1140228495772994
-0.1519556109867564
-0.0563952444399806
0.1144680554030854
-0.05807281096873886
-0.04537285288931248
0.04732706845908542
-0.1321204449222908
-0.06935332665767266
0.2012682387999813
0.0002055327662638689
-0.07920102449346458
-0.04506645039690912
0.1242674748808033
-0.4370311593934165
-0.06102869276912613
0.4159046020232363
0.08215525012970235
0.1973949885009626
0.1793079023505086
-0.3253434068826471
-0.1469508641499204
0.09645033200736189
0.07621081937545929
-0.02571028724394631
-26.38734649783438
25.35465256797556
-3.686714279962123
4.719408209884655
-0.528061759866043
0.1119855055738095
0.34557285316601
0.07050340111388985
-0.4770480835556905
0.1894527453067583
0.6170713504706442
-0.3294760122346862
-0.1677026795550434
-0.0180860610929366
0.1077009958906511
0.07808774474637185
-0.0641833008150378
0.279224097993985
-0.2470005396674551
0.03195974247372634
0.07080157400281056
-0.2189923944753
0.05671931465594
0.09147150580401987
11.35506212644896
3.077119145275499
-1.129766760963414
-13.30241451073863
0.1237456330656674
0.02600730469083505
-0.106100052611067
-0.04365288515694808
-0.09213206599542612
0.2380230501465801
-0.04778205179826969
-0.0981089323654621
0.1416868308912505
-0.1822182246706867
-0.189789497243488
-0.0471575998089137
0.04294050159034783
-0.04566251655712231
0.04987961476400874
-0.07040217755924012
0.4357728628129953
-0.3108614349354881
-0.05450925032800666
-0.04113868589853502
-0.2311362348642231
0.2166170667569925
0.05565785399132148
0.1691700956854983
-0.06189006898749545
-2.355005161006348
2.247725134262573
0.1345234145997573
-0.02408544793295388
0.04786522617337413
-0.1583031928493701
-1.387543168929741
2.054965605007409
-0.2167559440566105
-0.4506664920206361
-26.62505295391268
1.502291011883463
26.82644588388392
-1.70368394182623
0.07682575911912388
-0.3176970264513206
0.3309600697225646
-0.09008880241598437
0.1235518744430136
0.02211670812821243
0.08739291190213745
-0.2330614944824135
-0.0921088195950148
-0.02173144488393147
0.08794029556439185
0.02589996890760745
-0.524545789432929
-0.6010306847429649
0.5846980321517162
0.5408784420193635
0.05614553887795168
-0.2595441140493471
0.2041133239270805
-0.0007147487699286238
-0.1953193807964236
0.02894515069972723
0.2245269913355069
-0.05815276124748286
0.02990728754459201
-0.1196499699114255
-0.01967920318126425
0.1094218855400154
-0.3810743851697258
0.3709588380068199
-0.6660473768160956
0.6761629239543957
0.2540167841323771
-0.005537103703381036
-0.6484554456736038
0.3999757652075288
-0.06994987735462595
0.1522778882807296
-0.05340820982031977
-0.02891980111302039
0.1438494122118092
0.2729066449591477
0.01405842269901626
-0.4308144798758816
39.2639061815421
-25.1814205291435
-18.14899728025323
4.066511627876044
0.3486174426640195
0.1049352317759967
-0.1666696741433045
-0.2868830003107843
0.009603260199278195
0.01432934497277637
0.2184935391568357
-0.2424261443393509
-0.6526329549191457
0.1274600974023786
-0.09764162582112923
0.6228144833226338
0.09219688880986335
0.04182169662476626
0.05165361335697116
-0.1856721988014218
-0.052827694624802
-0.05384045388498257
0.02226173521909144
0.08440641328516479
0.04745828788652878
-0.4070708791599848
1.714131733198606
-0.8449617662723681
1.275980128575859
-2.145150095531489
15.5145895593284
-10.95304547543973
-0.04146158635719732
-0.1263650129701098
0.1288716422001111
0.03895495711835909
0.004284748336208742
-0.1330267854806974
0.01832023194297546
0.1104218051941712
-0.155437317288337
0.145505005020714
0.04740163384734211
-0.037469321588189
-0.2545162719732319
0.1089737636718007
0.3441427253971748
-0.1986002171076974
-0.09986192569433515
0.04121217316776459
0.02842968013365506
0.03022007238952668
0.09262027575983915
0.03391852389756909
-0.002296383657601329
-0.1242424160088403
-0.07519828013390946
0.05628889952963076
0.09726136041309728
-0.07835197981783973
0.5752579345485906
0.6839568055954747
-15.27734451836671
14.01812977831256
0.1629683831703892
-0.1727561963374705
0.0101090246684332
-0.0003212115107143375
-0.1761172813396259
0.05286064055268901
0.03999243036817229
0.08326421040948058
-0.189306234325974
0.3419785963129598
0.1315669326352985
-0.2842392946379646
-0.05248582283507054
0.0564059112191714
-0.003920088390750361
27.67750330184816
-28.50767023957558
-8.462121357056796
9.292288294761693
21.48528423118019
-2.711667712715038
-21.89868842864374
3.125071910177668
1.96019631644469
-2.180864192284398
0.3037311522485918
-0.08306327643931352
1.80528477896605
13.07095918276354
-8.372820624381113
-6.503423337351775
0.1831710946075787
-0.04760102041132969
-0.1355700742035268
-0.002718636539034393
0.008559831022877882
0.08852911250748112
-0.09437030699502519
0.2780805925894111
-0.1180426976317375
0.436673234048413
-0.5967111290159864
1.824915917691217
-0.1434272719113746
0.2898568861505839
1.195816786869126
-0.4513154660358543
-2.03117918691943
1.28667786606991
-7.317523080588489
-0.2531855821685922
-2.468140124606462
10.03884878746103
7.66521519759422
0.8968027116376791
-8.232005790424935
-0.3300121188407262
-0.3384882695378862
0.1467647701796369
0.1546756670694192
-28.75543880285109
22.2532553584308
4.496209863957412
-0.1119347279634006
-0.1589724256481593
0.2419533135961615
-0.003337230255722388
-0.03015466984354277
0.03349190009622192
0.09603216074127552
-0.04942226820884793
-0.1485866563448974
0.1019767638061899
2.714555730973951
-1.774166074779949
-20.14300875430573
19.2026190981738
0.5939146038289483
0.1215890896946881
-0.8694703491443742
0.1539666556148153
0.08688461689035841
-0.05841025088779398
0.1611656803614962
0.3499586474062958
-0.04711348043225582
-0.4979537060595117
0.1951085390797462
0.1444897530986008
0.05708398753205366
-0.09832473592858415
-0.1032490047082965
-0.0914936564560635
-0.414319190601816
0.1990878656911901
0.3067249813612155
0.2713829337801064
0.02138777781178929
-0.264515901086272
-0.02825481051984024
0.03490484023000296
-0.1941686033101961
0.02964326590267224
0.1296204971602382
-0.03441072620705246
0.4663362748688136
0.2614740602354164
-0.6933996089088038
0.1987241578646715
-0.2519291310767491
-0.2712291901832335
0.3244341633778986
-0.06324489889082453
-0.2882498228050668
0.3027770844673036
0.04871763720067179
-0.04134063758087659
-0.1481666917658314
0.1895073293391634
-16.87608384917636
15.55449258313769
-2.633098925614725
3.954690191599002
0.08089824342354422
-0.1222388810078853
0.1193009630698457
0.09554546388203959
-0.07735613945606874
-0.137490287505429
-6.857053511277747
20.01990561560015
8.275143450287425
0.7148562349925643
0.02061221088402913
-0.4573878532920252
-0.7996974377838962
-0.3169267456983501
0.6566788166080061
0.4599453668493082
-0.03392991490440733
0.1214471539481352
-0.08207705433284451
-0.005440184717633119
-1.057074720301344
-0.4019748820987513
1.351814803777486
0.1072347985821199
0.00380756781739518
-0.009126466040025595
0.04865013881370271
0.1233648909178457
0.05295328772730905
-0.2098812327257429
0.03356305407308831
0.06933247658524806
0.1349306577528336
39.23696844447965
12.12963540794615
-37.22813138776002
-14.13847246461275
0.04579467347822969
-0.08689039411856787
-0.00281323066207988
0.2836540004844688
-0.4838991558427749
-0.3490568866845157
0.04844255384625303
0.3550023129137961
-0.05438798009241243
-0.2703784416367779
-0.2692448892863567
-0.1729818150705808
0.7126051459737792
-0.1392018031496206
0.18256229003845
-0.08810457721939643
0.04474409032200832
-0.6931280702301874
0.5867870653636819
-0.01936788164564757
0.1257088865053045
0.08823931752228166
-0.001865560279566953
-0.01972183954407906
-0.06665191770842767
-0.6516809131633355
-0.1014700584661848
-0.1531750213870708
0.9063259930147843
0.1334034872293964
-0.002490716332368692
-0.04066872490536977
-0.09024404599948026
-0.3619374024556873
-0.1114935365969106
-0.04273393791174323
0.2640703226067614
-0.1689636536463077
-0.09510666896735862
-0.03655275162050658
0.0218729081042949
-0.1182574050926936
0.1329372485988322
0.03604350531493523
-0.1187134879749873
0.1072010372510152
-0.02453105459818198
0.534845292576411
-0.7355001558658115
-0.1213488908954515
0.3220037541722588
-0.09967483080910547
0.1249636840380983
-0.08458843937069531
0.05929958613091883
0.1352857387388098
0.06821661352838056
0.003082677504311666
-0.2065850297805459
0.5856609807930053
-0.3669998507795011
0.03006180975839626
-0.1517488562282784
0.1105237369172371
0.01116330954267712
0.0429657709061966
-1.478795096510381e-05
0.3366065099308174
-0.3795574928989171
-0.1115044780261152
0.01130174175084572
0.008093916675640463
-13.68941971958593
-2.147113595350549
-3.513995735648917
19.35052905060195
0.4625494372102735
0.07833728169697576
0.0003355372716225507
-0.541222256182378
-0.06771054294792113
-0.1806999549327483
0.1831246252706949
0.0652858725965533
-13.29905208221606
5.297643640677587
12.95980309562261
3.296780327926299
-29.55563550575989
-0.131327380859363
-0.03854286025774913
0.02424237112227854
-0.04909926030004217
-0.09586072676981273
0.1854900964507531
-0.0405301093936623
-0.3584537443489009
2.278737008184632
-4.305969423321699
2.38568615951149
-5.645066516338991
15.83231870124204
-8.381967405925069
6.831925295167781
-9.163359866052808
15.08232074536575
-12.75088617446678
3.229001585822538
0.0435894331142873
-0.6727173177781687
0.7663278479181764
-0.1371999632675181
0.09425478251427744
11.02016456709547
-4.662148013223898
-6.452271336374437
-0.1193841877075144
0.007236127389246566
-0.09191920562135086
0.2040672659234558
-0.6234290001353966
4.042222333554522
-5.143503646925716
-7.72065207573035
3.316914591179772
-1.176905661036872
5.58064314558358
-6.655793535206956
3.902892620581342
-6.820489958812758
9.57339087339575
0.001760961554811694
-0.1651645547127779
0.03308750181424057
0.1303160913353002
-0.02987961640726534
-0.3450514891506888
0.3661428494910033
0.008788256052638835
16.85050881196765
16.42031548076617
-12.49251210721274
-20.77831218549536
6.475685025112932
10.37482378687298
25.86772940938832
-6.63879147616796
-2.808622452432807
-0.04394917490234344
0.1813435354491142
-0.06012071520621648
-0.0772736453493678
0.1463908589424106
-0.09631456431932374
-0.09402546953339563
29.76590657654606
-40.44720014507773
2.960771372735009
7.720522195808138
-0.07676732639344286
0.07004948549326874
0.009332386396534942
-0.002614545507294991
-0.03979260492076024
0.09922788782010195
-0.05943528290444735
0.1388730943488476
-0.1740677397760504
0.3259521468141351
-0.2907575014056313
25.78920017218948
25.91557702240248
-0.1115587109076288
0.01075229344301881
0.1282832173496243
-0.02747679989351001
-14.23560906735147
14.25034367533058
0.1227392023763635
0.02279792904564754
0.02526839026407915
-0.1708055216978459
-0.03994662023784953
0.01610224013938601
0.02384438009417044
0.1677198303201381
-0.0153640222418699
-0.1791921987118965
0.0268363906287639
-4.692305587823072
4.704689613100735
4.785594660432975
-4.797978685691957
-0.02530441579233072
-0.06694066570924387
0.02149176113164907
0.07075332036126979
-0.05740022699833058
-0.04285584532378289
-0.05085742832069064
0.02555301252561098
0.03298786121353761
0.07078927548393781
-0.004337455832911538
-0.09943968087112166
0.08028137312562572
0.120202788997666
-0.01652010635717373
-0.03433732196684084
0.07266773159408581
-0.1155827371854496
-0.09860020686259602
0.141515212445028
0.06275767233595099
-0.01923168112867294
-0.04352599121212516
0.0213239133820367
-0.08383371182752811
-0.1107045645867155
0.1732143630189364
-0.3035366198947895
0.1277178524050821
0.3163539118985813
-0.1405351444456206
-0.7416152734619691
0.08618607609274606
0.4876163560936548
0.1678128412637772
-0.1035973113909288
-0.2021408693881022
0.4234272599679968
-0.1176890792073786
0.3075142918042471
-0.02621108134238858
-0.5086609519178248
0.2273577414534907
0.09302134672532565
0.02433943253840013
-0.02664741470683564
-0.1395163219899822
0.3281324033406856
0.09801748829385494
-0.2866335696716565
0.08189345620604292
0.05701734620166822
-0.1389108024120877
0.1033815902287771
-0.1227967745627654
0.07943916130792178
-0.06002397698041338
0.78718695158409
0.01376337268481634
-0.4628898314722693
-1.267438184785305
-1.291008897477346
0.9288793151739676
1.629567767085084
-0.1080728500447565
0.02528832158912312
0.1128463382090863
0.070802746890148
-0.03492379874166068
-0.1373505939801886
0.1008300784981575
-0.0161198033866765
0.05264031885290415
-1.166595112666187
0.7425855811202124
0.1924151752598523
0.2315943562602302
-0.3513709575616182
0.3633606562288554