/*--------------------------------*- C++ -*----------------------------------*\
| =========                 |                                                 |
| \\      /  F ield         | OpenFOAM: The Open Source CFD Toolbox           |
|  \\    /   O peration     | Version:  v1906                                 |
|   \\  /    A nd           | Web:      www.OpenFOAM.com                      |
|    \\/     M anipulation  |                                                 |
\*---------------------------------------------------------------------------*/
FoamFile
{
    version     2.0;
    format      ascii;
    class       volVectorField;
    location    "0.6";
    object      vorticity;
}
// * * * * * * * * * * * * * * * * * * * * * * * * * * * * * * * * * * * * * //

dimensions      [0 0 -1 0 0 0 0];


internalField   nonuniform List<vector> 
19631
(
(0.002831824050071842 -0.001284136164482193 -0.002185020891525103)
(-0.01033124882162258 0.01569488285514595 -0.005500992867884459)
(-0.3800611031204408 -0.6687943552216385 -1.165027474137263)
(0.0933670108286957 -8.025260508134823 1.238916186730192)
(-0.003634283303822314 0.002832016704556526 0.0006136497992094164)
(0.05376019261320089 0.02512523399818728 0.008000792898497472)
(-0.00514047653675271 0.002708153870686351 0.002348325011694164)
(-0.0724857475938637 -0.103126912290023 -5.694167364436212)
(-0.003553429540528062 0.0008452596904340408 -0.003261535108757399)
(0.00381793791799136 -0.005814759967708222 0.001295411661941727)
(-0.006247291354589362 -0.0006794932990051242 0.0188411558612363)
(0.01190451363883807 0.02556875954819847 0.01600521953904095)
(5.657936476921234 17.51828665335904 4.293888644680456)
(0.02993657223246288 -0.01105656282161412 -0.01198372280629851)
(0.005484646716304227 -0.0002198489525908108 -0.004597134325328545)
(-0.00166538282443122 -0.003013483136914985 -0.009352605173400391)
(-1.481318478073318 -3.168403038973835 -2.519985940223701)
(0.0004716848387262764 -0.002085547972421148 -0.000485362207927228)
(0.004666015863098285 -0.001078921565362221 -0.001893973068601603)
(0.001201045020639747 -0.08974799451297126 -0.03488523680620614)
(0.0004521003961328651 0.0001683208268512521 0.0002232759717840814)
(0.006320549542535022 0.06479583353743144 -0.02951381183182485)
(-0.001420658584897487 -0.0004428383570280405 0.005007386472929203)
(-0.28151937772674 -2.818211390966296 1.099060289318996)
(-0.03012814049590479 0.0009650579837992314 -0.004220722374351427)
(-0.004533185902626014 -0.006177687580607123 -0.001562293207563134)
(-0.01267412775975469 -0.007156253792847509 -0.01248435892871785)
(-0.0005255847973812781 0.0432508116800151 -5.837583543596369)
(-17.14789144196294 6.318554108795388 -5.394017371411746)
(0.05223103971350977 -0.01620397838251892 0.03528663635165104)
(0.0001259426125875963 5.366749315796507e-05 -0.001840706966077187)
(-1.060511145610173 1.429661142781555 -1.253801031190869)
(0.01981388982346262 0.001815271542360323 -0.02082478008760051)
(-0.0144083425483219 0.003672810452416693 -0.003100394871683239)
(0.2214414775809734 -1.521487611197178 0.3089057817388935)
(-0.01413417640884413 0.01006928342911079 -0.001774532232037382)
(0.06466509838400178 0.01230967265880492 0.04715032311622645)
(0.00241241771333837 0.0001020147723602381 8.289421810684337e-07)
(0.1211132197246512 0.09291726995848237 0.01596760244600869)
(0.06187616699215487 0.03950008471283627 0.00538664433672476)
(0.4917953680303417 1.018994166338769 -0.4841083997681462)
(0.5162305632911981 1.656136629494746 3.573738199413147)
(0.07491919006072278 0.01558695623424763 -0.000307006818086368)
(-0.6792042776218318 1.546119230441295 -3.036415876175941)
(0.03499505194105108 0.04362184745178931 -0.3477772813347877)
(-0.7042840685288759 0.1992385708355627 0.9482966211941326)
(1.758800292909491 -3.784825929256805 0.5102423425521493)
(-4.991644398741091 -0.2104949363797466 0.9703272908271976)
(0.01977792999155584 -0.01127640798132423 0.006763891599924693)
(0.1049617526327272 0.05359119896020906 -0.1250022655125626)
(-0.003732353736275952 0.001404791899675792 -0.006182480974054181)
(-0.001245249573785063 -0.0004070665123029268 -0.00353088592595495)
(0.7810912793056886 0.3554781453620525 0.2199604208122167)
(-0.02252529565398896 -0.01235439526613298 0.022964430644382)
(-0.004751098864824095 -0.01052504268586927 -0.008460843988675517)
(-0.009496508330262977 -0.004877759947156366 0.02845623171747429)
(0.3144767215908848 0.4268148880976894 0.2735177435293327)
(-0.01216871326145986 0.005364806161618407 0.001657538521502517)
(0.01049761895449133 0.02346064183190952 0.04341889123134805)
(-1.336629235146259 -1.986708030738775 1.20870653195569)
(-11.85643319625495 2.25144020631004 5.674236128515531)
(-0.4839655576434501 -0.1469063483676089 0.1607064399975568)
(0.9008874575695085 -2.475925789941648 0.6550513991530145)
(0.3364486894002281 -0.2988990239823027 0.008184076292786648)
(1.93151547728456 7.674032182951336 -3.736110144329211)
(-1.526564185726111 1.026444324414562 0.2801041450776374)
(0.01181702355675705 -0.0006681291981021622 0.01142802311365885)
(0.0005832673547792348 0.00801569948853053 -4.745004256740365)
(1.191626047519709 -2.24213657611842 -2.311012034360252)
(0.0459406454506055 0.0102153850490774 0.04246119637618081)
(1.125434660361387 2.936474395719112 -1.226841658164176)
(0.04571931300938793 0.04614734710165604 -0.003411154282437037)
(0.006022952541138157 -0.05038228350016801 -0.06808539157090812)
(-0.5863538023633235 0.638457151545748 2.249635088528166)
(-0.1402465806927958 -0.3621887831886513 -0.1794229633382339)
(1.683475383434654 1.954663002941642 -2.577486653105157)
(0.006232010378189611 0.004677082571071677 -0.006848208742227971)
(0.5240981850206502 -1.167839599026753 1.179025253710939)
(9.213052729459388 -16.06237404751062 -3.589148591675189)
(0.006980097271291777 -0.008777001469906464 0.002751379090745455)
(-2.837979412444495 -43.31482983506137 -5.917205913841158)
(0.09327685359331639 -0.06742137327719488 -0.6143186853191498)
(0.1244436234452542 7.895677239340243 -1.547581950906326)
(5.923544741741631 1.044422994269829 1.850780877700701)
(0.07618100176301945 -0.001810812530047341 0.03996845540593782)
(-0.005365168227496803 0.001269250217409102 0.02677671081370873)
(-0.1721305959574768 -0.4286800926903188 -0.141216636754702)
(-1.804681156504707 -1.964002700546339 3.125282039938921)
(2.64570907652517 -3.926920956541249 -2.0767331670482)
(-0.653251465836354 -0.4684201077997868 -0.9909113891656026)
(0.2024241495514861 -0.0625866860985245 -0.1305122646432685)
(-0.02928027327298949 0.6679603167509612 0.2055147371729809)
(-0.009998857869495337 0.1132819332682404 -0.08689781325782037)
(0.1482679737366751 -0.1582411431694829 -0.008495799967745885)
(0.05610452967522768 0.05411187533702737 0.1239262257686705)
(-0.4847717621758488 0.201237187170821 0.08810416446911465)
(-0.6761567265448741 0.09373222059363256 -1.034303701509489)
(-0.0813842045202619 -0.2444531398233748 0.02116598062493996)
(0.08339470198662906 0.09502724305696983 -0.1014279568178625)
(-0.1008878596717873 0.01823581923500897 -0.01367860719350862)
(0.007190334629732479 -0.01290832823506646 -0.00113714081857271)
(-1.232096599844798 65.59767824880343 12.61384202117946)
(-0.003076258268601218 -0.00404555026510997 0.0122001664002295)
(4.065533977023596 57.67078981359952 -9.471185963968672)
(-0.2032888274228903 -0.2696626949425167 0.4906079867239742)
(-0.343302327873398 0.2925196914112502 0.009496548305300723)
(0.006613055788576923 0.002124052389725736 -0.003970435199067469)
(-4.496272603281758 -4.697474922681907 2.867848869382583)
(-0.01935369571932884 -0.001307610640685949 -8.78479547637076e-05)
(0.006061615674577204 -0.01248611191320358 -4.577377731772493)
(-0.07494515291594864 -0.100110745864917 0.09153154821665771)
(-2.556611280087041 12.37012938977464 0.6218659247078198)
(0.007361323806474088 0.0009653460691979427 0.005918133493828023)
(-0.1742901970241758 39.52316504212614 3.093179500078708)
(0.4819587952917195 1.851454822967476 -1.285758615760964)
(-0.88202796194397 -0.008906161848292821 -0.09194526451889175)
(-0.1934389733639911 1.3591635006045 -1.07253865009042)
(0.06696624080724345 -0.0455318177030512 -0.03285653503699415)
(4.797946574160471 -5.182798198731458 -21.57437514165321)
(0.0001579011856690615 -0.000409416875202951 0.0004280045280850699)
(0.04407912715111306 0.05768785782124042 -0.02334572783786099)
(0.0278287801819713 0.01072701315336651 0.01155768144579132)
(0.02150219743396805 0.003441125415656909 0.02076082275413364)
(-0.03692703879540338 0.0773303836285022 -0.08256076117391545)
(-0.002194806860664204 -0.01831377888850746 -0.05551881321752603)
(0.03044133654600656 0.008773460086364728 0.01875987044764081)
(0.02104472570937432 0.003258163053846933 -5.609247163979529)
(-0.008681477567603041 0.002618026180966958 -0.000380183441043166)
(0.002723858982725282 0.0007809110614859162 0.003676339912643654)
(0.009941110108548146 -0.005721835791252534 -0.003813966070450155)
(0.02260671023199374 0.03398166499442367 -0.003845309696843349)
(0.04225274722504979 0.7780037586781112 0.2175821689881787)
(-5.658585147849519 -40.78287691785653 -0.1299687037916408)
(-0.3497500076720783 0.4252480927322035 -0.2437516392867671)
(-0.003445565038570128 -0.004785863544943183 -0.007469913731419268)
(-0.002137750648656316 -0.002205785800919072 -0.006261683625779677)
(-0.02666024625303032 0.01268789880864987 0.0649684596053792)
(-0.02614371328451025 0.01944026043532091 -0.0005634952972696939)
(-0.05659740205027241 -0.03861234008457884 -0.01781176917487244)
(0.01034406055643199 -0.00487328177800116 -0.01070915646323291)
(0.001249856933732731 -0.001006892687466135 -0.007772340147513971)
(-0.01528497536777356 0.01673955147987236 -5.979075615830156)
(-0.2607174793768271 -0.5309972277486611 -0.740452594394586)
(-0.156756721219789 -0.1477314423416043 0.1805994832604835)
(-0.2357814309627331 -0.02398361938538646 0.04531780207109337)
(-0.07449560317513473 -0.1001075553361632 0.00736894498965332)
(0.1488127449701287 -0.1450640958885202 0.1017495430536671)
(0.009737273851290916 0.004998286731611006 0.003842620467094789)
(-2.510723240583548 3.487947195589347 0.4117284174675055)
(0.1825610095522825 -4.030019219347052 1.225949560484379)
(0.004856829973214738 -0.00142232925579413 -0.001278370681529064)
(9.740392799555391e-05 0.00107036141994572 -0.005184092072078788)
(-0.01240741528316565 0.001986031444579674 0.00532631952668788)
(0.01519636420994678 -0.00496412417675961 0.01996362550785621)
(0.006196303450798676 -3.289853168387028e-05 -0.003855847554653833)
(-0.02175977217423823 -0.02230855483977548 0.01574800235448452)
(0.4865408642669511 0.0989215339564281 -29.34524594385674)
(0.0548844593126219 0.04618496239234471 0.05084341707389537)
(-0.005249730372789176 0.0867639292609472 0.02199999137430374)
(0.04977338044146976 -0.0009051908188137826 -0.00393179505608658)
(0.001329474830318544 -0.01213811836109011 -0.007884894281138401)
(0.01755012039856933 -0.03280744794228788 -0.03096592525792328)
(-0.5866943864302907 6.013948957902367 2.817708490793498)
(-0.01624450148140796 -0.02029188546197877 -0.009352626290653868)
(0.003095710384395582 -0.00185427272113705 -0.001951534826080182)
(0.004457849802042151 -0.0003800575520210916 -0.001019100881103118)
(0.003249337198418953 -0.002940204980173333 0.001156155086083883)
(0.0008480365859985587 -0.00165371144245204 -0.002647904442004391)
(-0.005544388436556929 -0.004331678962416152 -4.195806678067643)
(0.1574743804628932 -1.955915125006781 2.485366302727116)
(-0.01107359534524679 -0.01732669087277632 0.01302244707319985)
(-0.2622277867292397 0.2951917454039702 -0.4310514025399485)
(0.0970475498111756 -0.0673619045562284 -0.2283958698260655)
(-0.02898071805201272 0.1298960736238908 -0.08340243428308779)
(0.04869032249495271 -0.06548758764303375 0.06691100395851277)
(0.2046130782497629 0.09281096635468199 -13.23152420890144)
(-0.01373578771069982 0.01836654977174544 0.02838685933421273)
(-2.476425769858245 -1.998109803309699 -6.282583502244892)
(-0.001873081168736149 0.02226616827323318 0.002843676010717842)
(0.6193146837717816 1.60167965183053 -0.2983270808894225)
(1.039899594881227 0.8697897615216134 -0.2604139924196491)
(0.002154406404584888 -0.003540872166222275 0.0002675432326199456)
(-0.0003074705442116301 0.0001320619879655351 0.006249180164720995)
(0.01267612702472454 -0.01838744109707776 0.02005153692583316)
(0.2672033697128181 -37.59473467073321 -3.128885910389012)
(-1.690572936453328 -31.94648980418913 2.449796587586072)
(0.8232330881158741 0.993127468570729 -0.6392968515251204)
(0.005611231375608547 0.009113515084756916 -0.0008990403744755255)
(0.5221622534684811 0.5587532875259027 -0.5813186565128887)
(-0.007743755019009404 -0.001984420396207616 -0.01216914046433386)
(-1.858840116710804 -28.8168625051032 -4.105299151943056)
(0.0311853022456938 0.02192257847690186 0.3136671360533044)
(-0.1805939741083639 -0.01050231673545833 -0.1448928419171558)
(-0.1228163935882859 -0.06625533356531141 0.07873091800377602)
(-1.340394404295902 -9.785270968754999 -4.378916845130713)
(-0.003206794190087542 -0.1324508088389296 -0.3425605320719911)
(0.005442526719886955 -0.005510700543923693 -0.0018150218600578)
(-0.1428029817128112 -0.5470226279915893 0.0820037274470439)
(8.560644757611836 41.88708849264754 -0.06497614830098808)
(4.737175101602914 2.98993761843415 -1.160909831333013)
(0.01688977742169624 0.007114278541341425 0.02107648213287694)
(0.5689349744592229 0.3877145086457931 -0.4026367355841805)
(-2.140041633014924 47.26898645287624 1.962958846013255)
(-5.298542369120385 8.971931193443591 -2.104043079984369)
(-0.003504196105262062 0.003320189673199012 0.001647592255664565)
(0.007739002228569157 0.0006689465313566467 -0.005434142551618738)
(0.004636350469209345 -0.01870869209586334 0.00241388232628977)
(2.4298112720011 8.177017143329712 2.238620453305912)
(0.00357550841929608 0.008201945329057998 -0.00715874510689944)
(-0.02637532990808253 0.01365464387126785 -0.007869061863654252)
(-0.03021918193158823 -0.04857859763791252 -0.04120925831800776)
(-0.01692916040575375 -0.07376694555935745 -0.002468434260438046)
(-0.1105679501787114 0.1031546763310045 0.316475737070843)
(0.001905958606455571 0.008297564928620337 0.0008711208852015331)
(0.118313232764018 0.003786601415524962 -0.08960196807390874)
(3.339740291425581 -62.87092104209915 -4.686976875509233)
(0.1927951733628007 0.3680284993184838 0.5951272229274179)
(-1.234262784701814 -3.265425645504366 0.105747237300421)
(0.007688654926535152 -0.0001026912384705998 -0.001095731284702408)
(0.4065535833884056 -0.09346325936025462 -0.1336422983267229)
(-0.001368445652717095 0.0005918907714570437 0.001035990046483511)
(-0.3067712762439432 -1.125367327611583 0.00969138462546873)
(0.01207518936017246 -0.02196567338803478 0.02099536501337951)
(-0.6324669900877364 -0.5198164082662382 -0.9139505681050744)
(-0.07860692787837478 0.124025929832426 -5.667359070869496)
(-0.5020449835001695 3.066105765603068 1.824912999596955)
(0.02531067959086517 0.03239303645954776 0.006548701092647707)
(-0.001139419080269221 0.00519988351173706 -0.02407293323261631)
(0.1140688653231113 2.609594263516759 -0.630484828754619)
(1.065677599533764 -0.1081722956334007 0.4167034984258879)
(-0.5523874364563072 -1.459738125695224 0.1414234470095936)
(0.6458540540576619 -0.5619166007990714 -0.1220961624569532)
(-1.367998340688247 -37.07258948526615 -2.478692526074178)
(5.947694418691091 64.95099521227939 0.5771297129735093)
(-0.01256048493289809 0.05835116456477071 -5.95779844279276)
(-0.1768101242672279 -0.02468742834823649 0.02720248607913077)
(-0.1600735820800681 -0.03065832111115611 0.1424759671431367)
(0.03350178565520596 -0.05478453952822872 0.07316356201181665)
(1.361529332516146 -4.314786222517528 1.14447045807564)
(-0.2652900056759115 0.0591470232364987 -0.07067846762405638)
(0.00388575257230704 -0.005646588746503623 -0.005281492993960803)
(0.0002925401326401254 -0.002487703682373919 0.01007948174073865)
(0.03076143881562033 0.01504548833755208 -0.002708152334505734)
(0.001542784044704962 0.0005345195483860137 0.0001917699786216814)
(-0.7972727819104783 42.25410633114286 1.517611019385446)
(-1.026697666812053 6.779003198816353 -0.4483336451109345)
(-0.0136989119087337 0.0004952842458103264 0.001819024656557698)
(-0.1823782108456733 -0.0162653751393009 -0.01774988990329628)
(0.534922154225396 -8.205847559432357 1.387442932097794)
(4.857231740338879 18.96478818893909 3.471155845584131)
(6.952158380578981 14.64095679563022 0.5046054025022082)
(0.4538213414564104 -38.41363695787545 -1.394904432512702)
(0.3295425349304142 0.4143820778862661 -0.278854506463564)
(-0.6307254734052525 -1.450084323541348 0.5592949096793505)
(1.389645857531128 30.98072493834809 0.9036448136629454)
(1.176923053294543 2.138960508572997 0.2152289229523926)
(-0.07295225244108058 -0.02463141522191381 -0.03795391125886363)
(-1.614022233498113 -8.798474543534171 0.3273904265938947)
(-0.006516128754440101 -0.0003262098935344503 0.004692120004425144)
(-0.8449057220429614 0.4362897657645055 -0.044357009167589)
(0.250778139560572 -0.08407040833749413 -0.2059753925321789)
(-0.2668564212767005 0.2803297911344132 -0.2253187817783205)
(0.1355569408012814 0.008926509386436708 -0.04000019394698737)
(0.1468986953039837 -0.216534199676676 -0.1194330722243696)
(0.01672856418896995 0.0127289076813499 -0.01121274015005389)
(1.604377588543832 -1.482459066944296 -4.956027799125901)
(0.1663288721531328 -1.198987639949008 0.6993915547836635)
(0.1440313575428955 -8.968630510068799 -0.2590558649411264)
(0.01823508922487344 13.91059769428059 -6.835341307695268)
(-0.2157885342940415 0.1526499477226012 0.006320006208530626)
(-3.947797734709038 5.052312421495528 2.531755718491048)
(-0.05902335897547981 -0.06663565940996073 -0.01103105848190831)
(-1.06812618573563 -7.354476182917977 4.854168863127969)
(-0.02782540365094894 0.006854299707213293 -0.01163255354090355)
(-0.001419376597680981 -0.004594188046320746 -0.002619464257385232)
(0.05532963835683769 -0.008665341542618825 0.006544683846139029)
(-0.1427341933326926 -1.59416899998278 0.1410973991395054)
(4.820774366588324 -11.23348692179539 -0.07729937699600686)
(-0.01539340993510735 -0.02146275560377063 -0.01396205220497379)
(0.9224877673044787 0.1474235208705675 0.3755746406167743)
(-0.7478794415357592 -4.947807562585815 -2.188780372163659)
(-2.262574421202399 -8.337623202968057 9.640012021114346)
(0.02733614261715813 0.02849517105213891 0.1072320873660711)
(-0.1323718643990366 0.08173112330386997 0.2965014937856789)
(5.951764100092156 -3.737706187170875 -0.9904933709294582)
(-0.3666014042639033 0.11760640032129 -0.1338348046509339)
(-0.0004009619692907039 0.004276150006059904 -0.004258906205938845)
(-0.05658168522306613 0.02558394780341878 -0.01547027516431043)
(0.2564179172016578 0.1665973683985061 0.8417126388041284)
(0.001040922349427591 -0.03043245222705861 -0.0006963248296808465)
(0.08716651340456666 1.479395436193983 0.2523006768778695)
(3.293509865231327 6.110353348594074 -1.468444646788626)
(-0.1762237468303335 -0.08103353811729738 0.1012918257477587)
(-0.004063641799657265 -0.00384846742620018 -0.0007663828394919672)
(-0.0008328678162947939 -0.002017306759221619 0.001375639765134717)
(1.715856516485658 4.997408237995365 -7.282408961657509)
(-0.5092232371457162 -0.5941201800604814 1.117477184386148)
(-0.08932629616509868 0.8769656072292979 -0.4408706576112039)
(0.04329400334195838 -0.3740159995550773 0.4925386550592913)
(3.216920879703699 3.500057963787967 5.131047050463852)
(0.1529670851945727 5.281761221954042 0.7707260580641572)
(-2.404484678456631 -0.2173627938138153 0.3000149327530255)
(0.003836747339104928 0.03027090953917329 -0.02905478726039677)
(0.5783389274372451 0.1151644237254222 -0.1260797600749812)
(-0.6953693899289677 0.2341295085310887 -0.009945951436347272)
(-0.1916237168124508 0.05056653705913488 -0.09705526864633605)
(5.019358481589015 54.74369803517406 0.7535172038082421)
(0.009872427824913267 -0.007373015382592427 -0.0288810876201839)
(0.0003427391002591731 -0.002229060466748424 -0.01745714056552421)
(-0.01355364584449959 0.0238381779392095 0.03486657660947554)
(-0.001702547499496564 -0.01807566833830744 0.001044314787205259)
(-1.218704653032263 38.69961454583837 0.9908273861983528)
(-0.3491438487328996 -1.782956835617422 -0.2861223361404831)
(-0.01946009012494049 -0.007375386501767994 0.0004920423379106533)
(-0.008151520700628259 0.01225624904511915 0.006032549352392841)
(0.02917319822834721 -0.001472058904423654 -0.02076401734487649)
(0.0003756689654756989 -0.0008043326937666662 -0.001113957104910218)
(-0.0005612783726556256 0.0001359789284251876 0.001341366256040663)
(-4.012431926177519 -1.697986615008588 -0.550910928517883)
(-0.0002974745213342386 -0.0001740556342477801 0.0004394568760528443)
(-0.8219987602437404 0.9332432559516277 -0.02700643432399902)
(6.37259640346732 52.9883120195848 -1.499179350050492)
(0.1590211673423213 -0.4612690128603683 -0.1827042856004472)
(-0.002774306488699732 0.01160737762860175 0.04358368777513525)
(2.254389278138492 1.094315008412443 -3.23979609827289)
(2.185344153434022 1.503497497157159 -0.5025204717809064)
(-0.2641970108790131 0.05256019608361817 0.001844505475607567)
(-1.12669754273984 -10.01868350887437 -3.974576669849088)
(0.01267292658036159 0.106420748104105 0.01553239521782141)
(0.05235555232501184 -0.1383233174943901 -0.0478063286703419)
(-0.2931181400357215 0.2949903621839336 0.139985602333958)
(0.001710762266246349 -0.01472599273900518 0.001698974681357001)
(-0.04660091901120242 -0.01925399051137792 -0.02331024955192893)
(0.1176727479656441 0.08587121340528824 -0.1061061477172016)
(-5.365601095485707 -46.20401933921509 -1.547513425079591)
(-0.006202116419010214 0.006614367346933131 0.003601414496320779)
(-1.233920513375579 -43.19473264418416 -0.04629463246510673)
(1.141370911118537 2.919168666869207 0.8247500251479191)
(0.001575502363857198 0.004782198869807938 -0.002079429127293387)
(-0.01888651943103164 -0.04056221931314664 0.00950442071214039)
(0.0312348087952324 0.02805773185792391 -0.0216957952915171)
(-0.07345087641826525 1.165156202927949 0.3936084949849163)
(-0.008551211802064095 -0.008186023218831086 0.01053095475999108)
(11.12826267179321 10.30325598507588 -3.475800380249938)
(-0.9189866250585673 -5.278767668063392 -2.042346766736159)
(1.901425601454764 -5.624678621499935 -4.691139258696155)
(-0.01996052698264633 0.007489862284117018 -0.02768763094460847)
(0.05529132013323057 -0.4123528143648679 0.2131575620080878)
(0.008667935407110673 -0.003768132987126946 -0.006590112945664493)
(-0.427885410419917 -0.117702899184317 0.04237321737808568)
(0.01283709980946872 0.01971282980753202 0.02068551865733816)
(0.1126391185916698 0.3832330444479581 0.04730596587315516)
(0.07770389860142826 0.3999253438870889 -4.697545075941593)
(3.616017975656457 3.84792755769949 0.4241558547148001)
(-0.08539144109765288 -0.006242376555026047 0.04329441235423501)
(0.3339851338306817 7.085271248018826 1.195980442531305)
(-0.02624586921354763 0.09325740122203255 -0.003876537724850741)
(-2.026000643432157 36.82576660624997 2.318077392658092)
(-1.396099549164076 -0.256876375926306 0.325552968338485)
(-0.2700253665031029 -0.6532109763798798 -0.7524065679006017)
(-0.0561841767150601 -0.0426923535570254 -0.01173268940006668)
(1.135195370474392 10.08490044699957 0.4555030135399732)
(-0.3937829365911423 -0.1158641113210844 -0.1019126390109278)
(-0.02160272360768718 -0.03795219654114999 0.01881430360965187)
(0.8403542840328945 0.1351716320679729 0.6735722687027621)
(0.00263274698360233 0.01423215441443984 -0.02099447457856035)
(-0.4455801766330657 -8.668263166344591 -5.095598956991578)
(-0.007363237604269903 0.002578014575422938 0.02163141092876149)
(0.03362469667356621 -0.06236450528589644 0.04720995055732136)
(0.06045197929385791 -0.8022711365369322 -0.3645712431725865)
(-0.003545927384910956 0.0005062494535308904 0.000573092364281997)
(-0.0005698116266415938 -0.002858345056208759 -0.0008525589354341517)
(0.1419380822931644 0.06602962854135415 -0.2299010681562959)
(-0.3237507910746766 -0.03071592190720682 0.03588871799435688)
(0.1040723632474775 -0.03686825613542635 0.01051479682794719)
(-0.001293161432734124 0.000799636716219483 -0.002975204974759279)
(-0.01373280572321538 0.07298849247029895 -0.07415494358082313)
(0.0010749794438165 0.005607279207084895 0.001797080089179518)
(0.001882960837989521 0.02311757536268882 -0.007450984004475942)
(0.003067658927137942 0.001678867932164891 -0.002869645394933399)
(0.2919524669922557 10.2584188933013 0.2931757364767801)
(-0.008732197908421875 -0.008329897993994632 0.002628362269987138)
(0.0006619607127432297 -0.001928279825731558 0.0002733240850008075)
(0.002194854093105757 -0.0001186098938130767 0.0008062626487250326)
(0.03015840662628097 0.3308100171674184 1.178732994460512)
(-0.02111878591913758 -0.1634676495831021 -0.02563878547867106)
(-0.0005386260710292345 0.001176694749996038 -0.008325763675484692)
(-0.008570488279317777 0.05569172302859515 -6.591188013340767)
(0.003540592640093009 0.003853279626907288 1.894237923072612e-05)
(1.863104741732946 -3.567324028795343 -0.4954813395391062)
(-4.92763508031678 3.492435810146976 -1.687600240508283)
(-0.0009121779645857021 0.0001026831937657191 0.0008482643423232571)
(2.570244960352843 -4.290968302635505 -5.343385855040422)
(-2.832535420717907 -47.15683357254157 -3.237184803366947)
(0.0006731437939441198 0.2477264257101201 0.1057099169852573)
(0.0005753328626217361 -0.000216675311366631 0.0006375922493295117)
(-0.0001959522166152407 0.000273282131359076 -0.0007537394115203612)
(10.09869021425761 -1.259221941384002 -0.3552477880263543)
(-0.07133231200287547 0.1191136426384595 -5.604797707758467)
(0.3650826493715446 -0.2522571136965099 0.2667298097620644)
(2.453345507781292 -70.53894248291007 -10.89265908315236)
(0.4076599567027644 -0.04050985409062467 0.1520826336616803)
(0.0005090862355794593 -0.08867844852059853 -0.01382552907357017)
(4.926041662367089 -11.669322254052 6.640890047638038)
(-0.3837008549281842 -3.206504742754309 -8.089286493540024)
(-6.876246552691564 -64.98085065575975 4.118834709196162)
(-0.2724175981222176 -0.6025977072496167 -3.231402657598283)
(-1.086413672711028 -1.662181196199163 0.3493135943227084)
(-9.575180584477325 -67.25825249241775 -7.586172562610303)
(-2.068333178710665 1.498819736481338 0.5107103817352913)
(-6.778633861757784 -48.36177633471488 -13.27811332755168)
(-1.830329040332598 -2.558669816192422 1.632604581749694)
(-0.00882312123459985 -0.1385380286268923 -0.1342560113842585)
(0.08875730118294012 0.1776260229748147 -0.01080614537696526)
(0.07332226881676066 -0.003680361427934967 -0.01386882702601055)
(-0.2109514348452113 0.278871932619665 -0.1819269816662323)
(7.299424756461857 2.383039322972873 4.399084911017995)
(0.1344489036200451 -0.05326163123973097 -0.04788476535493969)
(-0.3276035684598194 -52.87906409501471 3.072132280351767)
(-0.213143502111532 1.785346401250358 0.2843791739781109)
(0.08804852937545418 0.007136559106392867 0.001411236835727789)
(-0.003632294101846604 0.00224148065504433 -0.004245807399107865)
(2.897447893388734 0.8588149283371056 0.01300832321968937)
(8.552281715363668 93.26302034124399 -3.234427855893731)
(0.2136539350943551 0.1761489795742796 0.3138032794127949)
(0.01296896465391283 0.01343386513936119 -0.008645686748555977)
(-0.05311307794607377 -0.09052389469945893 0.1007391325939016)
(0.5955003668353082 0.5854809224338373 -0.7094759525605305)
(0.008529510310699149 -0.006464999861802561 -0.002704257848213974)
(-0.01855323122427778 -0.02932702873260805 0.01697944173169225)
(-0.007088509295705779 0.0119698144821517 0.008398551059077443)
(3.998164340774859 77.72046528160269 -4.705165759764752)
(0.3805969751184433 -1.647305153056483 -2.036568609355593)
(0.01490771088733575 0.02320013563105188 0.03390487377328487)
(-3.549806951624324 -0.8589915670325453 -0.2919385743220241)
(0.08442802084768353 15.62909895625476 -1.991708065012643)
(-0.003186312661832451 -0.0003908859956924863 -2.72720141571283e-05)
(-13.30544735958616 -16.54013597330435 -1.993505254816883)
(-1.537860809538626 -2.38748061091869 0.09860470872855442)
(3.59595777522706 2.725744707282621 -2.535345753873604)
(0.001073989436010821 0.0006707429927455663 -0.0001524619720933722)
(0.4400564247308093 0.2259790890260879 0.3046884947144402)
(-1.342797771029149 1.441175687367661 2.443382061174628)
(0.6158937362855967 1.576251677820449 -0.08898460454524565)
(0.001079316721696949 0.0003079608844749983 -0.003680856285366725)
(-0.6239571255425138 -6.308371094051641 2.486734831118492)
(0.001076020998976375 -0.0002026626200449845 -5.822908423055297e-05)
(8.4516776798385 -0.6240665313412026 5.453256821009473)
(-4.344495884577158 -2.226604631393196 -45.58013032876311)
(0.00350127777997812 -0.008588295499288858 -0.01403012372869129)
(-0.455359037998164 -0.3419421337647987 -0.08089850666451844)
(-0.7760355922077864 -0.05006630329709974 0.07010346114726113)
(-1.386497198852546 10.91434937365619 2.645222288776437)
(2.5323780725038 -6.212241376705366 0.06020405213328772)
(0.0006589468852601021 -4.263252789759729e-05 -0.0005187015567768643)
(0.00106525335240667 0.0004340645739566676 -0.0002292157040743928)
(-0.03262075453331718 -0.007833446538699473 -0.01269136489613309)
(-0.05531781451890747 0.1593315833237721 0.1420750984324076)
(-0.1346067789969229 -0.07360454602209343 0.02497154871046417)
(0.01716752487557354 0.007985782833649398 -0.06603469147993617)
(0.005854082044263713 -0.01395090732684351 -0.01930161223013353)
(0.00194508331609527 0.00138591305887453 -0.009584284351399127)
(-0.02547555883380583 0.01329922985676332 -0.03032767605305597)
(-0.001413207774910568 -0.005487728281875152 -0.00883986434309795)
(0.03015327528295979 1.353073361737287 0.3821121861010004)
(0.04237676098457398 0.006409798920464498 -0.02550825624753643)
(0.3267838890521549 -0.435210505496052 -0.7918931011389345)
(0.8041352191247819 1.161967798751575 -0.4338315096763162)
(-0.005586509766956714 -0.01594422476490909 -5.98159671978435)