/*--------------------------------*- C++ -*----------------------------------*\
| =========                 |                                                 |
| \\      /  F ield         | OpenFOAM: The Open Source CFD Toolbox           |
|  \\    /   O peration     | Version:  v1906                                 |
|   \\  /    A nd           | Web:      www.OpenFOAM.com                      |
|    \\/     M anipulation  |                                                 |
\*---------------------------------------------------------------------------*/
FoamFile
{
    version     2.0;
    format      ascii;
    class       volVectorField;
    location    "0.9";
    object      vorticity;
}
// * * * * * * * * * * * * * * * * * * * * * * * * * * * * * * * * * * * * * //

dimensions      [0 0 -1 0 0 0 0];


internalField   nonuniform List<vector> 
19632
(
(0.00303081980090036 0.001446566717546228 0.0005824615351015944)
(5.402192118815296e-05 4.083422676888645e-05 8.085107955790605e-06)
(-0.0001249393285950712 7.414107254155022e-05 -2.433227291517159e-05)
(0.0001678821409867798 -1.728095711833876e-05 -0.0005501323094518082)
(0.0003882854367701989 -0.0005821565633455636 -0.0007615801497217085)
(-0.003242677738936976 0.001525193876410631 0.001196523958794311)
(-0.0009044356620840491 -0.0003207549668567797 -0.002504468784549849)
(0.001499565947103824 9.938883744697012e-05 0.0004564876856474202)
(0.00313858304614015 -0.0006655114182454703 0.0004029704049056384)
(-0.0006399419772528717 -0.001147734276506979 -0.0005986488287489751)
(0.0007931970069054309 0.0005761541947843498 5.149191347220261e-05)
(0.0007196585393832962 0.0002126453869596243 -0.0002410612450154782)
(-0.0009041808480532959 -0.0007235875225885681 0.001750586774507397)
(-0.0006194121508075414 -0.000316339838880348 0.000212589515878722)
(0.0001978208877726355 0.0001949200914556893 0.0001005546503369972)
(-6.169303394134898e-05 -4.852602331777515e-05 -1.988756881481105e-05)
(-6.453862633011524e-05 -6.147992569291535e-05 -4.762418425633682e-05)
(1.509569144940843e-05 9.437830408650126e-05 -4.140234557299738e-05)
(-4.571043977780491e-05 -4.452360611822438e-05 8.997847417685232e-05)
(-0.0002416845833099802 -0.0001995689222782852 0.0006991291666085244)
(-0.0005143740198302717 -0.001117336756156536 0.0007912112960789703)
(-0.00344527497596365 0.0003832121924540703 -0.0009499136703129805)
(-0.001623786014783346 0.0008257293489721614 0.00076997042181631)
(0.0001845117028876292 -4.383297363805636e-05 -2.959109729663243e-05)
(-0.0005881206066847415 5.51147916952282e-05 6.453214442926161e-05)
(-0.00472523976308867 0.0007279712357214784 -0.0002649675370210442)
(0.001141695206080166 -0.0001337669116213379 -0.001310073713124728)
(0.0001507692930197195 9.754721968525738e-05 0.0009882297995530667)
(-0.003409581204312787 0.002260548861933505 0.000269478698389492)
(-0.0001350586805354745 -0.0001417636121014203 0.0001326796131993639)
(0.0002264206161555483 -0.0001327286149105196 -8.790609611797679e-05)
(-0.000427483038257535 -0.0008538828418585356 -1.495166980004324e-05)
(0.0002401045546255518 -0.0002942423599268361 8.219529660839802e-05)
(3.929826717112765e-05 -0.0005217983388086884 -0.0003092569754869831)
(-1.696325126575497e-05 7.341568382897505e-06 -4.131468032507004e-05)
(0.008714425855577386 0.002689842577910614 -0.0001876712064059193)
(-0.0002770522930330802 -0.0004150360653580055 -0.0001260386132470207)
(0.00212292669317789 0.0001989509018572124 0.001437955195400891)
(-0.0001708553113938221 0.000141330088635446 7.726340096566794e-05)
(0.0002325240864253515 -0.000198893713226185 0.000719445881614231)
(-7.883051833375202e-05 -0.0002777877716885674 0.0004059839748239343)
(0.002394608595373301 0.0005510837059255324 0.0005808817192760116)
(-0.0007087051855983055 0.0009053460567729997 -0.0008632862840474922)
(0.0001055001559341414 0.0001225943860481885 0.000323839140391535)
(4.276716299598105e-05 -5.557741005647609e-05 -5.558842835476455e-05)
(-0.0002537269239582132 -0.0006133840208389992 0.0002888311185121937)
(-0.003384157894056632 -0.001832066130469573 -0.002478515864551714)
(0.001546702105201761 0.0009273328456083079 0.0001127321220811279)
(-0.001080046585908209 -0.003900976305578784 -0.003784389475242626)
(-0.0002988491854857688 8.817442793018751e-05 -4.602010062498921e-05)
(-0.004447927910207827 -0.004495168649289736 0.002046756136803665)
(0.0002239487545880832 -4.587961824750763e-05 1.804179881532509e-05)
(0.001491120697107638 -0.0001958859480469814 -0.001927873521550905)
(-0.002739997097716905 0.0002201184568335437 0.000418141123574499)
(-0.00059822990614533 -0.0002618842865093413 -0.0002223321123769716)
(0.006880149538547467 0.003793776313348746 -0.001406680974942714)
(-0.0008131209300799179 6.386890537808155e-05 0.0005128408934371259)
(-0.001496153755633177 0.0001992765818558103 -0.0003012204086795781)
(-0.0002485640882880887 -0.001979137816878564 0.003343030811617831)
(-0.0005965341322105452 -1.624415106786512e-05 0.0005448059476917866)
(0.0002385955665519123 -0.0001347814725192278 2.658382730892976e-05)
(0.0005151148000851148 5.299111012353514e-05 -0.0003269323100008588)
(-6.685585144690499e-05 3.499001614150005e-05 3.346248149132656e-06)
(0.0001002969186755593 0.0004710396926976779 2.821048425219931e-05)
(0.000545441740678106 0.0008636863368226691 0.0009944150627563494)
(2.247739831713952e-06 -3.15599146805384e-05 0.0001010314167769746)
(0.000333011228310298 -3.477314381336088e-05 0.0001925637063580081)
(0.0006532484629263257 0.0009089572530911027 -2.368501692777479e-05)
(-0.0002987485322824409 7.014882236668283e-05 0.0001607704134757823)
(-0.002436921564166317 0.00377107829587644 0.004243284498651727)
(-0.0001027634197301867 8.006140737819625e-06 -2.772095644604892e-05)
(-0.0008943905773818012 -0.0009299153632357351 0.0003767605584072797)
(-0.0001079273595295614 0.0008908248242481987 7.153035308375282e-05)
(0.002436509677550009 -0.0001181593696782708 -0.0001205585977132507)
(-3.717726252517797e-05 -0.0001165433093172554 7.750604965197997e-05)
(0.0003107365475333533 0.0008351834252194154 0.0005291983816212747)
(-0.0005577130623225148 -0.004127838693677183 7.517277411096552e-05)
(-0.006508509599652374 -0.01004690759169355 -0.0008336470203283847)
(6.882004560932733e-06 0.0006147537298132644 0.0004111316599217528)
(0.001172724497042227 -7.543843988329834e-05 -0.001069529271111273)
(-0.0001516473818058062 0.002958303578712105 0.001094814505922889)
(0.0006575779350635445 -0.0004614099515170937 0.002284318191876775)
(0.0008297073369342002 -3.104474083232196e-05 0.0001351940878504001)
(-0.001655758082611381 -0.0006913278102575817 0.0006918476101481043)
(-0.0004031953942472573 0.0004218798313800759 -2.325408067101406e-05)
(0.0008757224869411816 0.001039623470522908 0.0008987675214188797)
(0.0009412746347434358 0.0008766731607085158 -4.548411616191325e-06)
(-0.001848466497387394 0.001953820595482012 -0.0001836114085112922)
(0.001025302143232276 0.0007159099942544422 0.002509110834838305)
(-0.0003338036211892776 0.0001263052168658299 -5.426367062629096e-05)
(0.006136842740089237 0.005101558583970004 -0.0006600622095982328)
(0.002280776804818874 -0.001498638830615522 0.0007856063696137254)
(0.0007511226765626899 0.001052471184264784 -0.0004202095412812471)
(-0.002644779964276628 -0.0005700248557310784 -0.003685049449063572)
(-0.0004321999081301078 0.0001306968109796737 -0.0006928997664483845)
(0.0003100149587194072 0.001540552315561431 -0.001395183169370074)
(-0.0004410391029974148 -0.0005590215788483284 0.001142242498005946)
(-0.001935946014392919 0.0002932542303724158 0.001205408480437546)
(-0.003095867280436689 0.003171035432344074 0.002128585992290815)
(-0.0003681943906788189 0.0002862211615854708 0.0001367637523064963)
(-0.0003934099190643614 0.0001172450310716014 0.0001563421178619329)
(-0.0004906143457584341 0.001640181891676686 -0.001530954561381032)
(-2.323455338610819e-05 -9.807479078246685e-05 -0.0001875254833964824)
(-7.841333154752789e-05 -0.000254830306805906 0.0001378195279709573)
(-8.679426962493637e-05 0.0004178779571751624 -0.0007209101563773511)
(0.000834602061816925 0.0002994168543095276 -0.001589452321066493)
(2.14027251600916e-06 -1.489855329606108e-05 -3.83996747680309e-05)
(-0.001718662720799414 0.000229483134265577 0.0006374223346979382)
(-0.0001711521682447764 -6.781538867227558e-05 0.0003118531547010235)
(0.001294542604389424 0.0004322328502248212 0.0002035151595056613)
(0.000835982989808188 0.001971340237830892 -0.0008630632853435449)
(0.003083643694825534 -8.998577559885034e-05 -0.001071137893979617)
(-0.001128277973583778 0.0001247084915425103 -0.000363664668852947)
(0.0007546370922293037 -0.002116956950753854 -8.613764304921665e-05)
(-0.001033392273172723 -7.988892984024166e-05 -3.699336563837041e-05)
(-0.003183058598212142 0.002458721767384605 -0.002350423140725348)
(0.002029752608840261 0.0003943280243293467 -0.0004346153934634604)
(-0.001175411772200252 -0.0001652742616130164 0.0005121174637457682)
(-0.002477932452764751 0.001381708150859362 -0.002140279629783704)
(-0.003339276579685597 -0.0005690017770812952 -0.00043387046232877)
(-0.0006838144942226936 0.002225898554747206 0.0007947151945447343)
(-0.00536049244613792 5.055866037482825e-05 -0.0002018249134925355)
(-1.255734036637623e-05 -3.421577281961276e-05 5.957098347724937e-05)
(-0.002392154990252497 0.001118311227485429 0.0001515671662251875)
(0.001422053488167466 0.001347928957127351 -0.0002220301260870113)
(0.0002734748989590904 0.0001211680032915232 -0.0001939554950368082)
(0.007331649686722883 -0.00109572400702993 0.00182513350118643)
(1.957537296129736e-05 2.778316765424232e-05 -5.84526172370608e-06)
(0.0004319333911050637 -9.263248685653419e-06 -0.0002216014854577497)
(-0.001470892339449277 0.0007812387954772072 -0.0005794480251504097)
(-0.0002847593481109328 0.0001672711155388516 0.001404934867962356)
(-0.0005722930476757741 -0.0003490111415517683 -0.0007313223018911211)
(3.5392112499679e-05 -5.288953226265904e-05 -3.788880637985686e-05)
(-0.0005704572422453815 -1.37698816917733e-05 0.0002768593493101995)
(-9.469398110383825e-06 1.721414012101284e-05 -0.0001610560738404069)
(0.0002117498277808809 -0.0003755132285521908 -0.0007519225152339258)
(-0.001124658990004932 -0.0009637549393035845 -0.0007575904294780335)
(5.953922684678654e-05 -0.0003903649814776239 -9.284046308657924e-05)
(2.642808024562531e-05 -8.107811491914015e-06 1.105879762216211e-05)
(-2.713131224766564e-05 4.04010846932979e-05 -0.0001063287668112638)
(0.0007409119806686174 -0.0002408266120422845 0.0006377165787670456)
(-0.003914237740780641 -0.002446978786284069 0.0007667688094967259)
(-0.0001421915454799215 -2.786470927580017e-05 -2.865490405198088e-05)
(0.01692880028974143 0.01310708692279233 0.01142406991254848)
(-0.0003286974255217056 0.0006620122330791528 -0.0004386718893257086)
(0.003041671273335188 0.004767523894240865 0.00111030369855138)
(-9.087534138412855e-06 -1.889812348736482e-05 8.228502473786808e-06)
(-0.0001233804789824322 5.911432456031117e-05 0.000176727093704888)
(0.0002050025069148055 -0.0001796142508663467 0.0006087397210488738)
(0.000162769041527034 -1.613373410335341e-05 -8.27122039482587e-05)
(-0.001870423866782875 -2.260700636419143e-05 0.0005479176061525379)
(0.001698200879984753 0.000274028834184293 -0.003731048741837832)
(-0.0001534317558279731 -7.374659021401711e-05 0.0002198821129461903)
(2.067781538930113e-05 7.433776879654023e-06 9.201017101121272e-07)
(0.05607799026314997 0.002220948171500314 -0.02580331584638177)
(-0.000159854561244875 0.0003433877013280875 0.0002724883907723688)
(-0.003690946703283135 0.001104122026870544 -0.0002846926780912104)
(0.000270363788054653 -0.0001129515429540372 0.0005667086065501637)
(0.002009088570269684 -0.004399741015462273 0.00415903935146712)
(1.710299447489969e-05 -4.931991783453492e-05 0.0003844970273380504)
(0.002658606384376096 0.002795341115728991 8.668501689481484e-05)
(0.001234920168329285 2.888190300621329e-05 -0.0005311460994662121)
(0.0007973206453425509 0.0005725390518104099 -0.0005922812457311923)
(-0.002091357132117114 0.0002889142235259462 0.0002376084125407937)
(-0.001773665596374924 -0.000727335000546524 0.002418738600797444)
(-0.0003831114166671498 0.003188205360989519 0.001196465552079572)
(0.0008858213383993059 -0.0001288632880251412 0.0003884786471284379)
(0.001722698347041158 0.0002800899578173949 -0.0004145007916005969)
(-0.0001336357570919191 -8.92230071395651e-05 6.894367447424096e-05)
(0.0005596200353995981 0.0001750899740847949 -4.453028475082474e-05)
(0.0003256097452934525 0.009562041534246949 -0.001270577254732728)
(0.003161255422167963 0.000102982847427402 -0.0003619541934038976)
(0.0004983341973685756 -3.23555484993716e-05 0.0004376338476564591)
(-3.644925521348301e-05 -5.735707154229844e-05 0.002334990379166255)
(0.0004536394806054892 0.0004171844264340427 0.0007533868989096938)
(-0.002043230135108279 0.002465719053829195 0.001985885915886295)
(-0.001662402090445445 -0.001291395385189993 -0.0006909449978780593)
(0.0004996750115973005 5.802691801169047e-05 0.000215463265325629)
(0.00436830646179759 0.0001548539928834056 0.001964689020102507)
(0.0001493480091872099 -4.129943526374017e-05 0.0001588712547996847)
(0.0001604983704846986 -4.732914745082144e-05 4.169120848250221e-05)
(0.0002703888271201468 1.097552344882917e-05 -2.864048114486597e-05)
(-0.0001213667679367248 0.0001297332334642957 -5.406167223770167e-05)
(-7.182485440372427e-05 0.0001214909256775993 -0.001465792230688679)
(0.0002248484634604774 -8.529321107600954e-06 0.0001570883984534068)
(-3.984357922020975e-07 6.031289059001444e-05 -3.463287952353135e-07)
(-3.082289478876198e-05 -5.236619328657923e-06 -5.311470779386462e-05)
(0.0001680793704768351 1.770442759411717e-05 -9.188903665008192e-05)
(-0.000592081049245803 -0.002008276618503359 -0.001401279870621142)
(-0.0001287312859868629 6.791206437857433e-05 -7.899288064992838e-05)
(0.00124157433322109 -0.0003728537499599409 0.002331874138839005)
(0.0003375716296483929 -9.78913934886859e-05 -0.000709679294658141)
(-5.086948907726168e-06 -4.319654653562684e-05 -7.905775713327827e-06)
(-3.239099519385728e-05 6.531239864107512e-05 1.299821133096424e-05)
(0.000317307452296908 -0.0003049100505303499 -9.985034305800891e-06)
(3.34338539635948e-05 -0.0005860154293753288 0.0001578845391938661)
(3.851558551313408e-05 2.514445124240449e-05 -2.041881329090154e-05)
(-9.893176549568854e-06 6.19300329205115e-05 3.542657310887532e-05)
(-0.002701465255867514 7.972468035100143e-05 0.002142556682413286)
(6.897981111458392e-05 -6.959004883978962e-05 6.688373690416138e-05)
(-0.003331812978626317 2.365083477170416e-05 0.000213231759648728)
(2.65781587600419e-05 -4.313484855370871e-05 -3.665001528498703e-05)
(-0.001364113356105116 -0.0004172674398698942 -6.650188133132593e-06)
(-0.0003355953157175086 -0.0007336255042834946 0.001310780857434662)
(-0.002045580039863729 3.563937992655649e-05 0.001135958472590406)
(-4.521640435776905e-05 -1.87946478922292e-05 -6.023461044786339e-05)
(-0.02076374711661984 0.01290691519315857 -0.01856479192848785)
(7.415338403308106e-05 -8.781520205284731e-05 0.0004405171625211905)
(0.01136254706942935 0.0002809503430189902 -0.001459921467383904)
(0.001742066031765959 -0.0003867101712083848 0.0005132295593313367)
(6.405381419595948e-05 3.829255287066577e-05 3.912158025703722e-05)
(-0.0003782444206534919 0.006326946596553642 -0.0008777100953496696)
(0.0002251107763337928 -0.0002315627176717007 -0.0004538958486458286)
(-0.0001853056800636253 4.375226812975899e-05 -0.0005083244386981253)
(-0.0005660301694632604 -0.0003587803525753502 -0.001388000323348416)
(-5.908243204321222e-05 7.686246001635442e-05 0.0005419543395052345)
(-0.0006929691571569642 -0.0001949122540334398 -8.784564960141717e-05)
(0.0001569545250277058 -6.673118688135528e-05 -0.0001247926583155473)
(-0.003104397796289445 0.0009732812422861594 -0.0002257122875132817)
(0.003816156088365978 0.003030736966450752 0.0007200954984350674)
(0.0005267971404169536 7.262275928744094e-05 -3.90258818176416e-05)
(-0.0006336143968588074 0.0003600650108508854 -1.954035159329649e-05)
(0.0002706912571839425 -5.303994651874781e-05 1.790155133754329e-05)
(0.001286424034920374 0.001231882414832779 0.0002946742488031093)
(0.0006731809333714938 -0.0008984010135743826 0.0003043115434372318)
(4.164858902385694e-07 -3.532047941922192e-06 1.325906143773514e-05)
(0.0006652193835475423 -0.0002252139945949736 -0.000663776672025598)
(0.001365821381878347 -0.0003422949878977679 4.759976462967512e-05)
(-0.003158204703891147 -0.002015009625519938 0.002388537984994973)
(-0.0001071697592340438 -0.00014149665484154 0.0001592303283514964)
(-0.0001314534091150164 -0.0001312944870890007 0.000339280842141463)
(-0.0001404793622655185 2.828245225303305e-05 -0.0001312147585806054)
(6.688551395045462e-05 4.603422489391466e-05 5.271823215783262e-06)
(-1.859812857060925e-05 -9.867862929811092e-06 2.727265301561108e-05)
(-0.0004567879005725025 -0.0001640930569412122 -3.007329905449107e-05)
(0.0008189310791253825 0.0003635437357296827 -0.000193266014228951)
(3.880844541997766e-05 -0.0005578335783342249 0.0001078015358049309)
(-0.002774994818465692 -0.0009704731316573353 -0.0003518683463834247)
(8.917583315828822e-06 1.018038806295994e-05 8.812800455774265e-07)
(-0.000795333318141777 -0.0001712392502765537 -2.703521763714709e-05)
(0.0001080545585773432 3.840052254894285e-05 1.540609868080598e-05)
(-1.20281868571797e-05 3.664574442493578e-05 3.922406885884206e-05)
(0.03068912902694283 0.001588042824621105 -0.005566716453356432)
(3.674364609005706e-06 -1.99849004543728e-05 4.360412342169157e-05)
(0.0002494982054584043 0.0006393935989221108 -0.0003158792533356567)
(3.673681486808547e-06 1.921352786483268e-06 1.283933585527232e-05)
(2.967736700993439e-05 2.197923528201226e-06 0.000144144396291993)
(-2.993047566068605e-05 3.282954834482271e-05 -5.556301815073472e-05)
(-0.000530271891936646 -0.003188445891512324 0.000171223761282805)
(8.425474555484204e-05 5.03022817003331e-05 0.0003229361256074395)
(-0.0007854234272074562 2.908737479940431e-05 2.669653554282478e-06)
(0.006124416215601686 0.001152318792764872 0.0002266487129311154)
(0.0002341433437860407 -7.968442548218443e-05 5.835890940179012e-05)
(-0.0001178503345141961 4.956693021853335e-05 -8.086520314794021e-06)
(-0.0004235597847064764 -0.0002875474552752133 0.0002777881688669989)
(-7.350339786235731e-05 -0.000113012003966229 -9.788965617838444e-05)
(8.350633091922844e-05 4.921883407727035e-05 -7.786565651671502e-06)
(0.0001191078883668532 9.575012879588591e-05 -3.347440725786073e-05)
(-0.004448352212415045 -0.001679309389888333 -0.0001054259467151348)
(-9.659110501145736e-05 -1.639472234802241e-05 -5.32945082129147e-05)
(1.067277430654205e-05 8.419140336367384e-05 6.162991054647069e-05)
(0.003077922907577281 0.004110416304320724 -0.00353039975659833)
(-2.845822486458875e-05 -6.101590535939466e-05 9.000308317142175e-05)
(0.0008264069511155161 -0.003528461960847711 -0.005143641201910247)
(6.379695804677543e-05 -0.0001132437743138403 0.0001144440484376617)
(0.0004669774840763367 0.003376201361609781 -0.0003594229421919001)
(-0.000273887007110189 0.0004002292431915564 0.0001244502513963645)
(-0.0002263154850722215 0.001798294955906737 0.0006870584726266367)
(0.0002262638868532471 0.000131139383277777 1.794089319813417e-05)
(0.0003810089495943275 0.001219150821582343 0.00135993196951043)
(-0.0001340869002200709 4.87803060895086e-05 -4.779525911020702e-05)
(0.002382502675881653 -0.000881059184473929 -0.001347759240233526)
(0.0003632684714387415 -0.0001485009948812391 0.0003280209240348531)
(0.008940628126574606 -0.00522554831423576 -0.002347868082945146)
(0.0009251077293160048 -0.0001058329249900366 -5.595063129342268e-05)
(0.003106500711689357 -0.0002514508914060031 0.0004113136011000169)
(6.88747392105349e-05 4.673983192408584e-05 0.0001064699571533361)
(4.314186885999133e-05 -2.462257403661037e-05 -0.000141239539209732)
(3.655922884979819e-05 0.00116855270149623 0.0004141484541732327)
(6.924477178914864e-05 0.0005774219345506752 0.0006246050895574221)
(-0.006427153268750548 0.001766200079060153 -0.0007169602365153505)
(0.0003614447050856461 -0.0001343141751446317 -6.550290480201873e-06)
(9.732333395370967e-06 3.728974669766055e-06 3.489677120222095e-06)
(5.759739237574556e-05 1.667181726790781e-05 9.132768389248018e-05)
(-3.946901014326341e-05 -5.501236605241483e-05 -1.325919589706626e-05)
(0.0006110009637411416 -8.88018199324389e-05 -0.0001264961684732857)
(3.2261863793513e-05 4.871885771842877e-05 -0.0001646154402950952)
(-7.739982570899472e-06 1.564905410880993e-05 -4.734618878642917e-05)
(-0.0001043760734099806 -0.004368315504129003 0.004387142460451464)
(-0.0001214054602686031 3.208039620418578e-05 8.292731992958014e-06)
(5.785948862693109e-06 4.733671875494935e-05 -0.0003029770917565576)
(0.001004110758485566 -0.0001641510518955991 0.0004998991488786901)
(0.001132348116003653 7.038627206846089e-05 0.0007758514920149047)
(0.0006306227645671527 -0.0002281822098474693 0.0001110589741536545)
(-0.004801061179368569 0.0001609581661605012 -0.00223401195377304)
(0.001222979497744779 0.0009748250126675733 0.0001917051277442077)
(7.516970074405647e-05 0.0001696079754362267 0.0001079769432746848)
(-0.001558893288445877 -0.002154318822288146 0.00586749189160962)
(4.519133933117637e-05 -1.8098066609945e-05 -0.0002263584703482118)
(-0.0001463889727373055 0.0001889153381956595 7.624305192022949e-05)
(6.987962930743788e-08 9.556986741629184e-05 -0.0005368938246496939)
(-0.003428715281100278 -0.001168124156106826 0.004492835159768236)
(-0.0004197559121799674 -0.0001395777748906361 -0.0003639469817919691)
(1.669834940483036e-05 1.968897613637035e-05 -2.945000942920009e-05)
(-5.232846512480081e-06 -1.247053771251548e-05 -0.0001448469261902873)
(-0.0001299958918276393 5.302040168034636e-05 -4.464894518466653e-05)
(-0.0008656808642059871 -0.0001724816500138447 -0.0003139347860433377)
(0.0003437528218454194 -0.0005644069410538486 -0.0004039778393486977)
(0.0003545644879308573 0.002403886214009039 0.0005763514170645958)
(-0.0001747748301446344 0.000887024649897584 -2.38458938046376e-05)
(0.000239101365218803 -0.0002135405779365879 -0.000429111062794543)
(-0.001573542978960398 0.0009013856772880978 -0.0008444684222235452)
(-0.0002173734121439034 3.68321647962579e-05 -2.160224721251823e-05)
(0.00231645269610593 -0.0006228446340371401 -1.68112483064064e-05)
(0.0002168865948058559 -0.0005273445020707275 0.0003789033104459303)
(2.96570395705316e-05 2.050696902333167e-05 1.629672640262012e-06)
(0.0006458338358916314 0.0002730953160674543 -0.00014967169395063)
(0.000932621903575065 0.001473858314267799 -0.002765857915679746)
(-0.002252002955929928 0.000402294186955625 -0.001312256123368372)
(-0.001286185249122862 0.0004699881896384744 0.0005502078518962029)
(0.01478531017644517 -0.002738317621833058 -0.009199335216910253)
(0.0005859184936720056 0.0005932571279084631 -9.415723320837924e-05)
(-0.006729867334450195 0.001060879061234513 -0.001691698365598538)
(0.001832520850926414 0.0001077084883250028 0.0003951502269791571)
(-0.0003676807729697616 -2.03138820759172e-05 -6.739555140457352e-05)
(0.0001303005989190759 0.000328078231042172 5.167362272940072e-05)
(-5.38926311456895e-05 0.0002858344417041339 -0.0002594937750147638)
(0.001146490849337932 -0.0001588679618984044 -0.002048464815444312)
(-0.0007939300604921056 -5.731576031521503e-05 -0.0003714720063464636)
(-9.491679683698849e-05 0.0001298905925880016 -8.653178452295654e-05)
(-0.0008751353159862426 -0.0004877309119446405 -0.001608626003983099)
(-3.353371980882266e-05 5.406775109546746e-06 -3.294042077618506e-05)
(0.0002025536521886381 -7.394052746081722e-05 2.568930174313077e-05)
(-0.0007903297473415157 0.0002289796611489068 0.0006843974236126267)
(0.0002457884289974692 -0.000211843742721969 -5.105993482338591e-06)
(0.0002205793931275951 -0.0001447735913270906 0.0002140245187951999)
(-0.0001748951970789032 -7.339414592838192e-05 -2.775706490942073e-05)
(0.003900319534994162 -0.004979235670143261 -0.003380577299236538)
(0.0001059899383253391 -4.467058014200619e-05 -3.631034781354589e-05)
(-0.0001874625904403902 8.73952180066218e-06 -0.0004206388140159134)
(-1.678227748235743e-05 0.0001234144759578699 6.343267566061417e-05)
(-0.003469283495247101 0.0001003216704299367 -0.001181010493561705)
(0.0005151027044068594 -0.0004643558587410131 -0.0005505341803819164)
(-0.000290070412292382 -0.0003758540855360099 -0.001142246919090193)
(0.0003406822390153156 -0.0001381047012275738 -6.99066338472062e-05)
(-0.001498629742955808 0.0009500755167075135 -0.0003709654325933692)
(5.078018810985683e-05 1.906598129995135e-05 9.396162520619524e-06)
(0.002164837417738156 0.002757931569583072 -0.00139575382198891)
(-0.0002017602612034941 4.69697007580361e-05 3.382028613941435e-05)
(-0.0005134398164817012 6.572688768597553e-05 -0.0006516380317214026)
(9.434879826710915e-06 -4.356181316920282e-05 -2.229774589509797e-05)
(-0.0008474073667539856 0.002803021656064744 0.001919683082313702)
(-0.000245502446635705 3.068362047299521e-05 -8.11765045343857e-05)
(0.0001452538691507741 -0.0001725271900879851 -0.0001970110718284585)
(-8.456274352002056e-06 -0.0002108018379912328 2.06865868906987e-05)
(9.807760662565173e-05 6.571179304414693e-05 -9.258355145934996e-05)
(-3.593008795390871e-05 5.740837519685678e-05 -1.474487829293718e-05)
(5.136074580568015e-05 0.0001342256010405666 0.001471394159248685)
(-0.0002820898719391516 -0.0001912664788785112 -0.0001098470349487256)
(-0.0005054126104619512 -0.0001819217750887797 -0.0003402233844433841)
(-1.520668938540814e-05 6.763407313792891e-05 5.158734139943316e-05)
(5.369366940582563e-06 -1.79970570335322e-05 -1.813375355411765e-05)
(0.0001188775497260632 0.00157975679663802 -0.001440801297685201)
(-0.0001368290855775636 -0.0001639414628350089 2.049137091011566e-05)
(-0.0008757072094252031 0.0006537172642440621 -5.505511443388653e-05)
(-0.0004700154972318446 -0.000442550388176211 0.001638154030088822)
(0.0003337272840865529 3.127540478980884e-05 -0.0006420811492234802)
(0.0002402021594380035 -5.973459055690488e-05 -4.917783280278539e-05)
(-0.0008243942382007826 -0.003550200634952532 -0.0002944537295650989)
(0.0001967824663274738 -2.723581162025031e-05 0.000113413736556479)
(-9.297127578494099e-05 6.066724353492506e-05 0.0001708270099501628)
(-7.998607301640365e-05 1.24109120043794e-05 6.403431158499934e-06)
(-0.0001446357710903872 -9.050578100321135e-05 -0.0002131945828392911)
(-0.0001564433170034671 1.420961471197888e-05 3.094056078986546e-05)
(-0.0002195507689646281 -2.620454466208835e-05 8.988015352297046e-05)
(-5.777634167020679e-05 0.0001419347858812993 -3.30513792527166e-05)
(0.0002486845208639337 -0.000123559626778974 -0.0002806559588055154)
(-1.855691039396131e-06 3.11100975449461e-05 -3.882334574918326e-05)
(-0.0001860585864600272 -0.0006028368902290867 8.249915690380516e-05)
(-2.924699329817594e-05 9.532052368046681e-06 2.145669888543593e-05)
(-0.0001488558286224588 -2.96092761231361e-05 -9.139715903247063e-05)
(-9.284664460361269e-05 -4.906844688911354e-06 -1.607274037068049e-05)
(0.001201294104321862 -0.002518161162170454 -0.0003786107854677836)
(6.255592039055386e-05 0.0001333030937196655 -6.766034207229692e-05)
(-0.0002323223657000817 7.149532153754971e-05 -3.349831409664038e-05)
(-0.0001930919978148909 -0.0001480342124155914 -0.0001466035312921598)
(8.177409994251326e-05 0.0003761020094149174 0.0004280511564933322)
(-0.002082940904809275 0.006137263262308547 -0.004215558288539421)
(-9.649731217359234e-05 0.0001649645163988124 0.0002155637987948486)
(2.960805352639475e-05 2.271291218879765e-05 -8.481152675749583e-05)
(6.212542680752868e-05 0.0004741553217549117 6.315577415192673e-05)
(0.0007812903977500105 -0.0009020601593586546 -0.0004105142855966162)
(-0.0001395932609779708 -3.042623591199927e-06 -1.205418562213788e-05)
(-0.001502817061673471 -0.0001709090241232183 -0.001111941878922172)
(-0.001154228510820861 0.001055424336191856 -3.988953952450606e-06)
(0.0001278661088369919 -0.0002837761238855415 -0.0002138104885374785)
(-0.0001624279999355169 -0.002731170589331536 -0.001210536794045858)
(-0.0009316154944938206 -0.0002730253046474942 0.0007006183369711466)
(6.343853898073407e-05 -1.853914462849856e-05 0.0003826353570854329)
(0.0002165656597967212 -0.0001045990099057537 2.061586190089406e-05)
(0.0002473147932622306 -0.001045726399419602 -8.544096099945256e-05)
(3.494041634013549e-05 1.432540734365023e-05 -5.743315336019932e-05)
(-3.582546270125326e-06 -4.058788726925976e-06 6.710514561250097e-07)
(0.0004261356028833667 -5.420201027708999e-05 3.267294567275221e-05)
(2.793675766720135e-05 -0.0007578700000426149 -0.0008176701831628726)
(0.0001907319992571141 6.759472528283923e-05 -1.853596785014977e-05)
(-0.004571390090019204 0.004409395419290163 -0.0004403542018713768)
(-2.321053992091559e-05 -2.020509494071384e-05 -6.619856075565875e-05)
(-1.414635927544287e-05 -4.236230327879684e-05 0.0001862407846681845)
(0.0004235289718114847 7.086416877080227e-05 -0.0002154426097785617)
(0.000278690904105644 -0.0004814096101635057 0.0005555988550165819)
(0.0003125534023582516 0.0002045974331966803 -0.0001747089966168284)
(5.633752909874175e-06 7.092108889868109e-05 4.751292505939175e-05)
(0.0002729999541601728 5.354644220542793e-06 7.013579105886263e-05)
(2.885377515369574e-05 -0.0001895540631905573 -0.0002696995740988893)
(6.422675347687819e-05 -2.059119217913929e-05 -5.669495869070942e-05)
(3.674113849044326e-05 0.0001736501741441515 -1.756349715874466e-05)
(8.972600364063417e-06 -6.23497320465698e-06 -4.831926867442933e-05)
(-0.004266377573656171 0.004014268967523755 -0.0006734537272820016)
(0.001260924886229193 -0.002387229024008638 7.171326349181562e-05)
(0.0003259699456955764 -0.0002163988330011923 0.0002658897506224879)
(0.0002009982088747768 -2.135843264508424e-05 8.684414771347016e-05)
(0.001404406578113787 -1.281094521120001e-05 -0.0001211112658583495)
(3.262290528794984e-05 7.450709498994975e-05 -5.738280835171498e-05)
(0.0002328922123797219 -1.876660971425873e-05 5.857979991775867e-05)