/*--------------------------------*- C++ -*----------------------------------*\
| =========                 |                                                 |
| \\      /  F ield         | OpenFOAM: The Open Source CFD Toolbox           |
|  \\    /   O peration     | Version:  v1906                                 |
|   \\  /    A nd           | Web:      www.OpenFOAM.com                      |
|    \\/     M anipulation  |                                                 |
\*---------------------------------------------------------------------------*/
FoamFile
{
    version     2.0;
    format      ascii;
    class       volScalarField;
    location    "0.8";
    object      p;
}
// * * * * * * * * * * * * * * * * * * * * * * * * * * * * * * * * * * * * * //

dimensions      [0 2 -2 0 0 0 0];


internalField   nonuniform List<scalar> 
78526
(
-0.05400437018615715
-0.02223510864575347
-0.005681936209498153
0.01659926513627195
0.009836856799132019
-0.004332332357165987
-0.7471773317397031
-0.0197973199857686
-0.04226932387405113
0.005205712288987264
0.04115717322654363
0.3174012963945034
0.1652316770901183
0.3080466480158113
0.0427033634028758
0.003826901875084178
0.0338727211410349
0.03105882858393301
-0.01314548756350261
-0.05222655151420854
-0.6319688087685259
-0.7246659397062423
-0.04322247823599051
-0.00435531897411888
0.03661838550605632
0.03587524486305479
0.02457663112050092
0.0176216460622379
0.03395344729696209
-0.03644435683702103
0.2222638981584606
0.0327588025871906
-0.1435513312752204
0.006023129220904717
0.01040067056457105
0.02862463273065669
-0.2793672409475754
-0.02017878696154822
-0.05480875442909455
-0.02446027307979821
-0.1303205266215426
-0.00940027219392676
-0.03138488876264053
0.0175863341312622
0.01039703656438152
0.00974537228425024
-0.02525185322730093
0.001153397266079081
-0.01053236441833956
0.06704151943774739
0.2094607954853211
0.03109746196261192
-0.7761997395834836
0.06097191848430504
-0.01682528705068601
-0.6323995077512191
-0.1125547536606629
-1.850422159726095
-0.0901089712246602
-0.3806143188098528
0.01227473330124006
0.008606043103524783
0.02170815343443968
0.01041490029819705
-0.01390894607302432
-0.01455876552585627
-0.0103023654727037
-0.1212872389725181
-0.01305136440753805
-1.243532893608207
-0.0007194501584079868
0.3382188085734247
-0.1765656162634082
0.4240307318514211
-0.02233524587154623
-0.0955612511888957
-0.008960319671306949
-0.03475619327082917
0.03369988235713941
0.02441887092684565
0.0414192132827688
0.01351710763357218
0.3668683160307026
-0.2262595298709768
-0.06103947120968123
0.005646829528068813
-0.1793440588221904
-0.921843872915762
0.00412612342713747
0.004902921173516242
-0.006001630779720519
-0.1270824564551154
-0.01953752800678468
0.01234211331257277
0.01197046252021912
-0.0182824309170564
0.01592529232914516
-0.01289589147551219
-0.1714482853725817
-0.008166965576588078
-0.08481066177006198
-0.09428382238221958
0.003253781028833348
-1.115857134759895
-0.01051804354698369
0.0146150560547549
-1.319493692703586
0.0411159803169737
0.004414062786942044
-0.4831330269285491
-0.06047776335685335
0.03952747591639928
-0.04014372997400857
-0.2401544540403898
-0.1586905941140766
-1.598375006718333
0.007571386008960491
0.03122637987929378
-0.08760143435435218
0.03915570464346404
-0.01596334184051997
-0.03737469119881991
2.3540793854733
0.03555563262415737
0.1210484356538316
0.0245316941342234
-0.006843883990485853
0.004106610196104196
0.04236272790236737
-0.07437120276034664
-0.2264346887130456
0.01098084992213742
-0.03255967207094837
0.03659110298686265
0.06068245042967176
-0.005609526889049414
-0.5897865357661009
0.02709272454858951
-0.003463940490652532
-0.007062151358599246
-0.06586226150758337
0.05931976021319331
-0.2746891022747877
-0.001669570352393012
0.01814341582728443
-0.7521794964082262
-0.1419512050594319
0.0311869204100961
0.03559685195369773
0.0330129891325034
-0.02114035369081538
0.03343795923476647
-0.01707842504160668
-0.009590767133652381
-0.06927274529722362
0.03031305202150876
-0.01494775433156075
-0.004818693680705823
-0.05733505369327732
-0.2146728363530471
0.05263529714176913
-0.04847903426954228
-0.07250554313964171
0.006182359486590377
0.00616475485432641
-0.0003475354719024561
0.002252071613197634
0.01525406422149778
-0.02696388450751186
0.03354909465843253
0.003135578510180218
0.0302497576128939
-0.03752315515622014
-0.2190520451678023
-1.088194993335755
0.008652152203634182
0.002855842574880726
0.04291544848270527
0.007322870516711693
-0.005633198869078577
0.0546329822815673
-0.1104998568544045
-0.1914499336358639
0.06851663579276263
-0.09398880327219923
-0.006576229154814357
0.09277698966971103
0.08752023279101596
-0.03409669031294141
1.654595186821486
0.00128811374422749
-0.1565014601817255
-0.02092360659521759
3.264455784634348
-0.00959983442179717
0.05423772677422711
-0.1841281107990509
-0.08231461109677969
0.7331345532814861
0.03635978374049724
-1.617089518835227
-0.008287304311492372
0.005322111689113661
-0.01262708743795132
0.007541229641269146
-0.01239691667720468
-0.1585143782504504
-0.3020604591667846
-1.167577600264964
0.07221329555752612
0.03316701166551954
0.03290862800379414
0.04596848825924239
-1.413544213456081
-1.234213568758892
0.05245878067884389
-0.007553142394455689
0.009182417976690336
-1.441388548958553
-0.07400905795356406
-0.5453633753102535
-1.908052795221512
0.006476317769449218
-0.01196942006028828
-0.002858950177950508
0.02226606378799201
-0.06446507325363943
0.2144849974149818
0.05581837510426588
-0.1124747940541365
-0.05077440042656597
-0.01139470400076142
-0.006381362341625891
0.1245411868151297
-0.007874240681913402
0.02200937500429561
-0.008352541496709933
-0.01110528537941987
-0.03878904969430781
0.6681245649588997
-0.4015756235905599
-0.101080833461266
-0.1992544750599754
-0.07633977574954634
-0.004419179864387157
-0.08125002235562954
0.07725422969253645
0.08145347955748967
-0.06654960690848646
0.04450945916895965
0.04977150552125932
-0.1668073045000643
-0.2292545521877359
0.02564641579098422
-0.02043233049869305
-0.1192780919938903
-0.2120036069167538
-0.1521223612599118
0.07772193868215442
0.01253858172969953
0.01099459068787411
-0.1954091945795136
0.2371456389284978
0.1599648914240053
-0.3150259464189342
-0.01966949907598359
-0.2297762544210721
-0.01882542779400935
-0.2111227097050924
-0.7915472824977839
0.09190907335998456
-0.655615840009379
-0.003117175817344387
0.007073692263640931
0.01466315552879888
-0.00940263045208683
-0.1118009029471342
-1.574994252492997
0.05631727940771895
0.0281985953279945
0.03527438917765225
-0.01335731452427903
0.01154485282268571
-0.2990811222254041
0.01145538816983484
-0.3073486916573406
-0.5401353590454062
0.0235186970288589
0.04870990063769207
-0.0689578727295331
-0.01606947044268745
0.002466440127419235
-0.3459553747456519
0.03623949708117159
-0.4841353812933812
0.01575988657129928
-0.04796767747462073
-0.7506222428383753
-0.0567564054474562
-0.1756430550005122
0.04019441421387909
-0.009125418336295861
-0.3380906390685012
0.01915202766941957
-0.1331961830844128
-0.5132319924124127
-0.1789047547000503
0.006780947288837122
0.01416249598247588
0.02997131140590809
-0.2695315250970285
0.006098798824313169
0.001293776594679077
0.007317912352909934
0.00608409778003539
-0.03046109057170537
-0.2348251682556775
-0.03713689765131323
0.01119362559525843
0.006969471922292746
-0.1356247635281432
-0.01874666005971445
0.4215396015013966
-0.1175016084155824
0.1059022194353557
-0.007985451730992238
-0.1798481184301482
-0.01393984781549882
0.6351494191794719
0.02175097403541809
0.03106599642981851
0.01537494295450227
0.006675927547096026
-0.05172086820047614
0.0285134530673147
0.05292837969688966
-0.01030240591255726
1.14637062887996
-0.05251377187650436
0.007631194332412612
-0.005387998019305375
0.1317482317573333
0.04952009895126706
-0.08901355867702612
0.02289461581097147
-0.2279554271265227
-0.3118896372365162
0.02751698010877009
-0.4406259311534486
0.02303981616164479
-0.2437339544534797
0.01467324681393348
0.0549209889969733
-0.1539547400199723
0.02594646869968042
-0.06897019985220366
0.1917529505549167
0.02738021154771186
0.3259294486851194
0.2722672424919165
0.03521005836813714
-0.05979314735061176
-0.1801732705018617
0.04993238267888776
0.06913416426337325
0.03936075050768132
-0.1213882679207322
0.004376945579284016
0.01446585917189726
-0.7712442489892726
0.3572269127194567
-0.005963682903332124
-0.696808531903082
-0.5516386658654294
-1.691886743275136
0.006807163715341179
0.1429936458775199
-0.02215258821635639
0.1997647349361342
-0.01266995330152874
-1.019409553588954
0.00943760669424447
-0.4040159204206893
0.1009283959843634
-0.7193905148515646
-2.012460704921841
0.4215272017753279
0.02022919777230932
0.05889278413474239
-0.5470122098435242
-0.7437439893056019
-0.5261230287883829
0.001657121600849119
-0.07346718256683059
-0.018831786304573
-0.2199059368318144
0.06812310832825219
-0.002209990941337488
0.3016236196947549
-0.1718627214413962
-0.1568108821897576
-0.5453369386109969
0.0538687027702331
0.09562402748291417
0.03645654274259754
-0.5635981827388635
-0.4687156441281192
-0.4458617878443529
-0.1931388783608393
-0.2745541908892238
-0.191807370939118
0.06164168777831468
-1.899774642801856
0.0007224535046252816
0.01816779139597872
-0.1349772453836396
-0.1894797670765779
-0.1774420715678712
0.001274745940491227
-0.07856607034448258
-0.3758932506196532
-0.3443452285459498
-0.007399144629547237
-0.1048880418266463
-0.6285935076470689
-1.856827120652032
-0.1239932639357104
0.003985288539938244
-0.8445064393790868
-0.197421034775796
0.01800658454597969
-0.1630601632060034
-0.1779991834274073
-0.03749416686363496
-0.4107666941251385
-2.035923963819555
-0.3017867150403853
-0.04317643854465793
-1.403455321931629
-0.1564939168718328
-0.1808750624901914
-0.1804053648120655
0.05708376378124342
-0.7137916564418777
-0.02827754706819624
-0.0006668030438902569
-0.6680037673816731
-0.3010238246107014
-0.3922470867552436
-1.069998701755512
-0.169648063699211
-0.004298458462867662
-0.2141825707064873
-2.480506802569214
-0.4151274171488495
-0.01805859775590544
0.1457895315319166
-0.2639978302822899
-0.004684622861989623
-0.01834621177586063
-0.2105046035443696
0.00863871770997634
0.9489372664570295
-0.1094717978101819
-0.4972891844712631
0.006706848279658107
0.5196288437991327
0.0645897398304963
-0.8236993508441098
-0.7016581886386163
-0.5785316025930834
-0.5563353582392373
-0.00502846127932835
-0.09242461414450379
0.005606332306839381
-0.01726417111326485
-0.009302464555750092
-0.004207371672817224
0.05490085055990396
-1.082123172845147
-0.5747546927833467
-0.2167627902430722
-0.6584428121380165
-0.009870946160976345
-0.1651851504867289
-0.1536883802886593
-0.1465941772910457
-0.1358171412527743
-0.1714999354506573
-0.1818214496261667
-0.02526434660039006
-0.7294896314031428
-0.2765550970024203
-0.02640136995798649
-0.3896602929965549
-0.5331306689952399
-0.004851157625203187
0.04810698085158076
-0.6010007984100112
0.01375704344542414
0.01195991920007427
-0.09317858798861804
-0.0086708796547325
-0.006056061394658051
0.01817444823381073
0.01382298070161214
0.2075254026607417
-0.08961277060482598
0.009333905479794005
0.004464066249216526
-0.5884962949494851
-0.0223105229324045
-0.01542266756652063
-0.2168940752235666
0.03500231515261282
-0.00490395811414725
-0.0273290994399308
-0.4092688281140965
0.04990490618821314
-0.2300840176114099
0.02569703015038967
-0.002062574353731456
-0.07265208247726183
-1.303183463095821
-0.1349705782103577
0.002356730697400147
-0.08541595494643174
-1.448905892783045
-0.6667666491132379
-0.6498640023799217
-0.1384589012371527
0.03058676149927137
0.9350405014696884
-0.009975247411571049
-0.04322509514894748
-0.3218405402081024
0.3127569277217965
-0.01717979004837772
0.04551854370385394
-0.09357003468250497
0.03711533149124167
-0.1824962591981882
0.06662286642967752
-0.002481149623763707
-0.3692800631978119
-0.06148502303944988
-0.02271354295638632
0.01509401652514918
0.03113955322061612
-0.3323250998211645
0.05199643897672218
-1.87790013188104
-0.7385319789973723
0.03294776848572604
-0.0146914005017184
-0.5902232374279356
-0.04745511062263309
0.04533467912067966
0.02715523214598349
-0.1504200304410487
0.2738676325009591
-2.761624622936109
-0.1411897788153466
0.4279653385972485
0.02492567729639597
-0.2113212904146113
-1.114003164438056
0.04944704165611602
-1.214762262148725
-4.191425515754936
0.0008597135757231779
0.04235193676767398
-1.334106475196493
-1.610424127725374
-0.8409284199481186
-0.05549724724623655
-2.750236294746276
-0.07761541072136079
-1.956093004479788
-0.006994257694215598
0.05481436233860704
0.02443028904527426
0.01613010720328458
0.04743902650805278
0.01557496093784837
0.008461746316836627
0.01355038712305982
0.1268858748601859
0.03803151441423192
0.03416092845423833
0.001011465314276183
-0.004703248780645318
0.06958852483931505
0.08602263563863247
-0.01133843135308178
-0.2301422761549162
0.0110215182298553
-0.1350869089033584
-0.021688157703367
-0.04235086184053
-0.009756746631777528
-0.005232646526203495
-0.005887632786260875
0.005717720986660892
0.05357668692382796
-0.04179843291331345
-0.04220505055058955
-0.1298841896171146
0.01197063268873493
-0.13316795025679
-0.1438329619212586
-0.03580353994787362
-0.005278426139788303
-0.0176471419319437
0.00390104355100578
-0.03737685852587112
-0.006306110936360899
-0.002939686895804408
-0.01573078746442805
-0.0003344994485138904
0.06025914402508599
-0.002718695889252872
-0.08154448126169764
0.1198188926761787
0.01894964134093904
-1.7430894154973
-0.04189989023777364
-2.721269120256142
-2.619987387858534
0.3101739621536959
0.004572852337253036
-3.19943547001189
-1.537199972888131
-0.06607316822830643
-0.02771922183722591
0.001003418049958363
-0.01260785692193479
-0.01438688686726196
0.0006709053915272763
0.07336750446790428
-1.538224668469264
0.002136773182465966
0.02639015086108292
-0.004808144114171509
-0.01584327395015432
-0.0541574159616209
0.004455874703699876
0.0007987754466697966
-0.006165827261685341
0.0008079199837802224
0.002170950719885315
-0.01108783439626059
0.154102722218221
-0.0173484741146406
-0.01819108034138944
-0.05641412979260355
-0.1185300770303937
-0.01830712241431722
-0.04157737904164647
-0.01093304054881534
-0.04644347685290805
-0.01158060517527871
-0.01242076972269241
-0.006048475716812635
-0.2177907233830512
-0.00872789706107106
-0.3288900516770831
0.02684541322578366
-0.0120689854454744
-0.0110661681583767
-0.01935682807969322
-0.01331498710329019
-0.2624902973413709
-0.09304012873694878
-0.008145822862327009
0.2090367418228053
-0.01203075601230954
-0.1210305704099533
-0.009348652827168607
-0.008205071169250774
0.004968756362337686
-0.01280631112843231
-0.1056856779548832
-0.06696624127159273
-0.01065550754478429
-0.005251970723920862
-0.08154184831402193
0.387270312614493
-0.1663648943819388
-0.05576331061944959
0.01755678625101974
-0.008275465790544849
0.03154051454931223
-0.00409952389088184
0.0002533850402210173
-0.02915313545663981
-0.2522354674470183
0.0328376135090321
0.006958718892260663
-0.03934477017993063
0.0326336054261379
-0.1200186524698739
-0.01873782421800368
-0.1235263556562357
-0.003471778363228647
-0.06431424109445216
0.2822882754693334
-0.6413159669677578
0.01630734635078396
-0.008827729000846362
-0.04616841495575331
0.01683988168857374
-0.008348567179741969
-1.417436583076404
0.006550795716843248
-0.04958463323085983
-0.01105543415096123
0.06898686710698199
0.0159952052249737
-0.03426671806647715
-0.008930970722252428
-0.1352642991773907
0.0005242512192652909
-0.0121454128893414
-0.1452818474849809
-0.9654907173686955
-0.04410675724121803
0.0394613493489101
0.02077605365690053
0.00454538827547426
-0.002708834589050549
0.05415213280851072
0.003717018780431595
-0.003561775120179302
-0.008833852099810687
0.03586066662330913
-0.04867358855198232
-0.02209413228589084
0.004172430771608501
-0.1952059927842563
0.007974468026871767
-0.01075164737017058
-0.006565834269114442
-0.1128561711075068
-0.01269146524538446
-0.0009240431019133525
0.02580393805931915
-0.1467372715320297
-0.006407960182125477
0.004848187123908766
-0.02700259416907129
0.01194502910633645
0.0190747261274989
0.01825171139259498
-0.5806912832075894
-0.009568015378111017
-0.02145897780633509
-0.01593926891852294
-0.1406555570612702
-0.005957562766099706
-0.01333919753459336
-0.006113606946034183
-0.008751494585293644
-0.1632805672535737
0.01245909983631945
-0.0889514492235452
-0.009733365892476489
-0.01808663477362745
-0.02979985355503699
-0.01388412686833829
-0.02013153363490307
-0.009823103309557624
-0.08775003174883678
-0.03181269394634729
-0.01646551081568227
-0.1455531075738751
-0.0006499332896574851
0.006711927664355485
-0.008706031904194013
-0.0002101198666237161
-0.1821460400512224
0.01054619184395848
0.00491399406358918
-0.05865995554181085
-0.001973974708655457
-0.01567083431478424
-0.01748619656555107
-0.004043499275432771
-0.1325118915791793
-0.05378294167616065
0.441875155494319
-0.2631792535743702
-0.07470275184908567
0.008334561522083497
-0.1240632377488108
-0.004411478465815009
-0.01426830561180681
-0.02397402034646756
0.004112695346214581
-0.09981183029675014
-0.1741115779551552
-0.02122672726874214
-0.01493986080452493
0.0383728306684871
-0.07816956454956402
-0.009257155698315367
-0.002620125287938285
0.04315258530040722
0.009674307913791874
0.007712895228703111
0.01730031632572918
-0.1888641720848876
0.04307532398029004
-0.1136045340993045
-0.01316457659543191
-0.004034682560163651
0.04089493042636393
0.006915944731260486
-0.6640620817132973
0.006252877241992775
-0.008049760237081059
0.004693058361762215
-0.008840972839954227
-0.1313901467065328
-0.02220422266033031
0.006815151847542633
0.4499196112800745
0.01487983363466402
0.03505988830207029
-0.07056153797747851
0.07170519674014038
0.08321605326866008
0.00860279301760007
0.0901849906435703
0.005364278034817374
0.06601120653201106
0.002386078646333741
0.03692673609935034
-0.006981784715719011
0.3907898688997649
0.01655396015439227
0.02904728450549271
0.01858672422226722
0.06328339620205886
0.004144179529220369
0.01766707188621355
0.01118066304993468
-0.009146899543161582
-0.00737333057508957
0.01553200153432877
0.009709000794206167
-0.005028974218185193
0.04093184640366772
-0.005824482097854882
0.02054010726386377
0.05696210673924208
0.03672487280771394
-0.01329660225203359
-0.00586014562115764
-0.01451395365222788
-0.007849382432774745
-0.05781463722462908
0.03565372535144895
-0.04290090108840413
-0.01867586249720944
0.04670360326614404
-0.005764420505275302
0.04956453296399796
-0.481734851956898
0.01857947051855395
-0.1691978518147274
-0.1407742761409873
-0.1306882135837198
0.03155477836485115
-0.003497332242582089
-0.1489271121686625
-0.177737040513605
0.1169939811736091
-0.03986323733831613
0.6881894011273705
0.005055176155202117
-0.003438879018415161
0.08386477904843728
-0.1829801693208492
-0.2540090729854025
-0.001518335618794199
-0.04618068312230528
0.02712298819407171
-0.0245165288743627
1.058100204163848
-0.006623592191183055
-0.2633334107400805
0.0605993542607805
0.3003611472292259
-0.003552164901533283
0.2399916798531554
0.000489768249327443
-0.2020103467147617
-0.0102061954336881
-0.18242655936382
-0.161283048350837
-0.001861785362037678
0.08771262868142705
0.004471363339335156
0.04910221998314341
-0.0005552354789873506
-0.2045356514837783
0.03221241643011228
-0.01614089054855398
-0.2139017922266426
-0.03696017871558573
0.003242027228577933
0.02734478259096056
-0.09547042790515481
-0.01447812462491681
-0.01750883554584735
0.003864333038080373
-0.00116025613871726
-0.04540346939049295
0.09113053427449891
-0.01693016975871147
0.06832740564610955
0.02182574673422551
-0.006479531080614499
-0.01183390805944859
-0.2720150802292538
0.1254031765799904
-0.01666088731843487
-0.2707202003429712
-0.008548806284223524
0.01792458294107076
-0.1367681553888506
-0.07640353589789797
0.0857797167692519
0.002619054829318451
-0.7705286123324091
-0.02015465080271779
-0.3560778721178748
-0.008884385374005972
-0.01019649547100867
-0.02017823170365885
-0.01965667168882959
-0.0284066086828004
-0.1419349891339581
-0.1216741841867272
-0.06795248211818215
-0.005482430155619203
0.03665004307431345
0.01036961846428507
-0.006389798417572963
0.03187416768066462
-0.1253701504552131
0.01728707128444725
0.03492116657842661
-0.006734412519772828
-0.01040325812352582
0.01539002207192855
-0.2042804831091355
0.1458016774005454
-0.03551788898614678
0.03544099805795165
0.03799269336466691
0.02029133021875475
0.03514206594919687
-0.01390674145799893
0.05665253620734764
0.00743999718857519
0.03945883428420038
-0.02804163138043246
-0.1023915285422168
0.00643656214433379
0.01332178521577208
-0.1668464690655888
-0.3001259437648117
-0.1239470959386577
0.4955515570756057
-0.02582855160511771
-0.00760812731103133
0.0260481832692478
-0.02897154798151257
-0.02511592711171448
-0.9541721649077477
-0.07638802827957283
0.02482052086347673
0.03855047296095719
0.0452269579728176
0.03223874351774082
0.006800527280434491
-0.05585013484020073
0.08331533122735105
-0.0006182900947082452
0.02206317037575716
-0.05582269197312108
0.01581969327385713
0.02566059031492455
-0.04375596748876839
0.2573480894576441
-0.05122673749165872
-0.1021591771552817
-0.09758809812578281
-0.07947485082334885
-0.01058423426624065
-0.075738387680408
0.2512123006840051
-0.0305795401281917
0.02406326060537902
0.02031739621647251
-0.0185454465351568
0.03204415891714942
-0.009104443906273216
-0.009673133941020663
-0.01251059213874913
0.02901105285395747
-0.01068969765702718
-0.1057988379151126
-0.03457308222043281
-0.01436003892944238
-0.6967760135685597
-0.0138473742006652
-0.3046549744325325
-0.1543444767170322
-0.7129573773948678
0.03067562757868889
0.029704775118179
-0.4228682528888503
-0.02999205746948748
-0.0139419548186479
-0.01533459629679831
0.09394114153078803
0.0009268334472832594
-0.1819747430001669
-0.002541353034261498
0.01404610173235166
-0.000586086661864328
-0.2808022235375486
-0.0119909620348938
-1.575771758577162
-0.01810623143674029
-0.06734147162438375
-0.02091691397400782
-0.4036261146724362
-0.009319030310074543
-0.1724436074109468
-0.01287269529923421
-0.2825879269198933
-0.007952450881597168
-1.504161894004404
-1.173555275052343
-1.095042874579399
-0.04654428079703412
-0.3314168050058983
-1.730082290425798
-2.045786901454307
0.0002764390910401111
-1.28487533583985
-0.004019899379843977
-1.581281662357371
-4.732320981980395
-0.01067878378679914
-0.0097077752908039
-0.05554993533423982
-1.280244462211652
-0.01460272286031479
-0.04597472827145613
-0.01395292230508876
0.05401792458202752
0.03961495867221582
-0.7782438479083391
-2.714182797680762
0.00247513026691239
-0.0182228383892957
0.01034377062498692
-0.007799431203267024
-0.009624490304639069
-0.02930878163661478
-0.01774461863215868
-0.007412727747964687
-0.03253743233385297
0.2212577654393562
0.05460462161779647
-0.02836104009079183
0.05524106244950536
0.004229808729723577
-2.692196108877639
-0.01843332933873065
0.04476954972968481
-4.179774038331735
-0.06032400537964058
-0.06672328520873255
0.002966830250592401
-0.03537794979885616
-0.9854778784850163
-2.128588340313575
-2.791453489322529
-0.03040947614644572
-0.07857131530158651
-0.1594145469321316
-1.248384082469001
0.0154060653004433
-0.03237162136428044
-0.06388192127708009
-0.06723170270577859
0.06212309579854751
-1.255145087925242
-0.6344598605686554
0.1269082064681488
-0.03748792109517001
-0.01713168548982086
-0.00724356200911177
-1.311652192075554
0.05333404776346069
-0.01506748413747678
-0.01218333031298209
0.00319512988434545
-1.660413941840929
-1.887359797345047
-0.007995550235081255
-0.69376604620839
0.01589808255268927
-0.01625612410624802
0.0462627590614833
0.05186645053975632
-0.5134908805221673
-0.01866291741143042
-0.02940554450132527
0.05715251276908145
0.003070305628719293
-0.006789418620359002
-0.003145072649632121
0.135451713253305
-0.1521189287903656
-0.01642913664972447
0.03471030955088768
-0.001364135166128605
-0.003317650100062903
-0.02016968098463855
-0.002378657115139888
-0.09022641745366779
-0.03100724992602034
-0.1343848056337653
-0.01359689222451248
-0.01939691072054722
-0.5919302674389063
-0.05372260774441221
0.01899866381247885
0.0006339651308432949
-0.1003032575100913
-0.06537219502393712
0.005202555207026889
-0.02504456530581698
0.03100664327307757
0.009296765850885989
-0.001154673115255283
0.01240014569261656
-0.1849821406171056
-0.0148128179103535
-0.6444301574304705
0.05329232031817431
0.004342735320608125
-0.001837229207945318
0.00439318147259236
0.0182163472743996
0.2584652986422695
0.01958486442740937
-0.5254269338277603
-0.03317370545290104
0.01049088405060496
-0.0001273322351096303
-0.03448860546038577
0.1463906740223855
0.009074300526287759
0.01833052588490248
-0.5319270589092786
0.01340451806299051
-0.02767199665678012
0.007701186888811093
0.1559667481601628
0.002457344818391354
0.002331008121847219
-1.226325505586049
-0.4875361153670625
0.00264435464082597
0.2493470395192081
0.00178011081132384
-0.1989783010142669
-0.0001721266634076612
0.01141095380594511
0.005560019401875304
0.007135734676746435
0.004123494493739545
0.0008498903534160211
-0.006797367457202363
0.03421851233463869
0.007155342565409187
-0.1560297553159211
0.01531313243016027
-0.006973291333440029
0.01367345243147598
0.01466084008574798
-0.001841603194940181
-0.0580414488547755
0.00978859098923876
0.1619608818306542
0.0002243867922809436
0.5420684623644568
0.04060112394324727
-0.03602225841671623
0.1133608365558701
0.04547040968216074
0.006583637505395121
0.008319902635055229
0.114999690104463
0.02080670512501662
0.0842464615940092
-0.01085118846035951
0.003803214998204927
0.01946977030442828
0.08742440575533043
-0.01575816112211878
-0.008328746589431769
-0.4043900527731017
0.01302920301093689
-0.02607570896327379
-0.02544536796561701
0.0824189049922763
-0.01143122472029741
0.02158345371020137
-0.2591450261857458
-0.1064578508354291
0.03301417030507246
-0.01491796389936784
0.02047934083423355
0.003721493439842907
-0.0103919451389196
0.004414703009685839
0.000900026396909976
0.009018023133729675
0.001469676963864386
0.04191585957835713
0.005573062165484404
-0.03610550100378852
0.03500427296995681
-0.1564223155801547
-0.01593703726880918
-0.385937497172226
0.0263873942821495
0.02861379452138089
0.005826244310492766
0.002908409836750333
-0.01349914898800918
-0.7027622652304469
0.01052693344837636
0.003463850034047447
-0.6668426272909979
0.01019222848967681
-0.04075831239926066
0.008939699928122281
0.005717139760403503
-0.03391028618034297
0.03922866852769658
0.02076428600981996
0.007827557912892561
0.1755931966959155
-0.2188810592625878
0.00600347957961762
-0.01397491098249832
-0.02556905968312176
0.001256937027624482
-0.02610457401960602
-0.02733834079943278
0.008492813235123462
-0.02736424386576406
-0.01501253986365378
0.001723485824220688
0.05756159098930131
1.103671898451641
-0.003914482765982416
-0.2812769223326532
-0.05565557359517103
-0.1357614842997668
0.04630703167708878
-0.01854238597252636
-0.4741036590157295
-0.0217983349533247
0.009936311133711349
-0.02352268892500211
-0.04822517213807105
-0.02262928153335943
-0.5453711472762518
-0.006453258724668347
0.005547176662096137
-0.04819704919929348
-0.01308981885985844
0.0166862101251073
-0.004114252878985092
0.1428360295917483
-0.1766463735206228
-0.007397991833168331
-0.02285075144873377
0.05307153025579847
0.006974378254899513
-0.3080763893719785
-0.01397137435222467
-0.1198240812886301
-0.01383844756164671
-0.1948617083826125
-0.2826978284272679
0.02260794624965187
0.04969043465277241
0.5705285787851549
0.005947017525883377
-0.01367570704845411
0.03441224891679612
0.0003193000058739593
0.02699453141884671
-0.0154881744851191
-0.03283866903456122
0.007522084119024068
-0.03401919067688955
-0.0301163117974999
0.07599914089484226
-0.4481221012230459
-0.03406658744656694
-0.02910203478599377
-0.003192773426865021
-0.001299499946519962
-0.02802828901228047
0.001489815900592623
-0.02489178126496398
0.007095602111388184
0.00780843989150774
-0.5854515775376564
-0.007647623141511521
-0.0301908088103295
-0.01956097479322295
-0.009669794092269418
-0.0162653595736167
0.003182845303994869
-0.0165781588310255
0.007985218193581925
0.004874292475357482
0.005280698095266084
0.1672766923974719
-0.01391277833731253
-0.009578684885172373
0.0002431262586654083
-0.0004598086286250013
0.00662283136714818
-0.4844595538070985
-0.002366060791547326
-0.00249372993784579
0.00744292068763875
0.01439595490626252
0.04221722609735468
0.03107001961928852
-0.01717510671254135
0.004921523865889267
-0.001071328622603579
-0.01710068398645441
0.09446566296951314
-0.7880212942146712
-0.0192914749278941
0.01115991655059028
-0.01734083214016535
0.0594116484258984
-0.01167295758662849
-0.09911000078732972
-0.01085529920381919
-0.01779840031780078
0.01129932412318876
-0.002359643111424761
-0.02105394632712074
-0.02073113249524989
0.02155600295963575
-0.3061806613382143
0.440697707638002
0.03634352197580996
-0.02009720758225744
-0.03666409029103889
0.04014958475046665
-0.4303127722871744
-0.03704110847846702
-0.3256279942077441
-0.1389744527737689
-0.01937419113224479
-0.02898004714192704
-0.03217145417148159
0.1380954663981873
0.005280534013936673
-0.01044481055143119
0.002127412643113411
-0.002174617447566418
-0.03254811338214217
-0.02129066558718071
-0.0226448444463303
0.01137095164389686
-0.03553936852983799
-0.02737672344062723
-0.007526051087058642
-0.02928769762774829
-0.05760914758641195
-0.02367589698968577
0.02512283126754952
0.01989421133926498
0.02715530597530144
0.02623066974318458
0.590990609860039
0.008450842574347592
-0.02869635893328138
0.02703782039000751
0.03097603794401991
0.02873352860654436
0.02784558882473312
-0.005619188795539381
0.01865219434142385
0.003816773241271803
0.02334582455442088
-0.07549212832763315
0.01123640776693713
0.01690039815457953
0.04143946904720577
-0.04275254562860532
-0.3875274203558959
-0.01946177810157214
-0.03148702914879543
-0.1582282134904677
0.02480812427280216
0.007078127430443651