/*--------------------------------*- C++ -*----------------------------------*\
| =========                 |                                                 |
| \\      /  F ield         | OpenFOAM: The Open Source CFD Toolbox           |
|  \\    /   O peration     | Version:  v1906                                 |
|   \\  /    A nd           | Web:      www.OpenFOAM.com                      |
|    \\/     M anipulation  |                                                 |
\*---------------------------------------------------------------------------*/
FoamFile
{
    version     2.0;
    format      ascii;
    class       surfaceScalarField;
    location    "0.8";
    object      phi;
}
// * * * * * * * * * * * * * * * * * * * * * * * * * * * * * * * * * * * * * //

dimensions      [0 3 -1 0 0 0 0];
oriented        oriented;


internalField   nonuniform List<scalar> 
153371
(
0.01706818511429213
-0.8062308259803481
-1.449820458184186
2.238983099043043
20.61980862690619
-4.648158316807442
-15.97127379747818
-16.56031580448625
8.220047265002119
-13.29056436839318
21.63083290787847
-0.3775367392422765
1.002713673965805
-2.774548950484932
2.149372015755675
-5.161967608564817
0.8043437236686345
52.37101150118372
-48.01338761628671
-18.28146921809164
21.92165087186028
-22.79635349069375
19.1561718369166
0.224405887546141
-0.007704165343440498
-0.04204631255958241
-0.1746554096337033
-13.91509874492423
-12.07839922912105
25.99384901502615
-0.1091195434025689
0.4247273178666681
-0.4557313621370027
0.140123587670109
16.79526275173418
18.26478764141678
-18.54267662372895
-16.51737376942222
-7.337613350913084
-11.01700847754483
26.12864302809919
-7.774021199725038
11.04248826411103
4.819237615017545
-15.86172587916719
1.58284289360773
2.851388291360753
-1.484025178357119
-2.950206006596733
0.5596022848171894
-0.9842373428399589
0.4246350580646972
0.1175035369930676
-0.1662988414348735
0.02843789053235036
0.02035741391780378
-5.078425466634334
16.72749076493249
2.822302734841265
-14.47136803314057
9.392696092322211
28.05246218311164
-20.95389765533174
-16.4912606201064
-10.19234606117947
-24.85790752207192
44.44294967557187
-15.07824726254117
-30.3551954623831
29.12805394844117
16.30538877648106
-10.52249488050902
4.568569713733995
16.47029886567727
-10.51637369894266
0.04234421435918954
-0.5731614934062047
0.8286288313543313
-0.2978115523048717
-0.1071370443750798
0.1322201715460825
0.0008376578378115131
-0.02592078500340041
-8.944722141492969
-24.34746733188464
21.23994817632281
12.05224129703377
22.75620237806335
-22.15957254477668
0.5022202345750623
-1.098850067867212
6.96849767970253
-2.977246901842318
7.608352938782633
-11.59960371663096
9.64980069272897
0.4371722912782686
-7.435748992428648
-2.6512239915855
-8.914494114457776
7.613745974205784
-3.178577357409456
4.479325497695311
-7.539263460701737
-7.298451275154183
14.83714931774974
44.35660360474998
-10.6416423315235
-22.34152271235466
-11.37343856087418
-11.26992617968403
-5.807324328424716
17.07849959256473
0.1630965733665268
-0.4885011776356661
0.3902744623118255
-0.06486985801186337
-0.1022464568462401
0.8375530351559705
-0.6980145607452259
0.5601693929815257
-0.6309769293472404
0.7688220971379714
4.851517514767036
6.943703580714505
-24.12823017762219
12.33300908214019
-14.94175027433226
23.74742417353286
-3.415452477140307
-5.390221422056933
26.58556996046034
-24.12968950602153
9.19159108913902
-11.64747154360924
0.05168404535336228
0.1433249409517298
0.2999540024178364
-0.4949629886968623
1.511927229169839
-14.62300135266422
-14.3124605550067
27.42353467848944
-2.284072522003159
12.38804288185958
7.182175008551769
-17.28614536847215
-10.10278608422016
3.662372837825576
-11.81787203821198
18.25828528458875
-1.431389488120859
-0.1307396193121422
-0.6498274403730058
2.21195654785816
-4.878276747855277
-9.485606664573329
-3.427735371430468
-17.14166547489153
14.55245499592532
-25.4636479252913
28.05285840424716
-1.497353507090363
-0.9632892782711794
20.45512580380107
-17.99448301847197
4.407792298111299
-0.01661361426424335
-19.33292895817914
21.1259724560743
13.41301867531011
-10.79156695785255
-14.8824996032478
29.46132192274764
-14.57842570757163
-14.16029368155989
-9.921604581390714
-1.58119963185378
25.66309789480015
5.336497441401637
-18.77992272499447
-5.077726080668263
18.52115136425649
-17.94974302508782
2.311482380097356
0.3191056310831402
15.31915501392548
9.151010988570736
-4.650492837235912
-10.83990767867901
6.339389527346056
-0.08039954078378743
13.5950881304702
-6.546190909969545
-0.05873515963539892
0.06622713392020671
-0.007078386966057445
-0.0004135873055074496
7.276305378980078
2.769374793566509
2.519438333290869
-12.56511850574554
-19.60295398032483
18.71824427620992
0.8850093636097081
-0.184019012012159
-0.02810127207262708
0.4302334820612942
-0.2181131979649237
-0.8216565593294718
0.3074414557985751
1.126148899023751
-0.6119337954653319
-0.2366752010290215
0.1636638882543675
0.2128709029964863
-0.1398595902131586
-14.06698491792379
17.89389371277336
-2.555826287956251
-1.271082506939242
0.6039131999761687
-0.02135163146596475
-0.08613039729707887
-0.4964311712038866
-4.449273719820538
13.59004099110759
-1.527021297012712
8.275850485707702
16.64778208359126
-3.797660113229842
8.637263000939502
-9.416885802114324
0.6773763443079627
-8.330079797301471
15.13555360370704
11.09973037450042
-17.90520418086542
-21.67404566479801
-14.97769467947368
17.0487863639463
-4.708703388440103
15.79210675778785
-23.88857176253151
12.80516839318235
14.84866339936445
-11.62103574455824
-0.3802264659813012
-2.847401188825623
0.08397666519257184
-1.608861984644262
1.576326058521325
-0.05144073904364579
-17.09354402369289
-9.022825409247593
14.70296800910377
11.41340142383455
-0.02813501854156718
0.0158657050601435
9.726297652247942
-20.25392047680895
-8.181022613130564
-0.4706685853421208
-1.408458550966512
0.4360132270598407
1.443113909259568
0.3019055023801819
-0.5523238603386513
0.7689651180248128
-0.5185467600203
-1.065445543795914
1.291248038638297
-0.2258024948261506
-8.444231272830837
32.55807639455461
-27.41632375885485
3.302478637126469
-0.4574144655632564
0.4926154266780411
0.6145462718471595
-0.6497472329228351
39.665878233218
-16.63523093726075
0.7783950118221247
-23.80904230778205
23.52887720225101
-16.29254743325431
4.248286362455453
-11.48461613145837
-6.219928834321085
-2.199829516242716
8.856930641861387
-9.728495921561455
5.606659679722763
-6.404713877662108
10.52655011956077
-17.21289890728852
-16.28867123228265
24.56113485389389
8.940435285642536
-3.232750207043321
-15.90579077646241
0.7833542923899001
18.35518669112087
-0.06211350190054724
0.003727355509959326
-0.1176327586005266
0.1760189050012156
-0.6554566466944003
14.53920757688718
-13.88375093021109
-7.679034859652152
-5.800464616340619
-7.848866326372744
21.32836580230182
-5.092714932742154
-16.72925636225311
6.42718687716115
15.39478441783237
0.1610515803135681
-0.2651953602620832
-0.4834884096180415
0.5876321895913938
-0.1177885525551776
0.1037732307273288
0.01156437370594829
0.002450948129360692
13.99466924265797
19.53494883243432
-0.9041293417390837
-32.62548873335284
-10.20504835605154
3.515313707971377
-11.99346860163985
18.68320324963063
-10.1522014751163
7.738418161732805
3.934928905444639
-1.52114559206242
-0.4685972531454642
0.8176774319232387
-0.04717467637684346
-30.54088956992998
25.67408975121355
1.530967395956271
3.33583242275121
20.81328768002963
0.3773492746781235
-24.42338716175091
-17.58912349780867
-25.3449167513785
19.08117185123579
23.85286839793565
16.60948785690055
-19.01214566272085
-17.95773658193857
20.3603943877587
-14.33518989239203
15.42470630948473
19.72377126293405
-26.5593792973993
-1.128171150954155
4.120260240228444
23.56729020812395
1.793019689949815
-3.125286533459688
1.487644048538289
-0.1553772050079208
-3.482625607944299
4.907714417877838
18.21464397611785
-19.63973278605362
1.47239977064521
0.1873283860436136
0.4122361630346227
-2.07196431973606
-0.9396299194308213
-1.521842280113619
1.352936831331464
1.10853536821174
8.562321051784609
-8.748482716466158
12.97374218882872
-12.78758052415053
0.1832682261314009
0.06220219238903629
-0.1865402529754655
-0.05893016552814627
-11.21891716278372
2.015319727703708
24.9497160582212
-15.74611862314117
-8.054270859392508
10.60442850916493
-12.9153969596375
10.36523930986234
0.1009146210507456
0.02405415472068561
-0.00169407478609486
-0.123274700973161
-23.75662814787021
7.421502587649774
-9.020975654124838
25.35610121427975
9.289614864748042
8.778290859845859
-18.06802080353103
-0.02159242805246874
0.06199810974755455
0.03374126444237973
-0.07414694612592519
14.27373813985246
7.285293803481209
-5.890062007888573
-15.66896993550117
4.580110787835574
2.629546149979685
-10.18690383964071
-0.2170502025506248
0.3797324347561005
-0.4251790444318833
0.2624968122354319
0.4079169543997648
0.6845101669930422
-0.2699322561946521
-0.8224948651617564
1.717832328042099
2.106735705782914
-2.712864473682928
-1.111703560188668
-0.02797078124895468
0.006544046156323872
-0.02973274651912234
0.05115948161940047
9.074020937135678
-7.309145601082085
7.52473952869393
-27.40612200861267
1.955756052146215
24.24272826620868
1.207637690265018
1.101175159381755
-3.576963350656742
-1.010574029220535
3.486362220413524
1.462765039166138
6.970740845385672
1.293775257407644
-9.727281142122704
7.324037652998949
19.97901699628467
-43.19074410470562
15.88768945542057
2.91836936677838
-19.36120427619019
-3.944784326978585
-0.1171403996478433
0.1266164408233235
-0.109837103280742
0.1003610621175283
16.38362031953906
-12.80061683873153
-3.13202931134438
-0.4509741694643065
14.77451930716177
-17.68501867303337
-6.352046281525898
9.262545647302085
9.113184991294446
-23.36632343431943
14.85808001177565
-0.6049415687505955
-12.71816436788854
-10.7726620179638
-15.57500129496886
39.06582768082122
9.211288661830421
-11.8369328918623
28.1313524687808
-25.50570823875136
19.29804114884274
-8.684572036678226
-8.236960448827928
-2.376508663355557
-0.8885302750469819
1.960199269144019
-2.771052138161124
1.699383144012486
0.5944701824765986
-0.07321824923496574
0.09343230002246596
-0.6146842332594473
18.89114434169585
-18.96474420126882
-0.8266597922120393
0.9002596517721395
-20.42930847690961
9.349287158293219
11.08002131861089
4.251071472841548
10.59643720380447
4.51865434327771
-19.36616301988522
4.819124398853231
6.973629931837171
8.367779846466755
-18.93660611734338
28.59569072491963
-5.703078764302028
-3.956005843277458
-0.01247336802773909
-0.1614488430167067
0.141471277660957
0.03245093339742221
9.443228874130048
-16.68248215240307
-1.05467768230663
8.293930960571911
-1.891796998598302
29.90213452885334
-2.919091005421382
-25.09124652483876
27.32118026467734
-27.16906761208014
-3.80028706087355
3.64817440827378
2.091182796983852
-4.636601393063101
-1.985076986606824
4.530495582615746
-15.572631377275
-9.504894972440628
10.24174982873346
14.83577652097934
-0.1839480310830828
0.1383724852413607
-0.4230217072836313
-0.1408292411995763
-12.27761854335452
12.4184874436477
27.85992462383241
3.222260020016985
-10.75960601692543
-20.32257862692465
0.09410564137942924
-0.09265509806363358
-0.1876304874622975
0.1861799441559319
0.165862298845853
0.01260711984532626
-0.1802854839896993
0.001816065318168785
-31.89289169055122
-0.4514931354948586
33.62603459131302
-1.281649765344014
12.31826464370343
-6.315952265895698
-4.656576798043981
-1.345735579768318
37.09245114958554
-25.5512036380609
-34.52496943245464
22.98372192091635
-4.259239979087522
-22.44859724299185
2.757310782597931
23.95052643934241
0.1519655100840029
-28.54709226543638
-1.042353494725672
29.43748025006909
-16.62554630384916
13.11201019065833
-14.45114412387256
17.96468023705454
-21.59058033221609
-16.49631457893953
10.12446837743389
27.96242653372602
-20.76538904174705
-6.656762843018286
14.16501191660609
13.25713996814165
-16.12020460182991
13.55806717880536
6.850565874826292
-4.288428451777397
18.59537770365247
14.14008526868733
3.001210018847014
-35.73667299118947
13.93602913877349
0.3534009117841744
-17.24167106601251
2.952241015433162
-20.22592225707728
-6.319851077024594
28.07860447404344
-1.532831139987389
0.2151394926991078
0.4001468073770292
-0.1549721588210689
-0.4603141412376803
-22.19642680901726
15.41466793654932
9.941038110114622
-3.159279237653426
-8.122108906867664
6.97422354642084
-8.187480792133067
9.335366152551233
20.01286480386295
-25.72031665213903
12.03065436830036
-6.323202520119249
22.83370055200246
-22.06639551622938
-15.38047409825697
14.61316906248213
0.3901214437268959
6.646570713420196
-23.83864900546137
16.80195684831175
6.200004421981149
-8.321685537338542
-16.82264417198629
18.94432528734193
-22.64074613102173
2.170259914036322
20.07332164110531
0.3971645758848538
-6.760518321010006
-11.49139080514147
25.64287485204904
-7.390965725898674
11.48607231060423
-20.38287953915205
9.05027885731822
-0.1534716287695877
-28.98561082797706
-16.99894111757962
16.95478741246415
29.0297645330852
-21.77882882733124
7.073159418882888
0.596590113143376
14.10907929530366
13.88195268257748
-21.00451722182456
-20.28355746935138
14.5741626614406
-17.49051829433484
2.917158722385174
-0.08298987135648535
0.7060463184634882
-0.05060397817148807
0.4700443327447855
0.01871642170771499
-0.4381567762751253
-11.08703685433914
16.29837526925549
-9.213990195198191
4.002651780281198
13.58139105252301
-18.67644473815647
14.90837031037841
-9.813316624752618
-21.86394975595976
30.73984173319514
-24.92995929043233
16.05406731318632
23.17825773787951
7.010829990807051
-27.70204360322718
-2.487044125459092
-23.26441461958431
11.40037813050383
10.94455071564671
0.9194857734333297
21.6085817463939
5.187876937456521
-2.031487282446387
-24.76497140138997
-0.4509671354522033
-2.178287241697304
3.730429536482798
-0.01583751831723428
0.1104860283897148
-0.1057432015441847
0.01109469148326826
-16.79329849350382
-3.718624440859309
12.21819802893963
8.293724905420037
1.395985699171886
-2.667864788692655
0.3833488144385681
31.03879626518492
-9.154955295701162
-0.9259087131277245
-20.95793225636763
-1.323560950663776
5.207381400564622
0.05872980076314792
-0.6367490624629644
0.3323772639746874
0.2456419977542449
-2.967030563756892
17.54196109833969
-0.01863561192485209
0.06272858888779489
0.09002323144665406
-0.1341162083901809
11.34895842473901
6.692397597140345
-18.90893979629917
0.867583774361273
-1.445654003979735
1.920462230016505
2.207793943242295
-2.682602169345336
-17.51084174308115
-3.566459218203744
21.07767619147476
-0.03044648819247008
0.009612247929200877
0.1158119584485361
-0.09497771817672553
10.31993629298449
-4.163446924856856
6.501425103550251
-12.6579144716809
0.2546470889747273
21.53517914251036
-19.41852571674885
-2.371300514742864
-0.4829237995235775
0.05743684916747883
-0.8943629179628431
1.319849868350907
-9.738756412706461
-9.491516595750399
1.098772917876881
-10.22830356165338
9.351372497687867
-0.2218418539862833
6.173467667442504
-7.813285713917488
0.2620623926586816
-0.2832697170647925
-0.05544996492059975
0.07665728934526506
-0.09970408848444708
13.08238068704497
-27.28246185317976
14.29978525460283
6.982592162327091
-16.3164442265475
-9.490459800233758
18.82431186439624
-14.69419147682493
-2.095593602363362
16.79012100283191
-17.14972502485045
26.88141417228014
-9.731836104617992
36.66815789800042
-9.098062497846371
-16.74831510372239
-10.82178029643398
-2.297544313090865
0.4384132904514537
-0.0234522114511897
-0.04423317426167526
-0.103846936803101
0.171532322527264
0.02569237026080163
-0.09608936276200034
-0.04739156004998853
-11.31141720875176
-10.427647503013
21.73751577845079
24.59309671059656
-10.46869312447945
-0.242450903537275
13.54317747486012
11.3407770812656
2.6249138523396
-27.50886840847006
1.653855756688688
-5.685123229096119
2.43144630098204
1.5998211714882
0.05169163701839388
0.1206771774616205
-0.06859558374588214
-0.1477266430380627
0.02344372223637142
0.1462094028522627
-0.02192648204343089
-20.93119224618047
8.145521950970712
6.577614880847941
6.208055414293604
29.21847529909104
-20.03655737442814
18.4658923976894
-27.64781032234685
4.421331365468177
4.843347670004416
14.41305331506188
-23.67773235053142
0.1388931935130051
-0.1244237879824872
-0.002905031818517652
13.09669350437762
-16.18529343312267
-23.7667825170331
26.85538244584589
-0.1478601669458056
0.1227895841493591
0.07766153803375639
-0.0525909552279265
0.2153675094608165
-0.08898198658474372
0.03727836538204045
0.5549062494984431
-0.7031652212952817
0.1938377123039043
-0.04557874049692517
-19.97621432240231
0.003424987926351725
19.97302907471982
-23.79572757502921
23.96483631277279
5.816079123169749
-5.985187860908485
-21.00771503846253
3.668904639634307
7.175203172453474
10.16360722632755
-1.557785314000526
26.58072621836786
-10.70145365490898
-14.32148724953205
14.31074211614566
3.612810726700295
1.991353657740181
-19.91490650060319
-7.849222529624931
-12.41636961352023
2.353613513013495
17.91197863009151
-1.549141706843995
-0.9973928141702592
2.095567385498226
2.288800531850558
-2.215472466478431
-3.681492212914417
3.608164147579197
-0.1435661011332934
-17.2855144368491
2.527641345481014
14.90143919251211
5.842829181145363
-27.4160972871086
-2.277733464939626
23.85100157090174
-0.2191868908173917
-0.9268574103593898
0.9972474419206349
0.1487968593088627
0.02086227676931032
-19.9969173624773
10.46131993392511
0.78444140479923
-15.84774457001588
4.601983231296189
35.21720913024456
-9.092024825878509
-46.46835477456535
20.34317047019577
-7.245486037376396
-4.340126633681206
32.36322156691009
-20.77760889585254
0.350932053987026
0.0005535413407648301
-0.495096785084424
0.1436111897555573
0.02894653700400736
0.6428557892244819
-0.1196713104457975
-0.5521310157511774
0.2268364347874953
-0.01675067765767284
0.2079941262953492
-0.4180798834099207
1.324434163244127
-1.184795252916625
0.510880461218813
-2.046124595134577
2.720039386781226
21.43531362869036
5.093814370205783
-4.454792408582243
-22.07433559038776
-23.05799236367525
14.84815125169215
6.140852408580951
2.068988703403948
0.05226130428392228
-0.310523686401657
0.1187240822205634
0.139538299912359
-3.588592426655684
-21.74171515690525
22.61089559681706
2.719411986733972
-0.9531398364625068
-0.6699761491809049
0.1774922833269379
1.445623702318533
0.5166238937825823
0.2506791035093227
-0.5230175447474227
-0.2442854525328588
-33.11980973935039
-1.716377279095771
8.335384235491132
26.50080278299005
-24.3762987535414
3.870179099574442
-12.6136900853771
-14.40848871951808
1.010645814847443
-5.74806736741619
0.4226643286138547
-0.1808228584513022
0.3731496851824057
-0.6149911553289727
-18.4776868800365
-8.573653793231214
13.83018787745808
13.22115279577233
-1.063897151149712
-9.817593703835259
10.88149085489755
-0.6881866477117375
-2.770967697351875
1.142172316941102
2.316982028303435
-0.2530605083575198
0.5927349656194318
0.810043815109058
-0.5482354021030202
0.2052815797060276
-0.4670899927053611
-9.619975818525107
-20.27665872136263
9.261949534237239
-16.20845880869439
-1.053934243560154
30.44417572772342
-13.18178267547041
-15.44389652412656
15.93781998872373
-0.4942766071515897
0.0324249258701701
0.1919460183935204
0.04119578107454157
-0.2655667253187634
-0.1307214534562663
0.04182635388732662
0.1078324094344881
-0.01893730985564361
0.07244023017298105
-0.1176485788931176
0.02700125921001463
0.01820708951917377
-0.5176742811651284
-0.09130575542346378
0.09959531251714002
0.5093847241190288
5.395938202099291
23.76773927976848
-21.51213812971491
-7.65153935217366
-0.09343970263356959
0.5942826214203167
-0.8714934264796341
0.3706505077124361
0.0507823756745295
-28.53209210587289
25.79119508053851
2.690114649649263
0.2961616390008273
-0.6079827437836615
-2.148107621286907
2.459928726101772
-0.03459286835876391
-0.2344594000411532
0.3833328054568241
-0.1142805370419164
-4.152059500503301
-12.64139137236934
-1.653333241022521
18.44678411385607
-0.05926463424355921
-0.0503072189914866
-0.007024348872032156
0.1165962021142077
2.397554242171734
-0.39299745437148
12.56989364990696
-14.57445043770762
24.21058078413104
-0.2578680806459989
-5.278868628479724
-18.67384407502153
15.51928347488244
-3.140069008488577
-1.415724963716532
-10.9634895026676
-15.875405930369
-0.1687390376991116
-5.629900696731768
0.2668232637315686
-0.07364644414621772
-0.02632800209000667
0.02103425360948049
0.07894019263292509
-6.986539016831836
-3.226377984317209
10.77433453621068
-0.5614175351813913
-6.605072384936472
5.868007907892126
-0.968401638411904
-4.920338257692711
-0.7163324888159037
16.45572630588742
-18.38660396715368
-24.62850163613376
-3.06330800801656
7.251297289154551
0.04351962459647547
0.03992531267167435
-0.03064844695762742
-0.0527964903029261
11.78728035734901
1.860103815811333
-15.06884735370884
1.42146318052047
-0.495804323830622
0.4481796910644373
0.2991056109938182
-0.2514809782123084
-0.0008821368551651704
-0.0893449183237498
0.001825323289861404
0.08840173189447294
5.889187220593771
-0.2108339361308143
-25.42787177698018
-0.5535091326628967
0.6542478953642524
25.32713301427744
0.8949367072008213
-0.947784873888792
-0.3241464067003956
0.3769945734025175
-13.11606232551733
0.220723234738641
12.89565911771726
-14.557169818413
15.03527628212094
-12.69940421661446
12.22129775290481
-0.06258485057778433
-0.3704273503556745
0.6018114553637998
-0.1687992544037393
-0.8078610902876211
-7.703990572765012
3.895946307168397
-2.533745476120729
2.33270299601461
-3.694903827062165
0.3924161213646871
-0.3784293458862567
-0.134613091193844
0.1206263157378168
-18.2492221146047
17.0834068422257
-17.07525360312848
18.24106887544983
-0.1426721324201781
0.0342310814715529
0.0244811391037003
0.08395991185287313
-1.725628796703184
0.2442251514761082
1.456738101883591
0.02466554333424081
-0.04116520383922562
-0.08507305574855095
0.03005250275427083
0.09618575684510232
6.232650295088987
-11.03885313754336
-6.397688394577275
22.85365880543483
-0.01894149669696606
0.1086950510005288
-0.1391149194871206
0.04936136519209202
-19.34500786490241
-3.463832111738181
6.600381167945816
-0.3219377375459461
-0.1495121026128108
1.155960007186145
0.0205551096374492
-0.09226934813067114
0.01300011316502578
0.05871412534188435
0.1156969855806538
-0.2996464285740953
-0.1584494367120791
0.3423988797172812
-14.25345917787641
-0.3038879918864616
13.00362872095186
-24.86748370619359
25.2989222666981
-13.43506728138358
-3.368370938840094
7.939121244776689
13.10289838056845
-17.67364868647275
1.958987928120021
-0.9828425471032812
-0.2465408551528225
-0.7296045258545506
-0.4340342952864536
18.54393855472355
-18.11001228642831
18.9540161767431
13.24607282328326
-21.82630306068081
-10.37378593934807
-38.06862012631627
0.07044561370220637
20.92776075569941
17.07041375691153
4.404008023152758
-30.71962330732896
-1.867220607488231
28.1828358916608
15.69778975850577
-19.44037484133775
11.03907081993446
-7.296485737104677
0.3392141695377398
-0.7899692841621299
-0.6635224896643089
0.182629657590808
0.3262233336614787
0.1546694984490704
8.825693943906497
21.08299870997611
-27.35478997954203
-2.553902674346356
29.21043012007075
-25.17434160852826
0.3679195116082683
-1.247955690686399
-0.08490992130948199
-1.379998861707179
27.80459629626492
-13.2639397418333
3.666352108596143
-18.20700866306267
0.2195246489489865
0.3573705737232341
-1.148118685229844
0.571223462580854
0.471106174399566
-0.134148574235155
0.09633432948424421
-0.4332919296416913
-0.09974857599034086
-14.36818855519345
-10.74876125634389
25.21669838749697
17.65569048166491
21.89913690318721
-22.27519819408147
-17.2796291907743
0.8139592660840463
-2.162767392213619
-0.9487361869954567
16.755679517555
0.9003264506564878
0.1519269579853713
-0.006517671119372505
-0.08891761095526753
-0.05649167590120726
-8.5454869985538
3.963733840918607
1.518445149589947
3.207321685330696
-4.78206783838993
-13.38923289942611
-2.60184386187639
18.28428778697323
-2.293211025671202
-26.79494934726512
23.42850529462273
-30.65503179969352
34.02147585232875
-0.2164171518935173
1.522969576115935
-2.096501658755389
0.7899492345616382
11.85842650957656
-5.76535838291216
21.20793179900427
-18.58925431326191
-29.6426204102403
27.02394292450839
1.843805436651519
14.08508407710062
-10.87095274818403
-5.057936765568763
0.07703393390927731
-0.04575320050578198
0.02708762486813984
-0.05836835825685759
2.799507836847049
1.385301065654975
-1.425674560472387
-2.759134341970946
-7.693160695560087
-7.460262902801174
15.15318787384201
-11.6574306319793
-5.960862887465153
-2.598278191618709
20.21657171105912
-2.391120633420649
1.026085859463095
1.109877272210096
0.2551575017769704
11.24506918540161
-13.51427329201871
13.95156594645312
-11.68236183983946
-0.533484429536439
0.5346454365463269
0.09413940170316193
-0.09530040868467161
-20.18224245649423
11.56509862473272
5.856043632502967
2.761100199279124
0.01305641548798987
-0.2775372690735484
-0.3684919527558052
0.6329728063458415
0.007149558653137531
-0.1240365991037539
0.03410332562819335
0.08278371482971707
-4.959773274442655
20.5632432791141
3.256182398674984
-18.85965240334148
-0.157548452227382
0.2146446922319192
0.00249326789356377
-0.05958950788713719
-17.00860261770329
12.54645164045376
-5.14090544380858
9.603056421095623
-0.2291855620670565
0.1265747019573948
0.1593448859480364
-0.05673402582612977
-9.911061946721546
0.7860149498377771
12.22570214881867
-3.100655151918996
1.039607945938809
1.000190812462398
-7.257569413144689
5.217770654742198
0.349097048542427
0.06984794597657641
-0.4135614401733861
-0.005383554336660309
2.466948740364896
-5.917484179242231
0.01669670691187322
0.594258908666271
-0.6155226726042735
0.004567057035850559
0.1152678749963493
0.08010041224194148
-0.152492542732765
-0.04287574449102392
-13.23596821842464
1.664838523931829
2.977209225891658
-0.9823810523007717
-3.659666697421764
0.004685126598493625
-0.3760827270713362
0.7130976492945401
-0.3417000487660068
-17.67409988700801
29.31988181192766
-10.17334118555323
-1.472440739372783
-0.901602927031191
-0.5250720578965886
3.160761953758526
-1.734086968727148
-0.7660410557344941
0.6919768460073858
-0.5991550153385113
0.6732192251110471
7.061672826755836
1.202360813953122
-7.224425694756719
-19.52518991765816
-12.22062016671927
16.89696375935668
14.84884632501615
-1.720014525575531
-0.04872143143171364
0.3231499425090431
-0.315937521260736
0.04150901020218136
8.156962957035745
17.77534144198491
-37.3140858051612
11.3817814061391
4.981412523705875
-3.327375845652414
-0.005909333933443034
-0.1139099215978978
-0.023042227385736
0.142861482930476
0.634239452178036
-2.014150219351194
0.4194943702266167
0.9604163969836081
-26.03405207889599
14.3774469535532
28.41228464289439
-0.002661286301636799
0.06023524106133908
-0.08449487476845638
0.02692092001696313
0.006200904685866765
-0.1346922597893795
0.1211437142340231
0.007347640880589977
-0.02282161431855957
0.01163068873184941
0.01119092559372578
-9.170088975842386
0.3055816125746034
13.84591988695359
13.82880904378635
-1.143903125323414
4.759410552982377
-17.44431647149894
-13.8817618664886
-3.6081543485645
-0.02784899436666236
0.1532978625758146
-0.1263010780154433
0.0008522098133133644
24.20619789948162
-23.65125997209101
-3.521968491148242
-0.07113793774168849
0.07368605062610414
-0.02882456356118288
0.02627645068228285
8.002860175970648
-13.58415388649996
23.7697382625396
-18.18844455210315
-0.2402615930275704
-0.2309511938292274
0.4593184128938601
0.01189437398492201
0.7364469111242873
0.07221998715106273
-0.02064426178651308
-0.7880226364739782
-0.1128149894784874
0.07245122277397681
0.02494572542952286
0.01541804128379925
0.02248156807455569
-0.04307778836574604
0.2359637297576331
-0.1788896028154827
-0.5304401593998607
0.0332810783984122
0.6760486838324657
6.808013999912357
15.0633225068611
-14.13570084323085
-7.735635663536722
1.567897140448277
-7.554245344839582
0.3157189930096206
-0.1445423223673349
0.09885203993024629
-0.2700287105511355
0.006202677527348719
0.08847659907722348
-0.08229526663265241
-0.01238400995987621
0.04006364839975621
0.03066817817057975
-0.07073182656361943
-15.79940593466569
6.971424403805812
15.45691825838479
-6.628936727534243
-0.1056918094682104
-0.0008890673682448369
0.0934330219426092
0.0131478549020325
4.273970224174476
-21.78439096946663
-0.0808381430643068
-0.5332661812456881
0.3610438159533873
0.07087167959685581
-0.04668110053034161
-0.1080329093694451
0.08384233031347424
23.13617756571771
2.758154975890832
-18.85794267315276
-7.036389868458548
-0.07630808654034922
0.07870721016465326
-0.002399123615843548
-1.934204264265609
-1.150595006035418
0.04893273249320095
3.035866537732462
-19.95440690021115
19.66078290749643
0.2936239927036218
-0.1714334502102017
0.04924320147790268
0.09739584066341297
0.02479440807970899
-6.829890540236046
-0.5772898036466335
-13.52401190233794
17.82013248467365
-14.74873239713743
-15.18653256158342
12.11513247397266
0.06276273849307071
0.4308465166408562
-0.062811357453442
-0.4307978976635615
0.09681583559357435
0.02020625207527545
-0.08531304344009838
-0.03170904421472332
-0.1524114823407751
-0.4903554219046261
0.4367721741353349
0.2059947301260648
0.05674464810168334
-0.03111090103129616
0.1196941098399306
-0.1453278569011559
-0.1169115646689557
-0.2308834244128978
0.46349197466945
0.1264449424159164
-0.5815614906288155
0.4833133707661693
-0.02819682251422783
-0.3084326146267028
-0.2449249838015068
0.4162400893881385
0.1371175090573586
10.77339823712476
0.7883487096339968
-5.740458279052186
-5.821288667691299
0.0212556648502307
0.1693291656846315
19.00465448421282
-18.38890777280776
23.11453272280352
-23.73027943421017
-6.078488905696656
-12.15733427730616
1.551178068282753
16.68464511470788
0.1560407882282871
-0.08371584343879621
-0.1013011151281278
0.02897617035243266
0.2969738308230752
-0.01373858810243482
-0.03359138450050268
-0.4592473652031464
0.5379982222955898
-0.04515947257377861
-0.2501920806800963
-13.09478048572238
13.34493510132591
0.1958982602348556
-0.2198949644073844
-0.1536278748587996
0.1776245790508804
-0.05234749327196606