/*--------------------------------*- C++ -*----------------------------------*\
| =========                 |                                                 |
| \\      /  F ield         | OpenFOAM: The Open Source CFD Toolbox           |
|  \\    /   O peration     | Version:  v1906                                 |
|   \\  /    A nd           | Web:      www.OpenFOAM.com                      |
|    \\/     M anipulation  |                                                 |
\*---------------------------------------------------------------------------*/
FoamFile
{
    version     2.0;
    format      ascii;
    class       volVectorField;
    location    "2.2";
    object      U;
}
// * * * * * * * * * * * * * * * * * * * * * * * * * * * * * * * * * * * * * //

dimensions      [0 1 -1 0 0 0 0];


internalField   nonuniform List<vector> 
19632
(
(4.998068040019829 0.02438604564162967 -0.02011720867093723)
(4.998978891754923 0.2357634019324846 -0.004061312604297165)
(4.995731811239353 0.02082001479654007 0.004881606392599306)
(5.056384071854289 0.1463979662502778 -0.258342495409739)
(5.011427396521467 0.02048359379181751 0.08374192812808347)
(4.983918870681962 0.01355390413129565 0.01012426022072261)
(5.212065375593814 0.3811893305184607 -0.176993709167348)
(4.996518203161664 -0.005455666253898674 -0.004246185846192703)
(5.008346948931743 0.04583634852893485 -0.3821360166135714)
(5.035421838196823 0.04475751726825377 0.0017285876171118)
(5.013852949100501 0.0123713809419355 0.0003270945277245704)
(4.962460830028665 -0.02660247502912543 0.07280960604870398)
(5.002555686185943 0.01579155090326888 -0.005028359253004897)
(4.989317659537609 0.02406435534926465 0.002086029685445204)
(5.007992073553167 -0.0160784090026002 0.006491109835772688)
(5.512682695680878 0.3447158870556283 0.03613693917398909)
(4.993773447644923 0.06458795573168853 -0.001594757111967444)
(6.741760811866947 0.3990655770020718 -0.3879942724737372)
(4.998603420567098 0.003519363419800808 -0.003821206440153855)
(4.993842616786515 0.1188411745819366 -0.01385492689973806)
(5.010214273227779 0.009987722956987025 -0.005941439367865243)
(5.21042642443755 0.2720877118936204 -0.2111367849094617)
(4.636574696755407 0.2937017397163022 -0.8948445818711193)
(4.996703708426169 0.002861797224431419 0.004579648083985963)
(5.005387673291677 0.03219955184954056 0.001442706583128117)
(5.001280448629782 0.004868298551992393 -0.006064434913885212)
(4.978968797456631 -0.02908471790582095 -0.02339970625234901)
(5.011637596350344 0.2611760131520298 -0.311950609553196)
(4.963548761523882 0.05177047497868757 0.07024141586054365)
(5.008208601874879 0.01394496586207003 -0.002308078636651017)
(5.000846431265529 -0.01974224583067434 0.02327446335012609)
(4.971685328329171 0.007698356290169673 -0.03398300387937731)
(5.045831826436729 0.0009521675485434637 -0.07551028234906769)
(4.9642176113702 0.4737367624537617 -0.144166947894827)
(4.978504349382771 0.02475717842697297 0.008875052837030224)
(5.004251748580778 0.01187068893382586 0.001732077139657813)
(4.993224444176953 0.02201296531037621 -0.02069429655280301)
(4.9842696623695 0.002082142284443282 0.001922103104937205)
(4.999099090052293 0.01487096423571097 -0.005142504846738756)
(5.004681277231436 0.003463395697341066 -0.0002282264697872444)
(5.003488014067669 0.008604152710859637 -0.008368577389341936)
(4.988736174447678 0.04160614097236397 0.08273270660849967)
(5.006156505372064 -0.01423916916162652 0.007245066961980511)
(11.17620458059219 9.582997340567765 -4.070325604245968)
(5.014871897182645 0.003457577977805274 0.006612480147439551)
(5.003449209479072 0.00518113350433688 0.003885355751616499)
(4.998501556830298 0.009881863670602604 0.00186905069150938)
(5.000002740491936 0.009828730883597078 0.0004950521143202994)
(4.912845767614137 -0.05961000743568681 0.1873318607597832)
(4.817715311696028 0.001917420285577144 0.1753377065714755)
(4.997869762480282 0.06470948558866303 0.03731685572958136)
(4.992518251378489 0.1647052043416476 -0.01693416094240066)
(4.995121115619685 0.01918573569453575 0.01155552942595167)
(4.94738203041379 0.004491081410384144 0.07791585292463443)
(5.023954307672502 0.04894888346370423 0.01755181699022546)
(5.025153436005794 0.2513096880629225 0.03014027560209797)
(4.966175289668317 0.008380610078329714 -0.03774829123393734)
(4.986890049332515 0.1228835531164557 -0.0002747493048802182)
(4.99051997008032 0.02360543606965061 -0.01193772136807489)
(5.017103382782299 -0.01036505059566757 -0.005427411604367792)
(5.001248969960979 0.1137270002103902 0.0002907512801569248)
(4.989172637197676 0.01344074887658885 0.001839566317441807)
(4.816069438639867 0.3453664058298319 0.05497383966254825)
(4.341976482074989 0.3769569928573893 0.03543527502930961)
(4.998308512582062 0.009298101455471499 -0.0003483756412755496)
(5.01860035142411 -0.08856562268441297 -0.5438606759742426)
(5.224124725327609 0.06218681427876554 -0.1205407249700761)
(4.983765526106117 0.1099411161984807 0.0009876990215211038)
(4.989562279456326 0.03033922677448859 -0.0007864445862842768)
(5.004587286451538 0.006215288397130491 0.04168682056721926)
(4.991366688142404 0.01497891269763945 -0.0008418697147747236)
(5.003762948311969 0.01588653495854555 -0.004572403070204003)
(4.99642329784581 0.01845442336974258 0.01282463290000527)
(4.982082541594123 0.08161789679392301 0.03010566589801563)
(4.998318779389583 0.006351398694597435 0.0004119729205736812)
(4.998449604506224 0.007799558549583714 0.001131751322624176)
(4.998223053878197 0.008726731813801935 0.009267791765120766)
(4.128040520111925 6.153305746526105 -0.4793374685281828)
(2.858776719764804 -2.920710655427775 -1.490599984211171)
(5.035432649876538 0.01430260556390106 0.03570349076429281)
(-57.87167876143466 31.71247635672303 -97.6730151379091)
(4.950438696192919 0.391206850010113 0.2292437382106867)
(4.977076528775759 0.02689017982579426 -0.006178045002836831)
(5.004489255770659 0.01840817027949539 -0.006884893471482383)
(5.002536959866329 0.0007813021024096139 -0.008447676989249947)
(5.742547883425986 0.3765914803842603 -0.7045074563382112)
(4.995656606314288 0.00160400936413625 0.001540154343413603)
(4.978786521632802 0.01773514756034227 0.003201489311369397)
(4.938435514542773 0.02416006322115503 -0.02627557456321238)
(4.880414557629612 0.1766149280818299 -0.2650453977510665)
(5.011348617332231 0.02171089190679372 -0.0366026816393603)
(4.995826045461678 0.1087607184087127 -0.02361457977844169)
(4.97077748473833 -0.05038181626118832 -0.09852698552509331)
(5.012273326088862 0.0304441968138248 0.03261477218956915)
(4.983959391920293 0.1612926302232204 0.004168413140968796)
(4.957902239877884 0.009776232354296116 -0.004376208289800923)
(4.988909649093641 -0.0006264373527508718 0.01966680788966556)
(4.997167812593156 0.01551514324770729 0.0005574659965838916)
(5.001655442298575 0.02708444562692416 0.01251082601874813)
(4.997413457365134 0.1004958087211064 -0.004481050298285588)
(4.613030232733675 0.3780717347679311 0.3784062426368933)
(5.005619394305133 0.005061882938988098 -0.006867253628691587)
(4.99241384352775 0.008212228992156245 -0.003346711300146524)
(4.998556969446391 0.007495055387514202 0.01772513730239328)
(5.043321165290813 0.08976280249529031 0.1771332262254134)
(5.041837188457029 0.02428266390178234 -0.04166546953794453)
(5.007011478946516 -0.0687727923578694 -0.01474239159476626)
(5.01205275147952 0.001378905972551315 -0.00928244081809195)
(4.997771846781078 0.02154370887682376 -0.0004532294040074569)
(4.979166462950403 0.1434885557742407 0.001321836366221787)
(4.915462964357584 0.2339800732498665 0.3581594628689976)
(5.008948490284072 -0.03324483037615977 -0.004300684233587771)
(4.956289548430698 0.02143896549141787 -0.002625315680826819)
(5.13032966335077 0.1115783293530491 0.04511576607568781)
(4.992514732865915 0.06745085685025226 -0.01295945658266813)
(5.032890430418101 -0.07716457366878592 -0.0160925670655806)
(5.037860145257237 -0.1382719343121018 -0.624608177352547)
(5.033262321463009 0.2154325790820179 0.01701192037433827)
(4.98712309779675 0.0667942256722401 0.04979692088294011)
(4.995422835297654 0.007966319327387245 0.008945811949915913)
(4.990819867457452 0.0742812176841207 0.006658760277176591)
(4.987326174126826 0.01300278775896452 -0.001575621452855371)
(5.004654295019837 0.01869472777778105 -0.007687015695919864)
(4.996761790164491 0.0120966100472601 0.00111974540364178)
(5.160333435931185 -0.03355539866252194 0.06109686874672143)
(5.028633869166086 0.01170294289026078 -0.03583526953809574)
(4.99117594043944 0.001145301870647965 0.001490768198864788)
(4.990683995575743 0.01936067260755572 -0.006008983342829879)
(4.959968246853176 0.07284834337831245 0.02872500387775141)
(5.006870046598087 -0.01713465414467195 -0.01647788855271538)
(5.033406339806572 0.00110342122949335 -0.000917985734922648)
(5.001110433961848 0.00337752757581966 0.017545063736375)
(5.035666433966765 -0.01123852567805192 -0.01095920490751309)
(4.996131122211851 0.01274068980259253 0.001927375327731423)
(5.137175262241005 0.04361138012284168 0.09310814780859963)
(5.015470092168184 0.001005142622199908 -0.009058649305547013)
(4.98400841157375 0.008279522055248728 -0.003390943683970137)
(4.939935018038939 -0.01593495246172442 0.007411031276835326)
(4.994820069678659 0.01298913003043078 -0.006796597718582453)
(4.979558176685103 0.007977264916282759 -0.01477112896601395)
(4.388296325485242 -0.181732402922915 0.3810588408476899)
(4.802489861992123 0.7589475706743523 0.1144471889987432)
(5.30467465509196 0.3497870737387309 0.05664518854712828)
(4.07653793772243 0.4309109038407601 0.09561075292305359)
(2.8792547137739 -1.124142620121646 -0.5680010593975667)
(4.995782306845085 0.008607681134413786 0.001309303221961589)
(5.145453389494783 -0.009671791370197897 -0.03251450335765993)
(-0.8615174029222941 3.956071315857922 -2.141660208902621)
(4.995731673254166 0.02174526426940094 -0.004427399856407338)
(5.001313538620975 0.00513885504364362 -0.002951678065146835)
(4.856057886728199 0.09995487292306408 0.04869604452545664)
(4.85684426386529 0.1668481862748936 0.04795714572173837)
(4.9326758158306 0.1125099043452423 -0.02540789923776422)
(4.997528150387884 0.002667546953468976 0.004967857360179183)
(5.367937682029453 -0.002835234729963284 -0.106194794814583)
(4.887695686562543 0.04035524257232603 -0.01960677994354146)
(4.996520893999143 0.009184489589243658 0.002900084457372683)
(4.970120631374916 0.1442120916263702 0.0009983099390463595)
(5.009201087507758 -0.009898696280693581 -0.006364700813029572)
(4.973251908917304 0.09642355520885451 -0.3704685377727893)
(4.937754280144379 0.3443080457004898 0.2136449588158455)
(4.924584847806361 0.1540748951844545 0.1951416655441793)
(4.806584595643222 0.8814072147989668 0.2928610237161122)
(5.183979580157145 0.2613347493969348 0.01448710223758807)
(4.924610923463637 0.05809656538451945 -0.07468237712874994)
(4.964372277552243 -0.0393301214579108 -0.06029136609337332)
(4.974025098423487 -0.04821746769013044 -0.03956144570953395)
(4.982712124757416 -0.006566164243986967 -0.2993023360308517)
(5.126808434869462 0.2720726193471869 -0.0525420400449173)
(4.97515615699388 0.01280797122994343 0.005697823093675058)
(5.007574144515926 0.009700588068016569 0.02826595194278131)
(4.99220611858164 0.0122507112273862 -0.001633830621859492)
(6.262133109430961 2.466248182086192 2.05311206000105)
(5.00682796723153 0.009247026172299623 -0.004916765802795592)
(5.011890585749946 0.005414439512068522 -0.003108507356995985)
(1.411293787233616 -0.2596585960436509 -0.204170351604836)
(4.995077654576938 0.01174952107573332 -0.007837831367053356)
(4.997613241155671 0.01625044145019873 -0.001206120179302692)
(4.996497007509674 0.01056058733419197 -0.01129688593271595)
(4.993596333259961 0.01088011901887861 -0.01004465432910994)
(5.004911646442401 0.004382319268021038 -0.004588401914115321)
(4.99558845652592 0.007566016127885763 -0.005596123600289412)
(4.995705975051907 0.009410171606473599 -0.004390139593109339)
(5.011189519798771 0.002777913074574067 0.09043402130793445)
(4.973999381888764 0.1320705084084524 -0.001482616115032353)
(4.995962075901708 0.006854785976678188 0.005452902543608432)
(5.292442381429702 0.04677418002065694 -0.04320085928033295)
(4.996672465188762 0.005717465332423212 -0.0009898193622088934)
(5.006978583141612 0.004405945628424544 -0.007522262077721819)
(4.993520020625424 0.007966431916225631 -0.004681790087969163)
(5.005975070556573 0.005197787251153114 0.009252678918035216)
(5.005663627737531 0.01433231016000249 -0.008005923617556809)
(5.014465817778984 -0.00900464760606374 -0.01100414337671627)
(5.011695007821332 0.02087412911831762 -0.6871266239440166)
(4.99022934499335 -0.005270948085234863 -0.008130874157396325)
(4.994914706887515 0.01916148051361504 0.003623691752467138)
(4.989024065702869 0.01618689418201364 -0.0004561472858412566)
(4.943973588242763 -0.03721681504569331 0.1284534683907181)
(4.956886422013929 0.08532098442107165 -0.009974925830005506)
(4.80990563074863 -0.194705379066889 0.4153242508134173)
(4.996861697602558 0.1707721418525758 -0.007536747333495719)
(4.994837854895813 0.01251599245850655 0.001389415348479031)
(4.999965507020939 0.004675180187103374 -0.004552394777892837)
(4.941005946380203 0.08096545874264238 -0.009098397659124288)
(4.841578289155795 -0.2185443887342385 0.1329364387248732)
(4.922893810175165 0.1611146872702632 -0.5594254626070967)
(4.9981697043603 0.008797233873395087 -0.003966382163064947)
(4.971200474406123 0.07189669113121934 0.0008406586232010915)
(4.967108216053438 -0.01900010412013032 0.01735986345385821)
(5.001166339683732 0.01250281566223678 -0.003339025283078584)
(4.966474177221104 -0.007783377922288945 -0.03033142133034014)
(4.997468773218808 0.008751847236675853 0.001447579227303713)
(4.994662983508689 0.004357686734935431 0.004772111994594852)
(4.944818014304274 0.004963298064930777 -0.04488019835682164)
(5.005522850436663 -0.03197278224672477 -0.2653945274145484)
(5.006482386484689 0.005718648061963626 -0.01833398226941515)
(4.971235266896888 0.0160800303378756 -0.009090339411147142)
(5.000359054256224 -0.002911437381710729 0.001079211935198632)
(4.970137079242029 -0.006446404256655224 -0.03787944605698782)
(5.002784471343507 0.04759282250321843 0.04392434085518568)
(5.137447269850073 -0.008157955839189844 0.0600092580600557)
(5.039762006006007 0.0006417530342846822 0.03596238114009459)
(4.999707361218729 0.01374917005050974 -0.00709106770975761)
(4.998452491754079 0.01110025745218361 0.004036102950201422)
(5.850701377125128 -0.1527293629028535 -0.1979761834922322)
(5.010947981034392 0.004750433428790993 -0.001832824680323041)
(4.991149352770573 -0.001794008215144785 -0.01811444823869541)
(5.004562391560506 0.05900505559832989 0.002068522458320654)
(4.989537372291144 0.02197683987893907 -0.005601088634860332)
(4.979275925693694 0.02139804487902816 -0.006127314256213154)
(4.997103698654279 -0.01882560217334814 0.006861900006722032)
(4.984219058677662 0.01961654523768873 -0.003834839448679725)
(4.997334232385061 0.003635804559565922 0.09188870470816492)
(4.982275344246901 0.01631382692783353 -0.002285874988678919)
(4.987884020283529 0.009938806219267531 0.01690364636370179)
(5.00697142365383 0.004890176890781792 -0.006130628204753769)
(5.002623382820585 0.009422406817675692 3.06685324016226e-05)
(4.030260714821723 -0.02072774937224289 0.2859717177800814)
(5.003419265154995 0.00216358310261113 -0.0039236334121668)
(5.011243047625635 0.004052078531096759 -0.009231530126896091)
(5.005686649456296 0.003476911547375053 -0.003746318477769466)
(25.14695202889437 -43.12887615634789 17.01578510544674)
(5.005969769170658 0.008118138912975052 -0.003658253418993805)
(4.886044379236611 -0.0541891223151415 0.06407035500494149)
(4.998565818538816 0.01435411128005141 -0.001663685256214114)
(5.015751472275714 0.03069152329122832 -0.01409938846712545)
(4.999178911747049 0.1840682190707909 0.01713532305420978)
(5.001903129266056 0.008922119354611791 0.008029966403093418)
(4.996355310431902 0.006430412972740958 0.002264601514673943)
(5.005040278805517 0.006851920751811242 0.01231394554863077)
(4.997341937820595 0.009927463548008357 0.0008776605307042441)
(5.004560939165113 0.008156716413069408 -0.002511977966522628)
(5.049076994387412 -0.00249962528959225 0.008400131334087162)
(4.994242774499688 0.01080047960711278 0.0007735977414119104)
(4.90659701223306 -0.0605076605557108 -0.01934061210033316)
(5.933627606018825 0.1231103519616692 -0.2955916925811472)
(4.995234538237868 0.01237014652183891 0.00340139126719035)
(4.997672957583431 0.05130170926701361 0.03974737048840159)
(5.020916407702036 -0.002251706508408279 -0.01453516442104589)
(4.749122140939837 0.5526761039053834 -0.01134909060341043)
(4.952883221271684 -0.03256241005124891 -0.03037194849958621)
(4.959242615877081 0.04946410629018436 -0.002671942564598635)
(4.996713611135211 -0.0280244312758134 0.01012927194925571)
(4.992924781294431 0.0191271760403737 -0.003574392646512043)
(4.971571164867727 0.08799168363308588 -0.3262059875746765)
(4.993743162734454 0.01721131705949944 -0.002430258269121641)
(4.990209655797902 0.02038175465081887 -0.0001401932296190889)
(4.997561992183285 0.1207447586475117 -0.05484687275757247)
(4.993421770836346 0.01805686816344815 -0.003930939035574931)
(4.997503026968543 0.006857326792453509 0.001371507774476706)
(4.990564611223365 0.0175643323644667 -0.00484726667372159)
(4.997042477020962 0.004778205376872928 -0.000890669164170512)
(5.022533953287126 0.01305549844207524 0.04093225561866874)
(4.99701122746772 0.007742751874070383 0.002139313123126469)
(4.967070251341155 0.02167180161266764 -0.01124858549205622)
(5.001618997467772 0.07275240242796976 0.00279044867782967)
(4.973452683415688 0.01612402287622694 -0.01259606273755908)
(4.950171261561708 -0.006657578002725143 -0.009328121734989198)
(4.996599826114405 0.0094894951043229 0.005247566568322014)
(5.941168522972673 -0.00509652291497964 -1.243126013154626)
(4.987995225552831 -0.01401907735369205 -0.02056788986665957)
(4.99049289599622 -0.005931787875156503 0.3163257507944236)
(5.016511790438224 0.02971519909366941 -0.004285412009047247)
(5.000111167552076 0.02241042884016253 -0.0004027516280917245)
(4.621309026655624 1.558347211072911 0.5842301353934727)
(4.857501887531356 0.1853571635092453 0.8597324430719044)
(4.948447461313607 0.0631590125547202 -0.0167603117237533)
(5.059134193809002 0.2028868364514819 -0.7578613388589023)
(4.801368284409034 0.3041712631006993 0.3426511109573956)
(4.997062070087686 0.006085106350123008 -0.001183168543811803)
(4.995399493995744 0.01208324437938158 -0.0009013627836310772)
(4.9808444561864 0.06951916333137584 -0.04819398501170236)
(5.000634059191612 0.02089664989242577 0.03568235284303543)
(5.004009807444695 0.01238042700951177 -0.004676007458166986)
(4.992407092947688 0.001839893817367405 -0.01608103146753626)
(4.997732649196766 0.00434595208851251 -0.08079025293861294)
(5.010912184330441 0.03281399144992224 0.01663758116991843)
(5.782085347896517 0.2649872254409528 0.6455841686262396)
(5.00847869101077 0.007631596749355028 -0.003715480250386682)
(5.069928907870549 0.003561573559391593 0.1443333986368938)
(5.022200487711125 -0.02100142696146888 -0.01635371156869905)
(4.964076351512997 0.05645281114498716 0.0986964345437831)
(4.999185099061832 0.00505888071216338 0.005609240131339882)
(4.999517790070731 0.01143435197075299 -0.004633982764561743)
(5.008703579179175 0.304317320416304 -0.2807900980547091)
(5.006877940306909 0.01203303654048406 0.05517251238291443)
(4.992768996475755 0.02266110923316654 -0.006200777315988344)
(4.996525138633271 0.00791792647080458 0.001883324227916329)
(5.004708861615835 0.007286710105327172 -0.001085787091050755)
(4.995383685853956 0.005490867890927522 0.002399856244703746)
(4.397586202900875 0.08741935742266363 -0.3607367597595031)
(4.003593434497038 0.2063208600200891 -0.2610619064331005)
(5.068432149642994 0.01486902081068167 0.05407222543977027)
(4.968437150905908 0.02084866994934859 -0.02965660681493415)
(5.053785112950022 0.2777784068416428 -0.1796751412263528)
(3.990083533281687 -0.1135020042050527 -0.1739929166501373)
(4.037862472166476 0.1381034456499287 -0.08021500296236918)
(5.005619716804635 0.009743930210087688 -0.002167860111243316)
(5.221732523774172 -0.02612666045515157 0.7980119575302179)
(4.808101817431721 -0.1162610557203928 0.4478241029726563)
(5.010661937243377 0.006625916955997405 -0.009195574518168541)
(5.001000430624155 0.05935655799624122 -0.06839184529706652)
(22.74564638344088 -20.4899014743537 1.134900100645664)
(3.154245181270197 0.5743504631209926 -0.7860800821118085)
(5.001162326232608 0.01095885309208065 -0.001620308590954355)
(4.971069858038642 0.01294677833455278 -0.01731250104197326)
(5.001304090279441 0.01939850656194134 -0.02639815915687208)
(4.853309736855554 0.6081700761899236 -0.354678620504624)
(4.799795146555967 0.3667949692592359 0.03709187164666043)
(5.065680606439421 -0.03214004651821564 0.01205505668858229)
(4.977072178629567 0.02236329486074002 0.00879851385723043)
(4.99659775875994 0.007141832352074191 0.0003117057058299158)
(4.996389906594764 -0.004856501126868572 0.005742362796130321)
(4.959692490890935 0.00509327108620719 -0.0351969106832655)
(4.995325037167673 -0.00040419444576068 0.1063791940387096)
(5.134188483991711 0.4960150489182925 0.03529467893266222)
(4.95751397296452 0.01141507829252182 0.05816308711878062)
(5.134617694879617 0.04561917104814486 -0.3683339628471803)
(5.222160511031602 0.0002610864380028668 0.003035954526513964)
(3.855649957425653 0.7166644493697568 -0.550840609953253)
(5.00329150278875 0.03693293418469703 0.01834833045213553)
(2.857487552939791 0.4941723256410949 0.09980870736157819)
(4.292511393528341 0.1903463726225552 0.4032007455251618)
(4.987711143246482 0.007840119469039104 -0.003060960906799907)
(4.297807110687365 0.01594041252375956 -0.08479251958106396)
(4.986704070312816 0.01440967583936172 -0.0007261285935868992)
(4.912117756095344 0.2491070604413069 0.297164590640319)
(4.985069821423092 -0.002957939400546975 0.0169000647598497)
(31.8309773760996 24.42815910475198 14.37309680223559)
(3.337892559617365 0.4433746601416289 0.05578474730977797)
(5.010177003240931 0.0877426714715062 -0.05595730367324141)
(5.002677988022657 0.01305734715107711 0.003515227720497692)
(4.850187688993308 0.1476423203883588 0.6784896396014707)
(4.097090927590254 -0.5203783756811274 0.1388316789005709)
(5.005639041564121 0.01160017548889951 0.02644158561580367)
(5.000289589644836 0.005167999303545905 -0.002545391056781567)
(4.998735786135462 0.01234165359930194 -0.007832077904890818)
(5.006083399046199 0.01720621483597817 -0.004706770314448966)
(4.987474221745415 0.01729863775698371 -0.006322090689436873)
(4.995904052349075 0.04794647048525441 -0.1640138083704244)
(5.010676534140925 0.08041085687752045 0.000670834826859087)
(4.995559613500395 0.003524214476553779 -0.008887638156927127)
(5.009599122169596 -0.01096047832418114 -0.0139475975608722)
(4.987619233975689 0.02262633846905675 -0.006491728477100481)
(4.756677964539493 -0.05527804164373732 -0.04822577947340172)
(-0.4190694156285356 0.551800960915641 -1.297283750264701)
(4.989488929983818 0.0560282700311564 0.00207660436146066)
(5.010536716653085 -0.006902587607315949 -0.003479228440609841)
(5.016698719159186 -0.001563005156324089 0.03696578227572453)
(7.901569502812611 -0.4515398493841437 7.653390096856338)
(4.992404637745428 0.009432631402165289 -0.002754611761145745)
(5.007007225292818 0.04699084257388475 -0.2437841516578406)
(6.713591647570661 -1.408431745858866 -0.6926706144917424)
(4.986762747156783 0.05217842608391367 0.01760889740921745)
(4.986481639504274 0.05246646300602476 0.01805318905714624)
(4.989913824404893 0.01139845646536124 -0.004233916612853759)
(4.30457715886596 0.7089365133667679 -0.01114268840591408)
(4.995980191039507 0.007404552165579607 0.003987579034355705)
(4.992044817709788 0.01172599941130852 0.0009113598172590756)
(4.994361868302761 0.04944789419963116 0.01845501572622653)
(5.078829687438292 0.2842791294935333 0.1820843769215443)
(4.999138558010948 0.01460226362517746 0.0001064112767134821)
(4.996036698543223 0.04525155497612879 -0.0111454212218994)
(5.000110352842905 0.008821924651618625 -0.003937181237185948)
(5.014457979877093 0.01565258794224856 -0.006498208383340996)
(4.998502309115665 0.01467885488077887 0.002725546892103762)
(4.99935539347023 0.00769533578270994 -0.002974636806508029)
(4.962294089944173 0.08378015764434996 0.002912907012439604)
(5.015149083090985 0.004400514665220693 -0.01639039301560492)
(4.99801302915271 0.01298266774914788 -0.001264115162468153)
(4.996365905250991 0.01281544153098056 -0.001289396611283277)
(4.987438184841504 0.04046106288309496 -0.01210775917241342)
(5.000153762428859 0.02676709419627708 -0.009907149350668018)
(5.000053278587524 0.008804003652524083 -0.000530525961466301)
(5.005437639300759 0.02317205408453502 0.001356905579953346)
(5.000529083385053 0.02684330421449253 -0.0004499349617818306)
(5.00083816057534 0.02785013797534923 0.002289476940693086)
(5.001351289490552 0.03415199208934856 0.007826737178547248)
(4.998759997306322 0.00658742208027345 0.0038488628110018)
(4.997175323736191 0.01278062312606811 -0.001051633807477364)
(4.991660804312773 0.03179089617322157 -0.009507875110248254)
(5.002048392792528 0.02854428267967958 -0.004769713633440387)
(5.065690305426809 0.04402269910414384 0.05565371365182569)
(4.990886812362239 0.01921202003037458 -0.007714792093422672)
(4.99281070463818 0.01281108965204899 -0.0009260783262367992)
(4.990137290679604 0.01159299098552556 -0.001276859677244395)
(4.997671148827658 0.0130508840732677 -0.0005190927485256389)
(5.098188661601979 0.1874752851898807 0.4051172604333501)
(24.60606807914718 -3.486321177508157 -12.76647166215987)
(4.999874421078075 -0.007444555377720785 -0.2128434809617208)
(5.017724456282996 0.01842819594288468 -0.01810629385535606)
(5.000623952725522 0.01728844002435259 0.0002724111665689019)
(5.05668610526685 -0.04034105391759509 -0.01047152402370127)
(4.995864716307617 0.02210243593647278 -0.00376014891785575)
(5.007298377453972 0.1191084466599942 0.01252938343936416)
(5.00201235898006 0.04107883310000249 -0.02193883659024362)
(5.01035873613457 0.05298910615675313 0.0005679129572506797)
(5.078096523324088 0.1317810069042509 0.01295201221242296)
(4.99862196718342 0.04392263210098593 0.0009070149944362361)
(4.889200822519114 0.256616131961478 -0.04604563397794353)
(5.004969555870725 0.03366509591582158 0.0002378835167648106)
(4.997775643818414 0.03864204002385125 -0.01045164701738648)
(4.99685644163615 0.009448642082346918 0.002812205502976088)
(5.06228794226559 -1.372786546059682 1.858269587975222)
(5.039286742440985 -0.02450463605077171 0.0126993606578555)
(4.995871070782158 0.0002287288301190641 0.01226820601332829)
(5.004556884433728 0.01415905463828054 -0.001627339683164189)
(5.005250788086589 0.007553484934756174 -0.006559516103194698)
(5.025333473086331 0.063759211058717 -0.0217062723863744)
(5.06466028889173 -0.023983054528186 0.03634179398231468)
(5.002757637554303 0.01337029176077434 0.001562530836104277)
(5.001659649126507 0.01165627824955227 -0.002254999714174789)
(5.00243188113149 0.01109955999492968 0.001375974769211194)
(5.004057948036135 0.01095395827728088 0.0009609284809175162)
(5.000616999176859 0.01396394524825965 -0.0007970193619746183)
(5.000759506641658 0.01252289339973072 -0.001857808207363673)
(5.003627955040765 0.0135867894909982 0.00239464619697859)
(5.007058876469093 0.01640714702749536 -0.003019829693846595)
(5.002784127146716 0.01686361621058514 -0.009830730485588808)
(5.002937573561999 0.01858981212477301 -0.001017299630660507)
(4.998139196621308 0.0740717505610447 -0.05236474198071159)
(4.9589103724223 -0.07457178390618328 0.1729334466518659)
(4.97585946296709 0.06561679119365836 -0.003046236134573836)
(5.025516636289524 0.05229550254861891 -0.1306694675965146)
(5.029757579640642 0.09532887493454437 0.1312964598904125)
(4.970216411512141 0.074816448200989 -0.01338378331678155)
(5.006076335227184 0.008219888576616744 -0.004406856987498586)
(4.967614959239626 0.08466299202919655 0.004853948213295745)
(4.992212379741335 0.03571383133866473 -0.007362837991820343)
(4.991347634924383 0.0255575985517011 -0.0104472001955006)
(4.952740768412819 0.1047609107692586 -0.02481479880159625)
(5.006531548918628 0.04401158279811768 2.897955762140873e-05)
(4.9976685865875 0.01407490437891396 0.004456627826456721)
(4.999339724749827 0.04818781449920164 -0.001868691949811422)
(4.993641604429492 0.01932646253474269 -0.008344461589266947)
(4.985852266463016 0.02405565532558722 -0.006628953473807254)
(4.991548154700513 0.00879617647609649 0.00352878916151215)
(4.974544165220675 0.02265872660190302 0.01105672748585965)
(4.976787886955161 0.03236594601719938 0.01481509634515446)
(4.993140021366261 0.001500403166132321 -0.01089193950710688)
(4.980446322619763 0.002622625574785784 -0.2092016043147474)
(4.990085750676642 0.01134254015643631 -0.004371887190348572)
(4.953463745501669 0.05358417446455576 -0.02826162588665319)
(4.976543761481525 0.02567791741136766 0.01141653286351136)
(4.984527329799855 0.01602470965062372 0.009744597550145869)
(4.990633542324177 0.01239144199498451 0.006851702730468902)
(4.985946551143075 0.01385529926741964 0.007123799070605706)
(5.005310106889336 0.03667266117207729 -0.008090253914107406)
(4.999473358213531 0.01636407106423254 -0.01803655868111378)
(5.005270709370613 0.04313171868270033 0.0004957701404746024)
(5.0004106570836 0.008978824845936014 6.929660794300355e-06)
(4.906341148043997 -0.0411509924368178 -0.06263353824753573)
(4.989404206450747 0.0187249894568847 -1.752570772945231e-05)
(4.992985429697613 0.03682743889539902 -0.01211862762770542)
(4.985419670686123 0.01799945773275918 -0.005195436317248324)
(4.729998770533396 0.009428018292482007 -0.2309836066619695)
(3.932034483170563 0.4406646348373379 0.2158684105367919)
(4.998890705286778 0.0128875444754425 -0.005577122197938881)
(5.27331847809161 -0.3223389975042819 -0.6992351232954568)