/*--------------------------------*- C++ -*----------------------------------*\
| =========                 |                                                 |
| \\      /  F ield         | OpenFOAM: The Open Source CFD Toolbox           |
|  \\    /   O peration     | Version:  v1906                                 |
|   \\  /    A nd           | Web:      www.OpenFOAM.com                      |
|    \\/     M anipulation  |                                                 |
\*---------------------------------------------------------------------------*/
FoamFile
{
    version     2.0;
    format      ascii;
    class       volScalarField;
    location    "0.9";
    object      p;
}
// * * * * * * * * * * * * * * * * * * * * * * * * * * * * * * * * * * * * * //

dimensions      [0 2 -2 0 0 0 0];


internalField   nonuniform List<scalar> 
19632
(
-0.1008140568489414
-0.02486427037728725
0.001973122404646599
-0.3915125950651168
-0.01300208912331981
-0.005405919770281094
-0.03409422527789343
-0.001717334862873288
-0.04492021915726065
-1.554603369211029
1.578076265939629
0.05599546792528264
-0.01867822624584483
-0.01441193128347898
0.004821666399498662
-0.01136210103848085
-0.02614636081470461
-0.0006353997355542548
-0.01188722169788803
-0.01937947766727494
0.3607907548233153
-0.9757674667124602
-0.1001644287401457
-0.01592288396591814
-0.0161212363736981
-0.01164750748117088
-0.01445809276448353
-0.8549802082591398
0.01259124048582289
-0.01941212529919326
-0.007829384082521334
-0.01404673956575478
-0.1003586575951666
-0.4316424500490739
0.01255407100676404
-0.01875445195015166
-0.02183360331068439
-0.01081777155905716
-0.006783930288416189
-0.5489931724466622
-0.01191268474395959
-0.04218477921841956
-0.01661115420186253
-0.03676788581213293
-0.008371218735859751
-0.002981625210174646
-0.004624782715495558
-0.006751415959173647
-0.01581373276622489
-0.04983125836221521
-0.02581220888190159
-0.0451276863692406
-0.006129075364084036
0.08612241018119952
0.00429865824373328
-0.04138767268520256
0.02426858387843863
-0.02924070590662303
-0.009988143647656392
-1.588205577024232
-0.01149781001351672
-0.01345983203166437
-0.6755808398308707
-1.222403104569086
-0.004698105282092312
-1.186100032315562
-0.9619633429556536
-0.01107798871721825
0.008726262588904703
-0.0502448477080648
-0.08101546591883546
-0.007274796035262477
-0.006034529680546331
-0.006796858609339864
-0.005906418071940693
-0.01215130092537055
-0.001941322827859327
-0.08732123921848525
0.03810483146189567
-0.4970821319009642
0.1888864632939947
0.4566635227754156
-0.01557780330421408
-0.01697527752791657
-0.01221222435403435
0.04694459812383517
-0.01046464411670061
-0.0102198021045166
0.03960515915280227
0.0946602092068838
-0.02182860728177657
-0.01460354841614092
-0.03174868836936466
-0.245475894307203
-0.0132717036046484
0.009932400506031447
-0.03309186881117213
-0.01432668541708983
-0.005307449656474214
-0.01246859557655739
0.5167970361401588
-0.01305825797521066
-0.2491249591447176
-0.005169761633743298
0.1793602149307191
0.0897698071144777
0.3689293265080925
0.442008806078676
-0.004512298809831069
-0.02785798854061143
0.1763635758383826
-0.01607167414514953
0.02117397094308799
-1.067224572105594
-0.0246821249028267
-0.8757939439877431
-1.534713741341478
0.1424682119385198
-0.02986208511796452
-0.003125010177156265
-0.02138239105384239
-0.01482776534235526
-0.01654947141399625
-0.004805197021280112
-0.7629537154150065
0.0426849861462264
-0.01014950186800035
-0.05097830629753759
-0.001412955458636967
-0.00675730593206791
-0.02184841104885103
-0.01602835764665777
-0.02618144627351808
-0.001975680991472283
-0.02938674754863943
-0.03193851155367438
-0.0657569595199636
0.0814456755110862
-0.01548480859243643
-0.05280300718572515
-2.420765915919774
-3.43768139131055
-1.086530525563083
-1.250459812346683
-2.347256323075055
-0.001907279869072459
-0.008091533044392033
-0.001285622219894019
-0.09116825582773141
-0.01126837646679639
-0.03743878272976033
-0.03880190206052867
-0.03147032534728385
-0.02147756944673579
0.01290351059160173
-0.03400112908389877
0.0008860709116247003
-0.01568407381269224
-0.07457717825874195
-1.344659856228288
-2.087680032944906
-1.468843486704597
-2.858880265147517
-0.7349866416321348
-0.02369106021690607
-0.01337238582765291
-0.01566742345616286
0.1024353256653511
-0.5786832496300917
0.03920260692347097
-0.01736039547936531
-0.004616037244944532
-0.01170555578018914
-0.01686732795818745
-0.01868513964010455
-0.05425158824980314
-0.01181794709100309
-0.0402437576300707
-0.0110332823215375
-0.01105513718221609
-0.007150156883064496
-0.01084181014014095
-0.01063631506968252
-0.0229297359215793
-0.01525988560486466
-0.005391533088928778
-0.003241668150252302
-0.01353719619341847
-0.01255853933732145
-0.009684373180200923
0.001439229662159851
0.09274837235660541
-0.01135322601475135
-0.05825063413202949
-0.009380804943213255
0.005127560939120306
-0.05907447627156905
0.4240270667560981
-0.03141415011375343
0.1152996516384136
-0.02054616521220722
0.05830353773251675
-0.007006593047697734
-0.04335385795563265
-0.01320479628955484
-0.05603422304548439
-0.01166957253053088
-0.04440396998962792
-0.009843966887609502
-0.01017154759819681
-0.0125011291500081
0.001695600691820208
-0.005729392538960725
0.04906069458981285
-0.02437156361290222
-0.01152839616924875
-0.01771575148228359
-0.01313041464131252
-0.004955347875058119
-0.02308855498355604
-0.00694425506432015
-0.01279503826219999
-0.01651141718889059
-0.004530730969816799
0.001069420986013535
-0.009789646698172057
-0.0106949988167266
-0.0299294675921243
-0.008721614987656921
-0.01526643688185145
-0.00958810953339014
-0.008494257110906527
-0.009329227157581476
-0.01206594432402474
-0.01841162555828484
-0.004751215686752711
-0.01348016811070014
-0.0288746514154379
-0.0512580254177671
-0.02301226794716816
-0.01720325330725386
0.1134714509063271
-0.2457114290844357
-0.005277864458830678
-0.009263925431954607
-0.001318994296399108
-0.01993344717364922
-0.2676512466585115
-0.005740928930473649
-0.002407751260420748
-0.001201770870172633
-0.01315678066995194
-0.01395823423452229
0.02335482542239343
-0.02644610612447117
-0.01014835112756499
-0.003536293202712424
-0.1318721907989327
0.0007472112599277962
-0.03610918895132801
-0.007849497848190634
-0.00706764265459487
-0.008817644241016222
-0.01120533854850574
-0.0392974901566704
-0.01026449994557707
-0.01322000397609835
0.02204541764749342
-0.01490268522540299
-0.012925452696528
-0.0115311532831226
-0.007136208752794621
-0.0239844275953128
-0.007716658710220869
0.0003682658794972777
-0.02324600937415015
-0.03461244492208591
0.05278915007511324
-0.002389059644624361
0.1249734416694834
-0.009989198969590017
0.03577939801336656
-0.03006241288255892
-0.008777421264203203
0.4240783648711811
-0.006336086400513296
-0.01022028769332924
-0.06255891433861262
-0.03649625444255043
-0.03169532054143579
-0.006596168966297571
-0.02318129437661956
-0.01885008132356976
-0.009772877183548242
-0.00955057723980909
-0.01197831169854423
-0.01084029118421375
-0.01542635025200697
-0.006810228963933757
-0.01412872696330047
0.03814008182093558
-0.01320421348488176
-0.01499099730701675
-0.01258395345580072
-0.8028907441816593
-0.05157367102252467
-0.01994004934869649
-0.006386159048849336
-0.007538710271066842
-0.005159283979733877
-0.7123342441540628
-0.5890520520262634
20.89861412251752
-0.01736619774099193
-0.8826513545487331
-1.351069083163194
-1.036554233564038
-0.001636166823679197
-1.417047815645514
-3.618507667201317
-0.006630588936306012
-0.009668279346328789
0.0459096292146358
-0.2251462299448962
-0.01396462488583669
-0.009094880129953319
-0.009800182963659964
-0.2978187614044406
-1.232481737922421
-0.01312320361179883
0.02515981385141428
-0.005969853504900958
-0.006454738035127701
-0.01423341403842239
-0.01881125931971762
0.01912583977398725
-0.04128733287105269
-2.074260433587729
-0.0144202601048874
-3.362273423187411
-0.02782804249056241
-0.1918548930610533
-0.417003119629729
-0.04435939828035009
-1.236438921788187
-0.007262862637710752
-0.07599702523534987
0.01345511740497651
0.1259506905495236
-1.260276237315541
-0.03138358548653891
-0.01702631945814776
0.01780405619662784
-0.844996947512297
-0.01739544161527511
-0.01191203331675962
-0.008151894822452968
-0.005149086557045153
-0.0171107607007701
-0.038011097167845
-0.4864305824207806
-0.00715834097873012
-0.004022307211734538
-0.009986178932484305
-0.02459151008250223
-0.09846078476171072
-0.02669386377589995
0.06001419750131877
-0.01979109892349175
-0.03929916637640591
0.08869963212463322
-0.02770831833895395
-0.01015544494055863
-0.0257124884836763
-0.02630954734756377
-0.04553989343834785
-2.042617499498849
-0.005851582469431869
-0.004376702352065229
-0.02780454720129305
-0.003818119196923674
-0.01276214608707563
-0.0164461545069235
-0.01157023933613374
0.1180126736575201
-0.01224570817990707
-0.01105547011640904
-0.02821707115267304
0.03230880569778694
-0.01317074650451555
-0.01033781028548134
-0.03604203869829697
-0.02555807342545206
-0.01370475940655116
-0.02015285786642994
-0.02053402055014789
-0.0220782067974385
-0.02246193487054943
-0.001565744869102531
-0.01929463593801637
-0.0116379598047804
-0.01493473109350249
-0.01933349018194198
-0.012026424025977
-0.01258442710164841
-0.003517109816552007
-0.002072985063078129
-0.01360175835993288
-0.3013023979163262
-0.015337448200017
-0.07632482599305739
-0.008010855360861142
-0.4473683599068172
-0.006060842148507708
-0.03374855313652102
-0.02719324196909101
-0.02469330099328686
0.00286993659179519
-0.02979620059878916
-0.02631349495128443
-0.02206755511581402
-0.02212869637398542
-0.005497140899854588
-0.01314195983952244
-0.01934677703102855
-0.01051523306443738
-0.01591749985793082
-0.01230887456574941
-0.008289422534905218
-0.3031862969317775
-0.01614045879677281
-0.01649917036838511
-0.01885370712943888
-0.01654248201802326
-0.006986002610524585
-0.005504685576212761
-0.01697694406232346
-0.01909319734313967
-0.01883763261818809
-0.01882811513021183
-0.03048296531164307
0.08915780932313179
-0.03277126398726229
-0.009808739707241994
-0.02305983664113977
-0.02649479548360376
-0.01826083105588856
-0.02495204924696083
-0.01912145599312863
-0.01989442124299396
-0.02756310610517058
-0.02395905612922772
-0.003508832092557299
-0.02537970449634366
-0.02031987453665611
-0.01476894616185755
-0.005110851494885141
0.03279193932115954
0.03980852015987998
0.0723808839972757
-0.02725761073086183
-0.007449327330909554
-0.02766323428528412
0.04139276302069263
0.03056144101591647
0.01462785997995436
0.01642784787243014
-0.1998819251638063
-0.008802746941479788
-0.012964374502681
-0.006576110127417616
-0.2007988336520647
-0.106235628768279
-0.01423317141029625
-0.01856309077205805
-0.02486725593851584
-0.5648127257850798
-0.01278277438666725
0.05427225206182703
-0.01398785875150252
-0.01523118434677729
-0.03197012371325474
-0.007367151765513409
0.06148297517801337
0.0762215995365778
-0.03073942030866482
0.03965704117977659
0.5429202242282611
-0.008461652604826337
0.04066108133647729
-0.01548761078767821
-0.007958384410173882
-0.1487756569247742
0.04079860919310867
0.04152618435171098
-0.001274603570832728
-0.01390727467261513
0.005047745789166922
-0.01479312994427005
2.952513424481326
0.0001073031193808486
0.004008930499992899
0.00616087478330904
-0.01960992817905357
0.008185353103060051
0.005000571103852048
0.004691290442773591
0.002121645023332996
0.0106237732441583
-0.03696342362846539
0.005145088949803735
-0.2116789337290184
-0.01528219538338644
-0.1405609114521933
-0.02311327928025893
-0.008123176704842671
-0.007710131996747764
2.765001425647361
0.04497991706110982
-3.223121104902996
0.00061093058051226
0.005660255504872951
0.002558432724072327
-0.9271635865565383
0.04647431894043738
0.03558663674719181
0.02310045322694055
0.04728133629330728
-0.006529657008845336
-0.003077697128504993
0.01029426873350758
-0.005595778463399939
-0.007231971467830672
0.003991769379124467
0.006205375563674788
-0.02059948724632914
-0.01464527594979018
-0.04404250472693177
-0.003048233333521861
-0.08641677848332287
-0.02179592944000619
-0.000910258802456213
-4.716625225399443e-05
-0.0005432664418911519
-0.01301982448855303
0.02031200898012327
0.3561349056393923
-0.01389636522097546
-0.01651229797920818
-0.01208863004838275
-0.02240715070194274
-0.01197491770648037
-0.01082198353545709
-0.01105632280097245
-0.02633517152379825
-0.6375413587377192
0.00693849729072011
-0.01031605806473912
0.01770325138044854
-0.009812758094550438
0.3421656623024922
-0.01810584115332291
0.06566670605540931
-0.01303806903603149
-0.02688720949386729
0.06418038920529384
-0.3487782942048524
-0.0133206003174095
-0.008755307449953684
-0.007590850089196403
-0.181061406568113
-0.005582962496996872
-0.07279346093739011
-0.008722723078503497
-0.006970973416968694
-0.7009387813935747
-1.098579494215605
-0.6098511524591244
-0.117149382080569
-0.006721095122950405
0.005963185697829353
-0.05492511628286929
0.9153448633099075
-0.01314905790915544
-0.03787142742301142
0.05732211798079351
-0.009414938131369843
0.001545975624703129
-0.01006629357744851
-0.01053572880120007
-0.3324993284470115
-0.01403848896700528
-0.007839655880987532
-0.3615370408708193
-0.01116277458763938
0.03524518247103617
-0.01019799848318238
-0.01027784664909123
-0.005754521326671839
-0.009311575352629524
-0.02177687351667985
-0.02001408900587278
-0.00320225654086113
-0.02090645230291814
-0.02529280691325812
-0.003486021188912064
-0.2762538571192621
-0.007929310159735433
-0.2188067827063389
-0.01980513615368599
-0.003867452793673832
-0.003118149396184808
-0.002973586121934639
-0.02003840564275013
-0.01388485158115257
-0.3570597681971447
-0.0132610112898745
-0.04674268725923284
1.211449956663637
-0.003005563428775507
-0.007733548840048123
-0.01452425161063276
-0.008623336989407116
-0.004456799428123272
-0.005060317476961684
-0.4191312947618265
-0.008655231805904766
-0.00935091662059374
-0.004920283435084479
-0.0002968744530626271
-0.009102185604409936
-0.0006960756968974973
-0.022839700672434
0.6148270749983991
-0.004989768321500341
-0.00919984652066012
-0.02078420511189928
-0.01267850212813189
-0.06626245582167464
-0.007055875190222919
-0.004774168849936744
-0.008938037162769754
-0.027450050205905
-0.01686657709982917
5.356852956635727
0.05891109660944773
-0.004744291626868866
0.008519760527652938
0.01285342229576223
-0.004641346343918379
-0.4875727077560745
-0.004166438123180236
-0.005702125151545446
-0.005684150878819878
0.06802986309837726
-0.2226585584064436
-0.005637676874745541
-0.004753972774051877
-0.01522176789267343
-0.01355611500494933
0.7541291324472104
0.02672065264773369
-0.01075582049272664
-0.6025672627513741
-0.008675951933954668
-0.007466042859829818
0.2505555614969578
-0.01055913960347814
-0.02355628286363837
-0.01553674437308307
-0.02602202314639647
-0.01575313780029439
-0.01906345181218806
-0.008810035995727951
-0.008656119903497773
-0.04727794504683942
0.4352368136292401
-0.009164919224494476
-0.05841457961101464
-0.02072454973024118
-0.1169532866600572
-0.009600134364589603
-0.006795705265434195
-0.01600197082742789
0.04477379600582135
-0.009606032642522844
-0.02111687281593394
-0.1261572892839374
-0.008841005056387472
-0.4290057839299001
-0.008640607850713087
-0.01092832390228799
-0.01055324285177459
-0.009856541059948853
-0.006709571480262963
0.006914561381165744
-0.7867937136343358
-0.002917690913302032
-0.004618996200895612
-0.44293845384067
-0.002304523839028786
-0.003262932499285321
-0.1496372204440539
3.851271009908442
-0.02723882366565448
-0.002161885807769856
-0.02532295997180049
-0.002670256741755664
-0.2322942373210416
-0.01960608565580017
-0.009794163111761201
-0.02158340863152837
-0.004751763268348394
-0.009282414462477793
-0.01829536196875862
-0.009923398835852915
-13.85521552454496
-0.137024905745128
1.155535103034572
-0.01664697743776737
-0.0193106760733161
-0.1474772532553946
-0.01262386078516104
-0.02148685430945197
-0.0222521643033138
-0.01307633570718812
-0.01076002265937071
-0.008852940129993044
-0.01239797924049121
-0.003799230688749575
-0.0161427423020275
0.01684372310329209
1.732538911280053
-0.01561385755892456
-0.0192683803889572
0.05819742586344706
-0.6452466388768852
0.004185235371887202
0.05201664077445518
-0.01566504075961967
-0.07357693431189005
-0.2023996736125617
0.01954790279138695
1.271357248367193
-0.02431989378018357
1.217108864998645
0.06703530308189222
-0.006399294112101192
-0.006788281496638061
0.07605699691068525
0.08073573327050533
-0.002655064168462244
0.1635255972525087
0.13536010865394
-0.04309094808527994
0.1184404326242372
0.06187528512236497
-0.00970146972875586
-0.01151331646991466
-0.001396443521672693
-0.0110577987647886
-0.009441186732480429
-0.01109897610071692
-0.008886432076301498
-0.009783746446839393
0.007867251969169443
0.3133927833529134
-0.00969356690948921
-0.01008265169878776
-0.01203143954136671
-0.01325061320646363
-0.003524845184113706
0.004669682368489291
-0.07433382019094764
-0.02648479808968079
-0.00286719421087435
-0.004263421152021348
-0.007463576382066409
-0.007699172799544058
-0.007560555956767349
-0.06020614495498531
-0.007502319033679481
0.09805910414339682
0.03383751809562395
-0.01145591255768237
-0.001585067983355317
-0.001417148076841958
-3.196868799714967
-2.907501365562964
-0.01263989084680379
-0.01241361028703687
-0.04809552539435379
0.1410416817682743
-0.1335893434004516
-0.0135820728244769
0.08721098504631411
-0.02764283032371953
-0.8046163976378992
-0.03741236001561346
-0.05779705433475341
-0.1772738495022499
-0.01479893414584186
0.3270301285774154
-0.01074884666392221
-0.05159586836462917
0.4087802137153048
0.5329678254495875
-0.03399273963516356
-0.1234009697860389
-0.06994940657723071
-0.04163818660398808
0.006565642886328356
-0.08099634255206659
0.09597417049955463
0.09150040588028695
-0.02465841595933344
-0.01231374662287309
1.065422629939991
-0.01511856161597541
-0.01765528377565988
-0.01142023970724199
-0.09598925097267218
-0.001110120994350264
-0.004028621863346739
-0.005308794428210994
-0.0006079793087095288
-0.001980509247281226
-0.2186955600101598
-0.04470632321166122
-0.01099205881067196
-0.01596601906112927
-0.003512905374291617
-0.06086742651126166
-0.02581448605925835
-0.006247967513111514
-0.006319176263234107
0.5441907849347415
-0.08819022148268194
-0.1190562856361896
0.04635646564285401
-0.002992391831157242
0.3873438886301016
-0.7704149499098641
0.04260609990907464
-0.004894753671985219
-0.005251009707151757
0.03566790408054838
-0.02899144862068582
-0.005249651075254332
-0.005665791425393483
-0.008822436019739484
0.004252500046894792
-0.02711897629868223
-0.01268760977861213
-0.01987281120014609
-0.00114520701200796
-0.02911379912309227
-0.02409281187019468
0.6343055863296949
0.09569583347946617
-0.005764026406520124
-0.02586484776641136
-0.02194350763861376
-0.02418268555803406
-0.01269160406249526
-0.03003403234201801
-0.02755015490587949
-0.025951241166715
-0.01575697846144966
-0.01460589782327629
-0.01412491253570022
-0.01404787225801947
-0.03134738002619411
-0.0105584233703554
-0.02510971892033557
-0.1972573458193924
-0.01243146008414429
-0.01681034694672437
-0.8782205152975755
0.0542311968847523
0.0489590733013088
-0.01235830868753168
0.06921864095223848
0.08702095151385793
0.05047251504701594
0.06416375257663839
0.07222008540304897
-0.3162076496355365
0.1440801598348292
-0.02098329939032844
0.3075188894657096
-0.3413006940196063
-1.345475545695651
-0.01985916933091359
-3.971279774029362
-0.1125721641400537
-0.007169476787786652
0.03929473521676509
0.03340549996801814
-0.0164267115126827
-0.01893963494169268
-0.1280724251048829
-0.0137033704313313
-0.03935730112547361
0.2176526656676973
0.8267950655117061
-0.0407272016814243
-0.003155084073048749
-0.007290898166825932
-0.02138263247974744
-0.009812100983934691
0.001593666980341192
-0.01355453049788825
-0.021618120463329
-0.3870561249687611
-0.09480367697396978
-0.02477695848520802
-0.02746319625167082
-0.01751451173527815
-0.04208756456210037
-0.03051411347256425
0.006447519629078487
-0.03677053618688789
-0.01762759926866121
-0.157517670681233
-0.01343965902375211
-0.3602178933287762
-0.08725227696614968
-0.05050062951768139
-0.005091037255514371
-0.01347806665737648
-0.013043956721275
-0.01122251400108805
0.1994803917262274
-0.01201577003393149
-0.01344606597521766
-0.01303769401611821
-0.01279457830495859
-0.01142475676852714
0.1961321806735371
-0.01043216734008264
-0.008487647722136294
-0.464605094837533
-0.03538121329242239
0.002413856029057828
-0.02971218794607866
-0.03769860744781375
-0.006333627959895909
-0.03482686395257465
-0.7448177994096212
-0.02396124588655651
-0.6773301968863249
-0.02509491335936586
-0.03437475532039271
-0.01115522850218508
-0.009864833236725495
-0.01952694751111168
-18.63709563638521
-0.01226743865867076
-0.01014203936849986
-0.02274692934620723
-0.005855070856273363
-0.04130182353915243
-0.006750795884539791
-0.006584829676314974
-0.01006264697687392
-0.03077034485043105
-0.0266371751259883
-0.007794939874318156
-0.008418185781601537
0.1834559091500543
-0.01306162774394632
-0.02713461135414316
-0.01287780432148274
0.001564488387938368
-0.9490655797850375
-0.05886360378226069
0.0009600560978483035
-0.03134168421291531
0.001603269085511985
0.0008678641613411748
0.0001939452575322455
0.0003787328163366509
0.0003439546835356502
-0.03750169912860015
0.0009483350521604307
0.0008498243158375447
0.06510336082209747
0.0169843056455593
-0.3358080535449471
0.00125586834890327
-0.001117661387388671
0.0001721325149867447
-0.014385410818035
-0.08437578727710496
0.1170459862504516
-0.01202021772253583
-0.002217975318841267
-0.009241772124440597
-0.05288259988001133
-0.0007170894627647638
-0.002783935921590539
0.002652994934561933
0.003012687144110662
0.002477582589026309
-0.0002657883266842118
-0.508247344400003
0.0003407664654221557
-0.07594981737227655
0.0001704623061716317
0.1071304932615409
0.002438644667444309
-0.000193815105132533
-0.01209110065031286
-0.1262258690141729
-0.01626158999501563
0.5529234001252105
-0.0762684565998321
0.2744485636758958
-0.5185720678537846
0.1099938722580188
-0.08351283117478973
-0.1883740146437967
-1.087481329076438
-0.005669477702668943
0.07826493830242405
-0.09264695053594649
0.6101411162117704
0.2084503900483469
-0.03407109417201492
0.05483081836519509
0.09589525031835634
-1.377414249897619
-0.9404135963533933
-3.61329517719754
0.1771932697095204
0.4754849623885043
-0.4726999260901046
-0.2630579923235699
1.042897702117937
-0.2741092241265586
1.091019490154051
-0.2830801506477977
-0.1760038238463808
0.01019120491024016
0.8457161216347632
-0.6474041533555354
-0.01348601738686549
0.464805923693923
-0.493747994170477
0.01484069481296201
0.9121938694139567
0.03010777557883469
0.04175964052442278
0.1604594052408495
0.2458328254006578
-0.01205300435018157
-0.06773240628065912
0.07460517602533626
0.001312817372719261
0.4225692615315156
0.01186090338454244
0.2869862243017642
0.08972024424714745
0.08586419322683993
0.1774440541022386
-0.09140489746324178
-0.008258038907900507
-0.009222675603057189
-0.007455751040467472
-0.006991163193891469
-0.007545028824497795
-0.009741869580548552
-0.03605189864254875
0.3201176630867369
0.1566064876237628
-0.05341321649567501
-0.5916869142673881
-0.0885153898896812
-0.232334242736945
-0.009866543238641012
-0.1648372862689618
-0.02830649362454928
0.4240569106823272
-0.02121008098028243
0.00169383337825069
-0.0364236625809639
0.007400607028789156
0.2190683375762415
-0.01275422481126485
-0.01255399802279644
-0.09429432800708817
-0.02868214678464674
-1.372935032590676
-0.0121426774031406
-0.02590762638327894
0.001755231176127365
0.1380577563709269
-0.007911663584143025
-0.01255771566596048
-0.01010176294836511
-0.01135615501034967
-0.1591430344285287
0.0002440471112860965
-0.09464009603590394
-0.007046555336523754
0.04854815716744797
-0.01030731189490654
-0.0259472507908581
-0.02765024184079367
-0.2711811320187575
-0.01222823522598808
0.06814664991089535
-0.00643639359088033
0.004047753065340019
0.3221638789056969
0.02568503031247835
0.06543305610067761
0.04603871108106565
-0.02786183485486486
0.003085567640994576
0.01664513739317071
-0.02213198685302881
0.05945694926708596
-0.02127060766632007
-0.2344430383227497
-0.006152528949936453
-0.02960164040180989
0.6659950464106207
-0.0124953047579757
-0.01666833080091948
-0.04571454516812039
-4.068637513390853
-0.01501954968232069
-0.02201091473214024
0.1001989674492872
-0.003876720702623157
-0.376768053420756
0.007970558680990593
0.008109929798702053
0.01880822638722769
0.01620091698737436
0.006858589752480009
0.01374727936460563
0.004511395141875412
0.01462374586538496
0.3664521647872627
0.009746570842121317
-1.243830304716672
-0.001053338652551492
-0.7077630758727795
0.0006509990300158854
-0.1842813937234527
0.005047402139290212
1.725252154629994
0.0001731712659300701
0.0008604027194483511
0.0001502341635123291
2.883096918726552
0.002937639072411394
-0.001743819062633532
-0.03504889538313846
-0.0341295616909463
-0.03772031240269745
-0.03914316601252521
-0.01378040937074254
-0.01327376646947095
-0.01720368930426314
-0.02188210587790115
-0.01780849389620994
-0.02568770905099797
-1.523947179354242
-0.02702665141950924
0.2866655443683023
-0.03378876027640836
0.07968291690205004
0.07024443432389357
-0.1577974147417692
0.01982241383457375
-0.2327062114055576
-0.0348591769651552
0.07924047096238609
0.004309708177453671
-0.01661982674236352
-0.06650385493146049
0.003893802109706983
0.008841682229927353
0.01829978836278076
-0.001912026218516022
0.004173240736491514
0.00810254411283266
0.2578840589776063
-0.02613794550945168
0.6454691121365493
-0.01452618404302361
-0.01676749335753552
-0.01855059430411643
-0.00399585150048921
-0.01289899255491892
-0.02161104077457479
-0.00293604417818213
-0.02589262290880951
0.2114518212206232
-0.01188543367211302
0.1313710663237408
0.03514418848496482
0.006081670631309049
-0.5149348633153079
0.206170340553895
0.002389626121028948
0.008451866314029405
-0.5468819839408741
-0.01277030985141585
0.007295801713360925
-0.1538801173116371
-0.287023672246318
0.01752380950367361
-0.009378633709501823
0.01804754764600426
0.01860184517301366
0.01852222158544865
-0.02913818351880098
0.01295283143703233
0.006131320453177832
0.3144567307379394
0.07154487217356256
0.3834623398229802
-0.01942765365928221
-0.02439035362359772
-0.04480485165008645
-0.02077140130268778
-0.04003932520389402
-0.01703015944046785
-0.01000414997144044
-0.01693067303331426
-0.01444833872865438
-0.001422584616352132
-0.02577938647715691
-0.123144628443454
0.03910944299896964
0.02503514190797609
1.332619588063065
-0.2269741808905684
-0.01747739470460472
-0.1123470743045922
-0.06128249581959872
-0.001195166969238293
0.0009359604866551277
0.0001935064327384179
-0.2974707987303803
0.01336333927000176
-0.009678781130858485
0.04060811754158364
-0.0104275090185172
-0.3666009508341645
-0.04084307011536081
-0.004008025377658752
-0.00118482779727445
-0.01414953372197177
-0.006117926881730795
-0.02406640159837007
0.1793255064372601
0.1462911407188067
-0.2317128372945621
-0.01352428888194479
0.03212999973853709
0.2026366719881625
0.008674144732666785
-0.003726199388001054
0.6352013772555499
-4.116166038531361
-0.2082102268392665
-0.7699494029343156
3.252643332164884
2.170637204387689
-0.1604269377310538
-0.5378337244627327
-0.2926640687275965
-0.1652463681235648
-0.07655829140067914
0.00762671420513271
-0.1292806291809289
-2.538725754410909
-2.633385254518653
0.5295944930657993
0.8190839831211749
-0.004204797077164084
0.01901475421915766
-1.618408418613939
0.4563127144635545
-0.5358349495054708
0.03315405140561473
0.2131106427810184
7.645063908653141
0.4237360286938107
0.01768105545201949
0.01818233655381588
-0.01802863543492132
-0.004264900080488162
0.05499229311114541
-0.003524924838761184
-0.005297110103997111
-0.04337988939648948
-0.003097064248255127
-0.004888144575230386
-0.02197228342312109
-0.003905597110081297
0.06233346560311883
-0.02928553076578503
-4.356572240531268
0.06961632878542016
-0.2812576390137025
0.3573606757314131
-0.02040724402997881
-0.0746828330969858
0.04751659739518223
0.04167251165821988
0.01547229239408603
-0.02436156312122085
-0.00272744465433815
1.367885032561656
0.2529597739107084
0.1963676900861491
-0.008213669411859427
0.03225342420392813
-1.069615998478292
-0.04347266402707021
0.02286050167448539
0.7739629243960868
-0.003745340307992897
-0.1696071674941685
-0.003913582677264801
-0.05317579851245308
-0.003075231245541401
-0.02157255641761822
-0.006763247898924871
-0.01815886735029453
-0.3931939634845449
-0.007087550079419406
0.4520046371159012
0.2721083860918035
0.3032024060518556
1.275286206454297
0.320908312514355
0.4768424762292456
-0.01255098447285694
-0.02984371044675781
-0.02383727633506297
0.1946195955285165
-0.004535258083830078
0.1769668470408482
1.002569755024563
-0.02899804293722782
-2.55007432854414
0.6414707553769036
-0.2933641534675233
-0.5779820230971106
-0.175712692268185
0.5501620759254676
-0.01176175581483947
0.02323992202457675
-0.001480782509463507
0.4986331987707237
-0.3696591517147447
-0.2593066330888619
0.04112776365275771
-0.156401767248988
3.096453476449904
-0.1741443501984365
0.1224139805664281
0.2137610777264143
-0.4436381268432891
0.4174896223229724
-0.03998574459088765
0.08919958113053651
-0.01246205754807535
6.783582323313636
0.1114387486258305
0.09431547711420331
0.03736439702818829
-0.2106708429034031
1.67751759638574
-0.2166739551155099
-0.05512341395473486
-0.01198870908305743
-0.4090252049287638
0.05043570331038794
-0.1429498710826724
0.2139313200801926
-0.01619948565834741
-0.01217315357141028
-0.03325268431336476
-0.00537136372775695
-0.01060218907562211
-0.01042000289172561
0.4916446927544599
0.2753686939435816
-0.04811112366349439
0.05180933801469709
-0.00745606221633741
-0.008490360046975752
-0.1897013274853748
-0.1206465288675865
-0.01608134631889856
0.2986248901065018
-0.00813886331509857
-0.00486532041331674
0.7797408315956907
-0.008892900187943245
0.01527247725120527
-0.05388393156326445
-0.8911495045991185