/*--------------------------------*- C++ -*----------------------------------*\
| =========                 |                                                 |
| \\      /  F ield         | OpenFOAM: The Open Source CFD Toolbox           |
|  \\    /   O peration     | Version:  v1906                                 |
|   \\  /    A nd           | Web:      www.OpenFOAM.com                      |
|    \\/     M anipulation  |                                                 |
\*---------------------------------------------------------------------------*/
FoamFile
{
    version     2.0;
    format      ascii;
    class       surfaceScalarField;
    location    "0.9";
    object      phi;
}
// * * * * * * * * * * * * * * * * * * * * * * * * * * * * * * * * * * * * * //

dimensions      [0 3 -1 0 0 0 0];
oriented        oriented;


internalField   nonuniform List<scalar> 
37377
(
0.0159871594528729
-0.8065735676757068
-1.450170693700477
2.240757101918478
20.6197343048009
-4.648202678436634
-15.97114975679408
-16.56081334775818
8.220599929718277
-13.29070940662754
21.63092282466931
0.2281632205012094
-0.007550506075492099
-0.0424472661916812
-0.1781654482235779
-13.914504369426
-12.07799806695457
25.99271163591462
-15.07984857084585
-30.35314157393445
29.12936960987158
16.30362053490592
-8.944274599417161
-24.34530614347009
21.24831240803782
12.04126833482037
22.75604242879173
-22.15946430318549
0.5021613239625975
-1.098739449576568
-11.27145387212138
-5.808042305966391
17.0808906711322
0.162291971544048
-0.4982794845163572
0.4180802616384399
-0.08209274862914262
-0.6592879605678381
0.4287342033205384
-0.5692484082694956
0.7998021655514289
26.58725487878258
-24.13405535694969
9.191960159683749
-11.64515968156076
1.511661602840329
-14.62292271489657
-14.31296155876717
27.42422267080728
-10.10290711962629
3.662612867166048
-11.81830855577669
18.25860280821273
-1.432472940974928
-0.6501416754675708
2.21156194149535
-4.877835158155018
-9.485246684726038
-3.428521794109771
-17.14169599479445
14.55310534892577
-25.46345810476238
28.05204875061637
-14.8895222224965
29.47116747587111
-14.58163628384078
5.336616807793
-18.78013790522821
-5.077611281577574
18.52113237900627
-19.60274336597855
18.71877178240701
0.8842841811882681
-0.8169781481692213
0.3056358012692696
1.124799672263464
-0.6134573253303667
-0.2376466447408218
0.1631523244199944
0.2129195264344177
-0.138425206102699
-14.07667589962507
17.89766815263221
-2.551116553941424
-1.269875699126462
-21.67503651473639
-14.97736117255608
17.04965432131313
-4.70916261519426
15.79222302406588
-23.88877392169211
12.8057135128185
14.84924217663537
-11.62237867513317
-0.3801468798289304
-2.846716621674275
-17.09417317318733
-9.022883467509741
14.70296481517841
11.41409182551555
-0.0303750637279005
0.02089163949000893
9.726014707278313
-20.25804815496756
-8.176850581083661
-8.444475014918286
32.55810385376214
-27.41703668046809
3.303407841617782
39.66663330041171
-16.63534135491231
0.7781432206206964
-23.80943516612388
23.53025270069863
-16.29062390347661
4.246507444672522
-11.48613624190218
0.1612913296881382
-0.2647959472332873
-0.4856376262405578
0.5891422438151425
-0.1217456493035622
0.1085200623394121
0.009849368278886918
0.003376218694359878
-10.20480506243305
3.515831898447198
-11.9944993744215
18.68347253828492
-30.5413973260005
25.6749440377076
1.53075769041262
3.3356955978678
16.61146189613889
-19.01192932329564
-17.95742966784792
20.35789709500444
-26.55986165443198
-1.130917803352022
4.120790137510884
23.56998932027166
-3.482754038970317
4.907354588384925
18.21472530376552
-19.63932585318327
-0.9412275379080025
-1.520534543651553
1.353143405580155
1.10861867598709
-11.21916193521629
2.015472779912763
24.9501060894845
-15.74641693418096
14.27405048617162
7.285739063968816
-5.891005925805137
-15.66878362440785
7.325604770816284
19.98031982713296
-43.19252181011295
15.88659721216169
2.952373941035204
-19.37311872140171
-3.966969695913637
-12.71820158425272
-10.77191637263562
-15.57486644434552
39.06498440123388
-18.93693289465196
28.59573002355613
-5.702698108330319
-3.956099020578363
27.32158309167053
-27.16877528355816
-3.800242735051918
3.647434926935941
-21.59080489480218
-16.49655090333638
10.12472570067962
27.96263009746507
18.59461183603959
14.13908673466178
3.002404546750316
-35.7361031174554
-20.22667358793769
-6.320432418936034
28.07989283857332
-1.532786831759275
11.48702646705633
-20.38192854252295
9.050143734727975
-0.1552416592601882
14.57780775609779
-17.49313226712318
2.916198367321092
-23.26456081317213
11.40058448948351
10.94445833319943
0.9195179904885695
21.60975763451585
5.187506503258843
-2.027520406842609
-24.76974373091172
31.03940608726213
-9.155818493957492
-0.924812384886766
-20.95877520843417
-2.966676978993414
17.5453295533573
11.35117223041822
6.689695822134628
-18.90866947154147
0.8678014189075615
-17.51239798171264
-3.566557902316665
21.0794296025249
10.32036232894405
-4.163886385566923
6.501744633694354
-12.65822057707574
-0.4968492198994737
0.05553138116365775
-0.8777747323318532
1.319092571110798
-14.69425681012287
-2.096000874648551
16.79053355668656
36.66847088092875
-9.098040807571966
-16.74846743182154
-10.82196264153848
0.02662372694346946
-0.09699929534748897
-0.05137008089464228
0.05542084706739425
0.1184231553376106
-0.06532394005697638
29.21872322440635
-20.03678336933556
18.46625202974124
-27.64819188480428
0.1321563516215571
-0.1217127566017747
-0.0005942267327936519
0.2109207011181213
-0.08921218044899198
0.04144380375580811
-19.97733565052625
0.003248727288525658
19.97428777417807
-23.79665269605843
23.96523808870538
5.817088037185154
-5.985673429825175
-1.557124906198985
26.58114375842818
-10.70234546148416
-14.3216733908409
2.288151245723169
-2.214515851767923
-3.679795152783437
3.606159758879135
-0.1434232658945497
-17.28584876723512
2.527473404848563
14.90179862829671
5.843153302872276
-27.41664109940843
-2.277936741354634
23.85142453788916
0.02031256806151686
-19.99752367180762
35.217662334773
-9.092266562771432
-46.46860663969431
20.34321086768776
-7.245793995644576
-4.339944793689635
32.36346952777361
-20.77773073843945
-23.05806530567953
14.84829893626236
6.140760806730651
2.069005562689048
-14.384245288271
0.9924209063436172
-5.756384145618551
-18.49003590565928
-8.587389250890446
13.86882241564317
13.20860274085653
0.8089840703097614
-0.5483068974094171
0.205632288933226
-0.4663094618226902
-9.644612180329048
-20.28735506201904
9.295100609514201
0.07220576755920287
-0.1188977780314003
0.0298142592889243
0.016877751196575
5.396208023616442
23.76844530442927
-7.65195581206259
0.0507244210511159
-28.53231075979318
25.79155182528294
2.690034513444246
2.397620743234261
-0.3932560947389762
12.5696761073438
-14.57404075583965
24.21113921072162
-0.2559052316302285
-5.278883418467497
-18.67635056064642
-15.87443372699302
-0.1712666243021911
-5.629336163443796
16.45590081032263
-18.3867478542896
-24.629014610466
11.78854656086873
1.860233659958717
-15.06880910779278
1.420028886925473
-25.42855948588513
-0.5593706708217748
0.6565476573780311
25.33138249932696
0.8959133860834227
-0.9474139613256871
-0.3274126504035262
0.3789132256642893
-13.11697758424612
0.2211605857404878
12.8960805555878
-18.24962926459039
17.08538815942593
-17.07421178070638
18.2384528857937
-1.725566237227712
0.2452773584782784
1.457411287065331
0.02287759167636858
-6.397281140343789
22.85350170610642
13.00486399306206
-24.87063402624367
25.29956687630979
-13.43379684302582
15.69908836430473
-19.44251978726379
11.04027465798624
-7.296843235030257
27.80508522157754
-13.26400808705773
3.666341008908371
-18.20741814347658
17.65582873566388
21.89921535222786
-22.27517847161532
-17.27986561628159
16.7555720969667
0.9005118336636482
0.1486973676457753
-0.003337869903568702
-0.08582982053348936
-0.0595296771974085
1.843917532506516
14.08455205780656
-10.87078026630549
-5.057689324008491
2.798944529015417
1.385159334312255
-1.424372360916931
-2.759731502330026
-11.65791630161846
-5.960629085170377
-2.598750331564546
20.21729571834767
0.008540441888507097
-0.1233817256102605
0.03248205743351591
0.08235922629656134
0.3487280815156275
0.06758670243545586
-0.4175238727999956
0.00120908886173275
0.01935775004163711
0.5739297679677633
-0.6131530742587532
0.01986555626113462
-0.7657317843217718
0.6949012292520578
-0.6008249451383559
0.6716555002618639
-26.0348763222584
14.37841021439583
28.41203820482446
-13.88134402036798
-3.611103091640568
-0.02714868810672857
0.1539713875527651
-0.1260116107135476
-0.0008110887224466496
24.20549701218703
-23.65135351914011
-3.52082047204138
8.00434215393595
-13.58404335635592
23.77030302930769
-18.19060182701751
0.02171813432182004
-0.04540196205828369
0.2346045288613453
4.275026342827937
-21.78693459608624
-0.3121855681052487
-0.2431064683593715
0.4135024924183055
0.1417895440686951
0.01856793802023989
0.1690092606734801
0.08576746840462744
-0.1307948231159602
0.05071189756530033
-0.005684542840564967
-17.7937893519685
17.28557285873494
4.548959065978963
-4.040742572737638
-15.79357727165006
23.34242046638989
-3.566341207954238
-19.77577399093006
4.776674402230416
-19.93545960604622
1.993978815427195
13.16480638855957
-27.2867875879252
-0.6999559583425119
31.60148296632164
-3.61473942006342
-6.580829841619303
-23.89814434790618
23.80653839704195
6.672435792475561
0.1079010448856405
-0.08064291655691927
0.001177233970046991
-0.02843536228839364
0.506810313926771
-0.7256764689931806
-0.01198900201798332
0.2308551571140676
14.92573026225361
-0.1702875170217858
7.203056426061081
-21.95849917129484
-0.4495244357449307
1.085661666727373
-9.377043544458012
8.740906313452937
-9.639519441795166
-16.78015519710295
19.61474387424235
6.804930764642418
15.56338367517387
0.1023494055718238
-15.55039503595884
-0.1153380447876928
19.76618974995399
-24.19691280092342
-8.451678226584624
12.88240127755613
13.16338003862096
18.19301321275617
-7.824832778640689
-23.5315604727377
-0.2115406808917873
-0.5416747866054603
0.3498981593318071
0.4033173081775459
-7.315040540231607
11.12081295748213
11.60246362141151
0.5176909556340284
22.06865570643709
-16.02426436250016
-6.562082299568565
-0.09931032106955924
1.430833422038048
-1.326910394261508
2.41681507458584
6.054533575268666
-9.721755355181935
1.250406705360495
-24.9477495039719
14.38041905715345
32.17708808137754
19.07039457797871
-8.147327829556328
4.002663513829932
-6.80595446192686
-1.401243972406768
9.521890644005296
-1.314692209600112
0.109217142840556
-0.122030316682468
0.01281317384884663
0.07398617708963443
-0.1435497460446699
0.08741831489058399
-0.01785474592951179
0.08322769222559656
0.1049638953344733
-0.1320698667128025
-0.05612172084079228
-0.07895299928085138
0.1170707488976433
-0.01149402266712597
0.1277850808631027
2.905289834131786
30.42956698077838
-25.17011839558832
-8.164738419320107
-5.754088049498304
2.592801350064299
-19.39009480346838
17.06308250088502
-10.06819431862046
-8.31375994442317
1.318871762152618
-1.754247635932751
1.885791588810193
4.443453326068439
-4.574997278813642
16.01465550898816
14.20102086303781
-17.08695506624387
-13.12872130578484
23.88872312946408
-8.358973077420371
-1.224666185287438
-14.30508386679286
14.40109477491136
9.382197806438684
0.1054305480825036
-14.87619404576454
3.039132188138483
-4.513590720240206
16.35065257782194
-16.93545231923881
20.59321521040452
-16.37596447541912
1.811643936965303
-10.52602613056548
-9.381634975389812
15.47182102151515
-18.28962801143738
12.19944196528659
2.77435899927286
23.12093863794825
1.169600829206298
-20.46802191268405
-2.428716343053953
22.89703848208674
-16.95715602844567
-13.58370745872543
5.845469328510429
24.69539415859311
0.01035862885880936
-0.1138514947457755
-0.01821989070916463
-0.1410669194965106
-0.00283522774214406
0.1656202815660396
-0.1426180676872114
0.07553732528277991
-0.07861362774902526
0.01829157393466496
-0.2484413951444857
0.01661114701128463
-14.49321445487937
21.85374296533493
2.973469561882848
-10.33399807236054
10.48663427407294
9.269809704179274
-8.60707335672484
-11.14937062152785
-12.72482241699366
15.29886388409514
-19.07023074966346
16.49618928256045
22.349610031482
-22.36209829055036
-0.2466302420545154
0.259118501107844
-0.1391866322419497
-0.004290867565157779
-27.1001367541718
16.42594179547843
1.943883920231036
8.730311038414648
2.343708036854568
-26.29619896717812
3.138339209357901
20.81415172096501
6.162022115710774
-0.9969984311639448
0.3490098210495421
-5.514033505493725
13.83592724477478
18.07071453618012
-17.33121909851234
-14.57542268244297
35.42141399348512
-13.2891550851017
3.240459678542309
-25.37271858693343
2.392939815729998
19.64091946431117
3.503384537538128
-25.53724381758714
-15.13853488017941
-2.790101311791887
-1.95481516276517
5.731012707441177
-3.111629527113759
24.15148310299025
0.5076842369183233
2.396927633811194
0.2287007446016049
-3.133312615228995
-20.70137377001549
23.99857442640243
2.433812051052388
-0.9899991221626782
-20.04310817067691
-0.1377082395294814
21.17081553237058
2.425328329059672
-13.06688401150323
6.666527217867718
3.97502846457339
-28.48834271047954
28.52761608743618
-1.029272499116636
2.504044039872926
-30.35947195335953
7.812319742810773
-16.62420137954489
1.09675157844274
15.52789088899182
-2.323943531836278
-19.28497945361496
21.60921886618342
8.102709668760738
-7.835962544162665
22.03990591669139
-22.30665304129427
6.133831195460256
-12.11989080691989
-17.2095477065509
-11.567583617458
12.07876238936479
-5.427170066714631
4.915991294805886
15.58014433882147
25.16790225361314
-44.83895131882145
4.090904726378891
-21.63067850079128
22.70324760586619
-29.56091181554928
-5.537768633188549
5.512390470929274
32.48276810088273
-32.45738993863227
-0.7107420697449409
-1.128399501607389
0.0228706926122634
1.816270878766379
0.3792409452249663
0.5839693984063626
-0.7187948070324985
-11.82269436470768
-11.07622654603535
22.90033751763295
-2.734484821905883
8.185352869175134
6.684480175656565
-17.0743229431164
10.62663050402329
28.41918668238799
-21.97149424328084
0.5692546134272904
6.669339195510763
-7.68811824477406
-0.2644506681918745
-0.1610078427474518
0.1933692528705968
0.2320892580890696
15.23301676330688
-8.466866528798169
-14.80460293107148
8.038452696555467
18.8167380748678
-26.93047929884826
-19.17999898707993
27.29374021103551
-4.19665662930248
18.68304331625991
-14.48594951254392
-1.885579650328879
1.668652468716755
-1.299402980520365
1.516330162172234
0.4986181101254187
-20.26135436561735
1.310849612325472
18.45188664316186
-3.99146243139866
-20.29473609365635
24.0573326772344
0.2288658478237264
8.22765869986984
13.83687637682601
-10.05576561561401
-12.00876946108228
-22.87627483639124
11.05495406872544
6.780346982118064
-21.17978697366885
14.22915247452807
1.702084894205324
21.99863327423568
2.465104976730611
-26.16582314517672
13.05465643117973
-33.60820116398698
18.08681800278965
2.466726730015418
-34.7311866394929
-2.037013009159847
22.58543526953521
14.18276437912816
13.45194038108443
-12.67145268099418
5.296834843548286
-6.077322543533848
23.74316436234281
-20.5426599197382
-7.214386654146602
4.013882211530219
30.25981329854703
3.415515424704839
-8.734580851118871
-24.94074787213802
-35.14932739249438
24.90373812235301
18.43204530599242
-8.186456035788874
-16.18415243660849
24.55093193446157
-8.366046185066667
20.76982751725041
5.947462326413239
-19.51423341760322
1.163041130382555
-7.145317372076272
-4.77911888296473
10.76139512483872
14.72576467895587
3.20018046780512
-15.52739243466358
-2.39855271209963
26.10547391820686
-3.60329609728549
-29.07880770595739
6.576629885033589
-28.80951214483536
20.09840809053645
3.838956201338713
4.872147852928707
-3.226147428703813
-20.37170384961308
3.210952007014199
12.52611113633009
-8.394728879997611
9.754023984210145
-13.88540624054918
-12.19775161915372
12.15666364642598
1.544050737087663
-1.502962764370383
21.44881089463098
-4.274823317822652
-18.39285500606692
1.218867429256219
-0.5423740646056353
-2.6125920004734
-16.29548791667716
15.07972018528444
4.733003314517773
1.345310892001364
-21.15803439180566
-17.55301960718729
11.35664235662911
6.663875477906258
-0.4674982273475158
15.11944246559449
-21.10175378489781
-10.66536541917859
16.64767673846403
29.37214264922174
-8.92470079699126
1.360275383479935
-21.80771723577213
-22.12042420425001
-15.08894763034879
10.77740539010362
26.43196644447523
20.25274245129149
-5.441490914084942
0.2684686480767823
7.584719682875131
16.43102614840621
-30.2781162410013
5.926923692418158
13.87334112041025
10.47785142817086
-11.13947252584152
26.51265511584185
-0.4818649366083789
-14.89131765344267
12.59777313743389
0.733099361333068
-17.77555581946275
4.444683320823613
30.73910068985591
-7.238300818428564
-21.05580588147075
-2.444993989957301
12.68734464940414
8.436292361146068
-0.563660092936622
-20.55997691761253
-2.966050477230702
-1.173519531859415
-17.05828575604531
0.8213693858703182
-5.156135913666171
-1.442315157438479
5.777081685449161
-1.282229235593179
-22.12734400966886
22.89486133323985
0.5147119120086266
-21.64515340245551
-3.427295392373167
3.683647387410253
21.38880140741675
0.4342940523525301
-2.189687948308646
-17.43673110030169
-2.442533475804938
0.04667817562011661
0.03555282018274232
2.360302480189747
-15.52835581202681
12.04409126897333
-11.71882109178643
15.20308563483656
20.11573082840552
-18.43098283184379
22.66202314467291
-24.34677114125166
32.61608826844474
-12.85085224989181
11.27417006870051
0.01534019163378061
17.56105311000621
-17.57601561016094
1.92354163778777
1.718010950477992
-1.80395497011234
-1.837597618057508
4.265835650421907
-3.539574138740544
26.01773060583866
-26.74399211752566
22.59271585484475
-23.33217115341876
-4.795037860353643
5.534493158921341
20.59813812234975
5.66913256306989
-7.042084195744999
-19.2251864896826
-14.01222179397989
9.121753918238806
14.10669504466935
-9.216227168929935
18.66626901898011
-10.99254443453495
15.03503217620909
-22.70875676065753
4.266774869961292
1.236331573320882
0.6589156725425526
6.538726836773811
4.682037344029752
6.183097848364022
-17.40386202915824
-2.202427340130404
-10.24346791712318
-6.634861146157482
-20.46920704252618
-15.30213553104215
50.14975278795985
0.02128886466245123
0.2785839227562721
0.3033213621768491
-0.6031941495428631
0.6267518088993833
-1.348540048503917
0.444666163362991
0.2771220762733512
22.52663776929844
-28.64568905902324
-8.849248517393498
14.9682998071091
6.676760616760593
-4.860526219504796
2.509836136066007
-4.326070533370344
12.74097076680855
4.639647142784617
6.555440243100113
-23.93605815267669
15.01941856761642
15.67708023210623
-15.76513927343144
-12.94855313509083
12.26722167767389
12.8004559269788
-12.11912446956201
-22.90868330749228
10.67580669301659
12.23366158753795
-21.95962231104442
10.01686691114767
-1.005797735192482
-8.970856490645103
-2.581991990142332
23.8200701584462
-23.66493755607204
-0.4311526182890733
-0.5695447566779867
24.6656349309903
24.44296846963881
-5.403333215531304
6.991717562357485
-26.03135281646988
5.882364487993222
15.25626345148253
-21.29760810410617
0.1589801646272672
-11.28563341828819
13.19084402840649
-19.95040762517012
18.0451970150492
15.72613363703836
29.44351406772039
-46.36850807394578
1.198860369184243
20.46952826675209
19.46635320305455
-32.61027669899176
-16.73207373599648
-0.328944198830928
21.32685358524588
-11.16706584934654
-21.0797569165868
25.65328404717845
6.593538718737715
19.95112948066222
-1.348367968476976
-18.60219119045042
15.76176224040984
-0.652236866733511
1.614935501768453
-16.72446087536736
-6.111771808243853
32.37231313968565
-22.51967067202308
26.46178549343792
-15.57502641443738
4.614548316669278
-15.50130739568016
30.09877491704906
10.78324572634676
-38.80132046121542
-2.080700182245014
6.043599128592906
9.473501788660515
8.446428929429441
-23.96352984668569
22.62271797346177
-20.84013778443062
-1.783167633040818
14.84620257617025
8.899693450004539
-10.34928824370697
-13.39660778249207
20.44326673115878
1.922731645565418
-22.31852151459507
-0.04747686212605368
-0.04238826679429561
0.07248102814532541
0.1394607085439435
-0.1695534698801916
-15.85319490549132
10.32023024807543
5.533071228542012
26.74288470981856
-10.62755944498511
-2.100283742385887
-14.01504152244567
-9.605947783164861
-9.925988869874041
19.53358558346046
1.600872561866962
12.21113923419646
-16.93288835906044
3.120876562981888
-23.33974367933737
19.72256288917255
-14.87713749373208
18.49431828383143
-0.252908051330409
-31.54674028625234
7.777089670695957
24.02255866687042
-16.26831906218149
-12.82925522730523
-8.136771093292692
37.23434538278451
-9.152077839569619
-32.40585318150448
10.62989071051441
30.92804031055636
-2.929763257830862
19.60261512411187
-17.64348517371395
0.970633307434062
11.9982821261356
-13.86069558428681
12.40314152680683
-10.54072806865722
19.60753931596162
0.1947806979606762
-19.80211480056228
6.016445265691436
-6.23830150817857
-4.634149195705977
4.856005438192103
-4.074975047907937
-19.47228493400566
4.539087047534645
-8.494196695541326
10.46480761314531
17.41405608297562
-19.38466700057527
-1.726420893256301
19.57164964920458
-28.32057673545932
10.47534797951048
0.06244316210733611
0.8550262376864936
-0.2907175908626467
8.108482517950446
-7.708587440328941
-12.21362380129889
11.81372872367712
17.82867003890194
-5.815934589531083
16.9429733708233
-28.95570882019316
-1.654001610988963
14.4232743043106
6.663242440459377
-19.43251513378616
-0.013095054318628
-0.1564666416467545
-17.6857549301771
30.40268051015958
-8.796398674201114
-21.7926964772418
12.20260683994712
18.38648831148323
-26.86992141445266
-2.855914620152607
12.99376229860639
5.700418313579596
5.807098363831092
-20.47189037992275
8.964373702510736
-24.20029091090457
-12.81241320540644
10.14278270185509
0.09008325056093562
-0.0691916110681482
0.1027226185195139
-0.01263936795532168
-0.1762678666782851
-0.1290077859013047
0.1983662219516965
0.1069094306526838
-7.164135697854143
6.517082384380892
-0.0854068464907254
0.7324601600530325
-0.02588351689854748
0.19340108128012
-0.09480636462917204
-0.01686532319087179
0.07683910162213316
-21.61841445782921
-16.43143638841444
42.1795421670665
-4.129691320824173
0.141893537800854
-0.1052830593366068
-0.02379730460885013
0.08458308715197245
-11.44189018800469
15.46705575296752
13.41262143635403
-17.43778700132064
10.07644763151004
-10.31328653932565
11.80066673395011
-11.56382782613541
0.9033720189429327
-3.863059133491543
0.003891321315599485
-0.0825049490590723
25.00085314788753
-22.57833657605217
-6.239262331871647
3.816745760033012
15.58911389989135
-13.20617226174674
-5.667059581080089
3.284117943127454
9.634213530655098
15.53998229888112
-40.70255164156541
-0.1412735997134304
0.03138643400252175
-0.03364120966210037
-0.09474451968053191
-5.579209598634085
0.9286761962660888
-15.57798857328872
4.554851953723758
-16.8043839150712
12.70910606110331
-0.4595740997418191
-8.671692524136555
1.511601557594408
-10.38010153764
17.54019250418204
-8.242042717859633
-12.75823911611922
-16.45959753023012
37.45987936420332
3.549150010146619
-6.67683908512179
16.47383796069606
-13.34614888565672
-22.58376129586801
29.81338270015363
-7.229311761265333
-11.13329511903297
14.22196406929657
31.4095934626757
-34.49826241297136
24.12394183545458
-17.5142681672965
-9.780290480430558
3.170616812260279
0.01022327747719958
-0.09268833821633699
-11.96940394636004
-5.304388349469443
-5.183534587631023
-14.20592499559263
24.20339129799686
-17.38754494324562
7.390078640860383
-0.03468597851653832
-0.04426702076054266
-0.0683271881765939
-6.056954990488205
-0.07876435118754116
5.402914012771536
0.7328053289237502
0.01367392930862749
-0.02994817801527882
0.1346974040509657
8.475880302035199
-12.85141114692422
7.850347177413581
-3.474816332506737
-1.057243538646557
-14.68388330063257
-3.655455502670704
10.67161726120578
-4.282200559618846
-13.61943682263089
7.230020121115155
2.665880653028569
-2.703115251430903
20.80157502243896
-20.76434042404176
0.05174680884469566
1.111506893898728
25.55862696931905
-22.13968819636359
-4.530445666922058
-24.54752331359596
6.480177340252142
0.2298448341859474
17.83750113915455
0.7165288995505558
24.03654284264529
-24.7535330535099
0.1091945584096976
0.160484060259569
-8.413902099571688
11.53012312420538
20.22619944175523
-0.6542750506883759
13.27032842413626
-24.5707154341398
11.95466206068709
10.32777550809396
-0.7408039481042265
-2.047131793265437
-7.539839766726443
-20.45725334185456
7.658953824336705
4.304102821981224
-2.735345810690452
-0.9989862749405934
20.99342567786282
-17.259093592247
11.79055204129051
6.341162795557
-18.13066214309142
-0.4706273149330695
0.005156891219756619
0.5148565809506858
-0.04938615721029085
15.22714700406457
-9.334557983574925
9.670794654683407
0.9778720893523842
0.1400005015558794
-0.003111280891937781
-1.114761309839992
1.228349788440808
27.40781698648783
0.7359758742193501
4.195403392025819
-1.258251797435335
9.37117267748237
-12.30832427209744
-3.920093338378882
-8.981689323198722
-0.4421137814268632
0.8895929302095529
5.19820912093628
14.21597531412886
-20.30377736528406
-0.4304023886053718
1.453868503158045
0.9409506541581639
-1.964416768615821
17.58329502855792
4.740732835429369
7.571461814794476
15.59069467431843
-19.75530162123
-3.4068548678816
-3.69118332466209
-0.3732012795746843
3.311417410075549
0.7529671941684295
-1.375871134939836
-15.06682907030531
16.44326217642159
1.090278463561413
-11.09035538673469
-7.195385753460381
-0.585327705970328
-7.863815324308714
12.50685765732626
-4.057714627060625
14.48333746344857
-9.866627821443503
-5.202037347985591
4.98429282536308
0.190374132692289
-7.4877351665389
2.313068208503823
-0.06552674366514656
-0.004428812826402241
0.02731884349999109
0.04263671299459149
-15.88280767275012
-3.027553062296951
18.17697666370305
0.7333840713388432
21.17451730897477
-22.24254485231591
2.320246087366664
-1.252218544032499
10.95413343704582
-6.637390700169331
10.16659472657234
-0.4741254214008808
0.3737371489812916
0.09716152047554932
0.003226752018083526
24.16518797775395
-5.665529609034491
-0.9872990985183794
-17.51235927021099
5.021263993239442
19.15331712045294
-1.003880086502381
-23.1707010272412
21.93127869119747
-12.22541974841965
-0.9454989798820588
-8.760359962905538
1.252061392243612
-0.2043111724072695
-0.9758957846877389
-0.07185443511545789
20.96003356383885
-13.36132673217957
4.155992892047244
-11.75469972371815
22.85318942033902
4.232421224817627
-9.351815184543653
-17.73379546061753
-16.9338898310062
-15.48102476677026
30.71324286132338
1.70167173647008
0.323068808190311
-1.008994899511853
0.5488523820632345
0.1370737092982247
13.69633018034218
31.42889136124405
21.79651785198741
-3.365782678746181
-12.99802477837181
-5.43271039488104
0.3712116405747143
16.54762381636246
-18.41543570250769
1.49660024553121
-31.34576843885057
15.49057929629247
8.198036863061317
7.657152279463243
-20.2296923388202
-25.09629488712686
25.91493639991474
19.41105082603293
-2.354671138208192
-8.120757264385118
19.45621384844569
-8.980785445853558
25.16914858467965
-12.39039748007541
-15.1334222428196
17.53666904780024
-0.5822526145471468
8.214732151417353
-2.617357380452549
6.622385725911524
13.531640702328
30.49386145081856
-39.18658359664045
-14.36534315985561
-26.32073551474304
-7.582989234053803
29.69544782460597
4.208276924182583
-13.49350901591792
16.64066304335019
21.48166066615894
-24.62881469363152
29.01587735940291
-34.68560496872712
20.27651643508431
-14.60678882579552
-18.53342156092459
-8.348277780784514
23.00570700701016
3.875992334576344
11.488423267853
-29.63453839347832
4.652606109617039
6.453226804528684
-10.85675352761497
7.000530012311925
-2.597003289045127
32.96058802516323
9.611453477839758
-1.658410293672533
36.35370025612728
-13.24434098946825
-21.45094897300329
23.20794758664083
-11.89440200952938
-11.31331626915306
-16.27903744673857
19.11749483980572
-3.06008916989047
-16.05708080406366
-1.064318577391136
0.5605196159539773
-0.2626957991101091
0.7664947605295444
-10.94915141306345
-18.6764978660125
6.139299158585104
23.48635012051913
0.1640801947775102
-0.1799887965357526
26.07615978809017
-8.892287804674817
-3.895952693648291
-13.2879192897553
12.45738919994746
9.723989600271048
-10.69435233316123
-11.28953372936932
15.81021463621308
-21.38160468427482
16.8609237773602
5.43549523376287
2.841842840079282
19.02385241981875
-27.30119049367648
0.2912489179180129
-0.4049371563361016
0.3173740309948341
-0.2036857925227479
22.19549685504352
8.884279850827914
-25.64428147216336
22.41327737530178
-18.15639825911078
12.00190540318118
-16.25878451937763
32.32679309735917
1.083175094674254
-9.539697659833374
-23.87027053218405
2.440687740486801
-27.78241596453969
26.51032453564086
-1.168596311615661
-12.24420456616629
24.39991818678369
-18.88021292200798
6.724499301396821
-17.17692222244779
11.92488460374042
-4.816156699933383
12.70531261919425
-30.63829137200436
22.50127990625177
-4.568301153435571
4.407278953886625
-5.171215145535569
-21.19456297964685
-32.78386270488975
26.65088519275741
-3.609797201906678
9.742774714032482
-4.560529491099961
-22.27205313069199
13.5736124978487
13.25897012394148
14.21122631594746
-11.92047033804028
-5.804790270130735
3.514034292222424
-0.3008998002236444
-0.7211314719929792
0.5790846225892178
-23.79920409193031
26.12463859321951
-35.1092972061888
21.71124135313777
-2.200747802267576
7.140391641881602
-2.900673356210472
27.99488320945042
-2.612890272282496
-22.48131958096588
-21.95776061350928
24.56541724883534
5.383330375454818
-7.990987010792565
17.11061834561607
22.30226012579083
-28.95882584084181
-10.45405263055357
32.33052010609855
-30.13663322241027
3.544060683462888
-5.73794756713404
24.2924307520469
-14.49105863441097
-13.99232566454864
4.19095354690528
-34.39194539936801
12.18752368642805
32.90910406144133
-10.70468234852092
-24.23260584658071
12.35113666162321
-22.51047621442509
26.85947538395522
-13.16029009469313
0.3027460236775764
20.13901839623163
1.610252160261496
-22.05201658016842
-5.889759970006081
-19.79810376427106