/*--------------------------------*- C++ -*----------------------------------*\
| =========                 |                                                 |
| \\      /  F ield         | OpenFOAM: The Open Source CFD Toolbox           |
|  \\    /   O peration     | Version:  v1906                                 |
|   \\  /    A nd           | Web:      www.OpenFOAM.com                      |
|    \\/     M anipulation  |                                                 |
\*---------------------------------------------------------------------------*/
FoamFile
{
    version     2.0;
    format      ascii;
    class       volVectorField;
    location    "0.9";
    object      vorticity;
}
// * * * * * * * * * * * * * * * * * * * * * * * * * * * * * * * * * * * * * //

dimensions      [0 0 -1 0 0 0 0];


internalField   nonuniform List<vector> 
19632
(
(-0.002487865523941537 0.0006135244741635949 0.00591800362518001)
(-0.002805117714009344 0.001248692679679476 -0.0001484308915986299)
(8.162111195454227e-05 2.688716243829568e-05 8.200639412066419e-05)
(-0.8635205889513865 -1.443075580274242 -4.261954471173575)
(0.0004584208405199074 0.001633901385603322 0.0005947316082118289)
(-0.001725120590132766 -0.001772000544001084 -0.0007131418933261648)
(-0.0034331537242128 0.001515412361280571 0.002711778725497215)
(-0.001892251141814276 -9.584480952503773e-05 -7.26670076539912e-08)
(-0.00291125011153372 0.001116181916318826 -0.0001541628992838736)
(-0.8888461059265557 0.6063393603121786 0.5688717238840354)
(-1.083684551203563 0.4070292286728315 0.8594011378609073)
(-0.0008414783428929938 -0.0004568442654733319 0.0001243237005193963)
(-9.229279708691225e-05 -8.433705290610447e-05 -5.052046343106925e-05)
(0.000148198179598993 7.160971941895137e-06 -2.485680726076518e-05)
(-0.01476567939006474 -0.004201848340367065 0.01194082162643633)
(-0.000532383025552745 0.0006839733118386732 0.0007656314721362433)
(-0.0003761697657535697 2.260856600478743e-05 -5.328448575904578e-05)
(0.0005013741286397788 0.002798649987327192 0.003733290969450825)
(-0.0001331615379570667 -4.268546394464469e-05 0.0002649430399600287)
(0.000308334694257854 -0.0002396356854536028 0.002355322009043103)
(0.04968923432101533 0.004137527608279782 0.01213194746062307)
(0.2630866091201791 -3.556458504062066 -0.2609396436836814)
(-0.02275574951282591 -0.01543843410412451 -0.002587882560577816)
(-0.003263018366260731 -0.0008239091964230796 0.002811923800725955)
(0.001311671691698244 0.0002724530069113432 0.0004762662037552597)
(0.0003810645166586805 0.0009413340320825799 -0.0009254162581366731)
(0.0002040126032916315 0.0001560827128906042 -0.0006562043845843623)
(-0.3932261046211388 -4.192362690556734 -4.607158463039651)
(0.003924991191726408 -0.01502769757564482 0.02429534697257411)
(-0.0001291020389843917 0.0001169290639691419 0.0001277553085477335)
(2.771095501297752e-06 -0.0001752295153741288 -3.698583529375377e-05)
(-0.0001447007389666609 0.0001745349797843503 -3.451731166789757e-05)
(0.05902225326703184 0.05978478674782285 -0.01129585945008221)
(-2.21400933144497 2.316096520241799 -5.599482574530528)
(-0.000467933219791048 -0.0001988859912812231 -3.891473952773557e-05)
(-4.009953546101328e-05 4.298434247818066e-05 -9.761190674832493e-05)
(-0.0001262280765315332 -0.0009116304687400473 -0.001428566850485652)
(0.0004457335170951518 -0.0001019844189055703 -0.001442623542734821)
(0.0003624560352545973 -2.007113878348735e-05 0.000205737366238832)
(0.005043964718178264 -0.0005291272230764409 -0.009931971602685042)
(0.001351475733363862 -0.0001274385275489585 0.0008010825892660209)
(0.0007781287177288281 -0.0002695118052192228 0.0001621851740909387)
(0.0006863549900634607 -0.0002156012730713017 -0.000196580277589483)
(-0.05232383908466442 -0.0101584066614935 -0.1454899663713456)
(-0.0009323710117797732 9.879994533577255e-06 0.001424733068664666)
(0.0009719237319528065 4.887677356518795e-05 0.0002186815591789995)
(-0.0002100466013743877 2.137328582591917e-05 9.419663595329287e-06)
(1.714094495411455e-05 -6.743647098288148e-06 4.903323695150448e-05)
(-0.0004179246010886565 -0.002660690043273716 -0.002831472552682013)
(-0.0004498925625263212 -8.056433589576279e-05 0.000406106826197563)
(-0.003944768153174899 -0.001806387583365163 -0.001278223158491872)
(0.006043614069600187 -0.001891289710846097 -0.006391441382072588)
(-0.0001694909086016732 0.0003096667132231163 0.0005385956405292208)
(-0.000213249475988496 0.0001212894509079464 0.0003680974129536139)
(0.001033776613202127 -0.002861953812339483 -3.802496884352209e-05)
(-0.005736505567706225 -0.0002441554437696307 0.002240690993277292)
(-1.966008341331186e-05 -0.0006490055508181111 0.0003220181947626467)
(-0.0003931099149482353 -0.0006024713530215135 -0.001521909961147052)
(-0.0007391749377566878 -0.0131959771136728 -0.007525662220630482)
(-0.1319570793084587 -0.01037789873053266 0.08857496022463947)
(0.004937847445929324 -0.0001378508847593258 0.0006184101274945353)
(1.660268299428125e-05 0.0001393591769733378 -0.0001244453535861297)
(0.7016204317696277 4.425512630088185 -10.0948556602708)
(-4.870900920257164 -0.3061327177776638 -10.8055841313854)
(-6.261548461077292e-05 -5.403122547357129e-06 -2.543470362513404e-05)
(1.283196990351335 1.475876161581321 -0.7757362188680776)
(-0.7428520411502896 -1.601040463821327 -0.1566072249362017)
(0.001586260875988881 -0.0006189288854954288 -0.00195323873361552)
(-1.491773553205172e-05 -0.0001414060309659841 5.665537019128224e-05)
(-0.0003834088702024305 -0.0002146972155308154 -0.0004317581016900831)
(-0.000146791330416739 -0.001206845206377318 0.001328043144541071)
(-5.642241314520153e-05 7.848007026106763e-05 1.49606868484542e-05)
(-0.0001316957903119013 -0.0001002481028199622 1.139806542652651e-05)
(-0.001283904471772261 -0.000401988423497907 -0.0008386950424148056)
(-5.352448617411796e-05 7.680243910118028e-05 6.472933898351755e-05)
(4.23377981883495e-05 1.561236846260884e-05 1.949470474646111e-05)
(3.457240654493695e-06 1.809322620973102e-05 -1.799266523162274e-05)
(-0.0378662836492084 -0.02080834527590067 0.1422258748581484)
(-0.04216040287231113 0.1505998774358828 -0.1302504399631026)
(0.06129012720401032 0.007688947250079623 0.0209213833296418)
(-0.05801871096228157 0.01557114741242415 0.05968132334879866)
(-0.7977882983016533 0.4325627176900301 0.08981172643703733)
(-0.0002219446911140231 9.045267338139343e-06 5.394911384764033e-05)
(2.514072299435043e-05 0.0001373997142383407 -6.205288594094129e-05)
(0.001521545745400443 0.0004575774647115832 -0.0003675719132983959)
(-0.0001565530970466777 0.0004748380459146002 4.609017541051515e-05)
(-0.0005907133686073212 0.0001152490620367242 -0.001724480810486231)
(0.0008235902432577279 7.088469321041166e-05 0.002407962281427316)
(0.0002663936347421791 0.0003619480329403709 0.0001851086810483722)
(0.0003949725727641873 -0.001385881406674041 0.002392808046657923)
(-0.0259039728465673 2.474455996142808e-05 -0.02364930090488212)
(0.002871157903125225 0.000696780005052368 -0.0002189318588745743)
(2.285512788277206e-05 -0.0002198210453776786 0.000318389214730625)
(-0.004345962883957489 0.003819114001349947 -0.00692409656559747)
(-0.003820753082049623 0.000188290477538322 -0.0006597513278488022)
(0.001470865695796636 -0.001032364863447817 -0.0004632055098867261)
(6.84887353033498e-05 -9.003564422476544e-05 -0.001342198812209021)
(-1.963197414284633e-05 4.820054633263826e-05 4.896016016392529e-05)
(0.001430498073062785 -0.0006834910692608394 0.001366055013220978)
(0.0009436680199014695 -0.0008267793914415911 -0.001736880360397221)
(4.617144389302384 13.35505685296893 -2.228514298947526)
(-0.0009535074638301132 6.0609527798934e-05 0.0006373663279808876)
(-0.003596902340581757 -0.003795985985388732 -0.0001476325956029775)
(-0.001915323619510143 -0.0003473952663070256 -0.001290984727486125)
(-0.00793092497814972 0.2453064652553459 -0.3791171010971195)
(-0.03455648337586877 -0.3998817426087342 -0.4210316763055069)
(-0.5995973388577408 0.04741113729677576 0.9874610314082898)
(0.007964174373206317 -0.01102287497930981 -0.0328125789132464)
(0.003231331306728561 -0.0001973521522171397 -0.0001415905006396919)
(-0.001952212125628032 -0.0006219251373843508 -0.004646903244117772)
(-0.2357279302963216 0.826920175292475 -0.8908371173793689)
(-0.001536533747753851 0.001126484036660703 -0.0009267380596469893)
(-0.0001977479070516324 0.0005478584610699654 -0.0002984591819932159)
(-1.171127555323347 -1.166971036233456 0.5072368610608297)
(0.001237616859075451 0.0005776994145326163 -0.004741523931737298)
(-0.008909192254455144 0.04522497989070679 -0.07524430903650101)
(-6.024622502137611 16.30168305413859 -4.061603267474686)
(0.8643783451413013 0.84721096187217 0.2907203636606321)
(0.0001355512190117558 -0.0001421474668095487 -0.0004502596936268367)
(0.001056705698211875 -0.001028387396521434 -0.001319065478430715)
(-0.001190704096004884 0.001170534874203421 -0.000366104678449723)
(-0.0001999455379562475 -0.0005731152296334449 -1.036009820018057e-05)
(-1.079625732828508e-05 -2.575892274719818e-05 5.972052789322843e-06)
(4.457124935391601e-05 5.705394408604186e-05 3.542787532688098e-06)
(0.253666773639122 0.8293820348652181 0.460156063894012)
(0.0907372040557414 0.01913303649059312 0.006135674749320111)
(0.001213157686043883 -0.0001486349968408148 0.0001934586960323979)
(0.0008860209184925088 -0.000202918360470418 0.0005398415765175339)
(-0.001097006097501254 0.004137556468575129 -0.007679316387287307)
(0.0007625386579117068 -0.0002327657277261562 -3.149467954722057e-05)
(-0.0001808426294303282 -0.0001077917099374607 4.226054904417543e-06)
(-8.63924940474374e-05 -0.0001176103990203651 0.0001997920371206899)
(0.04315495891910318 -0.003732257186409439 -0.01335745381755426)
(-6.144391812474931e-05 -3.013626675979883e-05 -3.706070577965519e-05)
(0.0005915623030629899 -0.0081350082231408 -0.01746993131626584)
(-0.008234799337287926 -0.008135097139240743 -0.02058982468148179)
(-0.0003083662971268561 -0.0005148069292569725 -0.0002804113514542285)
(5.806242528280196e-05 6.865411814296669e-05 -4.586294699470648e-05)
(0.0002598636633240543 -0.0003529479867999863 -0.0001709367964561665)
(0.0005844584771998525 -0.0001685654918057677 -0.0008238689559099289)
(10.18124727688061 -17.84468484780965 -49.15636170581626)
(-2.984738002353267 0.579146477636736 -11.38519536213721)
(-5.451463503813545 -5.851105769902381 -2.631904426773648)
(-1.328517539367682 10.37497045422501 -7.134542797387717)
(-4.815342089792536 8.21014980175541 -39.33750789995862)
(1.833555418495676e-05 -1.285186243425741e-06 1.571115333750917e-05)
(-0.0001613029291816604 0.003861455720937453 0.001985464900334809)
(-0.02408169504078996 0.03032692529484057 -0.04939236155307974)
(-0.0001037358246238779 -0.004275444211636818 -0.01017631448498127)
(0.0002521961327168695 8.692364356530883e-05 -0.0001308589988369257)
(-0.0003469034391201788 -0.0002512684182942611 -0.0002327401510042861)
(-0.0005736111377404849 0.0003847038760030777 0.0002284421520453697)
(-0.001145828642785177 0.0001745439511714973 -0.0001382792724126058)
(0.001319452854200338 -9.276429727787745e-05 -0.0004560005911042444)
(0.0005902033231985595 -0.02953920393186724 0.00304622291826616)
(0.0001059366331294831 0.000224351161646038 -7.84793289862311e-05)
(6.821614750277463e-05 -4.408985698878625e-05 -2.114797438578922e-07)
(-4.027241522277619e-05 0.0004526505986760594 -0.001686869404018462)
(0.0002412110729158477 -0.0007205263631169731 0.001159847251023906)
(0.04270246824727952 7.675325479925312 -4.411280729001009)
(0.1704874424554657 -3.351995137030998 -2.117616386603107)
(-4.572568271791542 -4.2972440661404 -2.588468210654694)
(4.470611842177869 -2.362457616104677 -8.179100760198597)
(-0.85223942606406 -2.536742049836849 -0.9478433933062842)
(-0.0002905342381857756 -0.0004744073857655047 3.538860430286792e-05)
(-0.002922119349925306 -0.003432467847500332 -0.002755998860696327)
(-0.001272206445972948 -0.0002133828135491797 0.0004151846094238998)
(-0.004033334900293051 -0.0004194552440945591 0.0008011273409380041)
(0.006331843154772976 -0.6132425364376651 -2.020743971191486)
(5.996827330154186e-05 -0.000124690935939741 0.0003877612572755709)
(0.00114033616919845 0.0002685744285475589 -9.054623002711031e-05)
(0.002101367604251725 0.0004435444629266021 0.0005226938838282583)
(0.007235254437742816 -0.004706123744290687 0.001018892577791163)
(-0.0003343917342539151 -8.626407612340895e-06 -0.0001394886508682232)
(-3.148955958581255e-05 -0.0003040642887963506 0.0006444988296568107)
(-0.0009893552057927042 -0.0006545604983783761 -0.0008758652323722655)
(-0.002036528245412961 0.0003194167105796681 -0.0001732433664441115)
(-0.004203760764257843 0.0002614153245598068 0.003688197231336448)
(0.0001403174844355787 2.257391484401374e-05 -1.54601844409168e-05)
(-0.0002208861690634903 -0.0002869069240609388 6.012393322135127e-05)
(-0.0003152447866884368 -0.0001917034748330952 -0.0002266602419716166)
(-0.0001319248449222947 8.998921917595036e-06 4.780462152589052e-05)
(0.0001862925135760589 -2.548933172450813e-05 -2.08132276694329e-05)
(-0.001678069070190953 0.003927806446896025 0.0005156028531291531)
(-0.00256744108604901 0.0001692269074061339 -0.001369174336934309)
(-3.329129314282893e-05 -2.239302355840613e-05 1.081077575752699e-05)
(0.001500574168117153 -0.009204135777091263 -0.005682712294585132)
(-0.0006421222369706948 -0.0009824405301481834 0.0001399001692588474)
(0.0002024610877966365 1.110573067418037e-05 0.0005275245789431334)
(-2.996395954031477e-05 -1.984124991510202e-05 -2.506787653852507e-05)
(0.0004722612100859013 0.0001078385922919948 7.330518717444393e-05)
(-0.0362689624004601 0.002727901626902352 0.01171275986791585)
(0.005828308651609996 0.009329744485506008 -0.01008912131614004)
(0.009370302437035571 0.003860039777212137 0.0008707239936401668)
(-1.335191158428153e-05 0.000102220163889042 -0.001034077614656044)
(5.458772872465413e-05 -5.682074403614175e-05 -2.399525307059327e-05)
(0.002945682932350841 -0.0005293451933624078 -0.0006917433518169095)
(-0.6755144969006013 -0.3450386045910252 -0.6550259905507738)
(-0.0004658881286413992 0.0001432265925404671 -0.0004964664515038437)
(-0.00241964798237005 -0.001035059653444922 -0.0001257146182536847)
(0.002576746200147339 -0.0005403298869248844 0.00153614849900661)
(0.004784196026580784 0.008527000144143274 -0.002267488026102014)
(-0.0007208268313350966 0.0001605841127195944 0.0005779801881616156)
(0.003651086302750433 0.0008233266436947541 0.0001261377222766342)
(-0.007801843166363082 0.001806690421417708 -0.008152601308111339)
(-0.009655085979147656 -0.00152133263435352 -0.0002187927029874972)
(0.0003431719062985289 -0.0003473325669105089 -3.217621711800111e-05)
(-0.003057290488425867 -0.0007884000088782393 0.0002472871084629044)
(-0.0002543337451724737 0.0001016321602525338 0.0003454311852631379)
(-1.260190143387209e-05 -1.865546575488733e-05 2.686975984093918e-08)
(-0.0001811471384969356 -0.001177819356174115 0.0009349194826688721)
(-4.634357988576399e-05 6.298114755370265e-05 3.621222690869446e-06)
(1.241323337996889e-05 4.518948739146856e-05 -4.682786828309355e-05)
(-0.0002320627048098818 -0.0005101415388349884 -0.0003693930936931021)
(0.002711804902572307 0.001565611818361115 -0.0005308078963386269)
(0.0003500790140905017 0.0049016505151941 -0.0008013537385706023)
(-0.0005195359519724174 -4.812687709456582e-05 7.421298483037967e-05)
(-0.003849008702757831 0.0008378168729063678 0.0008348260849873522)
(-0.0004690754749958288 0.0008934722822695953 -0.0001410800843188466)
(-0.002658367844199399 -0.003092513367184661 -0.01042097955581354)
(-0.01044122260408097 0.009483048615346143 -0.001714023621677109)
(0.00828823676521257 0.003966643254085444 0.0002441162366751353)
(-0.0002095288645404926 -0.0001576799742105985 4.787468553103343e-06)
(8.704539036520634e-05 -1.131170413157962e-05 3.83411023229086e-05)
(0.001604853804917464 0.001863787762087064 0.006635584616895696)
(-0.00134085478453402 0.001062374566560003 0.0009242441417291722)
(-0.0004466173058162526 0.003569780767335672 -0.003009258579845507)
(-0.0003873520466027746 -0.001526375759589219 0.0005765416355280121)
(0.0001568889180139984 2.448130807326262e-05 -8.610116649408316e-05)
(-3.402471660005013e-05 5.327706207813911e-05 -3.950000849285902e-05)
(0.000483070121602887 0.001484569843724386 -0.00244264890002049)
(-0.000356031727996229 3.272681771307108e-05 -0.0001148764434480294)
(-0.0003996757091580741 0.0004920212159501073 0.001219051966163342)
(0.0001048220668077544 -7.367016370277778e-05 -3.972992998356596e-05)
(-8.003117608971287e-05 -8.23513999906344e-06 4.846431874482113e-06)
(0.001254335958499331 5.230481958650197e-05 0.001157756782972794)
(-2.795143052970414e-05 -3.028975928223901e-06 5.663145470989201e-06)
(0.0001046231945646785 -0.004244884131794706 0.002595737445623127)
(-0.003055095396108147 -0.0007756530414234864 0.0006618988787280222)
(0.001062340749695197 -0.001708401574123325 -0.0009250915063720085)
(0.000432591420732705 0.0001470988590618644 -0.0004682256580433167)
(0.06130407010633004 -0.001487127504197093 -0.03978328111888429)
(0.003455437158872724 0.002142556373323484 -0.004491306833447917)
(0.000484417850864233 0.00108949264087341 0.0008477334948987839)
(0.0001370549382286332 0.0001068467895265078 -0.0001294575983658241)
(0.006541784237814615 0.00330611637297631 -0.0004280640956022798)
(-0.0007346515147254858 -3.048841202443872e-06 0.0009042970944788648)
(0.001224688632394575 -0.0005356483798949273 -0.001374326449558092)
(9.89303680793806e-05 5.994094949073623e-05 7.0789981140448e-06)
(-0.0003171266866349786 6.098242207655731e-05 -3.771313908020429e-06)
(6.598523831954074e-06 2.958519656608778e-05 -3.94057364497396e-05)
(-5.794036872541711e-05 7.289042375030626e-05 4.228804970770458e-05)
(0.000265628570215986 0.00127352644477241 9.102748626295958e-05)
(0.002342299681775277 -0.0009032703414301586 0.001809767011078299)
(-0.0002982427162991593 0.0003239909348143957 0.0005230863583983628)
(-0.009185320188051883 -0.001034183536816433 0.006388479577706866)
(-0.000562429920272685 6.325769989098937e-05 0.0006921388455312622)
(0.03533609482938549 -0.0077380757837301 0.006575059138388065)
(-0.002717535939514083 0.00356183004774515 -0.004838952683404705)
(-0.0008803966350632202 -0.0002286058193865488 -0.002118058762949315)
(-0.0001953236835179222 0.00239502345231276 -0.002225751300371062)
(0.0008238001470306562 6.492513481978689e-05 8.372928448961574e-05)
(-0.0006265009663109783 0.0007999629592570937 -0.0007255690155005727)
(0.000133666411387578 -1.853148738600916e-05 -7.395360658255038e-05)
(0.003034647986126847 -0.002767231306744965 0.0003855351297352129)
(5.767481768442659e-05 -6.073966911020134e-05 -0.0001148695882548967)
(6.5156082567754e-05 9.407073144907333e-06 1.684974938005839e-05)
(-0.0001128783915154099 0.0001278630794292938 -0.0001232306047981062)
(7.657841582747965e-05 5.544564127317258e-05 -2.28706088020242e-05)
(-4.372838530487537e-05 5.017839453706893e-05 0.0001564112064929135)
(-0.0002003052986300699 -2.2812295750339e-06 -3.860611646474632e-05)
(0.0007341149076963143 0.0001771179745199757 7.085041600440508e-05)
(0.003021196488223128 0.002140264104824393 0.002004880012749514)
(9.208674674431571e-05 -3.785290919402099e-05 4.992322290930681e-05)
(-0.0009370376019131497 0.008671963409181692 -0.0009156729634573161)
(0.004948664076222895 0.001769194309610771 -0.006533073115655706)
(-0.0004034703919124287 0.000142458252739018 -0.0001372262623938219)
(0.0007314397996997813 -0.0002151427375092167 0.0008755631859923912)
(-1.579798446796305e-05 2.108555180782653e-05 1.685819264280985e-05)
(-0.000132451021176027 -0.0004628670349880139 -0.000808230849555135)
(-0.0005032910898479577 0.0004988345449931554 -0.0006023863834016259)
(0.001879683176184276 0.001082017626487462 -3.854231355880294e-05)
(0.0004528681504186446 0.0002308868873658024 0.0003525081656940367)
(3.69215695406883e-05 2.010025970715156e-05 -9.336327550945209e-05)
(7.591216178130691 3.992594870033716 -0.4684125623310171)
(-0.00509922485635872 -0.001080349685229938 -0.0004036312742669888)
(0.0002442852507148105 -0.0001822520173551257 -0.0004117455817287708)
(-0.009782278543845318 0.0040852068678238 0.0005031529375162263)
(0.001798377009519913 -0.0008061615695555306 0.0001308125927922032)
(0.0003181987138706505 -6.430961426754403e-05 8.872060818849514e-05)
(-0.0002068334915107647 2.351534301836441e-05 -6.945330774171956e-05)
(-0.0008565878487928311 0.000527554611679609 -0.0002543034114519602)
(0.0001149042215779482 0.0002751457842680855 -0.0003342376960360994)
(4.236497412084923e-05 -6.296181421999582e-05 -1.556001859736821e-05)
(-0.003161293303212926 -0.004347240178890504 0.0001915081951145873)
(0.002284700244819217 0.0008846661707349061 0.000234783129721365)
(0.001101001464176292 0.0009906168071850609 0.00228954559306566)
(-0.01158050441287417 0.0234791679845405 -0.0109828815715587)
(-7.228400698315657e-05 -0.0001253392773774012 9.063940270550957e-05)
(6.167053469743194e-05 0.000933287021908747 -0.0004975739969228831)
(-0.02639927962387669 0.008397767404878241 0.004915878199429284)
(-0.001557513306428301 -0.005240196270326517 0.003024863890288895)
(-0.0001675663280702665 0.0001007215616491589 0.0001492592337509794)
(-4.139732477047245e-05 -5.244199567139459e-05 -1.584914710422697e-05)
(-5.335365748683516 -2.842845133370694 -0.6287934095552681)
(-0.0004273755206474966 -0.0002175764960958792 0.0001405565013411726)
(0.0005349204946085425 -0.0001410093215080066 -0.0002868392246296413)
(-0.0001096840496743071 3.03288668324992e-05 -9.723744891863889e-05)
(0.0009402659199464067 -0.000689212254922889 0.0001184695989820049)
(1.196398472173169e-05 -1.403896834649406e-05 0.0001378994995941646)
(-1.018315912598707 -61.06411439511489 -4.246519186733024)
(-0.6771176441131961 -52.80153271892294 -0.9529246992203508)
(-7.433327607563179 3.11210664847467 2.838039302380778)
(0.001309633027496472 0.000391438108167566 -0.001525017415979301)
(4.913400098692152 -4.05065461616367 -4.651190180755925)
(0.4239552280257686 -2.849415355430192 -10.40645613789107)
(3.038168939380456 -57.04486833177321 -6.79324493471267)
(0.00044020560687554 8.974343832039558e-05 0.0005049917594074843)
(7.378918583323504 -9.357953381694335 -4.581700911215975)
(0.2783445305484662 -6.993951944712677 -68.21366853425499)
(-0.001566124015178317 0.0004931074055009687 -0.001733907478505085)
(0.001418162871079608 -0.001381377713342259 0.002667295703669939)
(0.03238659691767315 0.1168629496149087 0.08782063762089033)
(-8.221953790820177 -2.760746838477299 -53.74024026889818)
(-0.0001125531841117434 3.893095209751414e-05 3.584286463505823e-05)
(0.0004480314873287651 -0.0005469622798027877 -0.0009393402996732623)
(-0.000787191938145985 0.001539963878854525 -0.0007323808471897217)
(-0.07428667905916608 -9.251160060606619 -8.595829061811587)
(-4.447878759197071 5.355645186020002 -8.578655904714418)
(0.0004979850203688967 -0.003791449064689136 -0.002922864184593)
(1.701118139053827e-05 -3.632240294515246e-05 -6.689062870436933e-05)
(4.305958745376922e-05 -7.356139188462972e-05 -1.455500828222647e-05)
(-4.596514235969686e-05 -6.650339216069648e-05 0.0002246441792287904)
(0.0009780479496413132 0.0009006625513782194 -0.001103288931249526)
(-0.001754324265904757 0.002825888051368291 0.0004936377255001772)
(-0.001320366450827933 0.0004765638883710513 0.0005843055890670217)
(-0.0001185262332907117 -0.00375502254726847 0.000837701883205754)
(1.354431297278587 11.6261200954187 -6.417624754625635)
(-0.0004917420313342936 0.003143085986886145 0.001452412268303191)
(-5.376957990937973 6.364068675968729 -58.56565301085138)
(0.0001581572208940975 1.822167053542864e-05 7.683556731574159e-05)
(-6.857737990408747 60.01492879644712 -0.8466710715351387)
(-10.41296758873365 73.14285451886691 -12.0846415958688)
(0.0003171131647073345 7.843283855909117e-05 0.0003075530415268801)
(-0.07038912425575145 4.335414390602716 -1.181125930428629)
(0.0008887633751832128 -0.0001891030332937591 -0.0002542216862488351)
(-0.009459139716196234 -0.02677996119559974 0.01020082178222811)
(-0.002853875405581972 0.001037581610902518 0.000262769126821322)
(-0.006575250564558878 -0.01608049652571968 0.04246356586364555)
(-5.477194715329301 46.41526430805976 -1.856986420849174)
(-6.074795694344231e-05 0.000735665507196904 0.0006259753954607401)
(2.273140912101404e-05 1.259300585413806e-05 4.921535901193637e-05)
(0.002222966853783938 0.003525134714121366 -0.0008813584559586446)
(3.807834861371687 -5.186700940133335 -4.135302813875139)
(-2.923170256650032e-05 -0.0007557433457372701 4.5933935257826e-05)
(-0.0002648333271425929 -5.073259010398415e-05 3.433300003551594e-05)
(-0.000125162736663802 -4.499751196316188e-05 1.68038229618604e-05)
(0.0003752773315510961 -0.0006936888930813279 0.0009236119642100438)
(-0.0005998153148908606 6.189280031201268e-05 0.0002111522669064041)
(-0.006485969418159439 0.0004252363970339636 0.0007398117375588029)
(0.04985502385520384 0.0314781150816073 0.01457764764376508)
(2.215711178888242e-05 0.0001045072478500527 -0.0001111050357666742)
(0.01316577103295843 0.007169049413564307 0.005411791887588828)
(7.468435197235124e-05 -0.0001731898923900193 -0.0001021315769973263)
(0.01340923608444726 0.006220113304271192 0.07292928547956729)
(0.007771913804303802 0.03532015188600235 0.02151660268337882)
(-0.0001048858456213085 0.0001339049743246286 -0.0001446970470488333)
(-0.01338055764802267 -0.00298053661494633 -0.01072594106638413)
(-0.0006932791513815754 -0.00201652315713942 -0.0009122001757856917)
(0.01939755100396174 0.02955929412117508 -0.05332202211875347)
(0.002455845751906651 -0.008265894942862236 -0.01495683279475465)
(-0.001177797962596036 0.001895466869221259 0.0003336760984738877)
(0.009491045591821292 0.004766433236824287 0.04828016065341119)
(-0.0002831593378909111 5.395075380655918e-05 -0.0001808485923588828)
(-0.0001041696650889669 -3.824624118852362e-05 -1.143767988819953e-05)
(1.8884605966084e-06 -0.0002259894463050913 0.0002077638321760062)
(-0.6509740441522359 17.12419840782741 2.083070779700503)
(-9.507316619292581e-05 4.813640749553096e-05 -4.841745448364913e-05)
(0.0004368003423647774 0.0001349383639905111 -1.240319466872653e-05)
(6.096100126246669e-05 -0.0001981010547497465 4.262251858641372e-05)
(0.03998715435409436 -0.03112654258069396 -0.06217242652713753)
(-2.634179553423605e-05 6.098783945814395e-05 -9.870039602171815e-06)
(-0.0002450377704538091 -5.010077187364681e-05 -0.0002472931708116766)
(1.859032115189479e-06 -3.575965160903575e-05 6.500719967958561e-05)
(3.565214477319056e-05 0.004111783314662695 0.0003474301606637316)
(0.0001771824510307665 3.216535295039828e-05 7.454877956694059e-05)
(-0.000127438801842869 0.0001483979438985528 0.0001605921473857474)
(0.0001770893842371984 0.0002477612890384415 -0.0001065261022359752)
(-0.02918568985477044 0.06469954358490917 -0.01032349654607717)
(-7.594107890868305e-05 -1.537998697338499e-05 1.742713150716946e-05)
(5.863303038779343e-05 -1.481959175608801e-05 1.665567533493166e-05)
(0.000612359157456661 0.001064829013392636 -0.0002892233091574177)
(8.80032297216809e-05 -0.0001072684114047589 -8.764682981841288e-05)
(-7.121229801240536e-05 0.0001201504437483801 2.954725450159884e-05)
(3.365606209707532e-05 -8.194715297582449e-05 1.336527516667318e-05)
(6.880375252945616e-05 -6.096827255505942e-05 0.0001539773945746832)
(0.0001900292966218554 5.658055771057965e-05 -0.0002195324457680251)
(-0.0001173255168158868 -9.690373555054196e-05 1.496708397889957e-05)
(1.164856923841236e-05 5.375067159988916e-05 -4.227137922977538e-05)
(0.0002869965005582745 0.0001582503004175805 -9.464217482723114e-05)
(0.0002083063278112455 -0.0001331163270677087 -0.0001385191010733268)
(-0.0001439005473931218 -0.0001422762203509501 -4.784188257890332e-05)
(0.00335557802142915 -0.009564860023651872 0.03197756515781287)
(-0.0004018918590548894 0.0001606462837600298 1.443213820675988e-05)
(-0.001423821131945099 0.0002155058595318077 -0.0001856090040915214)
(5.625409003825457e-05 -6.913054764278874e-05 -0.0001442314297555188)
(-3.313662057140248e-05 2.793615623562879e-05 -6.841176430933795e-05)
(0.001108064413874831 -0.000707037332900564 -0.0007315070856201108)
(0.003894382931359013 0.01990964515576634 -0.008788509969079806)
(0.004292035330062094 0.001053684221119351 0.0001527695905475059)
(0.07103339802247541 -0.0002054029086685288 0.01856664435516783)
(0.0001070005588258467 6.057493363905332e-05 4.175675791116934e-05)
(-0.04551665967212522 0.02736777038326959 -0.05595698676171332)
(0.0001718436385403376 -0.0003088849497332008 -2.968300147151862e-05)
(-0.01469109121710538 0.005680887054612931 1.180933777272024e-05)
(3.742129564759905e-05 0.0001132817596181974 -3.562489298733181e-05)
(-8.162186472501913e-05 -0.0001872999891316577 2.628639436549957e-05)
(0.1358045898878641 -0.001324639812750938 0.01899120825296345)
(-7.738871023034662e-05 0.0002652625298639344 0.0001817653559017857)
(-0.0008306851261384945 3.41491202129696e-05 -0.0005852883846686404)
(3.144933852394315e-05 -2.075348511662592e-05 0.0001171986789625051)
(3.619898460773594e-05 0.000136912270965922 2.459919873179089e-05)
(-0.0001330409717327811 7.62273900652782e-05 -6.391695970032056e-05)
(-0.005234197379797186 0.01010848829541903 0.006072968750812653)
(0.0001710160194235913 0.0004939948114359402 5.332414395503156e-05)
(0.001738625040255398 0.0004311675071838775 0.0006160613702985135)
(8.351133591208021e-05 2.993303039296728e-05 5.242167932393492e-05)
(0.0002715926099624838 0.0007085176173163239 0.0006318681944729457)
(0.001252244617223357 -0.001472727875143527 0.0008096654903307654)
(-0.4751450589235268 -0.03754910919703323 0.339498886797905)
(3.962610365968462e-05 -5.975533302817826e-05 -4.037390881444421e-05)
(0.0001248585701335125 -3.516737795865723e-05 -9.447971532970834e-06)
(3.168661191025762e-05 6.824189589733012e-05 -1.160016387120148e-05)
(-7.725853517941055e-06 -5.62152162741824e-07 -3.984432794626515e-05)
(7.879954732832509e-05 1.788558303204969e-05 1.64665852606345e-06)
(0.0001305659549657659 -1.115989606408921e-05 3.754520940591532e-05)