# Force coefficients    
# dragDir               : (1.0000000000000000e+00 0.0000000000000000e+00 0.0000000000000000e+00)
# sideDir               : (0.0000000000000000e+00 0.0000000000000000e+00 -1.0000000000000000e+00)
# liftDir               : (0.0000000000000000e+00 1.0000000000000000e+00 0.0000000000000000e+00)
# rollAxis              : (1.0000000000000000e+00 0.0000000000000000e+00 0.0000000000000000e+00)
# pitchAxis             : (0.0000000000000000e+00 0.0000000000000000e+00 -1.0000000000000000e+00)
# yawAxis               : (0.0000000000000000e+00 1.0000000000000000e+00 0.0000000000000000e+00)
# magUInf               : 5.0000000000000000e+00
# lRef                  : 1.0000000000000000e+00
# Aref                  : 1.0000000000000000e+00
# CofR                  : (0.0000000000000000e+00 0.0000000000000000e+00 0.0000000000000000e+00)
#
# Time                  	Cd                      	Cs                      	Cl                      	CmRoll                  	CmPitch                 	CmYaw                   	Cd(f)                   	Cd(r)                   	Cs(f)                   	Cs(r)                   	Cl(f)                   	Cl(r)                   
0.00434783              	2.5584346626316194e+01	8.3303492410215130e-01	-1.8091848112087561e+01	8.5699820300020402e-01	1.6948540611484052e+02	-1.5462514809874039e+00	1.3649171516158301e+01	1.1935175110157893e+01	-1.1297340189363283e+00	1.9627689430384796e+00	1.6043948205879673e+02	-1.7853133017088430e+02
0.00869565              	4.8786310607896333e+00	-3.7102698866984046e-01	-8.7246690419951545e-01	4.7723885455554510e-01	1.6105149615660679e+01	5.7538281570369365e-01	2.9165543849503619e+00	1.9620766758392716e+00	3.8986932136877339e-01	-7.6089631003861391e-01	1.5668916163560921e+01	-1.6541383067760435e+01
0.0130435               	4.8726855935366356e+00	-3.8832185723843704e-01	-8.8777164563028854e-01	9.5909525471812251e-01	1.6438801226959669e+01	-7.6659986808208169e-01	3.3954380514864404e+00	1.4772475420501952e+00	-9.6076079670130021e-01	5.7243893946286317e-01	1.5994915404144525e+01	-1.6882687049774812e+01
0.0173913               	4.8312923260568814e+00	-3.8496813610598790e-01	-9.1541575929011720e-01	1.0856932289061350e+00	1.6524924364022606e+01	-1.3375851071818725e+00	3.5013393919345757e+00	1.3299529341223058e+00	-1.5300691752348665e+00	1.1451010391288785e+00	1.6067216484377546e+01	-1.6982632243667666e+01
0.0217391               	4.8187672655104876e+00	-2.8650232174969048e-01	-9.4964076541925879e-01	8.4182348585291711e-01	1.6614108703016289e+01	-8.8262325897719240e-01	3.2512071186081610e+00	1.5675601469023266e+00	-1.0258744198520375e+00	7.3937209810234716e-01	1.6139288320306658e+01	-1.7088929085725919e+01
0.026087                	4.8008112681591326e+00	-2.9636034322248334e-01	-9.5336064165597789e-01	9.2784764005065190e-01	1.6474768398813204e+01	-1.1711388011980068e+00	3.3282532741302182e+00	1.4725579940289144e+00	-1.3193189728092485e+00	1.0229586295867652e+00	1.5998088077985216e+01	-1.6951448719641192e+01
0.0304348               	4.8136239032788373e+00	-4.1769938305128490e-01	-9.8227794624338105e-01	1.3481404281576104e+00	1.6655691643115290e+01	-2.1555646485739146e+00	3.7549523797970288e+00	1.0586715234818083e+00	-2.3644143400995570e+00	1.9467149570482722e+00	1.6164552669993601e+01	-1.7146830616236979e+01
0.0347826               	4.7908455485410766e+00	-4.0105281711396740e-01	-9.6426603369345321e-01	1.1928258346448382e+00	1.6412402292997037e+01	-1.7820978212551781e+00	3.5882486089153764e+00	1.2025969396257001e+00	-1.9826242298121619e+00	1.5815714126981943e+00	1.5930269276150311e+01	-1.6894535309843764e+01
0.0391304               	4.7764627681597691e+00	-4.2950866837236651e-01	-9.3494982045765807e-01	1.2889406945255431e+00	1.6229209959411268e+01	-2.1351306886878829e+00	3.6771720786054276e+00	1.0992906895543415e+00	-2.3498850228740662e+00	1.9203763545016996e+00	1.5761735049182439e+01	-1.6696684869640098e+01
0.0434783               	4.7496470312507109e+00	-4.5095628557473483e-01	-8.9949327265831203e-01	1.4970939111482522e+00	1.6000028707096671e+01	-2.6470142105413084e+00	3.8719174267736074e+00	8.7772960447710324e-01	-2.8724923533286759e+00	2.4215360677539408e+00	1.5550282070767516e+01	-1.6449775343425827e+01
0.0478261               	4.7190453383578488e+00	-4.7741234911087338e-01	-8.9073064470171570e-01	1.4620680600776408e+00	1.5829142500596911e+01	-2.6264138755730118e+00	3.8215907292565650e+00	8.9745460910128361e-01	-2.8651200501284486e+00	2.3877077010175749e+00	1.5383777178246053e+01	-1.6274507822947768e+01
0.0521739               	4.6843172623447842e+00	-8.2067255213023249e-01	-8.5769684578901173e-01	2.1377902104152318e+00	1.5591633108687301e+01	-4.0575358573311888e+00	4.4799488415876239e+00	2.0436842075716033e-01	-4.4678721333963054e+00	3.6471995812660727e+00	1.5162784685792795e+01	-1.6020481531581808e+01
0.0565217               	4.6081446637532038e+00	-8.1401127524446937e-01	-8.0763297353984953e-01	2.2396785603344584e+00	1.4978906223602582e+01	-4.3007985015650734e+00	4.5437508922110599e+00	6.4393771542143430e-02	-4.7078041391873082e+00	3.8937928639428385e+00	1.4575089736832657e+01	-1.5382722710372507e+01
0.0608696               	4.5863826786916473e+00	-8.1171476412111221e-01	-7.5142298756478232e-01	1.9325509250289576e+00	1.4608008297532969e+01	-3.5288749114060511e+00	4.2257422643747811e+00	3.6064041431686600e-01	-3.9347322934666074e+00	3.1230175293454949e+00	1.4232296803750577e+01	-1.4983719791315361e+01
0.0652174               	4.5220137721096059e+00	-5.8394965029806212e-01	-7.1426399182776523e-01	1.3864562328981400e+00	1.4321463067532427e+01	-2.4689758541606768e+00	3.6474631189529427e+00	8.7455065315666292e-01	-2.7609506793097078e+00	2.1770010290116457e+00	1.3964331071618545e+01	-1.4678595063446309e+01
0.0695652               	4.4620967969834107e+00	-5.3748986436739021e-01	-6.5914998106094103e-01	1.3428447669492520e+00	1.3831791928969935e+01	-2.6305643937015484e+00	3.5738931654409574e+00	8.8820363154245330e-01	-2.8993093258852434e+00	2.3618194615178534e+00	1.3502216938439464e+01	-1.4161366919500406e+01
0.073913                	4.4068216310318213e+00	-4.6460181613631912e-01	-6.2896461068312703e-01	1.3376815346249864e+00	1.3521086232429571e+01	-2.5548029933569425e+00	3.5410923501408971e+00	8.6572928089092427e-01	-2.7871039014251022e+00	2.3225020852887828e+00	1.3206603927088008e+01	-1.3835568537771135e+01
0.0782609               	4.3532842430651737e+00	-5.0706286732595229e-01	-6.0926475495469878e-01	1.3937983169473678e+00	1.3363192834116489e+01	-2.6944629059442025e+00	3.5704404384799546e+00	7.8284380458521907e-01	-2.9479943396071784e+00	2.4409314722812265e+00	1.3058560456639141e+01	-1.3667825211593838e+01
0.0826087               	4.3255097569421626e+00	-4.8407534569691130e-01	-5.9851229011088458e-01	1.3324529066164488e+00	1.2970901934942020e+01	-2.4427282561126753e+00	3.4952077850875298e+00	8.3030197185463250e-01	-2.6847659289611308e+00	2.2006905832642198e+00	1.2671645789886577e+01	-1.3270158079997463e+01
0.0869565               	4.2951191292028899e+00	-3.4718673079647328e-01	-5.7708718497067701e-01	9.8744251808462158e-01	1.2897609717973804e+01	-1.6958230681746240e+00	3.1350020826860665e+00	1.1601170465168233e+00	-1.8694164335728607e+00	1.5222297027763874e+00	1.2609066125488466e+01	-1.3186153310459142e+01
0.0913043               	4.2400353391552050e+00	-3.2880887105567613e-01	-5.4667708029232098e-01	9.6926417195755110e-01	1.2615839060463969e+01	-1.8356730585547001e+00	3.0892818415351537e+00	1.1507534976200513e+00	-2.0000774940825381e+00	1.6712686230268621e+00	1.2342500520317810e+01	-1.2889177600610129e+01
0.0956522               	4.1896106214373550e+00	-3.0283325756362661e-01	-5.1497905920301223e-01	9.4647839946440027e-01	1.2327393868878662e+01	-1.8317452157375476e+00	3.0412837101830776e+00	1.1483269112542773e+00	-1.9831618445193608e+00	1.6803285869557343e+00	1.2069904339277157e+01	-1.2584883398480168e+01
0.1                     	4.1365520021722109e+00	-2.9562591970381252e-01	-5.1270711120163837e-01	9.4024979324501134e-01	1.2237910657342331e+01	-1.8015189858013445e+00	3.0085257943311170e+00	1.1280262078410941e+00	-1.9493319456532507e+00	1.6537060259494383e+00	1.1981557101741512e+01	-1.2494264212943150e+01
0.104348                	4.1219763612562383e+00	-3.0076808677608602e-01	-5.1561553142301964e-01	1.0818172422077044e+00	1.2247702334105050e+01	-2.1925375685300894e+00	3.1428054228358233e+00	9.7917093842041480e-01	-2.3429216119181326e+00	2.0421535251420462e+00	1.1989894568393540e+01	-1.2505510099816560e+01
0.108696                	4.0769024218834931e+00	-1.6509589805729888e-01	-5.0004369164836615e-01	8.7990504860452912e-01	1.2086344857829214e+01	-2.0242084910069509e+00	2.9183562595462758e+00	1.1585461623372173e+00	-2.1067564400356003e+00	1.9416605419783015e+00	1.1836323012005032e+01	-1.2336366703653397e+01
0.113043                	4.0412717775998281e+00	-1.7563484655131228e-01	-4.8519956081655574e-01	8.7923426235308100e-01	1.1870474191644554e+01	-1.8704784355013251e+00	2.8998701511529950e+00	1.1414016264468332e+00	-1.9582958587769812e+00	1.7826610122256690e+00	1.1627874411236276e+01	-1.2113073972052833e+01
0.117391                	4.0192314197348145e+00	-3.0042024450738153e-01	-5.0480137530989511e-01	9.8244474542084226e-01	1.1880449648994386e+01	-2.0055837347855348e+00	2.9920604552882493e+00	1.0271709644465650e+00	-2.1557938570392254e+00	1.8553736125318441e+00	1.1628048961339438e+01	-1.2132850336649334e+01
0.121739                	4.0012096832065751e+00	-3.5359093714607848e-01	-4.6524348867951387e-01	9.6084952449434080e-01	1.1604715940652664e+01	-1.7785873606231795e+00	2.9614543660976285e+00	1.0397553171089466e+00	-1.9553828291962188e+00	1.6017918920501402e+00	1.1372094196312906e+01	-1.1837337684992422e+01
0.126087                	3.9887428363019470e+00	-3.4360757446051032e-01	-4.5984842827852285e-01	1.0282095834549103e+00	1.1494732488813803e+01	-2.0512056588950727e+00	3.0225810016058841e+00	9.6616183469606320e-01	-2.2230094461253280e+00	1.8794018716648175e+00	1.1264808274674541e+01	-1.1724656702953064e+01
0.130435                	4.0074831369508619e+00	-5.9520044667282090e-01	-5.0114474141964349e-01	1.4223361117944975e+00	1.1684135152994319e+01	-2.6835680914432056e+00	3.4260776802699286e+00	5.8140545668093346e-01	-2.9811683147796160e+00	2.3859678681067953e+00	1.1433562782284497e+01	-1.1934707523704141e+01
0.134783                	3.9682131324277088e+00	-3.9734280643803360e-01	-4.8838408409953926e-01	1.0880289274399786e+00	1.1635668763094261e+01	-2.1395110318658066e+00	3.0721354936538328e+00	8.9607763877387581e-01	-2.3381824350848235e+00	1.9408396286467897e+00	1.1391476721044491e+01	-1.1879860805144030e+01
0.13913                 	3.9497215194414332e+00	-4.4184056582158765e-01	-4.7090579029106866e-01	1.0730475326757509e+00	1.1361798752794389e+01	-2.0317044844346519e+00	3.0479082923964675e+00	9.0181322704496569e-01	-2.2526247673454458e+00	1.8107842015238580e+00	1.1126345857648854e+01	-1.1597251647939924e+01
0.143478                	3.9390457458170332e+00	-4.0760378736348846e-01	-4.8616867191356494e-01	1.1493206968771732e+00	1.1490717945667690e+01	-2.0508350606889176e+00	3.1188435697856898e+00	8.2020217603134338e-01	-2.2546369543706617e+00	1.8470331670071733e+00	1.1247633609710908e+01	-1.1733802281624472e+01
0.147826                	3.9068689675519575e+00	-3.6438311156769465e-01	-4.7430594283447414e-01	9.1125962887793888e-01	1.1305557166236408e+01	-1.5261722316119279e+00	2.8646941126539174e+00	1.0421748548980398e+00	-1.7083637873957753e+00	1.3439806758280806e+00	1.1068404194819172e+01	-1.1542710137653645e+01
0.152174                	3.8887148790637056e+00	-4.0531091988861340e-01	-4.6263506710628632e-01	1.0457761183990588e+00	1.1351624988494798e+01	-1.9012555657773744e+00	2.9901335579309114e+00	8.9858132113279399e-01	-2.1039110257216813e+00	1.6986001058330678e+00	1.1120307454941655e+01	-1.1582942522047942e+01
0.156522                	3.8761698552596431e+00	-3.8238341609467996e-01	-4.4623172562257379e-01	9.8421281557121809e-01	1.1164139741449931e+01	-1.7224471229585339e+00	2.9222977432010397e+00	9.5387211205860345e-01	-1.9136388310058738e+00	1.5312554149111939e+00	1.0941023878638644e+01	-1.1387255604261219e+01
0.16087                 	3.8708791964474201e+00	-3.7216292557024444e-01	-4.5969486696166878e-01	1.0069898981785712e+00	1.1198972867223711e+01	-1.4673247540602661e+00	2.9424294964022812e+00	9.2844970004513883e-01	-1.6534062168453882e+00	1.2812432912751439e+00	1.0969125433742876e+01	-1.1428820300704546e+01
0.165217                	3.8807591303005418e+00	-4.9743275785390917e-01	-4.7443382880812590e-01	1.2282019816421841e+00	1.1265374625202019e+01	-1.7739644224195057e+00	3.1685815467924550e+00	7.1217758350808680e-01	-2.0226808013464601e+00	1.5252480434925511e+00	1.1028157710797956e+01	-1.1502591539606083e+01
0.169565                	3.8691643054827063e+00	-3.8351252767762245e-01	-4.7892142702666218e-01	8.8029008882223725e-01	1.1295762138524800e+01	-1.0865355846785354e+00	2.8148722415635903e+00	1.0542920639191160e+00	-1.2782918485173467e+00	8.9477932083972411e-01	1.1056301425011469e+01	-1.1535222852038132e+01
0.173913                	3.8602286459707194e+00	-1.4270551904321779e-01	-5.1147026356969738e-01	5.5639417511708700e-01	1.1385621458569652e+01	-3.9726633873238448e-01	2.4865084981024466e+00	1.3737201478682728e+00	-4.6861909825399339e-01	3.2591357921077557e-01	1.1129886326784803e+01	-1.1641356590354501e+01
0.178261                	3.8376220808844672e+00	-2.0599016750057897e-01	-5.0457473260182728e-01	7.7194326690526338e-01	1.1269797746309436e+01	-8.7185795389642129e-01	2.6907543073474969e+00	1.1468677735369703e+00	-9.7485303764671083e-01	7.6886287014613175e-01	1.1017510380008522e+01	-1.1522085112610350e+01
0.182609                	3.8219318413709371e+00	-1.9321649990333417e-01	-4.9414544156782414e-01	8.2037891937271601e-01	1.1248261210885779e+01	-1.1694434626494101e+00	2.7313448400581848e+00	1.0905870013127525e+00	-1.2660517126010773e+00	1.0728352126977430e+00	1.1001188490101868e+01	-1.1495333931669691e+01
0.186957                	3.8285751688141403e+00	-7.4214816224309046e-02	-5.1724968738173649e-01	5.5754682402492983e-01	1.1231927423940290e+01	-6.2547139999978230e-01	2.4718344084320001e+00	1.3567407603821402e+00	-6.6257880811193681e-01	5.8836399188762778e-01	1.0973302580249422e+01	-1.1490552267631157e+01
0.191304                	3.8134059158939513e+00	-1.1874102903451689e-01	-5.0602038615346656e-01	7.4246672115108980e-01	1.1085955206542407e+01	-1.3846069607630875e+00	2.6491696790980654e+00	1.1642362367958858e+00	-1.4439774752803460e+00	1.3252364462458290e+00	1.0832945013465674e+01	-1.1338965399619140e+01
0.195652                	3.8057830839256210e+00	-3.0253067699907465e-01	-4.8399007331175004e-01	8.9001219736200876e-01	1.0851689855250299e+01	-1.4832638965290565e+00	2.7929037393248191e+00	1.0128793446008018e+00	-1.6345292350285938e+00	1.3319985580295193e+00	1.0609694818594424e+01	-1.1093684891906175e+01
0.2                     	3.8102709263085424e+00	-3.3307657731216600e-01	-5.1163419224813911e-01	9.9927256270457954e-01	1.1039088844894309e+01	-1.6040645347252724e+00	2.9044080258588507e+00	9.0586290044969164e-01	-1.7706028233813553e+00	1.4375262460691896e+00	1.0783271748770240e+01	-1.1294905941018378e+01
0.204545                	3.7696822193404036e+00	-3.5157791902544727e-01	-4.7792399638172633e-01	1.0458667444554470e+00	1.0879018942033248e+01	-2.0601456006409489e+00	2.9307078541256488e+00	8.3897436521475477e-01	-2.2359345601536726e+00	1.8843566411282253e+00	1.0640056943842385e+01	-1.1117980940224111e+01
0.209091                	3.7542403152889405e+00	-3.0252352118911924e-01	-4.6832422664423484e-01	8.8658001654556140e-01	1.0807491040300377e+01	-1.8932887266830953e+00	2.7637001741900318e+00	9.9054014109890887e-01	-2.0445504872776548e+00	1.7420269660885357e+00	1.0573328926978260e+01	-1.1041653153622494e+01
0.213636                	3.7230703203608781e+00	-4.2953078827188806e-01	-4.4040837081568723e-01	1.2307935523233662e+00	1.0574840101439591e+01	-2.6044118743264399e+00	3.0923287125038055e+00	6.3074160785707289e-01	-2.8191772684623841e+00	2.3896464801904957e+00	1.0354635916031746e+01	-1.0795044286847435e+01
0.218182                	3.7378360792886864e+00	-3.8692926907614777e-01	-4.3820343767431741e-01	1.1324539419924153e+00	1.0650611105567586e+01	-2.3543041860699252e+00	3.0013719816367583e+00	7.3646409765192788e-01	-2.5477688206079989e+00	2.1608395515318515e+00	1.0431509386730427e+01	-1.0869712824404745e+01
0.222727                	3.7171850886409423e+00	-3.6207150725196358e-01	-4.3558889734836653e-01	1.0959109091605317e+00	1.0594516307276781e+01	-2.1554964817027096e+00	2.9545034534810029e+00	7.6268163515993947e-01	-2.3365322353286913e+00	1.9744607280767279e+00	1.0376721858602597e+01	-1.0812310755950964e+01
0.227273                	3.7042701308165871e+00	-3.9583994625660029e-01	-4.3228007360445991e-01	1.1741276989648968e+00	1.0576086953784600e+01	-2.2740304138917184e+00	3.0262627643731905e+00	6.7800736644339676e-01	-2.4719503870200188e+00	2.0761104407634181e+00	1.0359946916982370e+01	-1.0792226990586830e+01
0.231818                	3.6802037938853833e+00	-3.2490298749858548e-01	-4.0227192342405643e-01	1.0274661541276078e+00	1.0366508811986131e+01	-1.8570497535676298e+00	2.8675680510702994e+00	8.1263574281508388e-01	-2.0195012473169225e+00	1.6945982598183371e+00	1.0165372850274103e+01	-1.0567644773698159e+01
0.236364                	3.6680181142349593e+00	-2.8967909624916649e-01	-4.1041586033171640e-01	1.0473209546341862e+00	1.0401132878828417e+01	-2.0402522867075814e+00	2.8813300117516656e+00	7.8668810248329346e-01	-2.1850918348321646e+00	1.8954127385829982e+00	1.0195924948662558e+01	-1.0606340808994275e+01
0.240909                	3.6553252701631846e+00	-2.4459194020471511e-01	-4.0841432145283374e-01	7.9105030368974905e-01	1.0275673768634460e+01	-1.5360490800693321e+00	2.6187129387713415e+00	1.0366123313918432e+00	-1.6583450501716896e+00	1.4137531099669745e+00	1.0071466607908043e+01	-1.0479880929360878e+01
0.245455                	3.6368707288962527e+00	-2.5192813199505892e-01	-4.3528735307411709e-01	7.6604000296133545e-01	1.0353143988515543e+01	-1.3342222487984701e+00	2.5844753674094618e+00	1.0523953614867909e+00	-1.4601863147959995e+00	1.2082581828009407e+00	1.0135500311978484e+01	-1.0570787665052601e+01
0.25                    	3.6237413853756504e+00	-3.1405824053152925e-01	-4.2823881757041898e-01	7.3047564196010162e-01	1.0338010326374127e+01	-1.1897381308485495e+00	2.5423463346479269e+00	1.0813950507277235e+00	-1.3467672511143141e+00	1.0327090105827850e+00	1.0123890917588916e+01	-1.0552129735159337e+01
0.254545                	3.6051953822371372e+00	-2.9418919939198823e-01	-4.2674065108380888e-01	6.9560466177741553e-01	1.0330005453089122e+01	-1.1672093533239465e+00	2.4982023528959840e+00	1.1069930293411532e+00	-1.3143039530199405e+00	1.0201147536279525e+00	1.0116635127547218e+01	-1.0543375778631026e+01
0.259091                	3.5989523114930329e+00	-2.7621867104097886e-01	-4.3196328086846697e-01	6.2725088893689274e-01	1.0330014869217520e+01	-9.8313996847517093e-01	2.4267270446834091e+00	1.1722252668096238e+00	-1.1212493039956604e+00	8.4503063295468150e-01	1.0114033228783287e+01	-1.0545996509651753e+01
0.263636                	3.5842214746740488e+00	-1.9554973886815266e-01	-4.2657246933248194e-01	3.8089571634085084e-01	1.0290726118215680e+01	-5.2804196742575660e-01	2.1730064536778753e+00	1.4112150209961736e+00	-6.2581683685983291e-01	4.3026709799168028e-01	1.0077439883549440e+01	-1.0504012352881920e+01
0.268182                	3.5764186244724741e+00	-1.1174206608175634e-01	-4.3670032737852138e-01	2.6814801542555555e-01	1.0312923486369412e+01	-1.2926293427489940e-01	2.0563573276617926e+00	1.5200612968106815e+00	-1.8513396731577758e-01	7.3391901234021228e-02	1.0094573322680152e+01	-1.0531273650058672e+01
0.272727                	3.5608391377660364e+00	-1.7675541014876714e-01	-4.3980185126110483e-01	3.7890373518034914e-01	1.0389490112487184e+01	-2.5473169624042979e-01	2.1593233040633675e+00	1.4015158337026690e+00	-3.4310940131481338e-01	1.6635399116604621e-01	1.0169589186856632e+01	-1.0609391038117737e+01
0.277273                	3.5467757582463713e+00	-1.4898207231758134e-01	-4.3707070843014328e-01	3.5733315528490794e-01	1.0337099197267122e+01	-2.8952498873568233e-01	2.1307210344080936e+00	1.4160547238382777e+00	-3.6401602489447299e-01	2.1503395257689167e-01	1.0118563843052051e+01	-1.0555634551482193e+01
0.281818                	3.5354510054175869e+00	-4.7333597155035698e-02	-4.1744179874144793e-01	1.0422023026279911e-01	1.0241417214541080e+01	1.3256706033154997e-01	1.8719457329715925e+00	1.6635052724459944e+00	1.0890026175403211e-01	-1.5623385890906782e-01	1.0032696315170357e+01	-1.0450138113911803e+01
0.286364                	3.5310951953473406e+00	-8.4275288931755246e-02	-4.0919838036841172e-01	4.1954965362999842e-02	1.0275288139281365e+01	5.3659457569860047e-01	1.8075025630366701e+00	1.7235926323106705e+00	4.9445693123272283e-01	-5.7873222016447812e-01	1.0070688949097159e+01	-1.0479887329465571e+01
0.290909                	3.5292988778392429e+00	-1.2803285368030576e-01	-4.2289068608713143e-01	1.8018906616342223e-01	1.0352577063222196e+01	2.0298466479662083e-01	1.9448385050830437e+00	1.5844603727561992e+00	1.3896823795646795e-01	-2.6700109163677371e-01	1.0141131720178629e+01	-1.0564022406265762e+01
0.293939                	3.5205602237643605e+00	1.8880219606519522e-03	-4.0276649856644647e-01	-1.8975993419845341e-01	1.0230307699710876e+01	1.1008043291742546e+00	1.5705201776837268e+00	1.9500400460806337e+00	1.1017483401545807e+00	-1.0998603181939286e+00	1.0028924450427652e+01	-1.0431690948994099e+01
0.29697                 	3.4641378839022283e+00	3.3612368402363882e-02	-3.7587776166005632e-01	5.5688896496027644e-02	9.7903694732359412e+00	2.2295260749336687e-01	1.7877578384471418e+00	1.6763800454550866e+00	2.3975879169454881e-01	-2.0614642329218494e-01	9.6024305924059128e+00	-9.9783083540659696e+00
0.3                     	3.4625999341165716e+00	-1.6974997297597141e-01	-3.7394310382385032e-01	6.9737191873112347e-01	9.7845296864752136e+00	-1.1358500212854166e+00	2.4286718857894094e+00	1.0339280483271622e+00	-1.2207250077734022e+00	1.0509750347974309e+00	9.5975581345632879e+00	-9.9715012383871393e+00
0.303448                	3.4545502969888142e+00	-2.4286649650463754e-01	-3.6214676943387858e-01	9.0927476202305335e-01	9.7394785634537531e+00	-1.5621525451706131e+00	2.6365499105174606e+00	8.1800038647135376e-01	-1.6835857934229319e+00	1.4407192969182943e+00	9.5584051787368143e+00	-9.9205519481706919e+00
0.30731                 	3.4607142832328179e+00	-2.6093950129485116e-01	-3.6023417816554237e-01	1.0446365038614585e+00	9.7149609405427437e+00	-1.9099931478912249e+00	2.7749936454778674e+00	6.8572063775495051e-01	-2.0404628985386504e+00	1.7795233972437994e+00	9.5348438514599732e+00	-9.8950780296255143e+00
0.311724                	3.4716479595873810e+00	-2.3857441608616478e-01	-3.4511384945346807e-01	9.5215595005866627e-01	9.6154840913083799e+00	-1.7755127199393204e+00	2.6879799298523568e+00	7.8366802973502425e-01	-1.8947999279824028e+00	1.6562255118962379e+00	9.4429271665816454e+00	-9.7880410160351143e+00
0.316628                	3.4646047889475278e+00	-2.8170674610108826e-01	-3.4528490364141201e-01	1.1771111300361188e+00	9.5761601582968137e+00	-2.3422312527752780e+00	2.9094135245098824e+00	5.5519126443764510e-01	-2.4830846258258221e+00	2.2013778797247339e+00	9.4035177064761069e+00	-9.7488026101175205e+00
0.321533                	3.4573194456282978e+00	-8.2058542637908169e-02	-3.5017823174517565e-01	5.8077679986593167e-01	9.5259662352630308e+00	-1.1310489104304298e+00	2.3094365226800804e+00	1.1478829229482173e+00	-1.1720781817493839e+00	1.0900196391114756e+00	9.3508771193904430e+00	-9.7010553511356186e+00
0.326437                	3.4516590418140063e+00	-1.2593788775493334e-01	-3.6709860636262454e-01	7.2979474696478053e-01	9.5301552861478882e+00	-1.5115127080074149e+00	2.4556242678717837e+00	9.9603477394222262e-01	-1.5744816518848817e+00	1.4485437641299481e+00	9.3466059829665760e+00	-9.7137045893292004e+00
0.331341                	3.4522385219885945e+00	-1.5112066605742669e-01	-3.7586949286205229e-01	6.3251570259512679e-01	9.5291531437736463e+00	-1.1615299109011910e+00	2.3586349635894241e+00	1.0936035583991703e+00	-1.2370902439299043e+00	1.0859695778724776e+00	9.3412183973426206e+00	-9.7170878902046720e+00
0.335918                	3.4445657231107081e+00	-2.8413603144724259e-01	-3.8098249164444248e-01	9.3912232896050762e-01	9.5531075009123025e+00	-2.1775901707165879e+00	2.6614051905158616e+00	7.8316053259484641e-01	-2.3196581864402090e+00	2.0355221549929667e+00	9.3626162550900816e+00	-9.7435987467345235e+00
0.340496                	3.4522060825886687e+00	-1.6544284316785379e-01	-3.9931254676801425e-01	6.4228023945516299e-01	9.6723482063368742e+00	-1.3817048617693508e+00	2.3683832807494971e+00	1.0838228018391713e+00	-1.4644262833532777e+00	1.2989834401854239e+00	9.4726919329528663e+00	-9.8720044797208821e+00
0.345073                	3.4495827418773395e+00	-1.1825067391942387e-01	-3.9168382113970335e-01	6.5773221881459543e-01	9.5931057377762912e+00	-1.4293861736432119e+00	2.3825235897532653e+00	1.0670591521240742e+00	-1.4885115106029239e+00	1.3702608366834998e+00	9.3972638272064390e+00	-9.7889476483461433e+00
0.34965                 	3.4332723748995764e+00	-8.7694670845601466e-02	-3.8096425318092070e-01	5.1002018727608422e-01	9.5547204571966464e+00	-1.3181283499159799e+00	2.2266563747258723e+00	1.2066160001737041e+00	-1.3619756853387808e+00	1.2742810144931791e+00	9.3642383306061863e+00	-9.7452025837871066e+00
0.354227                	3.4211694429736275e+00	-1.5889658782503838e-01	-4.0803093656085276e-01	7.3073620363467529e-01	9.6813757659377551e+00	-1.8574002870798036e+00	2.4413209251214889e+00	9.7984851785213845e-01	-1.9368485809923228e+00	1.7779519931672845e+00	9.4773602976573290e+00	-9.8853912342181811e+00
0.358805                	3.4099740402027701e+00	-1.8493784132419824e-01	-4.0184094380402957e-01	6.3670936293870684e-01	9.5931872443809176e+00	-1.3883811246074402e+00	2.3416963830400919e+00	1.0682776571626782e+00	-1.4808500452695395e+00	1.2959122039453410e+00	9.3922667724789033e+00	-9.7941077162829320e+00
0.363382                	3.4092098044155632e+00	-2.5875274737153381e-01	-4.0922209612105470e-01	7.1492652032223669e-01	9.6369121777299078e+00	-1.5669938754068371e+00	2.4195314225300182e+00	9.8967838188554491e-01	-1.6963702490926040e+00	1.4376175017210702e+00	9.4323011296693799e+00	-9.8415232257904357e+00
0.367959                	3.3963947538268560e+00	-1.9728797788641966e-01	-4.1082408057028708e-01	5.6163682090704015e-01	9.5964283400346346e+00	-9.5576580069844697e-01	2.2598341978204681e+00	1.1365605560063878e+00	-1.0544097896416569e+00	8.5712181175523716e-01	9.3910162997494915e+00	-9.8018403803197778e+00
0.372536                	3.3853936968846225e+00	-3.0562667697757706e-01	-4.1800164313592419e-01	7.6707921177160721e-01	9.6290663235662173e+00	-1.2023703377304749e+00	2.4597760602139185e+00	9.2561763667070407e-01	-1.3551836762192635e+00	1.0495569992416862e+00	9.4200655019982555e+00	-9.8380671451341790e+00
0.377114                	3.3962498162884018e+00	-3.1645459554198102e-01	-4.3323517363911601e-01	6.9141368654314750e-01	9.6911011908950861e+00	-8.5336579853963990e-01	2.3895385946873482e+00	1.0067112216010534e+00	-1.0115930963106303e+00	6.9513850076864936e-01	9.4744836040755285e+00	-9.9077187777146438e+00
0.381691                	3.3729870272595130e+00	-2.7480378475000067e-01	-4.2881909261636292e-01	4.8630220336498564e-01	9.6381034250206010e+00	-3.2821995513726071e-01	2.1727957169947421e+00	1.2001913102647710e+00	-4.6562184751226104e-01	1.9081806276226038e-01	9.4236938787124203e+00	-9.8525129713287818e+00
0.386268                	3.3639417038193309e+00	-2.4109787582637754e-01	-4.2381839010616229e-01	4.4679950959900394e-01	9.6592974410077996e+00	-2.8466352502626152e-01	2.1287703615086695e+00	1.2351713423106614e+00	-4.0521246293945029e-01	1.6411458711307275e-01	9.4473882459547180e+00	-9.8712066360608812e+00
0.390845                	3.3529537594363132e+00	-2.2936389628038273e-01	-4.1877085763562888e-01	3.9835835369206501e-01	9.6202867408453798e+00	-3.8166071734647034e-02	2.0748352334102216e+00	1.2781185260260917e+00	-1.5284801987483840e-01	-7.6515876405544331e-02	9.4109013120275655e+00	-9.8296721696631941e+00
0.395423                	3.3554965155963719e+00	-2.3325640538564149e-01	-4.2258744630822181e-01	3.6561400571984770e-01	9.6058087766469278e+00	-7.7121780018548830e-02	2.0433622635180337e+00	1.3121342520783381e+00	-1.9374998271136956e-01	-3.9506422674271915e-02	9.3945150534928175e+00	-9.8171024998010381e+00
0.4                     	3.3196752267293483e+00	-1.0588830535757654e-01	-4.2088537945783161e-01	3.2640499985301913e-01	9.5879427111986377e+00	-1.0993180544306116e-01	1.9862426132176934e+00	1.3334326135116550e+00	-1.6287595812184943e-01	5.6987652764272895e-02	9.3775000214697215e+00	-9.7983854009275539e+00
0.404762                	3.3146937598295834e+00	-1.4605969938970481e-01	-4.1847210729385498e-01	4.1759156003061404e-01	9.5840004113737667e+00	-2.4950750815829553e-01	2.0749384399454058e+00	1.2397553198841775e+00	-3.2253735785314797e-01	1.7647765846344313e-01	9.3747643577268391e+00	-9.7932364650206942e+00
0.409524                	3.3167739376744949e+00	-5.5501157579973967e-02	-4.2393830665228777e-01	1.6443960824769266e-01	9.6177663826901068e+00	3.6587775262719696e-01	1.8228265770849401e+00	1.4939473605895548e+00	3.3812717383720997e-01	-3.9362833141718395e-01	9.4057972293639622e+00	-9.8297355360162513e+00
0.414286                	3.3050150964551199e+00	-1.6813651308649444e-01	-3.9997231975416220e-01	2.4829559925495384e-01	9.5571555032926021e+00	3.5553545339471149e-01	1.9008031474825138e+00	1.4042119489726061e+00	2.7146719685146425e-01	-4.3960370993795872e-01	9.3571693434155208e+00	-9.7571416631696835e+00