/*--------------------------------*- C++ -*----------------------------------*\
| =========                 |                                                 |
| \\      /  F ield         | OpenFOAM: The Open Source CFD Toolbox           |
|  \\    /   O peration     | Version:  v1906                                 |
|   \\  /    A nd           | Web:      www.OpenFOAM.com                      |
|    \\/     M anipulation  |                                                 |
\*---------------------------------------------------------------------------*/
FoamFile
{
    version     2.0;
    format      ascii;
    class       volVectorField;
    location    "0.9";
    object      U;
}
// * * * * * * * * * * * * * * * * * * * * * * * * * * * * * * * * * * * * * //

dimensions      [0 1 -1 0 0 0 0];


internalField   nonuniform List<vector> 
19631
(
(5.044547600092626 0.04039800763862878 0.03747922667065417)
(4.988510866724412 -0.07189292863475873 0.02974058220195184)
(4.98772293276934 0.04372610760248231 -0.01956943911472693)
(4.847866123979549 0.5484791167609314 -0.2039595870632573)
(5.050872629140421 -0.01236696172656677 -0.1077453382540424)
(5.05701656835187 -0.05572551214868799 0.03014481613976545)
(4.982020768997324 0.0009766860843687618 0.001584014926514312)
(2.472318482044596 -0.1347590237960957 0.1149657611877473)
(4.130130658627871 -1.048570281037656 -0.4946217572359912)
(5.01077422312598 0.002364226570373606 0.004531151842073199)
(4.960961249130803 0.07920573484120071 -0.1154598305272813)
(5.084071547522854 -0.0115257324367691 -0.01204854397099216)
(4.120303103426067 -0.628915201347459 -0.0840808488092709)
(5.074544444886155 -0.01036791781772527 -0.02141400726947965)
(5.00159502798938 -0.001291158270333967 0.0004414189913266821)
(4.970361463086474 0.1602325477794918 -0.1299459184872895)
(5.086207246978558 0.04245279221982663 -0.008839995101973006)
(4.448160978061878 0.008539300246414458 0.03304358305970879)
(4.489368355193366 0.2476017667387291 0.1519514145914733)
(4.528254645596661 -0.3976640763278753 -0.01998224674824838)
(5.029938630263485 0.06729753751344114 0.0376179050802626)
(5.093906689776698 -0.0217888462490887 0.03044572248899889)
(4.593400898795513 0.04748909623333344 0.4688663478522654)
(4.997837997752663 -0.03770561074951937 -0.02524662639329246)
(5.114909808257771 -0.03064088372264109 0.02266011129684814)
(4.992312990097871 0.03710544164574456 -0.008964166834018635)
(5.111494932253478 -0.03637328753620545 0.02596995833222796)
(4.030645895511912 0.1286949612573904 -0.05194402352199337)
(5.029791626840253 0.1732636695986931 0.2311430233180214)
(5.00327831856303 -0.003442035198262481 5.452952574653119e-06)
(5.083247628380128 -0.02781763930961622 0.03251217407356329)
(5.082593630603461 -0.03495230526976763 0.002983265118877611)
(5.000013438058793 -0.01403014412652918 -0.08895440905050563)
(5.016799410406593 0.03433285404870397 0.02305251629156754)
(4.532087205687977 0.3382217248179523 0.1443925191140754)
(4.451994914340685 -0.06885936256013771 -0.2669216455269899)
(4.96927435058435 -0.01599733500063032 0.0008361843253156304)
(4.850616751156232 0.1403679253464385 -0.05101238928927313)
(5.098157763297488 -0.06359616049038108 -0.02463760382268346)
(4.939955835285239 0.1529407594227934 -0.1549063035201369)
(4.94765703557379 0.6445447292134586 0.3104142407661818)
(5.037648715764971 0.02422793748064922 0.02418425033391086)
(4.997777867074956 0.00456192773560508 -0.0005034203030538456)
(4.99765651066146 0.04049808598155383 0.04801477224267825)
(4.763555656333531 -0.4014797590543783 0.09810837193963055)
(4.54296415229512 0.0504966234836 0.08732657601679975)
(5.002535620651916 0.00457497998709156 0.0007714769976329022)
(5.039839550635959 0.05243481537462978 0.05426714162241696)
(5.052190518567117 0.03040065816888781 0.05182103359915738)
(5.08661410964489 -0.01251177531013984 0.0333487386626481)
(4.836746577559634 0.01043036561157522 -0.02419619060753602)
(4.838071228561272 0.06243151263836647 -0.02777934118702034)
(5.081237567742749 -0.006619919287753414 0.04708318133912618)
(4.41667550891817 0.1516829900590292 -0.3351934337937993)
(5.011104144556578 0.04864459960847998 0.05855888142140492)
(4.88059699490393 -0.09206745179807915 -0.01260969028476211)
(5.103199481272982 -0.04165069275241776 0.0223128674791489)
(5.085856530430435 -0.06837260731748077 0.04889258018610889)
(3.691507437770027 -0.3750578320342971 -0.1128679969672558)
(5.004527821686758 0.008692521282104919 0.0002170084047967565)
(5.011170257937361 -0.0007733515789630467 0.005839452828087713)
(2.710603604848258 -0.1965227374267701 -0.06493806074516205)
(3.44522580252953 0.1183359116003855 0.154571516788503)
(5.026093921846412 0.0511535982791533 -0.01920960869937098)
(5.069151957716884 0.05068981761329022 0.03099845783859771)
(3.485478586611725 -0.6490672561631935 -0.2238570285428792)
(5.075831808715742 -0.03048746561377206 0.03285070022237443)
(5.101152068586357 -0.01803393839453767 0.03526214263131146)
(4.944967217037113 0.02422890719709413 0.01450841019229478)
(5.01172100790831 0.003728344063095817 0.005519938487453423)
(5.011496521816768 0.007033086682177976 0.0008110275775905722)
(4.531512470090475 0.6096555820254127 -1.102951251666857)
(4.993090159902093 0.05145318050062842 -0.01946879336949234)
(5.067745774677958 -0.03139436286135421 0.02400559185331185)
(5.114161980089104 0.1065078432865295 0.1279912162364684)
(4.998291056540085 -0.03043094577605773 -0.1504446017398886)
(4.971751312349216 -0.026658046198177 -0.002619508454480511)
(4.967850376689213 0.1644526501598987 -0.2243539792871879)
(4.908073365717332 -0.05730845131512981 0.02398614808159022)
(1.443396618309633 -0.252871169278332 0.1019447626014189)
(4.996093214637705 0.002532319796160098 0.01036814957839337)
(4.995578692784194 0.05925470840839692 0.05335868944527764)
(4.933577024984316 0.1521304989977662 0.001538606463494891)
(5.091236776271288 0.0958380882713515 0.3082611674073171)
(2.110508622673197 -0.1121187376437859 -0.2405195777865942)
(2.234169216302699 -0.01137845071675771 -0.2923809186363419)
(5.083061469552186 -0.02610162053988639 0.02688349079379322)
(4.836422336689323 0.05470742727157138 -0.1764644266384961)
(3.704702926944738 0.1313803491968643 0.4435678912026333)
(5.039649993419158 0.02886162737783955 0.04379889986335277)
(2.828686200942433 -0.1656316588063166 -0.00916884747512238)
(5.083634199834824 -0.02836557916663111 0.02821653834096108)
(5.079474271059201 -0.01868655221951975 0.0156522727628514)
(5.079018931804051 -0.0396889268169498 0.02907922782128901)
(5.030165921347085 -0.01961379561075884 0.1002926429055971)
(3.20668727504993 -0.2606899070590021 -0.03422839606998418)
(5.037070505051798 0.02985466892574106 -0.03536446770840586)
(3.180239491538237 0.3315398051566728 0.1251982861474785)
(5.088349006013221 -0.0378732832622173 -0.01406399311159366)
(5.071654145155992 0.04502509710510048 0.09714171809386143)
(5.074061404267026 0.01031418599450276 0.04585306572393594)
(3.428155184150475 -0.02012855843023988 -0.2124454893136944)
(3.791557405860356 -0.1269560851830583 0.006144200560215297)
(5.030468505289215 0.04358024586461807 0.0320018547173016)
(3.864258656627375 -0.1443725110482937 0.007113931271180001)
(4.561751060634153 0.1000189436314124 0.2829706379719201)
(3.20872471251999 0.3045511097708494 0.3383326582699907)
(5.081161414542954 -0.0429325561708091 0.05053403557082534)
(5.088480528254514 -0.08914901861306262 -0.04176014612038002)
(4.213945547468374 0.1264960206604745 0.6280751878531703)
(4.996427843244778 0.447214342073855 0.4852663313397655)
(5.020940751632225 0.3038925161966604 0.1241320908189391)
(5.17701948079061 -0.04575724383825047 -0.01582901206420211)
(4.743997151941729 -0.1640494670959674 -0.2264797528676365)
(5.044475340855942 0.00315157204317988 -0.02789282793923221)
(5.031896047413407 -0.3642033104700381 0.1143037393891853)
(3.666805668819401 -0.03960071182716372 0.1682556919869493)
(5.099420140571002 -0.04870032849200308 0.01551247913673209)
(5.073699255630111 -0.09931217847135373 0.04456792545910926)
(5.067859830877461 -0.03831454455015033 0.02193898757810328)
(5.074791387393258 -0.03648499224288997 0.02193854765495884)
(5.090040337965496 -0.04334864514294797 0.004678149026838831)
(5.088249586384217 -0.03739998844545327 0.0007271228408881042)
(3.793259877469815 -0.3946503390216813 -0.9693843128974376)
(5.094729341343049 -0.03397978242086526 -0.003080125470831192)
(5.069319946811849 -0.0253704915288991 0.01176313694607359)
(4.912717677514301 0.09713638602853575 -0.1044114145662933)
(5.073643531872644 -0.02367255836528035 -0.0008359104092382349)
(5.014527715894572 -0.0001127745172608976 0.005065172038785506)
(4.651353909601091 -0.00626400114835471 0.1215300521311588)
(5.029803724028794 -0.01951283459065229 0.00628263095349403)
(5.013428375810165 0.04600756842037593 0.02934366938344931)
(5.096876472936052 0.08013448867339179 -0.1519479049740415)
(3.436187388869101 0.1855912540242771 1.149485268218191)
(5.042176674166083 0.05814863629817573 -0.04563906168832807)
(4.206861682115786 -0.4438272331992159 0.3683990365491793)
(3.655433996838013 0.007951949726026591 0.236935419696777)
(5.075277643867271 -0.04743601528775283 0.08264928899577771)
(3.019810853694923 0.2286395016100373 -0.24687332822105)
(5.060393177191384 -0.07882198746759501 0.04609870361699234)
(3.544683856569432 -0.5913921607675708 0.7137533201740273)
(4.873145705593887 0.0943102144922047 -0.09568805618779096)
(4.592226313014685 0.06333210855193942 -0.3021866637392948)
(4.993343322983577 0.008096423048169937 -0.001668320418486799)
(5.11343589480884 -0.04792289132103162 0.02458929502831046)
(4.844643179201886 0.08935462258337436 -0.03069035038488105)
(5.035783651054007 -0.02090723938935965 0.04264223922836959)
(5.006252750871405 -0.003077381472486978 0.005169594106762927)
(4.989535298716593 0.00139084973441409 0.01550874370512966)
(3.068081308101906 -0.0774958737145825 0.1412879403923161)
(5.083177767502808 -0.02646056202902005 0.01416308180396275)
(5.075312556587383 -0.01264310843530628 0.03931877978991939)
(5.081371666574908 -0.01897498542578042 0.03207960870245224)
(5.072010583157638 -0.01561912659468127 0.01884394541434537)
(5.078765823405631 -0.01995725231158829 0.0314245221348701)
(5.051804459316284 0.04120532983565944 0.08642073482457983)
(4.990384946131061 0.006786859581298147 0.000816634585032499)
(5.064782545805532 0.07143236763197122 0.2415990311935211)
(2.650811638787613 -0.03224616865740617 0.08054740917435105)
(4.849573822381034 0.003122831324153338 8.580103872054569e-05)
(5.07227244547965 -0.0373409060275487 0.02735028999653125)
(4.996137926608925 0.006591416027835821 -0.0001006311717301463)
(5.068446668792471 -0.01286450161042642 0.0304019809416113)
(5.084563408315185 -0.03098476814067142 0.02041677393465712)
(4.982002175093948 0.01810324106889212 0.005971792022721338)
(4.987576956507171 0.034024433751427 -0.01149918595090858)
(5.082518570618417 -0.03601813466250322 0.006820433773023064)
(5.031944065617836 -0.01535069568874382 0.003417132205075597)
(3.742932443490715 -0.1806939552810312 -0.3675472540726683)
(5.041740639492189 0.0498874488062773 0.04857635335390628)
(5.102852896356496 -0.1601754774198181 0.0003604952364387472)
(5.092542416742342 -0.056544975289276 0.02008050782839777)
(5.094428342782868 -0.04557958330217628 0.01071852460992757)
(5.063920559877509 -0.03149064131137624 0.0067281560266828)
(5.083636775430119 -0.02144978242062236 0.04707271672791061)
(5.099999901513757 -0.0458896563157409 0.02009746589818176)
(5.002080408836972 0.008870016385276321 0.004757473296456441)
(5.09036202139849 0.001169291473045077 0.04267486435690693)
(5.084757556515195 0.05831327016579889 0.1003686004243455)
(4.228197803513543 0.1548628132978093 0.4348839184635636)
(5.084893890802864 -0.03454071979063784 -0.008873862885673519)
(5.000382752832853 0.008152334167862508 0.002701433393175483)
(4.995239318272996 0.01483509228407487 0.005798201295629504)
(4.788602165873201 0.07486816746959184 0.05880844567223419)
(5.01485524571923 0.0117109713334851 0.007192458423078722)
(4.974346105644981 -0.01885348072006714 0.001743315704571403)
(5.006939447855952 0.001727116370884094 0.01307249563307096)
(5.078460513057756 -0.02751235888024132 0.01676866911781812)
(5.078604036887572 -0.04420591836486395 0.01195133438328241)
(5.060828826248888 -0.01303492074343787 0.03494806808626597)
(5.078323244614606 -0.02185903736628983 0.02892173769520272)
(5.017411535388971 0.06878188023599832 0.2028783213875467)
(4.99576945539416 -0.01096323553196722 0.1587873810802142)
(4.99697594281432 0.001378359689593548 0.0009943468356715692)
(5.109134106735098 -0.01807408479358292 0.0328026187048505)
(4.725085695372984 0.2093933842229126 -0.568428816392002)
(5.113732949289777 -0.02859201090441679 -0.005474815503644397)
(5.017282441902762 0.02511247937404314 0.01938893297667574)
(4.963006760731878 0.06870415048144146 -0.04362132088007033)
(4.974649495503304 0.06991319507588774 -0.05568770857491934)
(5.068966803097904 -0.02500347638507638 -0.01263670230581549)
(5.073751442411154 -0.03796001614063667 0.01380626535991595)
(5.008539166022336 0.01278725208544122 -0.01687629278556635)
(5.079279691882963 -0.02703492199267537 -0.01018361916712666)
(5.001002953481923 0.006152400267704475 0.0008014010555975782)
(5.095242126808264 -0.05091499947268729 0.01058653120818821)
(5.071306696073319 -0.004796753660554405 0.01601329138094498)
(5.066964880661527 -0.03388288450820991 0.005697605106725614)
(4.868616185733448 -0.02751408243318379 -0.04352040356906894)
(5.110356695344768 -0.02511272746564452 -0.01401044501151242)
(4.987609576801412 0.007105252151769335 -0.0187333554895708)
(5.099359540688455 -0.02900293612979333 -0.02871682237168735)
(4.496963369557776 0.06045862062515078 -0.2011695254981021)
(5.014382155067289 0.002150056521636839 0.006003599940005017)
(5.077984801913932 -0.1006206575049304 0.1199656003069165)
(4.494515793390363 0.01896797108577616 0.4739173070948983)
(5.011395252585347 0.00335757397684671 0.005688525482838157)
(5.010498327375627 0.003772078097413099 0.001007613414575397)
(5.010989446525139 0.006957977469941833 -0.002703872346849674)
(4.375814089176844 -0.3257473568966394 0.07278787359537064)
(5.000121943073319 -0.005968747801641187 -0.006676263420330175)
(5.040953484957508 -0.065253449241893 0.00183959615450535)
(4.970364110319076 0.04300855765889143 -0.02668807596115312)
(5.000871292275559 0.000760916397161696 -0.0014465776038657)
(5.01913558646533 -0.006824256352288842 0.002762362323956624)
(4.981834481031349 0.1056860866951098 0.02170144522664445)
(5.03925555709606 0.04261848357677521 -0.04226072905943207)
(5.043056107608166 -0.01112639970335103 -0.06478558516718144)
(0.8556577701148431 -0.1077170507588093 -0.4324446803230469)
(3.954634955969958 -0.04421853779784791 -0.05125686438098067)
(4.985087905035813 0.01034735966783651 -0.02551451764031327)
(0.03580383334780424 -0.01055363854485651 0.04244687879786054)
(0.007878233532320471 -0.05234226072900437 0.02806831967402555)
(3.716621476623931 0.0002646049817997078 0.1122772803707105)
(4.211340650795028 -0.06613482560083743 -0.05961135286478636)
(5.098657675206308 0.1422370219507331 0.03913884773014722)
(4.171982629357621 -0.5181572381237324 -0.2380231286556219)
(5.064105776652367 -0.1478490795693738 0.03499593098574894)
(5.014795928037222 -0.1005168686066269 -0.09379177351582853)
(3.61124228927105 -0.3303579048761154 0.2077297467493042)
(4.965391001328937 0.004819978146125852 0.003380830270747874)
(5.091938463059467 -0.06400808543106191 0.02048752214817175)
(4.988235640948226 0.005329860292837544 0.007713030410957478)
(5.037323092786696 0.03193056555263334 -0.01025164099392983)
(4.988338790339444 0.01072756276192711 -0.007317443094578301)
(4.949677611256019 -0.05455624882602664 -0.1274329026620407)
(4.949457937563563 0.01592164649119848 0.01084517367750197)
(4.999650950033311 0.0178240828079279 -0.004458983648160618)
(5.07705707760088 -0.0394678205951958 0.07994294761969788)
(5.026134241877243 0.008407450877326127 0.03803413222528768)
(4.820381006980117 -0.05063818018941541 0.02839683775649766)
(4.525740940732941 0.0995969222484733 -0.0446584260008998)
(4.97879712032903 0.1069582346464162 -0.05193504045909412)
(5.155372007380682 -0.01232866658011282 -0.1089144146299293)
(4.965388864881971 0.01588114485129893 0.003206021120217411)
(4.798093596269734 0.06218786344802643 0.185342976813068)
(5.090016920601728 -0.008131215251338007 -0.1652181778390582)
(3.600686575751092 -0.0184619186027117 -0.09845862311983358)
(2.109423723177656 0.1745969754051918 -0.09611590232819077)
(5.060310679169189 -0.01091709677444993 -0.1103910576593148)
(4.992623667029266 0.05331314939146339 -0.05291357842937233)
(5.036236210531797 -0.1077784122915807 0.05225625425025858)
(4.815801624166317 0.05019807779240817 -0.05927694731220687)
(4.965824375790893 0.1445307186596839 -0.06822994524245113)
(5.040293556123364 -8.277034805131907e-05 0.02019014354598016)
(5.030706812421537 -0.2452105464708374 -0.09356281718272434)
(4.991074912720524 0.1135525569772311 0.08739602592414836)
(5.077855743302399 -0.05350073546543885 0.03988614988682621)
(1.869959515525422 -0.08482747987639179 -0.0156969569072108)
(4.082816898217724 0.2398730395322147 0.140846530331836)
(2.526485407002542 0.01923792896320884 -0.05310206585236902)
(4.994305021795543 0.02697178622966925 -0.1016896562632301)
(3.364093048492973 -0.2502529406515723 0.01075883276768613)
(4.995890637712739 0.00618881017241172 0.002563338234048836)
(3.120881644111205 -0.1134545948688993 0.1381060897674233)
(2.579855251277618 -0.1011462197523824 -0.1583221163302485)
(4.997749283769842 0.04746732420195719 -0.01947562360066991)
(4.649885004384473 0.001328570580750124 0.01274039754127447)
(3.40055698732083 -0.1026148975696839 0.1231775961428088)
(4.995993815567919 0.007583149776510848 7.342202267099438e-05)
(4.981813072612922 -0.08919955269730977 -0.01441485250973149)
(5.017373015548772 -0.008295141918222544 -0.1677759549310678)
(4.998860011329188 0.02422700961605845 -0.05260720997344574)
(2.748679288172482 0.3732648954525389 -0.09549637534297016)
(3.348810105420642 0.1769950740102364 -0.1219191520889119)
(1.160657861253871 -0.004904396866033984 0.2619058843927443)
(2.155609403803914 0.05725398720420521 0.1917007385710982)
(2.700353925885213 -0.03763346724031896 0.1767543515463804)
(5.081694654782981 0.0364837461004625 -0.07363619489433545)
(4.24350928511758 -0.3430156918249216 -0.09231416849019035)
(5.146112241896422 -0.01518290012625637 -0.03911039172987128)
(4.982434898390144 -0.0005346835428499319 0.01877549338453835)
(5.017780764197326 0.0001282390813597215 -0.05791500254290883)
(3.588247293314705 -0.2116859076548098 0.1693909605795058)
(5.148261750666835 0.1017783954901808 0.1259079546888067)
(4.999638161025552 0.00318147379640883 0.003560336770122851)
(5.060058239584749 0.08471744206131034 0.08632931890779738)
(3.605199984464313 0.1994678601118046 -0.3441584745812413)
(4.97314699677289 0.02977255349582102 -0.04272994174351433)
(4.900171500356677 0.4131377900590861 -0.5935500150757601)
(5.020995327839023 -0.01778188410428929 0.1538584310376186)
(4.377226979144877 -0.2419576472795501 0.03410156090748532)
(5.119655088723024 0.1374151813534225 0.05281196946421394)
(4.828777119115334 -0.00358791238603162 -0.004993957223557102)
(4.773434558558412 0.3368949958077903 0.4680777261165734)
(5.043203539342573 0.02061863735040811 0.03030455629249775)
(3.455372439467136 -0.1433241245854383 -0.1257476904831227)
(5.020861025820048 -0.07135829090139327 0.06064965832524797)
(5.04096493940466 0.03448292430710449 0.001293889223971832)
(4.87542841342139 0.558799625144998 -0.2807302807070405)
(4.992837085843238 0.1570741033560665 -0.02203689673486953)
(5.001994082226886 0.004164018753260482 0.002619460939553894)
(5.004457976391548 0.01016217145564829 -0.001788880323376895)
(4.991172982090372 0.03319087408807173 -0.05740220668054463)
(5.027608851659261 0.02579874218557725 -0.2182648114352486)
(3.617803528128159 -0.04663030507242266 0.2206129718062008)
(4.139302739556673 -0.06938060364165201 0.0787261406158451)
(5.076558073880824 -0.0153558388254439 -0.0001818873010943187)
(5.089278514205952 -0.08978305145370474 -5.956537603162438e-05)
(4.997311802522764 0.0008729939960751005 -0.001851221901354161)
(5.112901610492834 -0.048783102336794 -0.02427991336787901)
(5.009736871967768 -0.0191580485733778 0.01237471884958782)
(4.186530336055646 0.07914836716574757 -0.1235286717466181)
(5.072516384537958 -0.0358418520527878 -0.0003212271976575807)
(4.98434225026059 0.05809270025818918 0.01728737090933343)
(5.036932234995921 0.03305083092862687 0.08078814474495402)
(4.735757306802294 0.1090850151403131 -0.1232333119711361)
(4.98352622823864 0.003326795328917482 0.002402266080603485)
(5.014030839296738 0.05311601679976611 -0.09606721259734925)
(5.00161069906691 -0.0007539058562543062 -0.002711666574471422)
(2.666221237288134 -0.03601221251644775 -0.002133856211653452)
(4.544692746749651 0.1546063521137209 0.01194680122898885)
(5.03277374583685 0.1725761189204283 0.7921388095568012)
(5.074887617024873 -0.04575218738366707 0.1013895796882518)
(4.925114478297725 0.06792202619170859 0.02268735154165907)
(4.315825221031005 0.4569046704150391 0.07983719853425639)
(5.026648660726199 0.04508289572251524 -0.02506381523679948)
(5.102778184569057 0.08631464430035131 0.05530361253989145)
(4.577280005597235 0.06314504121451771 0.03506113405123853)
(4.997449611981558 0.002706393414703461 0.0003721382596381839)
(3.852353696418951 0.1595300583970882 0.1969058817416178)
(5.082111560731971 -0.07708268490424948 0.0330116017885948)
(4.995361440855155 0.005223100929374896 0.00527576614000147)
(5.364508131758524 0.09982872010773383 -0.3509640675357845)
(4.943412374928093 -0.1681429845781172 -0.3779090691814507)
(5.02001292052115 0.06712610855020104 0.05600943573024991)
(4.460786395919339 0.0093201412219491 0.07402052726307361)
(5.069827312089391 -0.0211628768843149 0.02361790579323681)
(5.013453176306328 0.02798534005019769 -0.02352671489271177)
(5.0300742766204 0.0246031748908082 -0.003028945393039406)
(5.05981829307226 -0.02198495322930941 -0.03566809149543862)
(4.999520030024826 0.003649754756460751 -0.0004208071879333316)
(4.004586588950352 -1.157169718063852 0.3747220245269975)
(4.99381288933325 -0.02560231160635677 0.01227936126020243)
(5.029521481589914 -8.246657877203967e-05 -0.03291546373859756)
(3.990233581536779 -0.02339265738166128 0.05627087896787661)
(5.044204812117555 0.0600319578068432 0.0559676792825862)
(5.16355923804427 -0.05655111850530695 -0.02607272855900416)
(5.075212485255626 0.2080188269510362 0.003636792453375474)
(4.613422768787473 -0.08476093747952668 0.2504212688633931)
(4.287570350838208 -0.3161003510951126 -0.09321477593921124)
(5.068871510016519 0.06897485710779958 0.02980486495501121)
(3.783479639877692 0.05957842480116245 0.3594877773065066)
(4.647108837394773 0.0007543705655366083 0.3637868932454574)
(5.087579468362786 0.04643245927952586 -0.1186556767578689)
(3.333508402860858 -0.7274550670877074 0.01134597531466712)
(5.016471724633015 0.05792203621140218 0.02695790329504942)
(5.106211207058394 0.009072266991952424 0.1061209954868706)
(4.342498457183148 -0.02262510981966424 -0.06636335463975385)
(5.040563017668144 0.08890648091034317 -0.0979170216442323)
(5.058472468774421 0.1155030717293658 0.04543111414108519)
(5.025583119346686 0.0903051281634126 0.02819945587462423)
(4.924076282238199 -0.05709565226696411 -0.021183461476613)
(5.00232828601338 -0.002825484193971441 -0.003988860146539986)
(4.58716041300947 -0.338423566349025 -0.09174001164528386)
(4.998782395939412 0.009095211151830696 -0.008417772710106481)
(5.052212265207357 0.0814116168960012 0.05577511476525709)
(5.013166455061635 0.0004005184306358001 -0.004985754186845522)
(4.54284632389253 0.06098077502033523 0.1272536538821743)
(4.442504127557225 0.4125451370065352 0.3965950176498856)
(1.644451630444137 0.1774457226390503 -0.09098960631688204)
(5.096979567973327 0.0139893839838465 -0.06826182772531927)
(2.654074057693886 -0.7835634542280553 -0.1071468606540998)
(5.060639957727006 0.2384664143711017 -0.01648161937254591)
(4.979638266879538 -0.05992394314068548 0.1313116282260786)
(3.402104223071135 -0.1712149849826015 0.3049439529561215)
(3.771308652207884 -0.6338240269074611 -0.003615279735599305)
(3.768229013536835 0.06916258430444794 -0.2862536611609702)
(4.781829010188305 -0.04231643576815185 0.08925829540777665)
(4.991476120470393 0.003287391162452119 -0.001979215214106309)
(4.995895523246951 0.03030237984572071 -0.05777743414874099)
(5.00486483578902 0.08007473009399788 0.07387396570080376)
(5.024931345176001 0.03533829615212587 0.0351754450152588)
(5.012667889875025 0.03316493308269372 0.006720384938935013)
(4.983289102540828 0.0285105043671179 -0.01010690539930733)
(5.020031071557869 0.005820533189512233 0.0108778942156566)
(5.038551348313446 0.02733008180017066 -0.06097825152005545)
(3.613833932527269 0.1540786664617654 0.09821549752691452)
(4.99724675617087 -0.0128572355685909 -0.01423026000936563)
(4.957882545259951 -0.1128174259221831 -0.01279310675602133)
(4.949116181716787 -0.3822524659122846 0.1518465049846705)
(5.039395463863912 0.01487105614432452 0.06249995032479703)
(4.557134527793483 0.005843181281935419 0.3019597114772216)
(5.100834481623176 0.04490205124888676 -0.1359229131445954)
(4.974288506380479 0.06289384812073072 0.07461571088168192)
(5.045290835655907 0.02211418484955659 0.01702483759099295)
(5.062388340438029 0.1060893215587973 -0.04761949010650279)
(5.053881766748963 0.03270650466111825 0.07864950149357747)
(4.996096823192445 0.04606952767268204 0.01141507908161411)
(5.000677293590933 -0.01381547096378722 0.004215694025046851)
(4.994278681117454 0.0008447284833722145 -0.009131430036716657)
(4.919700988887377 0.2402033283908455 0.002117156522693641)
(4.997291367125046 0.01036477928160721 0.01552716821691958)
(4.962399153084601 0.05125382067590183 -0.060250633012011)
(5.003703938695537 -0.0007215807537246244 -0.0004781992298749651)
(5.030445668034105 0.06495766006129061 -0.01172050686299865)
(4.079833718288391 0.3045321398014387 0.2124356042366891)
(5.009125762573507 0.1029026791035458 0.1880578496004184)
(4.997872755306281 0.001661136407941981 -0.001868685118941453)
(5.054677913253711 0.0250272486136322 0.003008270663205536)
(1.186092485620743 1.023268024703669 2.482086542250775)
(5.022336262412902 0.03843395504936981 -0.004001198725462256)
(4.97928672715372 0.01153172718647077 -0.02456660874663512)
(5.04577221759469 -0.0707463475029266 -0.03617685612754631)
(4.973699908029433 0.0114709965724416 -0.004228761465512761)
(5.115314989594425 0.007149558313418644 -0.03394636806092451)
(3.182322620098405 1.568357207598664 0.5985669854424772)
(4.879491836103228 0.1873050430262306 -0.1536750893348301)
(5.057200932794954 0.1455961537665073 0.1823118967134227)
(4.968908052339079 0.01102894884105217 -0.000682949611609069)
(5.002342966355228 0.01028535231746351 -0.009387173591225031)
(2.534130426983407 -0.02456794599395889 0.2146654176118804)
(2.993033067587437 -0.2778284335931308 0.5139519643590447)
(4.980355959598532 0.01720337139591411 0.001950500581015541)
(2.551427712926174 -0.1887612848001084 0.08831296576022082)
(4.99737441037096 0.01602163866152895 0.02259817716393703)
(4.99186852565767 -0.1594403138823868 0.00816057786339546)
(4.958328564502953 0.2397129499684127 0.05451444459465805)
(5.001310489319081 0.001785543248900482 -0.001088547194700383)
(2.240012576976435 -0.07356009226964016 -0.3122809703322896)
(5.041306609604312 0.2002402624336713 -0.668851080242084)
(2.805928221643556 -0.4659304609490689 -0.04878189604476862)
(5.068693954094276 -0.09561488388130007 0.06335770049377516)
(5.03175454670677 -0.05861323466873081 0.08706165385097872)
(4.870199074820883 -0.2260217005234335 -0.08285861414937098)
(4.908587990461181 0.1374110565793482 0.02026934670038714)
(2.350220841297019 0.0609576346790214 0.2294022933275789)
(4.761007160208134 -0.07637853758512696 0.08974978066128707)
(4.978381856514958 -0.13236214273864 -0.01542872462138851)
(5.032138792860103 0.0006012218865398876 -0.136911339400856)
(5.006551925578159 0.3172731175132829 0.01344436609510085)
(4.91946854879774 0.0249913516321903 -0.007584440674462446)
(5.006560038755216 0.007425894372330131 0.007030522865014736)
(4.286856675314335 0.0580970110715214 0.2063511273294186)
(4.883884925651714 0.2961861245418827 0.02990543460554151)
(4.995526671944803 0.002714049453294446 0.007555231992871921)
(4.986333497597968 0.01934881975720622 -0.002168175361831331)
(4.931706711774077 -0.02563398161670586 0.08540776577690057)
(4.328553680992118 -0.1256826552917145 -0.1435272276400697)
(5.03317400391292 0.01718098304998397 -0.02621319470778553)
(5.080950921891592 0.09195485539267775 0.1020104336049181)
(2.428028441154279 -0.107205097803023 0.1319822093877977)
(4.445828631332001 -0.04305383707069281 0.01494589723953819)
(5.008696371449756 0.003428415656241418 -0.009792519720563199)
(5.048512811645549 -0.07271759290845232 -0.04535943995143978)
(5.140791777101708 0.003499909482725663 -0.125916441360279)
(5.114875571556016 -0.06778717386762406 0.2645525208659022)
(4.907824324373548 -0.1732393976101433 -0.05128553486023059)
(4.254670699942974 1.519188778325634 -3.631644428436909)
(4.62628969791745 0.0952958308522405 -0.08451957708143155)
(5.021385275200112 0.02516534989410116 -0.03974347340672341)
(5.170770049506483 -0.0521559871710553 -0.3301608634265285)
(4.99936588799804 0.06397456855160444 0.03197877573458113)
(2.364961784161517 0.3838601510946957 -0.2232022992495468)
(2.732976918613662 -0.09034331823581909 -0.4369309964432299)
(4.642166611534106 0.06007758064247366 0.11667329518203)
(4.998958681617628 0.002279188200979873 0.01079400792871616)
(4.97578540397584 0.2020647285707717 0.1265785242724742)
(4.998319504590176 0.003794272993452608 0.006387305014703582)
(3.890070640982059 -0.3683874413331857 -0.2201872350810132)
(4.97769302599872 -0.03914746791992402 0.03650974399106212)
(4.89263144918878 0.1015153391319032 0.009636766619767728)