/*--------------------------------*- C++ -*----------------------------------*\
| =========                 |                                                 |
| \\      /  F ield         | OpenFOAM: The Open Source CFD Toolbox           |
|  \\    /   O peration     | Version:  v1906                                 |
|   \\  /    A nd           | Web:      www.OpenFOAM.com                      |
|    \\/     M anipulation  |                                                 |
\*---------------------------------------------------------------------------*/
FoamFile
{
    version     2.0;
    format      ascii;
    class       volVectorField;
    location    "0.9";
    object      vorticity;
}
// * * * * * * * * * * * * * * * * * * * * * * * * * * * * * * * * * * * * * //

dimensions      [0 0 -1 0 0 0 0];


internalField   nonuniform List<vector> 
19631
(
(-0.02216040297904419 0.04573967218562686 0.005216551058886118)
(-0.1577012477650995 -0.01704139191918736 -7.665589244602161)
(-0.07410833914766016 0.0245966755847082 -0.02995911505485625)
(-0.6353125228090059 -4.389872325530846 -21.21286952789292)
(-0.1204325479313021 0.02797579879892029 -0.1943517064594571)
(-0.1657614780523031 -0.2083561456016206 -0.03681614599551782)
(-0.002867099162146682 -0.001952514892356259 -0.004825993870912415)
(1.67513029297601 11.05406038627856 -3.008632333390281)
(1.842385718258941 2.146696147107811 -1.787303250723293)
(-0.006175149879675044 -9.902858332833369e-05 -0.001024139260361333)
(-0.3168551469382741 -0.1153328672603985 -0.05099799131513966)
(0.2821353081179617 -0.0699947865849526 0.08522696074379379)
(-0.5073944120390375 -0.1385914837445666 -18.44820545562204)
(-0.1297058129580415 0.1409488636636004 0.06467239303402264)
(-0.002005389364695603 0.0009806533053542156 -0.003743900753046118)
(0.575364323605085 0.6499052135775774 -1.274385519732851)
(-0.249917745813781 -0.1297863443483236 -0.09557195724382078)
(-0.8921432179102766 7.51058871955019 7.253826889520193)
(-0.3712764803711981 5.55327664558448 0.3465759614529036)
(-2.051956868110704 1.695965597363132 -3.476260484582799)
(-0.110249044420919 -0.03614059401886622 -0.06930118466075758)
(-0.2150645944554514 0.01491693558711713 0.1188351054280817)
(-0.1734469333647061 -0.02736157616136292 1.581590773589153)
(0.01638571167109738 0.005597406558599284 0.01867689221150497)
(-0.1860951845727675 0.2420549358989129 -0.002491916135754495)
(-0.01173328272181063 -0.00255858828604801 -5.482586221689387)
(-0.1256260237261308 0.0662218209496539 0.1953458254215932)
(-1.971843168687544 -2.703510118579128 -9.542432879151335)
(-0.08662652257358305 -0.2647921989976278 -0.01797142907758636)
(0.002171252347469284 3.013493548065439e-05 -0.005518554118501076)
(0.07041412230306758 0.0336582938167467 -0.01246085281911637)
(-0.006848263806045261 -0.04018530376477346 0.1157586105094037)
(2.073943094280861 -6.803624218131658 -0.03283962239773836)
(-0.01397608100218965 -0.009727982764820184 -0.004924500541067457)
(2.667820516847254 0.08456311459859311 -2.321282967574233)
(-0.7939344311543137 -3.144912463028616 -1.529195406995593)
(-0.006254942167201894 -0.0004595402750410011 -0.007418843625766613)
(0.1041979989182965 -0.1658939913851002 -0.5691874032006493)
(-0.1618736920504811 0.2244537425273525 -0.7795103764499387)
(-0.2291043485538344 -0.4398543612136643 -0.8389000834510391)
(1.980303164189573 -5.041777901980532 -4.494426483924777)
(-0.0181514796979618 -0.02186570828762338 0.003010373133030805)
(0.004374928822970061 -0.0008275044165835891 -0.001922922381636037)
(0.06967035468718587 0.04200298022322693 -0.01322622883161552)
(-1.013435096051049 -1.039585901496201 -5.433248681747385)
(4.386831706494157 -0.04762841165340703 -2.228942977231484)
(0.001444458905915704 -0.007582377187569002 -0.008371217556920043)
(-0.002676352516738683 0.00569613876345592 -0.01762940319955635)
(-0.01816762258549971 0.009970390396625874 0.006224610339393786)
(0.1143729870608261 -0.01708539884009708 0.05512510115656718)
(0.008364606122374454 0.19117805440501 -7.206469126622021)
(0.06662104818077684 0.7487685620619802 -1.077485251545284)
(-0.09552792119167956 -0.01898165680952856 0.01799545979509642)
(-0.4471422256636134 1.784722671062607 -2.871967725968481)
(0.1318404531023638 0.9423768000866707 0.211380340701516)
(-1.109048162035446 -1.424550373348231 -1.623031066458741)
(0.08738741067696773 0.02743875858523901 0.01965739786515755)
(-0.236428712407717 -0.07078179810300551 -0.1816115087169053)
(6.92764801133426 -10.36818957963664 -7.564567661029139)
(0.003675256390465354 0.002580642774704027 -0.002514562722365246)
(-0.0005298160939238021 0.0004186806294076248 0.0001064830328497326)
(1.315247115710803 -6.323882661606604 -1.815038272534471)
(-3.718085413805735 -6.615770091723807 -1.359453818597645)
(-0.08293381002768827 -0.03216142824772258 0.04760118429423632)
(0.04746378299398312 -0.06134302020958201 0.02692340814333625)
(-2.354696931261937 -9.445483463822463 1.029156187199783)
(-0.02280657825492902 -0.02393646418242 -0.04146020009739171)
(0.1260429752560122 0.02635707195433781 -0.02152864286255854)
(0.08985009521702882 0.02533070989549183 0.1828706710644663)
(-0.001003761944312088 -0.002446038354527173 -0.002845040567714585)
(0.0015431031421463 -0.002991691640458388 0.0009105040115487739)
(-8.810386085129799 -6.001131646007493 -1.083158366911043)
(0.01745506847072281 0.01928314277922732 -0.01471926264794253)
(0.170632176679738 0.00402751018751802 -0.1036735636366993)
(-0.01500842637300369 0.3135426344297567 -0.4649272555814397)
(-0.09611001034862279 0.2261082405381806 0.3445166391453259)
(-0.1893687371595557 -0.1262073094364173 -0.0885560215323315)
(0.8642626140297831 1.503558532998515 0.4136613259880821)
(-0.4533967836430627 0.2200367077053647 -0.2399719067451756)
(3.650582086715641 -12.21578177279643 -68.65030029730127)
(-0.007834381417035671 0.00418714963179715 0.01236747251473181)
(-0.01778772552215904 -0.02640107542116865 0.002199712551406693)
(-0.1333080544165497 -0.01200432716075561 -0.1669963763294565)
(-0.3256309001562471 -0.1089222834399904 -1.000687450460251)
(1.149228285655026 10.88598247496961 3.22446210079758)
(-0.239675134379272 -44.85003092387018 4.032300843785929)
(-0.12215405515287 -0.2193426895753864 0.03801083447838606)
(-1.335117105792674 -0.3405170418376496 0.01907330326409484)
(-0.1236048211681311 10.86472639670904 33.27969765924963)
(-0.05433705906962237 0.06381990265096435 0.05005347603298285)
(0.2609386160277686 -4.185209270856882 1.320891704509743)
(-0.01748483361311364 -0.01135237165934943 -0.01873232024358197)
(-0.1523630788793884 -0.04974670845788869 0.05404598900887518)
(0.1410521402444278 0.03725339499787123 0.05118638458442654)
(1.353456420628248 0.4836210819560929 -0.842101078423105)
(-1.944151433775527 21.95001975403636 0.7000749993591302)
(-0.04597910875569177 0.01066211280932521 0.03382114715720246)
(1.506350463884515 -1.103877621909981 -26.44761573311497)
(0.00875327004665253 -0.1318139131653272 -0.09887395255483183)
(-0.1000174808347639 -0.09665599884778994 -0.03795065240751933)
(-0.02979031418764639 -0.09713739079063281 -0.07694172828181775)
(-4.908355920365669 17.31092090785451 1.337954438631962)
(1.08036082308548 6.958835866083943 -3.695241984237121)
(0.1024910491874013 -0.001086395612925868 0.02024503669035443)
(-0.4106426856194338 -10.11957590204505 -0.6284854638493989)
(-0.1077175104768927 0.6345550037753833 -2.833239367778367)
(-3.341832889488088 10.26509649104965 -3.283272816878685)
(0.2710374845511888 -0.05581642084244165 0.06092127432876618)
(-0.06866399825574171 -0.06874444318684603 0.034902227469389)
(-2.948876546531547 -9.82942901862371 -5.472232063435364)
(-3.33606718450683 4.938184354778843 -1.925298776816584)
(0.8371750013350012 -5.377598393407863 -0.2100276882399021)
(0.3075492976321033 -0.8767187577508894 -0.5156165451887404)
(2.213442946579196 0.2231636631150539 0.7090151376285568)
(-0.008017301771266803 0.02184390936461483 0.02660652621290091)
(-0.617768378834902 0.9183069354648146 -0.2491725956523085)
(-2.032467874324412 8.836732776169352 4.342311841227989)
(-0.08208336849400832 0.01932283407590864 0.06815009114029408)
(0.2217755015250145 3.020006127427943 0.6994194150735699)
(-0.001517514019245568 0.05873453808115765 -0.1012012881234918)
(0.03706441649284897 0.04081112278130888 0.0005268354989193917)
(0.06374782489282947 0.03016487102723803 0.06688336954142697)
(0.0215922874612158 0.03073738690479806 0.0873056929685119)
(5.133491530609936 1.884984790870728 -9.102527367822262)
(0.16220344487213 -0.01671713716145599 0.1445103645738696)
(0.2297921711131005 0.002919710509186344 -0.02549501522496057)
(0.1163214401864002 0.8276053266675707 1.112303343691184)
(0.03647836483155503 -0.02230473590792668 0.009700615602323465)
(0.003944480910444154 -0.002150230951145895 0.005509441405561632)
(-2.809863737875793 -1.38493803804654 0.3670012511508831)
(-0.04681106316769284 -0.001031592269670419 0.005775610080633408)
(-0.02589145931249936 -0.3059392868083988 0.05524203088115642)
(0.2485058898297565 -0.07754135564644757 -0.07388980762482041)
(-4.470909312344041 -9.554441479771423 -2.496626308611019)
(-0.0009076520817114936 -0.01042079887420536 -0.04301089829415282)
(-1.021652327358672 3.863345045016977 -2.036611796121308)
(0.4762594037179436 5.299333561001068 -0.1307861593400454)
(-0.4163356091846618 -0.07423169932252621 0.2362785008197718)
(-3.474735144505673 6.382239105173899 -36.15770915838095)
(0.556156129872302 0.3054645561517154 -0.01376760801197119)
(-4.071376411554628 8.854621788190869 -5.410295130509413)
(-0.8075795789896396 3.905984966310305 -6.081802135974909)
(0.838987812276303 0.287445193466109 -1.774776913431228)
(-0.001566296919339713 -0.005817558825363092 0.009980074381278648)
(0.1048259953604736 -0.03134190480192482 0.03735762800953246)
(2.560795541229439 1.230566258211372 -6.326797749854224)
(0.001937459849750932 0.02344331954214118 -0.01281009764378731)
(-0.002314996764440851 0.002924654492935524 -0.006270484405353934)
(0.01632592593023096 -2.911453475636788e-06 0.007063722841157182)
(0.3452412984394417 6.521419376740968 -4.746084237624661)
(0.06148495530807453 0.05959310592854263 -0.114283182633611)
(0.001401725789874617 -0.02295302626687745 0.02507949385321345)
(-0.07218396064949707 0.0001489962727363701 -0.05100134092426478)
(-0.02144006201306945 0.01240854370522991 0.0009043901483581613)
(0.01260139426833562 -0.02069243400384527 -0.05073219256222672)
(-0.03982672708433693 -0.04752886177231137 0.02741331771560547)
(-0.001130457525159089 -0.003471545585878505 0.005443419131293471)
(0.3115005644237464 0.1909054363505392 1.619625748345461)
(-1.166712326735271 36.27677559899027 5.773927817105259)
(0.05841719477101856 0.2904599815263281 -8.831007900993891)
(-0.02047782676354491 -0.01107579119423506 0.04554130616924949)
(-0.0002540320068962253 -0.002163467347866405 -0.002382214074535213)
(-0.074171609954895 -0.03358516335030732 0.03404833138161194)
(-0.01747680118622313 -0.02646044844830683 0.003439234750385116)
(-0.009417104382347507 8.151616970759326e-05 -5.536663744715622)
(0.002004347733794761 -0.005226341107434582 -4.920282364942596)
(0.03290318406687806 0.05244777811091146 0.02654080818092753)
(-0.08099605936880951 0.00117053119974778 0.01056411922806078)
(-0.6047583101788792 -7.075239811369871 8.418757737183672)
(0.07466845214024789 -0.01395424506910607 0.006244344266992607)
(-0.4034249678923142 0.01884116293396247 0.07902217157408015)
(5.026055628365445e-05 -0.05805905238427606 -0.1200114188634668)
(0.210559056711745 0.04785072317651216 0.05033973986554058)
(-0.01380784268730847 -0.04051763087555375 -0.02418200348861382)
(-0.03660834318107913 -0.008916205343505146 -0.01382933885252895)
(-0.1454047249037403 -0.08033061087847243 0.007775279922625659)
(0.003928244518882138 -0.008984081885992191 -0.008222753282322092)
(-0.2448873361418323 0.08707662558271592 -0.08426622174103274)
(0.07628875917342634 0.03878507858239932 -0.03961718287671961)
(-1.586315635663457 1.626468234380189 -4.440276895310886)
(0.02384221590172293 -0.09176082830863891 -0.1107720343256783)
(0.0007464866193498459 0.004581410898058279 0.003428297721269758)
(-0.003838320674349741 0.006738801727058075 0.0123925179972203)
(0.009396573708428616 0.03241342593640548 -5.576873188228308)
(0.003072247988379467 -0.001133676881980599 9.975811912944039e-05)
(-0.006840827559692461 0.01091721420417711 -0.03839769485709824)
(0.0220582424897847 -0.0743537504912575 -0.08511498775831934)
(-0.08882529892654045 -0.04484628432168441 -0.0117649374687649)
(0.1147768183093277 0.02720811895341432 0.04400189314013853)
(-0.02453140770969933 -0.002263830913908606 -0.0185163327654137)
(0.09310309584774988 0.02403438006666463 -0.04887400959775874)
(0.06958178267257002 -0.1004016524634307 0.09835771968839083)
(1.431871499818529 -1.538315223577301 -0.4709066501990808)
(-0.01349702860711739 -0.004226624061557511 -0.004487680125144103)
(-0.06992136743711007 -0.03810141634680198 0.0154892977305944)
(-0.7120597637964778 -0.0211901252988263 0.5076633846779982)
(-0.07815172104138216 -0.06931693165178933 0.095764988542243)
(0.007090192077276651 -0.005465629344390344 -0.003889036851209404)
(0.09791119930076796 0.01144927759231789 0.0233066322993697)
(-0.03490019765917418 -0.02675911385798036 -0.01887948252527018)
(-0.05265354245254347 0.002389973418042937 0.03920342220622997)
(-0.00717362161220414 0.02396746312482475 0.01862081624711207)
(0.01500677502066452 0.0144432830049301 0.03580377773847911)
(-0.00307872694398572 0.001362138815345817 -0.04074938446684455)
(-8.561250722421889e-05 -0.006069966108160982 -0.01997139142057271)
(0.08105475239826879 0.1522914688698819 0.04860381171310866)
(-0.2579948740807383 0.09247609974107729 -0.04312382407859458)
(0.02834410952584264 -0.01545196931996585 0.1107924981649424)
(-0.01442945356734259 0.01946161769708067 -4.846266315829849)
(-0.02623904638712013 0.1811376165188594 -0.04734586220930427)
(-0.02175024239619962 -0.004858163335834786 0.02865295720931676)
(-0.2440396522714236 -0.07536830825808238 0.01958176360224975)
(-1.661401760160634 -3.36083539946288 -9.345150639057895)
(0.001061121910527058 0.0004010280791048948 -0.001473299863231613)
(-0.3945700147952247 0.3302352687823005 -0.3035238948725253)
(-1.532420139806963 -0.8080838800447465 -0.5986531762238002)
(0.008975336948424001 0.004480880519026731 0.001354365165322283)
(0.007443390578609534 -0.000241638000551588 0.001873737428872588)
(0.01137582450258459 0.00145048905888399 -0.00200455554110676)
(-1.133216916279537 5.881150893155636 -0.6264431848510155)
(0.04150410372983421 0.004493702452111512 -0.04813011093477709)
(-0.09883196295277324 -0.06904527893855246 -0.04001646664405288)
(-0.03921694103611454 -0.01650771743404662 0.0054395502821894)
(-0.00183950353342839 0.0001764133513868438 0.001011990408919294)
(-0.00318539681643893 -0.001384161569714382 0.0008480427007387078)
(-0.3212470072991261 -0.02961302641180454 -0.01682010003713909)
(-0.1776013256138953 -0.01091367597442924 0.09964571862599167)
(-0.04386642834083084 -0.009158507946680848 0.03646716937418719)
(4.221745094472526 7.515557290263772 11.70498291291139)
(-0.03793326986770834 -5.277813132426997 6.496777606038963)
(-0.02426311175180269 0.01162202703387286 0.01374570755226243)
(-2.593694673718544 -0.3799512013912151 4.018873573173731)
(-0.2866475715987293 0.8347967023017763 1.414751421005644)
(2.135432559688133 9.250371079825984 -3.074861700312175)
(0.2082887237284502 -0.5975355036001695 -3.779901139152399)
(0.02740655019195382 0.1710417437116422 -1.621185488884956)
(1.494712829098359 0.4377915850530838 -6.108055596952178)
(-0.1302494926747172 -0.2304827309082773 -2.267236787350323)
(-0.2176747062457302 0.02710229102989552 -0.1088155243617252)
(-2.253793578842296 -5.291669653637521 -0.8489699398106318)
(0.01758009243280664 0.00653597532433905 0.0141407279701868)
(0.07581762471152496 0.01825676614333571 -0.0803720963896271)
(0.002002349199195163 -0.01105511762185746 -0.03892038913885162)
(0.01936870106317378 -0.007339771108562538 -0.001792564414893413)
(0.008078936466080083 0.003920694597373745 0.01139338852660556)
(-0.137799191567173 -0.1825056626600547 -4.999363222486672)
(0.0008740047004392889 -0.02447694432638617 -4.856356110882667)
(0.004098084351057493 -0.001013099907711484 -0.008903492273903644)
(0.3929523913072523 1.158243838666372 0.6442052216544387)
(0.008594618905208145 -0.01319652076976635 -0.004851831427180958)
(0.4658865354076949 -2.371741168304536 0.2994611118172583)
(4.17521099330922 10.38736149780734 0.5872106008467278)
(0.07013380751691811 0.03159752656343879 -0.01032585555495581)
(-0.1293353596489775 -0.498827672967522 0.2906269795785336)
(0.008441966952644453 -0.01463148246825586 -7.920750420243643)
(0.2533147721078623 -0.6883964579571383 0.02470484507748259)
(0.7505469710457298 -1.21763575061733 -0.6916880824211085)
(-0.02436472567725248 -37.88822406937314 -1.930175534972425)
(1.456564142494947 -34.89383955756198 -3.033627518833358)
(3.247456470352604 1.135026438767964 0.7501706950668845)
(0.03269680910531707 0.006940990224481844 0.001842671991857663)
(-0.1776042609804416 0.1043631745341326 0.2107343133738403)
(-0.3071271561116114 -1.289707228120675 -1.256216146656685)
(-0.5930262877505563 -0.1077735223529438 0.3222954082555902)
(0.02537636241807084 0.003290231477717613 0.04005472148674978)
(0.1544530692601021 -0.02346749800232631 0.09834897337679686)
(0.06037805430949436 0.03609397330109489 0.03564340251863154)
(-0.3129576068368634 -0.1055602702129938 -0.1979552247291191)
(-1.072451938481506 -26.35607802285876 2.924159039657159)
(0.6599944163984897 -1.639505859895791 -40.68883937912005)
(1.633134277385317 -5.858516453220434 -6.287315785101841)
(-0.2012745037147065 -0.08209906728525897 0.1508690738263382)
(-1.146996528265503 -2.310967545186987 -1.767488625238512)
(0.0003415924642102539 -0.003302322037341156 0.001385088132337884)
(-3.215962476283191 8.224058754397173 -1.53691563703748)
(-2.92889267431092 -43.69061118811631 0.6057683092305335)
(-0.0205287584722622 -0.008586253384725153 0.001470960874254058)
(0.03202693949176759 0.05573718262890846 -7.522110799512574)
(-1.764830689205108 4.197194193075007 0.8471298386847583)
(-0.006604442186058978 0.005557659421848321 -0.00378117309470527)
(-0.03216373596230149 -2.172047539307138 0.6738774423748769)
(0.396487804325828 -1.294126333526048 0.1642798071323817)
(-0.1575480902027767 0.1990518001203846 -0.149063078355348)
(0.8797712736861856 1.942325551876123 -45.15154271852308)
(0.2243221385061389 -6.480169968252866 -3.637400653105416)
(-4.50418863020095 -15.79340249400124 -2.174420989956036)
(6.880309755603108 -9.743090803995504 -43.79321085649556)
(4.715604234950251 42.43746447380071 -4.672850501095778)
(0.04592918440639869 0.03208059960711324 0.02728221413877456)
(2.174148307287111 6.893336448250202 3.857200597932116)
(0.2312321509217631 0.1317812034080789 0.1486952660034454)
(-0.02453476577475067 -0.01914199645004711 -0.02366124113280166)
(-0.2216338433424613 0.07983337177150715 0.04201558700970037)
(0.9710762431213682 -13.49689798825832 -56.23336327411817)
(-0.05339869160628172 -0.1374991016733012 -0.02356566526498633)
(0.0003222843221829626 0.0009266610579807897 -8.839758742415428e-05)
(-1.215156618435473 0.3413616563581377 -0.6214631654338777)
(-1.307466011458647 -0.1707263004191573 -29.40928323279361)
(0.09729133732670583 -0.02033465424077151 0.01873676894029012)
(0.4168649066280318 1.273970487412855 -0.4333608546987232)
(0.419616504711011 0.6590824014191712 -0.6038057464136443)
(1.453656187140873 -1.399584568983857 -3.817651758067943)
(-0.009900963133629426 -0.05864367794966272 -0.2892894963328871)
(-0.002806409212976334 -0.0845782736051181 -5.597386774549061)
(-2.943772099274012 -3.298825643093068 -0.4376828691650723)
(-0.01180710218621915 -0.04942155992628119 -0.02914466498376556)
(0.4157950797459912 -1.553290844856039 -0.6678668791515434)
(1.089795340557822 -1.696356148752381 0.2311382098742365)
(-0.05027416920838034 -0.01539412088714929 -0.005398112820587449)
(-6.361497280176611 -0.4777624654675429 -1.053349081540037)
(-0.1067279207817688 -1.100278437026856 -0.1823406981499023)
(-0.001007417339448198 0.0002130489990530037 -0.002258411680237027)
(0.01086613786046853 0.0006680668748559688 -0.00687842639067405)
(0.05882747611813456 -0.04614518022390506 0.005084642746299647)
(0.1074975416307293 -0.08191333473099874 -0.03501725273825673)
(3.208668136591942 -7.486958525099491 -3.975361538331322)
(-3.901115429740923 -12.86699176880414 0.5059281341203332)
(0.2856238677715837 0.1443309940604717 -0.5977170371268186)
(-1.382458487949398 -0.01656772969456466 0.5379348982306416)
(-0.002828555184864284 -0.005051165505122568 0.003847055091860015)
(-0.01090480312324644 0.04855655528962621 -0.02803408465058662)
(0.1658541526281501 0.7364838130484281 0.03795937697505622)
(-0.3967848338420293 -0.6765528665087051 0.3801502232448876)
(0.01148695128605373 0.05168406909587546 -0.0468285928237622)
(0.08916292944844022 0.006811455044190682 -0.03989942344143259)
(0.0962260426460155 0.0250912114747355 0.03858704473207494)
(-0.5608331929602721 -1.302812230715996 -19.1487060413552)
(-0.01654536881783965 0.003242622001314337 0.01291229552742095)
(0.02660531481817698 -0.1126945653458144 -0.1430040281167966)
(-0.00684737742865095 -0.001846578520191103 -0.001552781940380568)
(4.716074651317841 5.088533980262489 -12.40682079178125)
(0.7296520730427879 -8.587718248227885 -0.4399943321885947)
(-0.6429458710309135 -0.2196804146805938 -0.08592629997893386)
(-0.1357652200622854 0.4243188800530291 -0.2706477886117191)
(-0.0452946033907668 0.0652995046726485 0.1727118688103662)
(0.0215490106132612 -8.260694829774874 5.072599976241742)
(0.01292226240906728 0.02179254787338518 -0.04600395063464517)
(-0.3846292324113452 0.855280764343998 -0.5629832748761334)
(0.1606290735595479 -2.353985498006663 -1.301036248672835)
(-0.006301605718310942 -0.01490448810237051 -0.05309050816300189)
(1.94326925485468 -0.8486495377036356 -45.38757561135335)
(0.3421827430635858 -0.1250268004991221 -0.09127693968302407)
(0.008241480259146962 -0.001811140565578671 -0.00194686242130869)
(-0.3177820422806672 -2.819338866788623 -2.124733018395732)
(-2.044255285059212 -9.72444630621343 1.854327838575729)
(-0.01075306434819217 -0.005697438486713124 -0.01756926212285885)
(0.1737938553852131 4.39379150624698 2.888974630030824)
(-0.02933614488393191 0.0008082467829373316 -0.07357852455450498)
(-0.02863636348293113 -0.006128904328618692 -0.01752790979394007)
(-0.01295915645255744 -0.02003275558693002 -0.01139412216959132)
(-0.01015972907444101 -0.01470951573983701 0.001153120835746188)
(-0.001435211007553067 5.152989426980754e-05 0.0009906986228831933)
(1.025979144748049 1.313693255257529 -10.28658007696886)
(-0.138665151112353 -0.1494599241687131 -0.2244658524520109)
(0.01649787838757106 -0.02181822966906891 0.0163890411146559)
(-1.549490492881069 2.061858842659218 4.667654076879651)
(0.0769140335390866 -0.02996348300651165 0.000671838959334474)
(-0.1603521349021323 -0.004725042986930855 -0.08363568587880965)
(0.3115728068341816 -0.6863527211352107 -19.82236286857843)
(-0.9244692602605757 0.1273430325436995 -0.8474046547367441)
(-6.410057680566057 8.871673469541117 -4.780538816117618)
(-1.980223601865527 -2.292739782057083 1.278072041025273)
(-3.006814220745927 9.922380180924799 3.488818099716383)
(-0.6271461928995206 0.8200657949184498 -2.18249451361376)
(0.01121512603388948 -0.09478594448337102 0.3024185733145513)
(1.783023939422653 2.004364343474671 -6.598168650170432)
(-0.1140892671636626 -0.02301580231435044 0.03688105740510899)
(-0.02803428105021611 0.02799237245346158 -0.1056875546651535)
(0.170890829243643 -6.790752604758758 1.344440379448965)
(0.1438010808340411 -2.039787488226473 1.640725270664431)
(-0.3076097396232125 0.05243526942673879 -0.05719283952859705)
(0.6788209946009364 -0.105161030585537 0.2220770396767451)
(0.1369656822981266 0.9397480447390518 -0.5543303150793955)
(0.0003658511334022289 0.001344220549200817 -0.004699922604686361)
(-3.423315786994436 -3.463895771510027 1.332891264938117)
(-0.01524136981847251 0.01937821872996927 0.001045104558586942)
(-0.4407793186288607 -0.09796180214441516 0.0305372301068582)
(0.002687295439247062 0.002207861074578844 -0.002731415891643983)
(1.988529011130238 -0.4647230057380531 -17.7040696617586)
(1.494779007912279 2.003550660512013 2.841008748360331)
(-1.497710477578308 35.0465193655509 3.245256702613103)
(0.04615792766240842 0.003466622865977358 -0.1117985240610785)
(2.550513866178038 -7.54115954472403 -3.200226722310851)
(0.2732112836833406 0.06529794996918711 0.0335891458007932)
(1.16390355264978 0.5066967960386723 -0.1668232720611121)
(6.900716940528164 -2.708927479549779 4.698875872682221)
(2.035249967358002 2.823658079239164 9.901590310826201)
(-0.8869101519629244 2.932902740157374 -28.11335186369688)
(0.3490582688809973 -1.931478904776242 -0.2851532079666209)
(-0.01877555761745707 0.02789368915224971 -0.01385585267091421)
(0.005090663591512688 0.01822929958719584 0.03461649279131349)
(-0.09832170620223851 0.1616559294496652 -0.03423535590997853)
(-0.004440514041694599 0.002228330846563142 0.01646460844233922)
(0.02586005509685296 -0.09018079067433193 -0.02779009660783442)
(0.001029032457833419 -0.06365956882553851 -5.487775410820355)
(0.005405767411788906 -0.002509715482877499 -0.01589080374860274)
(-0.1412934924049813 -0.03187326196968955 0.03335432485243853)
(0.7284530255791541 -0.103119182021191 -26.58210025812672)
(-0.005015365721810994 -0.008779923611418716 0.01273664789234599)
(-0.2409404186142336 0.5892383094415425 -0.3675694420182989)
(1.369157547406814 0.3148557087240487 0.6062434942884041)
(0.0003749520922049498 -0.06929329602241892 0.08341564083934647)
(1.908516570322228 7.538855230905876 -6.208163841228993)
(-0.009334418850743792 -0.1580375756940609 -0.04642650783587986)
(-0.5124519035227738 -0.07090777178286874 -1.169397720764083)
(-0.0003642283247345668 -0.0723635936648845 -0.06466348724690853)
(-0.1677970831807066 -0.1554526851972446 -0.1187251052293475)
(-0.03858542120152949 -0.07079504257100404 0.02438524500286549)
(-0.1259299334029622 0.2217511058081045 -0.01073922734988058)
(-0.02163341154757482 -0.006279399774071633 0.009487326793116729)
(-0.0001524889710285669 0.01043749673297644 -0.01008062261097038)
(0.3697616212300392 -0.3785097404860039 0.008409404342025084)
(0.001742712430040028 -0.001740472291431645 0.001512951823961457)
(-0.02706708997174259 0.1908957433077577 0.1224388337790633)
(-0.000671147396849 0.0008038960894292616 -0.0003126879924959658)
(0.01098500696838377 0.01472257576470246 -0.01015961781639056)
(-4.438991683999068 60.2146419417642 -9.974148431673475)
(0.1201938693428272 0.4353535567529143 -1.071122898458184)
(0.0103749958096096 -0.00299624045768178 -0.002899304139086318)
(-0.05444393348619973 0.01795782414994625 -0.03707695170209692)
(-0.0205716339090305 53.8008556940277 11.41212977129966)
(0.2265002771651085 0.07650883851006518 -0.03730433351609368)
(-0.006598673826150312 0.05011209919605446 -0.01442106703952135)
(-0.06562056030321003 0.7965198239641347 0.4786167687457938)
(-0.001568151954012648 -0.01039467526111436 -4.994123811403697)
(-0.2732190878030668 0.07530514168022392 -0.1477283389345497)
(-3.952027654226693 -12.38011042841199 2.262110672010904)
(0.4051014353280621 0.8414067306299893 0.4692528240161982)
(-4.238430532092093 -6.599613215764714 -0.3959596875413265)
(-0.0022478728837531 -0.01080268886154749 -4.795551723842689)
(0.008875824055154203 -0.02212750887078559 -0.02326995883491851)
(13.76962105866244 58.17676907508022 1.415693827052933)
(4.757330094441491 50.58843165481852 -2.287439992870828)
(-0.009720098068772696 -0.01334606292292225 -4.999434565128436)
(-0.5581394835401645 8.350187205668229 2.723128163232301)
(-0.03463232819083509 -0.01753790934468275 0.01862585103837451)
(0.307185656280354 -1.518706723282705 -1.928893011712767)
(-0.2372389130354948 1.553502844522944 0.6909892453366986)
(-0.0005825031907454902 -0.0003998816103109795 0.0003168140571235096)
(0.04159320135722133 -26.0297863289321 -3.230788381707593)
(6.934788747764283 -0.2585076744942729 -0.4291988324368494)
(-8.954096553426638 -55.87155255425341 3.809232680809647)
(0.05939456215838161 -0.005635614285770293 -0.04467901182109432)
(0.1307060268209092 -1.621838087762335 0.8358365325091449)
(-0.2179331689806663 -1.811442291224679 -0.2223095447022628)
(0.5223853165810846 -0.1348005722946116 -0.1105422469348399)
(2.383845642886317 28.26591118839091 -0.2960494343348069)
(-0.4709379975195509 -1.207259654312693 2.15042161588473)
(0.6791617208343698 2.179921356202433 0.6380575847124564)
(2.857094294191878 -0.103513291298465 -2.630243254696204)
(0.0327167488626886 -0.1437943869121084 0.3607864415122294)
(-0.04843181875248652 -0.2713238140744412 -0.4722862647772839)
(-0.02423793729059842 0.01524993727980717 -0.0153517582263155)
(0.03943237466782035 -0.6228731410072736 -25.10172897157008)
(-1.393118979912783 2.07854745866995 2.368060701436388)
(0.008405757801097797 0.009434791245412463 -0.007387912252840479)
(0.07042363261084568 0.004166852565613436 -0.03548588941113103)
(0.2214762537988456 0.006696259180975859 -0.1834049780588642)
(0.005452241291710846 -0.03890024622272348 -3.254413670325346)
(-0.03624963088706493 0.0107143353009283 0.005809861430344622)
(-0.4433703430923737 -0.2262160046168198 -0.480173880474462)
(2.410870914290931 15.57244335066167 -7.989943193036297)
(1.795288516557054 6.440859675999324 -0.926302149563174)
(0.000749231006289903 -0.001701433072135638 0.0004493199089776746)
(0.2816422318570455 0.5942554783184175 0.06364697880001954)
(-0.07955059832211392 -1.21297492931194 -1.594868450693666)
(-2.294169708617757 -2.080777641289482 -0.08258514335582934)
(0.6046473562800526 1.181124533864767 -0.1296823061992469)
(1.20224527241035 18.34691998896159 7.836975458467412)
(1.145547300902641 0.0717798599952828 -1.421545212039545)
(0.01046462352279979 0.02488881473509928 -0.03583500797561591)
(-0.4578588663631442 0.1004495992940617 -0.3312390303654721)