/*--------------------------------*- C++ -*----------------------------------*\
| =========                 |                                                 |
| \\      /  F ield         | OpenFOAM: The Open Source CFD Toolbox           |
|  \\    /   O peration     | Version:  v1906                                 |
|   \\  /    A nd           | Web:      www.OpenFOAM.com                      |
|    \\/     M anipulation  |                                                 |
\*---------------------------------------------------------------------------*/
FoamFile
{
    version     2.0;
    format      ascii;
    class       volScalarField;
    location    "0.6";
    object      p;
}
// * * * * * * * * * * * * * * * * * * * * * * * * * * * * * * * * * * * * * //

dimensions      [0 2 -2 0 0 0 0];


internalField   nonuniform List<scalar> 
19631
(
-0.103987388138029
0.2343275708627846
0.1616250354313393
2.6007647347682
-1.530709328753755
0.08227982497073207
0.1873330175103154
-0.7513082782193511
-0.133116451760809
-0.01629164281120795
0.2584369354523385
-0.4096987658823001
0.249066018752304
-0.3361604872115502
0.1666192239850884
-0.6257017595075234
-0.4283678006073613
-1.427343454882767
-0.7273734492738098
-0.976012268133397
-0.05796543320601169
-0.3820322989932882
2.153446118933777
0.05858483402263207
-0.4477561333493867
0.1991706065687893
-0.4360784150924866
-0.7007283187558325
-0.2549589618679432
-0.02037500159804709
-0.3898479289216444
-0.4022501735578128
-0.7817932333758572
0.3855683235258382
1.385275047932686
2.809346403316337
0.09104996403243772
0.2638270791965203
-0.608443295394375
0.1409366714865474
-0.09150257373165838
-0.02613913546290592
0.1081403077364879
0.1213987733265653
-1.070420938725741
0.4907504938391956
0.1998051710711527
0.02468703777512109
-0.08368895494615067
-0.4228536872362434
-0.06147250562888534
-0.3813972054907857
-0.419473585684227
-0.04998226643863293
-0.7645379455697653
-0.4057412919750822
-0.4852601721122086
-0.4133477409121555
-1.391099558188168
0.01194952465220459
-0.03425923995482719
0.1201180179291178
10.64131858722312
0.0850098323233711
-0.3787119784923811
-0.7110274368929819
-0.4564161937157107
-0.3816598902293966
0.4543940843125112
-0.03274665380284695
-0.01456586228587532
1.843773672036673
0.1076728258093935
-0.3511496501581935
-0.4994419180224101
-6.439564905474066
0.1052303347726394
-0.006688976758787272
0.4197641001539258
-1.532141735551018
0.1002679067630028
0.04634903582019975
0.4700905786345285
-0.6236462483797154
-0.7283562767151693
-0.9089162264364583
-0.4327603310289477
-1.071287891711014
-0.1317976584527314
0.2775425989282608
-0.03032845852155857
-0.4798089428146285
-0.3972047024272146
-0.3773907163153671
-0.5513924798525336
-2.425757652584589
-0.1089907193951766
-1.239088411412326
-0.3537387810735694
-0.3275695325731609
-0.3800596222347564
-1.091066335572382
-0.2049198775765942
-0.001296314716106678
-0.840954810263528
-1.570702736854305
-1.517480556480021
-0.472833068977497
-0.4519103543323709
1.163850863888488
0.08891361866701161
-1.090657726125798
-0.4610018324100573
0.6949492408817344
-0.170860851503613
-0.6633281054882957
-0.5766944953641852
-0.3693264271601524
0.008189051857599014
-0.4153474819538343
-0.3595954921006656
-0.3596793003309153
-0.3742059869555778
-1.388308246279773
-0.3926340003655111
-0.3445798409245865
7.491429553806991
-0.2977699034808121
-0.05414146285333984
-0.4371643219163445
-0.1814146620263449
0.4093498167204903
-0.3684749337408987
-1.054250054298963
-0.6210844356472502
-1.633442445257096
-0.3622408022234677
0.05805887476623069
-0.6175643776056716
-0.9097853020798791
-1.120326478927292
-0.9098732971259724
0.05640057773525522
0.0849394680053802
-0.2171402591821807
-0.3403967412078613
-0.04781196475493928
0.02955458166022533
0.1492479808700182
-0.586239526764853
-0.4271823969289821
-0.3559291063258745
-0.399010065566473
-0.2840247888193798
-0.3806696622473664
-0.1354254743466564
0.1680829920796214
-0.1238316161671603
-0.9838219981563813
0.050898366359605
-0.3287357001024799
0.1257691945308824
-0.326009370413917
-0.3972297177439274
0.1499532520737133
0.1898408534696538
-0.4235105041507117
-0.2133439828735657
-0.8330531872582975
-0.1093029898416238
-0.6492636692092647
-0.3589586868505974
-0.4621852507333225
-0.3428294420849757
-0.4063496853238862
-0.4925190448001102
0.1150144068881902
-0.4157564842850956
-0.2783734948615733
-0.838186147821299
-0.3101395885401407
0.02623924230721431
0.02780579411865825
0.590837433497675
-0.01342111217632309
0.1232706607618413
0.06352955608848646
-0.3408219442723452
-0.3527230902393491
-0.3070130863363362
-0.3850430704868568
0.3878136425875797
1.172247864732246
0.2059067589379849
-0.4279180121296366
1.415166612814582
-0.438222257121655
0.03349157878265461
0.3651067604262804
0.2976921463769626
-0.3618125145776637
-0.3457394743974835
0.2014791322878816
-0.4205307531411285
0.1002064775266523
-0.4161829189621438
-0.2433970678330944
-0.3365851514146475
0.1399920564227788
-0.4419524252226511
0.2144898534574693
-0.4877954358076145
-0.1299701407728669
-0.01028373091796339
-0.07486837500627873
0.5172648568893305
-0.03775809159516916
-0.01704853664690079
-0.03164407383576572
-0.9144476981729075
0.0152434189499573
0.1950363093233314
0.2785133609677808
0.1253328233776267
-0.08516548666648614
0.1408821577198787
-0.1570165559132492
-0.3387764961443431
-0.8950722362319736
-0.3691894371795533
0.1685559994726404
-1.54302278007596
-1.812028939267822
-0.4554784619793819
0.1822675842595987
0.03790416157439823
-0.3153686040158116
-0.4754452243509194
0.4256062736755027
0.2882176908240697
0.423278217849918
-0.1017427914538538
0.156240448533399
0.2214958527033226
0.316847700888183
0.7288966648109342
0.2659700617193707
0.05212087962249734
-0.5045142917077552
0.05266145901004375
-0.103244045416718
-0.75426153605867
0.1671337869274536
-0.5714673754958637
0.1331914872578564
1.093216825237391
-0.3473784607007512
-0.1536563484845251
-0.3587922080760917
-0.08584490277017864
0.1346620928014199
-0.06163575990968632
-0.476676463679424
0.3391393172480901
-0.06603848965977972
0.03646795381234581
0.1642814981074208
-0.6066211852121113
-0.7129594544540336
0.9666207184278653
-0.7322069387297119
0.3096278703153537
0.6572515528162631
0.07174066067988932
-0.9670740984307982
0.2915643548947002
0.09614166245025284
0.175725943658751
-0.3864405835137105
0.05200682936426907
2.589456351502946
-3.318821999030168
-0.1607062968838471
-0.9353240100567559
-0.6136453858134364
-1.664163428684115
-1.21774170602821
-0.9200934245165636
-0.275582406032616
-0.6615035413626247
-0.3664542981192795
0.2410162399821721
-1.831014802953453
1.339325702205017
-0.4162318217834334
0.1419840095362022
-0.641745745057737
0.04707220754728219
0.1670533297796188
0.5428456615802846
-0.6639973618721001
-0.4202105025810777
-0.5933594020546966
1.022117112609345
0.5530397222676687
-0.1302115833854748
0.2913031423632052
-0.6191590867870189
-0.1158767690583223
0.543135338449464
-0.4080780491341203
0.08295436114594304
0.0320045733676097
0.1549340307640822
-0.1667944751149729
-0.9499367093386243
-0.0702164588518556
-0.829456533057113
-0.3384946951463664
0.01637112529247244
-0.4584391347291847
-0.5985556666766243
-0.2909032910651839
-0.1569536406279581
0.183501082581207
0.03622281975456777
0.4264987355282883
0.3504270410902653
0.2349076701014839
0.1098757760065337
-0.5984287425596294
-0.7971240194155588
-0.6458298969645141
-0.574658652478596
0.4492885954313606
-0.264069231399312
-0.1136803062666286
-0.721921867384243
-0.07178835562146667
0.2324078957334979
1.739748827314911
-0.7229804023751948
0.1427487692352836
-1.230500103336416
0.7716624301255831
-0.0109519678251103
-0.5177219357411509
-0.3079193565887062
0.01321801102405337
-0.007553569263501579
-0.1781647993695353
0.1861866196351402
-0.4296126271672494
0.2007476453993658
-0.113122732922305
-0.351302865701852
-0.104406744737389
-0.3547426820062677
-1.401310985141472
-0.7863954900949454
-0.3580060504302883
-1.43153334636829
-1.009370400436286
-1.113563932422499
-0.4605466471934345
-0.8114335716742543
0.03575206509548391
-0.4860078044324673
-0.6987973914323712
0.2615404753233234
-0.219340712957911
-0.2380882033180395
0.008123052619799995
0.1194594066287252
-0.4528753164683771
0.08901355270419255
-0.1956020310463083
-0.02108015404132125
0.7484794842595498
0.6830697903639851
-0.8734319678362675
-0.4987031227654267
-0.1530665694508446
-0.2597688459201156
-0.8575235799146155
-0.846216490369966
-0.7656759529322782
-0.1695230657751191
-0.1695751234102248
0.1452965672632723
0.148428545675924
0.003914974042546477
0.08399801469976756
0.04104253084794239
0.135695252749126
0.007087623420610296
-0.6561556341929969
-0.3957548065931323
0.2773467609512256
-0.8127852426490589
0.2460833292015711
-0.1164314273845668
-0.7884536215926086
-0.3787034283532193
-0.3007020464501491
-0.112076774981843
-0.3220157605591428
-0.1538018402195445
1.034350928831221
-0.03052035654733693
0.1747793147509432
0.6104789141904987
0.08873427742335514
0.3060877647283006
-0.01896246180847066
-0.07835323617588587
-0.9174308472665372
-0.5327843307307981
0.08824346977250519
-0.1441346010673713
12.92524549154737
0.1279649959063473
0.08704300065425621
-0.4883654437236541
0.08703080821828885
-0.3901410829376788
-0.4923069805479751
0.7251411418722334
1.000659325191519
0.03615248562172068
0.04438971454293297
-0.1264182310673032
-3.413646930683698
0.1076338199131562
-1.357762413182211
0.1009327303645648
-0.7612336167120376
0.2415864216726495
0.1357902784988633
0.6748969938266697
0.2325567092085821
-0.4688894927883194
-0.398494294019855
0.1723108899848241
0.1476033645267109
0.6524713723217359
-1.30567946033008
0.4004142135032381
-0.5314326546025616
-1.049946621211025
0.05980090178866622
-0.06311319813868929
0.1212651028036106
-0.08195193931477457
-0.06153010521791168
0.08896488633524198
0.2202699201836596
0.519580618064676
0.2511156781687707
-0.06947787758310907
-0.2926559929954505
-2.593407507542601
-1.168475243016156
-0.0004625072317890411
-0.5788321121257476
-0.3013147573175196
2.62719284371
-0.4635493824642329
0.8455437887555973
-0.3246394230295466
-0.1167705600196153
-0.3592245018702092
0.1138323446980952
-1.905252602592195
-2.448785652529684
-0.137012422723966
0.1288310443065402
-0.3942235416552562
0.05775926677113027
-0.7795676086958407
0.1771964952208814
0.5389749249799338
-0.1338870447806467
0.6546931923075844
0.8252998630871189
0.5694050361706046
0.07952986002389281
-0.503253879692417
-0.1901858751100806
0.4477905231038105
0.1165906668664664
-0.09788555182303098
0.1411690268453194
-0.8253785091071525
-0.4713062088418831
-0.4441293221259147
-0.06907589768184373
-0.276105256495268
0.1423160126182729
0.6828988575133933
-0.1040569197978447
-0.6141808671137997
0.1907118845735712
0.1139130335634047
0.6768204186423228
-0.0210062367077192
0.009578156996394851
-2.275767039810185
-0.119985631162365
-0.5304108874158502
-0.382196777587114
0.02178268869465129
-0.03805200109041309
-0.07107112100381251
-0.1044839344406707
-0.3677745483919383
-0.5809049094615824
0.3386885433509014
-0.3824335587744175
-0.3607828751961132
-0.514743839283398
-0.02015205480299249
-1.314860969812091
-0.02272977851831184
-0.4897162903467924
-0.9429912032593047
-0.160790719984842
-1.175691344122652
-0.001725074690777973
-0.5875350230629878
-0.2762637907586555
1.442931038738315
2.619598649993813
-0.3713430305909048
-1.003183046228605
-0.9700522221053224
-0.4701251149522602
0.2175235536712011
-0.2586912306138667
-1.119214881916035
-0.01734108535608987
-1.070230504200429
-0.7149829770869447
-0.1212983236899113
0.1177727766198433
-0.5096197944125473
-0.06643665743789644
-0.4035766102643656
-0.3648143034810277
0.2449317923625752
-3.151076847296611
-0.2143761042975268
-0.1454075088483988
-0.1663783534959547
0.2122146665653367
-0.7792307633760548
-0.4835537435157838
-6.394254405283561
-0.7079561941055047
-0.06914009539428539
-1.086710093073889
-0.5205355645210077
-0.9115395963377588
-0.04482709525732428
-0.2714432398057135
-1.143421296779343
-0.3953251513904784
-0.1132579294170638
-0.3430567120344972
-0.2890331101588604
0.1064255026615735
-0.3405311010816053
-0.04766344328538244
-1.801849525703851
-0.4661669727561022
-0.5689458902099908
-0.1617185952924822
-0.8472544275716734
0.1421476496545006
1.887399310459598
0.4549839389460405
0.6925992755754865
-0.6255631008279816
0.05272561316065953
-0.2237456093961376
-0.6885938156908448
1.57014749913203
-0.6980249706742477
0.9273238923674371
-0.2165695105343403
-0.8189294107027074
-1.028584377971904
-0.1412203459179524
-0.3732337391295608
-0.4395786064241326
-0.6810642513318778
-1.732686684656805
-0.02879448722523675
-0.1390664476876488
-0.1654438391304006
-0.4335843942733558
-0.462919869321632
-0.1558479253927027
-0.07240121930885007
0.8607750525484024
-0.4137316288318988
-0.164478782582335
-0.6919014678386597
-0.8964668203579382
-0.6328139781838739
-0.1476152119005866
-0.6292027187569187
0.4379639595387052
-0.9411664274072252
-0.1460181888186241
-0.2617037425445361
-0.9651528499309825
-0.1737209133898261
-0.4999535326352214
0.444505695118506
-0.09939793728846313
-0.1087341751136576
-0.2388693536593767
1.716061754914898
0.07204222200078821
0.9285785342631071
0.1892566317670772
-0.1322752266693558
0.5757074923582836
0.1287996614777549
0.02132560883239777
0.1574958617686652
0.3502514816957298
2.515425399617939
-0.6718703163091538
-0.07803245603481243
0.3066208430980225
-0.6788448357533184
-2.540135351702554e-05
0.4527467865368217
-0.1920858109934452
0.1785830130433951
-0.05916448572065004
-0.5188700441632117
-0.7627762511792239
-0.9739177423642927
0.3420491248137126
0.3103253460982947
-0.04208815922518582
0.2224526754908355
-0.8850925721482398
-0.2823578900338231
-0.4729472998551664
0.7327087059255866
-1.034889756390926
0.09322923648931092
-0.3453208111747905
-0.6899696079463576
-2.0507981435462
-0.01865943209119773
-0.714431140209998
-0.4346362475010733
-0.7661483678207982
-0.9409778570055537
-0.3642379589186305
-0.2111153732684
-0.3209960373464611
1.036955215641095
-0.455920751648442
-1.431952369507369
-0.511294980900768
-0.2561535216656318
-0.7003171353871154
-1.194602110639239
-13.38310204400676
-0.7023152808795502
-0.5123167719767715
-0.4492554026378243
-0.4704694408431096
-0.614101409871511
0.3975580999833807
-0.6213324392606034
-1.295510335101689
-0.8342257868428976
-0.2625092768155701
-0.9933737964537284
0.2308304279890353
0.2143175120863349
0.1276118323842714
0.1409530774430577
0.1797116832575646
-0.9402454548892795
-0.791527066716793
-0.4526376807856292
1.21014955859974
-0.1573416127098794
-0.4283530261317109
-0.3977732171023724
-0.1285088451124398
6.93169774834528
-0.268595501361452
-0.2999540238436622
0.142044172854272
-0.2668452663540238
-2.655846360486067
-0.5207608359881155
-0.005152294954274697
-0.5866738389000378
-0.618100773230389
-0.09698267083780981
0.1408243574140274
-0.7972958383923022
-0.3944092903197122
-0.4515908573797454
-0.8742992027649302
-0.5146797211516002
-0.3475366549965499
-0.7580191119505794
-1.19343721583767
0.2602113959284966
-0.9149170863337762
0.07197117368704169
-0.1102518171807546
-0.03703456441472384
-0.7385740438416319
-0.4932942921508541
-0.4586203409228972
-2.331520531392887
-0.8418686413695536
-0.4246546474910787
-1.156495565036905
-0.2229420096749708
-0.5015334332540324
-0.1522315690663031
-0.2671977482444871
-0.3120411856571322
1.121905528838721
-0.2862518511592695
-0.1857812283637159
-0.1054083426685506
-0.1028434978885206
-0.3782961413190864
-0.08121018177250998
0.08446152811001001
-1.286352528383191
-0.1114791099977765
-0.4207533745850403
-0.4357966900052687
-0.5507507283376624
-0.1915201468808799
0.1702987065516949
-0.4179497061440078
-0.2634383667699407
-0.3913293213744357
-0.5663356726560678
-0.5031903133734406
-0.6400575744824732
-0.6131102999421129
-0.2616323619142611
-0.6644853204466867
-0.6625239320080362
-0.2134817320341499
-0.6541221024891228
-1.040200262863233
-0.2078345615234397
-0.7996076725274945
0.1490194381936525
-0.2791230850790984
-2.1844830194055
-5.937790007443033
1.074183907887936
-0.03724721716220784
-0.08282514800573762
-3.836488764660884
-0.5211438754316216
-0.7962356829626317
-1.312688941024984
-0.8426912193366993
-0.5485488392172839
-0.9593442439024594
-1.199684604371795
-0.6979060233123419
-0.8572337995286621
-0.5162565685193651
-0.1309237423008059
-1.854195179361573
-0.5537354164285397
0.04522526735075041
-0.4544399508423321
0.01038592638311975
-0.539940841548159
-0.5937804197698562
-0.586529010406581
0.08862407315440454
0.07942764227138063
-0.08772982793941966
-0.2708430972953167
-0.6934920295542366
-0.5170598970634854
-0.9041820842075666
-0.473707732393708
0.4137892846483763
-0.150413103756271
-0.5792721395299305
0.2144964048178902
0.7518018898043233
-0.3578974066562258
-0.02927012341294807
-0.8585458872154829
0.02788175310347532
-0.3137460912643616
0.02080287925355451
-0.08533738865297935
0.2367726442539469
-0.1844271790460839
-0.1979789635840669
-0.6106609771624345
-0.6284677752893568
-0.2026281162074411
-1.540759454675884
0.2330911868145679
0.2721434035066407
0.4683769929317716
-1.207617980121592
-0.5787670851099288
-0.4524304906272361
0.09204938880929532
-0.3632481941207894
-0.3730080948939681
-0.3065483696179594
0.02605418494388616
0.4510626152443859
-0.1141195725507807
0.03835779209115277
0.2083272999071848
0.0007824195473412454
-0.3049272502483638
-0.07339041451452431
-1.172988847894947
-0.02184746036635017
-0.9483150338423431
-0.5111937307352465
-0.640203371559927
-0.6816612619390389
-0.8501287054985452
0.5259715807224133
-1.097246819432778
-0.4076066246419094
0.5476354184601131
-0.3991595604116895
-1.985117659524672
-0.3329171402735256
-0.09516261093119734
-1.016418434284229
0.04721120768668629
0.02399356738381444
-0.4727956357116681
-7.89742500796043
-0.453487938450183
-0.5620555169780319
-0.2486010236109041
0.005635293236539514
-0.1786488702588737
-0.7100020196356831
-0.1185573805650842
-0.6224473727445222
-0.4335541498170294
-0.3064184716976385
0.1494026162506085
-0.03501011746672612
-0.7901104717225275
0.03266306718141646
0.1003998008231548
0.6423155020093542
-0.4111104649336228
-0.5983475894901316
-0.1161662621190698
0.1155324384671775
-0.7173466911626343
0.8091267921885825
-0.1240148276396825
0.4894320535244541
-0.1547101105035179
-0.7170401343580106
-0.6216562581023015
0.4743244587907409
-0.1827909814303456
-0.6886678862074839
-0.1791419559339842
0.6220331271864197
-0.3675686940738656
-0.4238076431565942
-0.8583059965671723
-0.2229792207517351
-0.896318585244875
-0.6605310616946031
-0.147281337743488
-0.6226872761879678
-1.091465823487166
0.7548006329654245
-0.522854472994651
-0.7102290780733993
0.1248858489908009
-0.5864852833551566
-0.180691763532966
-0.3938621950656648
-0.1758459307380265
-0.9565870373832843
0.03738623264557409
-0.3842460339176023
-0.00637127998021703
-0.3490038131151598
-0.5568676740715864
3.60825655658868
1.169160541698549
-0.2485498082457046
-0.03683226807129256
-0.5794424383030005
-1.777108765624418
1.022012728684052
-0.7037023737321809
-0.3161037113319536
-1.202497476076819
-0.02004361268629284
1.402461388844783
-0.2932245524244689
0.2442157854833086
0.2400189608468968
-0.2399546873701722
-0.2121485135707279
0.1914252424517145
-0.4070766319116125
0.03761109619317189
1.048658999088682
0.2967060227843937
-1.011385720077831
-0.394705798170794
0.1999227660569339
-0.08439010247612974
-0.4590315869823464
-0.4130731292821829
0.2141889161079532
0.04964502461605093
0.09196355829667198
-0.1808162952250332
-0.2373890687659614
0.5188911569792393
-0.2189874307744804
0.4325801811237653
0.01007673724211068
-0.151748498830378
-0.2463213044065907
-0.1852347423956412
0.4666418620475014
-0.7007171439281766
0.4904182442414807
0.4130047248932837
0.4570718066375002
-0.4458933094022177
-0.3135298086831971
-0.2974012081931056
0.200222868300934
-0.2807403622942244
0.05013031386153473
0.655168916343672
-0.6455948021265479
-1.455737057848578
0.4636834837814203
-0.2920626805071665
0.2515898241454292
0.2767707245950058
0.1095046278286608
-0.4419744662548838
-0.1137104499971528
-0.5279079997696727
-0.6177718899738548
0.3416264185365967
-0.8570508245786853
-0.3030907333375411
-0.6733747710887644
-2.137706198427569
-0.5798752687052333
-0.3107541317055558
-0.4280641932905671
-1.883740055269891
-2.446472418399271
-2.242012724109913
0.3908062304175304
-0.1585659233322811
0.3501833394992703
-0.8959078035131884
-1.315487362904365
-0.05846204299131486
-1.75235651418875
-0.3294506533040111
0.4026956586069949
-0.3646505868837691
1.038392391040611
-0.8627130813309064
-0.19610861174811
-0.01927501493820018
0.1007865226014112
-0.7015637589910506
-1.129608396055282
-0.2697754374404676
-0.424191210116186
0.1507956446071372
-0.4937070513742001
-0.1799282700366
0.01855035093613892
0.4514260812751729
0.05758189436909143
-0.4262285801175486
-0.006292118937521352
-0.02435944457766978
0.1774142932791169
-1.124106538874207
0.3269912512482535
-1.243869322518617
-1.767317549482167
-0.3227640912255319
-0.2068530685760837
-0.2233806224545838
0.1516018769702672
-1.009335210406526
-0.8419507803025995
-0.1116405521658436
-0.7196194343374516
-0.4261233673870644
1.793315254550223
-0.1245448915381242
-0.1289852379988603
1.893598588388038
-0.194572900795997
0.06211227447440496
0.2034910584273275
-0.7352135958833643
-0.05351322107545767
0.4333666033206205
1.028330443810647
0.8241152842251775
-0.06517189337712342
0.1825884001484116
-0.5442440256784595
-0.5386397366090718
-1.081217308973906
-0.9945045456186055
-0.1420442915128168
-2.9679352075813
-0.2084029674632039
-2.528319647268083
-0.1144688904052282
-0.01187322944376134
0.1326480501897049
0.1216418047786611
-4.363532166876661
-0.6203753975424515
-0.7081016357890072
-0.9555841858521279
-0.390874446362955
-0.8489364510826196
-0.2083526181121915
-5.163668621966286
-1.888356681956205
-3.178792430103577
0.2412877171509889
-4.17116532784681
-6.678977343957501
-0.05158205573985649
-0.001021133032477552
0.2090810165437388
3.749634535020008
-4.156467437700006
-0.6923152750682213
2.896848423123742
2.790614519536469
1.789909713959976
-0.392978916171075
0.1502502894544074
-1.478684323420902
-0.8700830550315937
2.582475933403055
-0.2801958349987531
3.026664875853192
-0.3466068020213281
0.1050612918164151
0.09971522056727583
0.1079832348368994
0.1098431638948593
0.2017016123826226
0.2040039422462106
0.2186437444374176
0.2056269586373975
0.2166032376942771
0.2626452778693362
0.1891472679668256
2.437298638284774
0.2299639900352209
2.320026515791055
-0.0539705493850022
2.298844933389332
0.2931777221049816
-1.247440206445889
0.4778471643464813
-1.333059359895496
0.1197833940667195
0.2009999227133475
0.7229009635519631
0.3835754334578448
0.06737808659442385
0.2466971565037098
0.1381818313010308
0.8624173370798025
0.2036916646698538
0.249309103479207
-6.761376618409102
0.1459048368185752
0.03624096030502615
0.2291816364429481
-0.01188002651760598
-0.8433773672323602
-0.05289383095996104
-1.543340012182943
-0.3962516996415514
-0.4226220392939569
-0.3776571591188718
-0.3395117029274099
-0.3910168658307024
0.2423506767327831
0.2502504745991154
-0.1041349354361663
0.379735048043499
0.1603854526712439
0.2443672458531284
0.103403494266774
0.1690693330471712
-0.8153193201252885
-0.1145511360064934
0.7882971165912038
0.1836128153928294
0.1710556856010717
0.6356279807057166
0.6873204952432248
0.08190437626919563
-0.06212528322246957
-0.244572373607288
-0.02785076505749942
0.8793622815678379
-0.9937370750095473
0.07692123206445613
0.8619470940238765
0.1009703404361216
0.8764256556361277
0.05924323019898284
0.1226867808578366
0.2341673448251303
-0.1885557585400201
0.03550263270126687
-0.2316803637878747
0.1089811941362712
-0.8976434944993869
-1.023469645799533
0.3890100452017237
0.03289394717344946
-0.2636670574007244
-0.07789033424509442
-1.199783433398852
0.1242260307624586
-0.01259892383219742
0.1562026792758174
0.04136468338898754
-0.3861111496405157
-0.09723352435782492
0.1376183035590268
0.02979512608042675
0.1646286673693994
0.05259652331512118
12.68738045137732
-0.8234951188397642
-0.6479541540477967
-0.2189207663704771
-0.9673697205231606
-0.4349125570405112
-0.6888348046946583
-0.2097613889585797
-0.805422039495781
-0.1364408389117336
-0.3905773873485599
1.204316213991483
-0.6710309397748121
-1.161732684646049
-0.9663503223688017
-0.3816589664297329
-0.246487799792823
1.964724488891369
-0.7819738137743272
-0.5836691343947488
-2.894350423676408
-0.09964600785032686
0.3684907345481157
-0.2311808636574512
-0.4715256428069748
-0.961038761007964
-0.6471787040443975
1.062480869436373
1.746800776819337
0.07343804507749467
-0.03295913373979006
-0.1017732592493133
-0.2904150397294371
-0.09509629435023705
0.1806346310717716
-0.03032615301667787
-0.8728511960823441
0.1207812192573253
-3.451113067437154
1.183679656992467
-0.2847235142415582
-0.08368140443043869
-0.2335609074673284
2.109859714442087
-0.2931093622898684
0.7379100312370329
1.410834783304035
-0.02870710727942439
-0.01655594293666175
-0.09998402458263937
2.554170903964758
-1.996489965941836
-0.012787710934794
0.15775374806953
-0.3000640596005226
-10.2141549821493
-0.115711054489948
-0.1373810400096661
-0.5342543172091601
-3.142343352208886
2.286282094297285
4.156094263149216
0.2439510374469848
5.706618591990095
1.207845337514151
2.285033131782478
-5.937627620603281
0.6539647487420246
0.5729516307227296
0.01152264274397521
0.6109785699785678
-0.02466003085931117
-0.05844088390485445
-0.7365230949388119
-0.1448786405310809
-1.234702925843355
-0.02310150953328303
3.622550807063058
-0.01583832837107131
-10.71375974264296
-0.6088727609221424
-1.459003770804927
0.7662301028767122
-0.2987188973248953
-1.94928058129556
3.972185533203873
-10.61270688565132
0.3705674988070292
-0.2851722989733955
-0.3083285011172786
1.200173614040616
1.053505395634421
0.6814546760278947
1.489886216447107
-0.2566014470637977
-0.8517722589001799
-0.5513959947784944
3.033203505542788
-3.033695555714514
-10.68145119879506
-0.362284448431011
0.008597765411957316
-0.8685615502371681
-0.1397628882414379
-0.2604100494448983
0.4334809098183973
-0.1537628541819996
0.5068134841296866
0.1208753763625702
0.03091625493016243
-0.4975284094341892
-0.7693444632979047
-0.2769097124375434
-0.2546927711813111
0.3243193018814418
-0.9289916013518121
-0.004116002700863669
0.7159345996579375
-10.34864783763456
-6.756082426729488
-1.044227556325129
0.2026229031396862
0.292475442855277
0.31459022735856
0.970055884255061
2.43407437724753
-0.7014291410160931
1.304026168260571
1.000449515663472
-0.714358134528339
1.029231741535045
2.177095574439516
-0.2573947618659909
-0.1772288695938874
-0.1457023160058172
0.1628468200368501
1.105637787011287
15.47912355357922
3.407623379054445
-55.49585105918326
0.1328501348217422
0.0494419190911609
-0.2400889209176342
-0.2314335674346074
-0.0418416638068185
-0.4872455497789676
0.7962348319075903
-0.2101262365105284
-0.2322173612551537
-0.2273903794457101
0.7663428406807313
-0.3844597584179708
-0.07934505840461271
-0.166434358175177
-0.07628925773225427
0.5883497700651882
-0.9482898960729339
-0.1539301401839529
0.05563271200617886
0.09670160862475721
2.988504303955514
0.3889503026901306
-0.415073991076406
-0.6904232278695311
-2.08191234541233
0.8767913334889228
-0.8977442537107394
-0.4950033571674248
-0.427623766646166
-0.5064613355797757
-0.1612786708288266
-0.5577259295985906
-0.2872172494395822
-0.2505239809604334
-0.2445408343999265
0.02471535751199093
-0.4228090924058385
-0.1499982939923024
-1.047598839882632
0.1934610499817155
0.6726898941126446
0.1790513131704222
-2.684656234571942
0.4510728423704952
-1.177610634264904
0.08358007549876691
-0.04944358250116139
-1.083543355592011
-0.7884826558828154
6.87497687309613
-0.5607438031559221
-0.9964618028617671
-0.1359477747450237
-0.8261651260798702
-0.3021983361585535
0.4075697473929584
-0.1692605880377159
3.017996231772772
-82.59894380188058
-0.7993583041990263
-0.7263673355786876
1.69813288008194
-0.1122453823016501
-0.2976291095616046
-0.6089397368580024
-0.5688954497627748
-0.06812078942950456
-0.2806063650852937
-0.2709275346771157
0.0686259400886171
-0.8210654772279737
0.4887084935914266
-0.08131379059815236
-0.3729492623479733
-0.2375988885751002
-2.44538775655155
-9.776566029737397
0.1163244917178365
-0.3842854476955454
0.4727408372628376
-0.06408183453694129
-0.1554318972939685
-0.567733846804278
-0.5128998625207536
0.110720710386573
0.9070152153786615
-0.4366405476648332
-0.4045968877512892
-0.19670815418382
-0.2541035037201376
-0.12389430261196
0.07042513398805615
-0.1275151643027039
-0.4195140974998652
-2.362461069650786
-0.4746161461939659
0.1693776447213076
0.9065595338628005
-0.4160939846591789
-0.1214536693607069
-6.278245744767587
-0.06958687463697286
-0.3650400042191303
-0.06355239048183345
-0.1062872884087539
1.405986917348234
-2.925557247766163
-0.1569920980182378
1.15500094721718
-0.4857970346637299
-1.71245498358616
-0.2817870859469842
-0.9854843125808319
-0.8949672090730403
0.3453756147260209
-0.1548391290866366
-0.5856591180817005
-0.6222750083426616
-0.6839898215571779
-0.03521763828230539
-5.53562596312003
-0.3321452406548203
0.1563094303670444
-0.8898454252922401
0.3172172371217369
-1.151924539117975
-0.2377416701666993
-0.04330630122847409
-0.09658419246068722
0.02975050513968048
-0.05512676223094253
-0.273192987040913
-0.5306737545498055
-0.3201794925217197
-0.5056930548166167
-0.03167869218354871
-0.2891429013400505
-0.2377513630669796
0.05230861194513975
-0.7546748206850034
-0.07230577056427584
0.6404355887296997
-1.623489314166148
0.1166969161025739
-0.1552845410898741
-0.4576521189982534
0.3837960037978858
1.195274204498096
0.01771826670434347
0.1940660050249843
-0.2815797405185378
-0.07156040370056546
0.03896073207175103
-0.3387699590013467
-0.4487278399712266
-0.1215734225056387
-0.2054677259897297
-0.2524745425319596
1.030241723040905
-0.5022097847404866
-0.1052083152677739
0.06176600269010041
-1.286197308000672
0.1699273220621454
-0.1278659565152395
-1.15986821955844
-0.03997845389337144
-0.967462721759355
0.238921006336889
-0.5910276483059945
0.1032453088256872
0.007451179168280816