/*--------------------------------*- C++ -*----------------------------------*\
| =========                 |                                                 |
| \\      /  F ield         | OpenFOAM: The Open Source CFD Toolbox           |
|  \\    /   O peration     | Version:  v1906                                 |
|   \\  /    A nd           | Web:      www.OpenFOAM.com                      |
|    \\/     M anipulation  |                                                 |
\*---------------------------------------------------------------------------*/
FoamFile
{
    version     2.0;
    format      ascii;
    class       surfaceScalarField;
    location    "0.6";
    object      phi;
}
// * * * * * * * * * * * * * * * * * * * * * * * * * * * * * * * * * * * * * //

dimensions      [0 3 -1 0 0 0 0];
oriented        oriented;


internalField   nonuniform List<scalar> 
37423
(
-0.1094614769079845
0.425311052003036
-0.4555410931101788
0.1396915180195649
10.86116587323341
4.909609221292322
-15.77077509451047
1.590136376326004
2.846369160534791
-1.487598385263267
-2.94890715161454
0.309869869035226
-0.9637249591507808
0.6538550900917341
0.1189757688347941
-0.1671264846769763
0.02806493362112355
0.02008578221641086
0.04802370815127179
0.1425400987198469
0.3064611651120885
-0.4970249720007169
9.158711334320147
-4.652311440311707
-10.85171613607175
6.345316242056549
-0.06617731841807827
0.07289118274362465
-0.003435872165531846
-0.003277992169428264
-0.1831637412493298
-0.03242575866869551
0.3900738767605539
-0.1744843768482679
8.636788657999986
0.6812936969645388
-0.4989787946490833
-1.390404028527008
0.4597200503000609
1.429662772869593
0.3057990129459988
-0.5541438911357958
0.7646099220683646
-0.5162650439081347
-1.051236242144205
1.336510776069659
-0.2852745339321163
-0.454790597356958
0.490915982680031
0.6045408613287983
-0.6406662466785095
-16.28469733226273
8.933341968481018
-0.05997055929977945
4.051624172589366e-05
-0.1198000091199766
0.179730052169626
-0.4607865980125527
0.8156301632925911
-0.04904455234740316
0.1974611903659609
0.04953797827211034
-0.1857330143026346
-0.06126615434175244
0.101375217919798
0.02397825635202863
0.001524257804249771
-0.1268777320856281
-0.02390481296276744
0.07035444312282443
0.03196678899005419
-0.07841641915804454
-0.2188854191791375
0.3810865024074255
-0.4254849980674351
0.2632839148320342
0.4099009547078826
0.675098292463156
-0.2632247537500755
-0.8217744934418387
-0.1201346793136003
0.1257373388356606
-0.1113928657096795
0.1057902061819373
14.79022026912757
-17.67356757393804
-6.352855648406622
9.236202953280012
0.5886083532132996
-0.06677596364319849
0.09119113153239509
-0.6130235211050384
-20.45405369120133
9.364228949148439
11.08982474205687
-0.183765478954776
0.1400123709621822
-0.4170334900332711
0.09307932624388662
-0.0944592976784374
-0.1869043014551734
0.1882842728840146
0.1686252075342047
0.01125530800647186
-0.1798613281087729
-1.918744175530694e-05
-4.260440788502791
-22.44561656199764
2.757524690675344
23.94853265993289
0.2114288930828005
0.3985986657870053
-0.1515138378741577
-0.4585137210053569
-0.08097791489155622
0.7023077626778688
-0.01570195153727092
0.1097155811835477
-0.1075867953230342
0.01357316566645989
0.05945284038720632
-0.6364689203660328
0.3325520820790004
0.2444639978771018
-0.01806620715101765
0.05965852992532644
0.09191210778887755
-0.133504430571802
-0.03694353334508578
0.01202113599058438
0.1217587263937261
-0.0968363290419509
0.2632445053551475
21.58133104988065
-19.48505591499081
-2.359519640240215
1.085897984800758
-10.19955692366796
9.351048690207564
-0.2373897513093465
-0.02214800389765853
-0.04695352291345575
-0.1027099964369877
0.1718115232397988
1.633765590964906
-5.712635360831542
2.385200204423047
1.693669565409225
-0.1518498004163205
0.01869378363504456
0.160872254041001
-0.02771623726313671
0.5543292025745208
-0.7024519473721009
0.1944111895649941
-0.0462884447721118
-20.99693870006941
3.666448492635066
7.172774469945357
10.15771573752395
-0.2173238467134082
-0.9250356403929413
0.9990186063146108
0.1433408807601348
0.3745456818806623
0.007913481678196353
-0.5242106917744992
0.1417515282156849
0.0883419452922254
0.6655735402603568
-0.09888712437884592
-0.6550283611902722
-3.595517960291257
-21.72637022986317
22.60128484979287
2.720603340369308
-0.9504673372321878
-0.6759854368026731
0.1774427644038977
1.449010009628672
0.5159713270781999
0.2498177844716789
-0.520234921104714
-0.2455541904532763
0.4227598843028693
-0.185113142673704
0.3721005026158645
-0.6097472442535717
-1.046622753643849
-9.860637117346135
10.90725987103724
-0.6559864081138059
-2.811623693770647
1.142874229335606
2.324735872449598
-0.2465313199748908
0.5883132893843991
0.03279582585056252
0.2014361893026327
0.04381063129953702
-0.2780426464618114
-0.1322629856184332
0.04212737354633624
0.1093170359124914
-0.01918142384859786
-0.5170880992238256
-0.0960912935867394
0.1010160214447093
0.51216337134443
-0.09309282993500974
0.5900442587986875
-0.8670756056621604
0.3701241767878912
0.2677467359972636
-0.07373856229801438
-0.02569515798645731
0.01479733023045517
0.08463639005106068
-3.218806117585029
-0.5614966858224426
-3.060371571837866
7.249194761384016
0.04889715353356203
0.04422288736125628
-0.03523244020919924
-0.05788760069312671
-0.03101748329754334
-0.09711975138845527
0.009690063823426614
0.118447170858366
0.3902365289213026
-0.3778438529721844
-0.1331232443256215
0.1207305683590732
-0.3130688768790014
-0.1604208083208792
1.148587977643853
0.02682288290152978
-0.0978271537448554
0.01480924398020583
0.05619502685177671
0.1164864295529805
-0.2991234689554292
-0.1595822522403784
0.3422192916384914
0.339262324105533
-0.7876002205419443
0.2169644990143045
0.3632954746666265
-1.146002695612609
0.565742721917769
-8.543780509473757
3.96557864574731
-4.778213392004532
0.07840815631944884
-0.04245002692266107
0.009605205137264976
-0.04556333454505661
-2.39079764432193
1.027317345355129
1.110791726904641
0.2526885720403279
-0.528114627561081
0.5347327143343544
0.09084985797412923
-0.09746794476355432
0.01569488432087288
-0.2815983566345677
-0.3661574845166334
0.6320609568302034
0.1142207569193598
0.1038332241331319
-0.161295726428281
-0.0567582546368117
1.682479769640308
2.946333285309887
-0.9482446680665998
-3.680568386962666
-0.02150014663208648
-0.3938102719165352
0.7212993574637072
-0.3059889389419866
0.6605136770589772
-2.016977673697512
0.3873115881746797
0.9691524084436474
-0.03208530121317007
0.01686688852592614
0.0152184126829304
13.82386466445774
-1.130539821030069
4.76100418112193
-17.45432902452074
0.7327500102035447
0.07392214381791337
-0.01535475145747682
-0.7913174025736194
-0.1824800918965397
-0.5241217017322847
0.02810666969153635
0.678495123929756
0.3234774883679042
-0.1492648201323415
0.1049051281365641
-0.279117796384534
0.005291043247843327
0.100645131504212
-0.09625973595982137
-0.00967643880091862
0.04360826248783772
0.03125331688756942
-0.07486157938050945
-0.08309811137033619
-0.5260187837115414
0.362585575108737
0.06792264519345045
-0.04445740169592736
-0.1091984547822029
0.08573321127756188
-0.08233050539530726
0.07869909767106194
0.003631407721071582
0.05865341056823815
0.4309214354168678
-0.05909116867905993
-0.4304836773152594
0.06530612065159984
-0.03400205675485935
0.1376675137305399
-0.1689715776354686
-0.1182266265125733
-0.2283972262147537
0.4631102822791227
0.2939376157192739
-0.01356557645166831
-0.03280982849604094
-0.4585791409849615
0.5362179581947297
-0.04482898871992277
0.1627538063753012
-0.01528125375880855
-0.1710927248501567
0.02362017222231687
0.006724675702391558
0.06698693286849015
-0.02540550157461052
-0.04830610700042633
-0.1086737339354357
0.5142367763860243
-2.068304711294426
1.662741668803128
-0.7645246969578277
0.7739483876117264
-0.1355457821546839
-0.1474866227952166
0.2008804502102467
0.4261671721136903
-1.181583953777158
0.5545363314366412
0.4681307508335941
0.01689931058166199
0.06954873326587893
-0.06063026774360956
-0.02581777610956725
0.05067397139470259
0.05892291053820021
-0.2151773511322706
0.1055804691906461
-0.6214887960229645
0.58828861154756
0.2333650705629049
-0.2001648860998587
0.0910149124688014
-0.04512764812287152
-0.1132383260114805
0.06735106165959884
0.1126799376847382
-0.1058013144362991
0.5006447955496836
-0.5075234187993468
0.05046703203628494
-0.07175677907013712
0.1149871028777785
-0.09369735584818442
-0.0996045381060113
-0.1508182363132548
0.3785426366354851
-0.1281198622098303
-0.325788632459416
0.4723348238271446
-0.2461507294675318
-0.03765465130351964
-0.03727794213396455
0.1599035290556587
-0.08497093562543608
0.1214425695153663
-0.0482479288496873
0.08645101184184761
-0.1596456525147198
0.1006568723330551
0.001558026982688344
-0.00162609414974396
-0.1005888051701908
-0.07208065945217375
0.03198389203502757
0.13521807765862
-0.09512131025693954
0.4102186969106886
-0.5457983652334133
0.08458629224095397
0.05099337608162809
-0.4298833585732805
0.6566213126879475
-0.227389736124119
0.0006517819979557579
0.06960019057442751
-0.2311368315662373
-0.2033816636068641
0.3649183045896486
0.04608842832038638
-0.03596660224710831
0.1030971148200408
-0.1132189408994269
0.614906933537311
-0.357167342771762
0.2884035339191852
-0.5461431247049018
0.09645036249874014
-0.09046771197063282
-0.01796730713659912
0.01198465660030118
0.1124523715318804
0.319125314022684
0.03655306526924023
0.4550725438814124
0.192112541979042
0.6970579677992766
-0.1149608627701789
0.2173524536698456
0.7825834937766468
-0.3028779796565969
-0.2444262162766253
0.161910758715388
0.1910882915271978
-0.1085728339694698
-0.5279504439166152
1.303579001760255
-0.5618239979483948
-0.902175812143708
-0.02176843127506744
0.08800845548853295
-0.03793319801049923
-0.02830682621041129
-0.1396341973180037
-0.52088055528538
0.364123702697056
0.2963910498696457
-3.183385598966723
-2.9815925996388
3.797913469303341
2.367064729337293
0.3315296838949953
-0.2929048208128749
-0.5994038352653708
0.5607789721673594
1.823151880672212
-0.3986135116476116
0.4696026052011437
-1.894140974225105
0.3527662204160785
-0.5290370672359647
0.2357236871911632
-0.05765406706298008
0.3364923502562036
-0.5366535252829289
0.2578152420832695
0.1943153627080316
-0.18642979305174
0.09269220421837081
-0.1005777738886049
-0.130033803305136
0.03965665877491846
0.319000079767346
-0.2286229352454571
-0.07626357610498838
0.008566258932008679
0.05413440455705525
0.01356291260687789
-0.2441467621106591
0.01717301306007395
-0.001775092663089698
0.2287488417078063
-0.0822539694151317
-0.5055158423348154
-0.01341665810932497
0.6011864698448094
-0.1754453896612878
0.1064951637554253
0.06895022590457717
0.2249941920984505
0.0295073414419221
-0.1700711423021397
-0.08443039125796506
-0.03131315368958734
-0.1248181157381329
0.1827074849996469
-0.02657621557860951
0.2155102553237168
0.05998320816041525
-0.1008814066027348
-0.1746120568896375
0.3312874714426384
0.21889231757231
-0.7455004018331869
0.1953206128096921
13.68043895309708
-9.154638760911588
-22.53367531673739
18.00787512458716
-0.570493587237798
0.01905886991788656
0.614728388510616
-0.06329367121034067
0.1230344049277111
0.04146611872780309
-0.001642624067182965
-0.1628578995976975
-0.07213699225042837
-0.5288339112441484
0.609087705379686
-0.008116801890861442
-6.756821842024046
-5.415044821521197
-17.4133816643842
29.58524832800477
-7.66372830094597
10.95621585389743
4.224035169035997
-7.516522722020224
0.09984413942785178
-0.08681099484095214
0.04821303809131382
-0.06124618268549524
-0.469567668795985
0.2349557195542169
0.08056762190269008
0.5375906066586771
-0.100882120388772
-0.517276108182827
0.2320671009763332
-0.119664786462886
-0.2632205508294135
-0.2905327261459427
0.506100728860469
0.4224367926484713
-0.638004795383545
0.01351125392275397
-0.1489662587438549
-0.4478298926565559
0.7581494458234407
-0.1613532944344122
-13.63126325252953
6.127088228076154
1.083743623681134
6.420431400801969
0.08282851988266084
-0.004781483564768875
0.1665322238573277
-0.2445792601808089
0.09019950033039777
-0.07751903499304735
-0.01268046534310597
0.08038996748172787
-7.501183477163056
7.420793509724549
0.3911203854232637
-0.3644427779666303
0.4774527967714085
-0.5041304042345867
-11.16494545479414
10.56565218338143
10.68917584282193
-0.0429444481756169
0.5249146915732792
-0.08778249624178291
0.08427589913715379
18.04160864397391
-17.96254127832944
-0.0790673656236684
11.88851980698984
-23.02222246382279
11.13370265683389
0.8906329345243702
-0.1370625226622279
-1.544343950381628
-0.08586615311320932
0.1469144711394702
0.008982983841197105
-0.07003130187177184
-0.1140274357350604
0.1805866348414731
0.22855890947203
-0.2951181085790571
0.4709899312020226
-0.4385511681294385
-0.1994901702933927
0.1670514072149671
-0.1286809649773037
0.5454620098055513
0.4311942291467532
0.09713161840296575
0.06171841124292899
0.4895763648805436
-0.604072409957608
0.01702810030243002
-0.3085220438711602
0.105824129189718
0.08303312821702785
-0.5440196553943518
0.9033013250763393
20.83790692395236
4.730097208906915
-26.47130545795612
-0.5791063216181436
-0.2162499796391837
0.4967047071109613
-0.4068360546334914
-0.1391381295513713
0.04926947706745234
-0.04643904802414358
0.2092122906351234
0.02818574123573069
-0.1909589838509539
0.3362256990252534
-2.648156226834166
-9.534499710905891
8.963849820193472
-10.46301394083129
6.258311142260107
1.55654657176103
19.60840831071615
-9.38446998969496
-10.22393832101476
1.095390288890739
12.40533297070216
-12.8194295626045
-13.69082506344316
5.832518855989126
21.16173111748433
-13.30342491003415
12.54985175512155
-11.58781147229692
8.55323074422372
-9.515271027062029
1.154582450070822
-0.6113592789994965
-0.2548196371768995
-0.4848650497711692
0.5788547765343018
-0.1369341749408478
-27.40242893249479
10.13099568709684
17.26619319730554
-0.0199119321249221
-0.1363292194887862
0.1958199997325721
-0.03957884813298107
15.93833234234176
6.721700874735832
-38.28296784237184
15.62293462528486
-0.05673698520931895
-0.6048115894940914
0.05180133044729641
0.02950827483227256
-0.1446910478686182
0.04887882838313803
0.06630394464655899
0.005852584292994159
-1.660374146536004
-1.968407386658223
3.935914409624434
-0.3071328764568287
1.843980019297943
-1.188882071717744
-0.1064415714576169
-0.5486563761406271
1.381991257277021
0.1011044844386083
0.482082062664747
-1.965177804403135
-1.140037134521579
0.1342769862700565
0.1785843955135672
0.8271757526992517
-0.1004155472268985
-4.704605480192588
-5.232597156204015
7.367869622683277
2.569333013685543
0.7344660100242872
0.1823944700135212
19.38455593386744
-20.83570510047471
-12.23967589686442
-0.1699524482095642
0.4536600545567191
-0.5141596600395708
-0.2840207217080472
0.2772998264405097
-0.3902159846541822
-10.15259246998883
21.55941957990598
-11.40682710989856
0.7671707413714359
-0.5869141296670121
-0.7082070556407903
3.884721581314991
-0.01748215939632672
-8.571844902129135
0.06714021850436952
-0.03662018040761501
0.04406244043298608
-0.038704925829453
0.03126266579980663
-13.80719256011789
14.8803443545341
-0.1939699389637027
-0.01348154409387338
-0.03993302364520489
0.2473845066872582
-0.239917075825759
0.01896681892889863
0.3044285760086268
-0.08347831911738782
-2.762899701354462
3.545092748146788
7.200051441459506
-8.786754363837504
-3.191510469620098
3.923409638836607
-10.11456606890195
3.428256728735767
-0.03734450565148278
0.03412098634059148
-0.09771386217880459
-25.24291589441991
-0.009273384846573847
0.01765956940473527
25.23452970990543
1.869284504305462
-8.006255600397271
1.932341065828758
4.204630030159318
1.897830142463518
-0.4004584980828448
-2.94454197394046
1.447170329531328
-8.732632916067121
3.889508171696916
36.31433960941693
-2.9567053798763
-8.462092622216552
8.146534781390768
-0.7833331990213628
0.05404542174585453
-0.05445923969807518
0.7837470169634253
-0.05690362837441377
-0.2727139498638231
-0.1414609542224207
0.4710785324424553
-0.3550326819859663
0.1705409780528361
0.04438352246295535
0.1401081814460154
0.03738942049968148
-0.03209837725625803
0.04783907665883182
-0.0433103626013404
0.1906319281279786
-0.1951606421953207
-6.555819851962469
6.565198599923271
-2.938791935337588
2.929413187325795
0.0005627064238374192
-0.0003330997185142359
-0.0002296067072004959
0.0005627064232749206
0.002752544258380827
-0.01559872229753267
-0.1397492564270518
0.09081268007272597
-0.02003685420143528
0.08678975487145765
-0.1575655807509474
-0.1687537059667712
-0.3142947184710965
0.4547837435845585
0.02826468084917822
0.3443786350445139
-0.4805911900286581
0.03725516646417024
0.09895738851807205
0.1725034735381623
-0.2683887312898647
-0.0931670295813679
0.1890522873251801
-19.55216712894214
-7.857504269959755
-0.05098563289467187
0.1576311028038206
0.005729364941271774
-0.112374834860363
12.99670065504477
3.750833599810472
3.348412392221543
0.01891426891291262
-0.3552929282362751
0.04519215503482743
0.2911865042736145
15.40087961039177
-13.986242290914
-9.715080105591367
8.300442786115388
37.66527060997899
-19.57242787822642
8.138241962425676
-26.23108469417322
5.25858423213556
14.75940190474812
-1.464830865982114
-18.55315527088939
19.56064080467808
2.89731888791854
10.95269650127704
-22.81508392736742
11.86238742607897
35.21269398894184
4.97023493188463
0.5772003670799785
-40.76012928784341
-0.07694407914434
0.1381190513775672
-0.2519152016075697
0.1907402293643636
0.1931887177641629
-0.145125484766081
-0.6180383108267129
0.5699750778357209
-0.1471769303680937
0.2953423641726887
0.07950323666205962
-0.227668670482772
-0.06263579484883869
-0.006915783420339819
0.09440976064450818
-0.02485818237838006
-0.1263348564972871
2.006414993629448
-0.379914059028143
-1.500166078122538
0.283263197459389
-0.527956109515002
0.2050391800870006
0.03965373196422377
12.25275310669159
-5.704041366069836
-6.548711740603467
-0.2356083495452314
0.1230537369746452
-0.04494547853769493
0.1575000911023529
-0.3508284189838723
0.4984073216114831
-0.2073318215143955
0.05975291887570746
0.1559302971387365
-0.1080912204836775
-0.08087006778480554
0.01925213443163804
0.06161793334882064
0.662517112123541
0.5087760018285541
-0.5238100014107897
-0.6474831125927264
1.928483628170071
0.3843013317289113
-1.085712750020516
-1.227072209912442
-0.1387570637567775
0.1037899528686732
-0.09904268841041021
0.1340097992873807
-0.05300472413507335
-0.137690968527085
0.08765624817635727
0.1030394444756932
-0.8449266219165547
-0.7045365220077389
1.729577698898418
-0.1801145549904543
0.3607009904321635
-3.877108444477727
3.340563321229225
0.1758441327739745
-0.8441543665940676
3.421298901852028
-2.60900646022889
0.03186192494792404
-0.4734121545392144
0.235154312253267
0.3042794982343704
-0.06602165595986263
0.1757716118338085
-0.3137572623218589
0.5183195405704017
-0.3803338900907017
-0.07876497960097867
0.08870857864398807
-0.009943599049098799
0.09285355480648771
0.1714872105449693
-0.264340765351467
-0.07938664704791006
0.003201406656800665
0.0917817803909686
-0.01559654000368495
-0.05686714355784754
-0.09347041658662854
-0.1089319967339531
0.2592695568584419
-0.09342188439450369
0.1214056912700855
0.2033439447587924
-0.2313277516482872
21.1804216923526
-13.60544206267122
-13.99500408536968
6.420024455722045
-0.01647710003658471
-0.06451314613467223
0.003127946984890996
0.07786229918127635
-0.04244850545693016
0.05435251332406748
-0.01190400787003333
1.980200014179699
-2.580247963454407
14.45470695958478
-6.960934492100416
-7.493772467467932
0.04761505920613256
-0.1224185798613435
0.01042338799754969
0.06438013265027268
-0.05124926659446426
-30.35693285898276
-0.01346610364836882
30.42164822925304
0.1006383343142304
-0.06888206932153022
0.2204578083731142
-0.2522140733771025
-0.05041013007610592
-0.02718358015845891
0.06788677347629052
0.009706936752779956
0.06367100884669136
0.6130218694026458
-0.2550223393473569
-0.4216705389283703
-0.06797430110019145
0.001712758727726121
0.06626154236619469
0.01901536317617854
-0.01870136193776113
0.07167858640611452
-0.07199258764975452
-0.005687812253105004
0.03968829572556284
-0.02090053057598892
-0.013099952899295
0.06324752274716959
-0.03981718496585235
-0.02343033778753157
-0.004252058917062655
0.0829751007684696
-0.07872304185843584
-0.1327552240789343
0.5693051613997766
-0.4145954103501757
-0.02195452699061158
-0.01109452393084084
0.09557232181145223
-0.1017319026884629
0.01725410479910558
0.08549291360419087
-0.4260481976081401
0.4202339890287706
-0.07967870505566557
1.250724049558729
0.5186135984194959
4.212714550179499
-5.982052198179327
-0.2820641338223346
0.1364651259261719
0.04836094202224457
0.09723806586359421
0.08225421332169966
0.02586519521836455
-0.1081194085456726
-0.02260357194169579
0.1424279600621804
-0.6208046740145536
0.500980285883873
16.48233586401527
-21.1222091861062
-0.07544802440657861
0.1481469307277408
-0.003920647947643852
-0.0687782583800199
-0.5187581732961618
-0.02301954701549757
0.5417777202725547
1.577491353329285
0.6177283320717516
-2.27349034382388
0.07827065841964252
0.8336221442395066
-0.04291425720388554
-0.701284119968109
-0.08942376707653063
-0.2506573215371821
0.3185491783776516
0.07163273776051812
-0.1395245946110209
-0.03131179450772951
0.3801074987299318
-0.3934450818984528
0.04464937765357339
0.1357352169351504
-0.2930290853045858
0.1640451283762858
-0.006751260010503182
9.885418368016303
9.914395126021669
0.04220350003824418
-0.449964253396455
0.08016678051878201
0.3275939728321012
-0.2231344106942975
-0.440563241463218
0.590724520867259
0.07297313129128527
0.01725608917591979
-0.1868157427415333
-0.02108088646516034
0.1906405400221068
-0.2802575576229293
0.004830693955760618
-0.006867780881719221
0.2822946445372537
1.42992006421678
-0.5672397767736961
-1.674412178732402
0.8117318912623168
-0.0229407761051683
0.1202707528582529
-0.107777699424084
0.01044772266152159
-0.0158983009844963
0.02420003328512502
-0.1034170717549169
0.09511533944915115
16.13706160934099
-23.67184657501637
-3.14612774841537
6.278370107055685
23.04882266182614
-1.36742115648689
-0.1856153461689447
2.170033081471516
-0.6169965788332038
0.1658957337942499
-0.2660076856787497
-0.2473708067823617
0.3474827586628904
-0.09772926742360501
0.01206045337044788
0.03899522140979995
0.04667359263654096
-0.1102254580275584
0.001563152190622779
0.09295662645898575
0.01570567937505688
-0.1377868761790044
0.1847369532473131
-0.06909808097389397
0.4797246078785284
-0.1870090818001386
-0.393908510727739
0.1011929846370093
3.261116690292291
24.68257890806114
0.08623631016007305
-0.04682473944011716
-0.239274850720941
0.1998632799925303
0.004198197662309047
0.3854941143203467
0.08017085198966711
-0.4698631639834476
-0.5279723175093478
0.06677492418494882
0.07928555798580016
0.3819118353249745
-0.516722069119536
0.05256771657886247
0.2536425349880258
-0.6153021611923178
-0.04586796041601393
0.7047430898866059
-0.04357296831541397
-0.01674202333149781
-0.2494206564569717
0.7415298875403394
-0.4753672077681907
-1.718812294842017
0.08086061047031989
1.637951684370509
18.61698324903574
-7.35985062654061
1.739568032544222
0.1559885138143126
-0.2704140074869494
0.0453387005903117
0.06908679306689501
9.016631176048605
-32.50534919894927
32.21851484595055
0.04771443855436752
0.08763837978760051
-0.08467884695289413
-0.04317470302405371
0.1564110977015828
0.001155393182283185
-0.1143917878652951
0.0609507060972129
0.0343529746113457
0.04601814857901457
-0.1413218292919015
0.03812842557704326
0.2622044723735327
-0.08315281150912211
-0.2171800864464502
0.4257180435054752
-0.3010491447148683
-0.511112295463085
0.3864433966617311
0.08399911947107895
-0.02532921697405678
-0.09178557379957755
0.03311567129754547
0.4810820260304594
-1.10752716400551
0.2508799863282286
0.3755651516069824
-0.1026356403244209
0.06057186974467668
-0.03338425383063841
-0.07023428926733612
0.06262325642210657
-0.117219020676451
0.1248300535157867
24.12157218260954
-12.89343204582285
-20.77539434283599
9.547254206057167
0.2070936887443988
-0.1765644327593182
-0.0305292559896851
-0.3200824161467317
-0.0365015734622359
0.4524610181305208
-0.09587702853233822
-11.60761972703908
14.86720691365439
-2.139806768904003
-1.119780417752585
-0.02157672947525506
0.1186069890865867
0.01396758485684957
-0.1109978444726233
0.0652505675384317
-0.1822902166484818
0.1069187396998465
0.01012090940197982
-1.290023570477554
0.9617345772800086
0.4482637007558407
-0.1199747075679874
-0.02409250212029515
-0.1972327237561637
0.1998974084407403
0.02142781743313688
-0.8440120360681654
-0.6251375950254348
0.8577903520837852
-0.9805476227451626
0.2130146115621157
2.549848125134909
-1.782315113951057
6.952456471653966
-17.37797950420561
12.41261428511648
-1.987091252490338
-0.1113795845572559
-0.527928755317011
0.7463058231808176
-0.1069974833035811
1.574556835640663
18.29383403329994
-23.46390882924551
-0.05006704508004497
0.1018271232709641
-0.03784509601893815
-0.01391498217801256
-0.5104368470979912
0.3188162879355476
0.2332138806927458
-0.0415933215446647
0.4994048450213924
-2.150836150913427
0.6857711808435678
0.2042206571979275
0.06634097813862251
-0.1805248087314865
-0.09003682661755627
0.4933874040265405
-0.04333442208839143
-0.4859012185047889
0.03584823656708983
-0.09950041646085322
-0.4109069650892957
0.3346894000402636
0.1757179815007298
-1.775429375251411
1.712805075732752
0.06262429951358636
0.1259829144423222
-0.1294618829929787
0.01574550505869898
-0.01226653651650259
0.006515644360511634
0.1096248385331176
-0.09756469233159706
-0.01857579056726005
0.0176757277266028
0.01356231636839125
0.1178396405986954
-0.1490776846995725
-0.01726321328278748
-0.08220866693289691
-0.05666203394413116
0.006090850021626407
-0.3166744426930247
0.07282539243088808
0.2377582002359796
-0.145779900582851
0.077634747284494
0.113181776417726
-0.0450366231259652
-0.2081769568186958
0.1160201601684842
0.195265573141721
-0.1031087765057888
-0.5974831355057543
0.7184443693834017
-0.04716839520250476
-0.07379283871430374
-0.009802204392574116
-0.516775232980398
0.1060111294031729
0.4205663079622501
-0.002394161815175359
0.0141979451569666
0.1522487482376947
-0.1640525315812243
-0.3236492935571289
-0.2002400461187123
0.4303326614450588
0.09355667822000327
0.002120264337043975
0.1792484395103894
-0.1602633099179215
-0.02110539393680048
0.009894784454573613
-0.1432067658529946
-0.02405961702231956
0.1573715984130554
0.8074070861676608
3.897529800282949
-3.906814150801436
-0.798122735739303
-3.961023778354861
-40.803909379343
36.55704107934077
8.207892078361551
0.06504958090537852
-0.1660160112096538
0.09358396495081373
0.007382465347912674
22.9845443889042
0.3091389900588878
-23.15279759053752
-0.1408857884129023
0.1487478501896114
-0.2027867055158955
0.04563424776158686
0.008404607554466278
8.158100573847303
-9.806125508619866
1.911260733349799
-2.738509426583686
0.8314064850162751
1.907102941561773
-0.1095287995707323
-0.04635693904800865
0.02487784725055451
0.1310078913561344
-0.06584238168647639
0.06103845162994014
0.004803930051434973
0.1260669882107733
-0.06192746160304088
-0.240875540115543
0.1767360134962373
-0.004885081337235907
0.001417769765271071
-0.07029257892613079
0.0737598904954597
-0.0164585468502774
0.09375687759929396
0.009429979468435599
-0.08672831022399495
-0.06723330226289315
0.00193937360073345
0.1682300767119373
-0.1029361480587171
0.02724170674856731
-0.08367159020893099
0.0420056145691366
0.01442426888445085
-0.08526929742034715
0.001817198162595875
-0.004046036387726674
0.08749813563764701
-0.6198346227334823
0.1345647625578367
0.4852698601724119
0.1237421792312367
0.09334805153135366
-0.1789288888904343
-0.03816134188081349
12.52647203076261
0.6966727859836882
-12.72911534350765
-0.4940294732091518
0.181971203114094
-0.1194813341922536
-2.244158483727924
2.181668614777764
0.3172381972297835
-0.3609758284343157
0.5163328818498911
-0.4725952506575457
0.6500643508235274
-0.4433517861656185
0.05711609823606086
-0.2638286629104269
0.2336712536634138
2.223622121779672
-3.700671302233255
1.243377926753949
13.35199209393524
-13.41257262283666
0.0605805289083542
-13.65676174584065
-10.38797016632566
10.23753935208579
-0.2289323022610229
-0.2041821335699927
0.3782150193065993
0.05489941650855485
0.4065243307799119
0.2163842083255038
-0.622908539133801
13.58117398544155
-19.29900724538001
-0.1805557468063635
-0.03729007175830047
-0.1885047076872552
0.4063505262347228
3.333439453603019
-1.186748768016796
1.795222882741796
-3.941913568293045
0.4013823982293298
-1.00216967086837
0.4795623849566071
0.1212248876666604
-0.03600729217463141
0.00733339147103522
-0.04424282158473565
0.07291672227869762
0.3729318016776795
-0.4942414056531203
-0.06753732470909209
0.1888469286800915
-0.2657395929357427
-0.08383110841204666
0.2539378414653011
0.09563285987072483
1.305480586547765
-0.5283164043672164
0.6527558820181951
0.137019274936925
0.07719899868444272
-0.1136478036104766
-0.1005704700189636
0.2260307648513966
0.3226803550982008
0.01432454466455091
-0.5630356646190118
-0.2446611362160311
0.2223008172719043
-0.007247048148306729
0.02960736707305591
-9.562003396318103
-0.6058277511739941
-2.690592299163316
12.85842344663844
28.0872302598863
-0.7419490042257388
-3.687817814689043
-23.65746344097803
-0.001426350770017536
0.1427376359957803
-0.05887288101374855
-0.08243840422329353
8.314725018868566
-2.361951431374205
-1.355241004454923
0.7110711174443103
-0.413457354499959
0.248185595217672
-0.5457993581874523
-1.214692410510069
-0.2236264652991693
0.08372725186347284
-0.3515007217870544
0.4913999352058357
-0.09602494536969498
0.02773453450784426
0.06829041086137819
0.3635908938403508
0.08410241119296372
-0.4416024550170825
-31.80904434254415
7.026541834003027
-3.6800247548023
28.46252726334194
4.310824222395966
-0.6987750799551246
-1.789906208180511
-1.822142934248839
0.02446418169096926
0.01275680714942791
-0.03722098884159848
-0.1906394274390276
-0.003410819110058742
0.6134664309612191
23.63536579099004
-0.00138636460476248
-0.06240569618595128
-23.57157373014399
0.1960733479916178
-0.008708514135699407
0.1498181892688702
-0.337183023130813