/*--------------------------------*- C++ -*----------------------------------*\
| =========                 |                                                 |
| \\      /  F ield         | OpenFOAM: The Open Source CFD Toolbox           |
|  \\    /   O peration     | Version:  v1906                                 |
|   \\  /    A nd           | Web:      www.OpenFOAM.com                      |
|    \\/     M anipulation  |                                                 |
\*---------------------------------------------------------------------------*/
FoamFile
{
    version     2.0;
    format      ascii;
    class       volVectorField;
    location    "0.6";
    object      U;
}
// * * * * * * * * * * * * * * * * * * * * * * * * * * * * * * * * * * * * * //

dimensions      [0 1 -1 0 0 0 0];


internalField   nonuniform List<vector> 
19631
(
(5.039582214021731 0.01284285584269552 0.03154148200257872)
(5.014907994055906 0.06579492547616086 -0.02090538603128857)
(4.991544904917101 0.02235171168076651 -0.02852160678259684)
(4.058260286353172 -0.02930809976177016 -1.566600074075809)
(5.034320594972095 0.0372116986230135 -0.02861558177603942)
(5.076281665258555 -0.07963662593621289 -0.008788031704166116)
(4.991636283015199 0.0006827412417470582 0.001354897318821799)
(2.878625175341428 0.08842143750316687 0.1185755291731365)
(4.194715554249824 -0.2241131841453108 0.003143055218123726)
(5.007285347530266 0.001908179855714555 0.004123909152392174)
(4.955721995285574 0.04748001183093288 0.0460179161481219)
(5.067960234321657 -0.04050412118808576 -0.03518929364343774)
(4.265851740513219 0.1017917026027708 -0.06946366676025965)
(5.049818803732597 -0.01828889084699761 -0.01005722823065716)
(5.00102695550417 0.0004657293786380489 0.0001527191869093141)
(4.992111640835033 0.03234980707238762 -0.0304539900290359)
(5.077581624666856 -0.0982862142660767 0.03539288253532746)
(4.489236982738582 -0.04542591027104816 -0.4463842360766979)
(4.506473458043779 0.4180063323055214 0.106095463686538)
(5.069351709918441 -0.1066908934505893 0.03418045248783084)
(5.036557962983665 0.05557401710105594 0.03821776748478221)
(5.072416808298263 -0.02109356474069308 0.0128866455175631)
(4.550374602268376 0.06670189772773129 0.4714074444044796)
(5.005060060804426 -0.005802148701736247 -0.01452793281154422)
(5.09748615506432 -0.03788521029180104 -0.00149549290117158)
(4.991142428285238 0.01929935419831351 -0.004853481887369972)
(5.08243208534009 -0.1349239609419651 -0.03665709802387981)
(4.161578021337588 0.07026952929346968 -0.3400563629982917)
(5.057723525049773 0.1628566717355545 0.1520430171051923)
(5.00223543140231 -0.00236369406431823 -0.0001612811747254054)
(5.064663332711767 -0.0195194249450882 0.007409116415649968)
(5.065059833645417 -0.01655158272452596 0.007528917814232737)
(5.043666709343796 -0.04350730712981881 -0.042775745186073)
(5.010399486796486 0.03192075404433493 0.02527856252073443)
(4.48771183678836 0.07153601929078096 -0.06154533827542499)
(4.557070996928965 0.0116175123382735 -0.4080453537608731)
(4.986827130977606 0.001653367808285243 0.002860314520435442)
(4.927283116235636 -0.1864380237643929 0.06398634073766338)
(5.058826939457196 0.02456783127061292 -0.08282742533744145)
(4.97587885639027 -0.04171426863550891 0.02410751549440156)
(5.212638297683552 0.1433233049955391 0.03406677695325409)
(5.033094597168213 0.02477090329283611 0.03630939309830008)
(4.998118242213283 0.002661161511835228 0.0007824685983373164)
(4.999237205405456 0.03669393460056447 0.068314661742943)
(4.968889629719671 0.09908117796121992 0.307838117526071)
(4.667024174476472 0.3027383362823161 0.1000390322153411)
(5.000732853123268 0.002441767427180459 0.001936907660621092)
(5.032042643433352 0.02596843986463184 0.04445532005192751)
(5.038039061587037 0.002752044389619437 0.03686930837515042)
(5.073459749592047 -0.006612214784132781 0.009365754124141638)
(4.896059057780954 -0.005864236936347093 -0.007897640433599184)
(4.985254155758756 0.08156297601839085 0.02155405334278668)
(5.065516037110891 -0.03557584307637689 0.007360295963057175)
(4.861741571705466 0.1201079060330701 -0.04785269778147117)
(4.989235285887895 0.02102942984332025 0.1394175311134794)
(4.885779605752148 0.05926522678978695 0.1258859356447925)
(5.069844058197331 -0.04753515995719941 -0.01688634644525248)
(5.064385668528576 -0.03578916463064127 -0.007582312102551919)
(3.836746895121804 -0.05209552546281555 0.06216703519396311)
(5.004023292399159 0.001666519371938385 0.001447039044315675)
(5.008047335077157 -0.0005645712821051614 0.002870040334022304)
(3.176610080396391 -0.1045673168017375 -0.1547474858267512)
(4.575919558132574 -0.7323604719191265 -0.7305898180113258)
(5.014455464591896 0.03175729594717693 -0.02459431851627034)
(5.070483860915411 -0.02426283355346946 0.004083732006274053)
(3.779959513963093 0.02339106985260527 -0.1069489588183908)
(5.067800861424105 -0.03488948466623001 0.01236291662178142)
(5.075187124169315 -0.02366823246078998 0.008817959717534057)
(4.937226743374057 0.06433172831794162 0.007538986559876612)
(5.009079856047246 0.001868938109492413 0.004514543316505072)
(5.007654517085955 0.004412083972169966 0.003693377235333334)
(3.679396936482124 0.8680116958941468 -0.6956863116665055)
(5.000677880959204 0.007364734064148323 -0.04510971998981941)
(5.053115085330722 -0.03648832242134094 0.008786587272620595)
(5.115642965762851 -0.02024437653867226 0.02905673419472213)
(5.315289160456236 -0.1088113474633173 0.2067370740139173)
(4.975873571558435 0.02202609232746439 -0.01130804049280969)
(5.052409673778429 0.06682403374927848 0.05087802732935422)
(4.978972987532072 -0.02018571812187543 -0.0174841653209968)
(1.983837332572828 -0.2900726578990362 0.1671577154332693)
(4.995425516405263 0.003713505783131546 0.005628318251797499)
(5.034490952895101 0.0336487822520882 0.03091552371181946)
(4.918953604651763 0.1329588303348695 0.1117591081462447)
(5.202787827595314 -0.02911755208750189 0.1319953043586113)
(2.516423100095679 -0.2358059462833165 -0.2868393379662163)
(2.514629549874137 0.02722459669178006 -0.8809470250172189)
(5.071618219500431 -0.04012573439597685 -0.007251630193113475)
(4.963159836545571 -0.06915651039902883 -0.1294567464494643)
(3.116561490381369 0.1175530102281226 0.09898422008787264)
(5.016289237820327 0.01922235128345539 0.05086918960129967)
(4.103344012359219 0.2962860275920872 0.2048113298218539)
(5.065742696857943 -0.03265096027903322 0.00531039768086029)
(5.058578661244704 -0.02501730519659679 0.01032084086286142)
(5.045862264421586 -0.04275146301687016 0.01249564456129049)
(5.100607182763405 -0.07466326708745935 -0.02699613926137813)
(3.544839904127899 -0.691502619344968 0.2566764942401172)
(5.031317823726317 0.02791534921357346 -0.03022210257545614)
(3.427184264688293 0.141990438133224 0.2064898047260069)
(5.05387527627344 -0.05473549136441964 0.03549620743485268)
(5.068275398170782 -0.01496693372317212 0.01863641620259798)
(5.05679568485076 -0.03173805106051006 0.01313680518176772)
(3.654235902150212 0.2789748039695056 0.0897478639935705)
(4.157067049635733 -0.3707292749585556 -0.1179722003010717)
(5.025650795015383 0.03796272743380192 0.02489169671617159)
(4.102287557092696 -0.01422335909604842 0.06822304542265696)
(4.859113423921461 -0.1124543783589267 -0.00361634255217132)
(3.355978777674921 0.1734744894732488 0.01758411836570138)
(5.066767997263965 -0.0454642152451037 0.0233517781261926)
(5.070396578529471 -0.04508621585005605 -0.01071947394070874)
(4.255815301215233 -0.1829078575830414 0.05029575625141788)
(4.978261338521215 0.2314411853444306 0.1069406477211455)
(4.97795418223358 0.3608116391780886 0.07776420287706645)
(5.151293100643509 -0.04560308932997916 0.04413459704562999)
(4.822381530985072 0.2802841732437574 -0.03656542230693841)
(5.033087699528813 -0.01193556945071484 -0.02727708129504835)
(5.0424956013121 0.02551959391688226 0.002794690530661801)
(4.229853204944285 -0.08529373904178658 0.115313880834656)
(5.056253619143297 -0.03913027126876679 0.01013357356039447)
(5.041802685706793 -0.02762841186180144 0.3364959040993437)
(5.058930618036641 -0.04258159261685552 0.001633653220341604)
(5.057458076402432 -0.04304289320549508 0.007936678595771551)
(5.051238378583393 -0.02745076097119937 -0.0001871711852482361)
(5.052749689986444 -0.02253218697748653 -0.0113261396760652)
(4.357364358764929 0.02540325421293357 0.07641053108430777)
(5.073354714282775 -0.02428865039476728 0.001381805454973358)
(5.06487206085181 -0.01975993514388908 0.01037785547126485)
(5.262768528717482 0.03758572283814596 -0.9474208009096996)
(5.047701715698509 -0.02398004607403245 0.00300481299991506)
(5.010992497641825 0.0007568348007038824 0.004284558620315303)
(4.703912329448515 0.05865105021923369 0.2743958312611056)
(5.026671336926753 -0.01186006488194948 -0.000632164816735642)
(5.005192101945077 0.04585388969499021 0.04234057828440101)
(5.082972771818821 0.08040473466328114 -0.1213588074993225)
(3.873915903944012 -0.1562274509536625 -0.1911872041260453)
(5.038244148010851 0.03178533676919253 -0.02829971485092116)
(3.355795720258125 -0.6283552632588322 0.9048531676875698)
(4.134266294825411 0.06852842527204306 -0.3586242743607035)
(5.0498347124983 -0.06497936007075031 -0.01800359821108491)
(2.618357385244437 -0.07695608584958903 -0.7343295145227627)
(5.084057998459593 -0.07164681122551823 0.005908189517061378)
(3.792472039135296 -0.06404796095752106 -0.1297562939306721)
(4.918259816404788 0.1567641781528988 0.01497909727162108)
(4.730587917539991 -0.06229613180537384 -0.1323277141666703)
(4.997606484929737 0.001872632605108941 0.0009111586262422931)
(5.065190775032611 -0.1045007193331756 0.07968389276656335)
(5.012664082446272 -0.01877839516026743 0.1078287321305891)
(5.028559861060431 -0.02460899068902516 0.03964474090181207)
(5.001818243977263 -0.00221351428443342 0.004120843124611867)
(4.994070154119162 0.003778488445819653 0.007484465349165186)
(3.332919166811375 -0.07545725188092861 0.1080307433316844)
(5.070957206491753 -0.03694576371449397 -0.006764282295038978)
(5.06530764251747 -0.01967818698621709 0.01267414631874618)
(5.063934815841469 -0.02160038301441005 0.01796968668226306)
(5.051955692727624 -0.02179480657247829 0.006845383588754004)
(5.063534589374556 -0.03136448051917554 0.02103430215926422)
(5.063566063898818 0.04853784022002099 0.07221691286357848)
(4.992993681898806 0.003753590650437737 0.0004168531657021883)
(5.014188799633667 0.07645555826589866 0.2595535979662489)
(2.984703580315945 -0.01099716674422459 0.08703866421045264)
(4.911743634721055 0.01040267293291755 -0.0002497335942981375)
(5.05483946226611 -0.01998826333924038 0.01656693306358738)
(4.99563831101658 0.007782888554827717 -1.860454073305132e-06)
(5.052384193413407 -0.02462104864556301 0.01620576719634547)
(5.052132715760886 -0.0427882824371431 0.004936135213285467)
(4.985696902283353 0.01473050820482854 0.004300353370198924)
(4.988203918710306 0.01645088985251948 -0.003203496888539853)
(5.054806674861586 -0.03554960319379755 -0.001858834537435467)
(5.026081261954582 -0.01003643290534511 -0.001608118751609922)
(4.194205303302875 -0.1962274502693785 0.06302421233793881)
(5.044188727397233 0.04311487466986344 0.05489200530083287)
(5.067423177809944 -0.0620136611759376 -0.03223685746817644)
(5.051441052542976 -0.04335430526319319 0.002701912285712788)
(5.058338900427543 -0.0293887307463105 -0.007296469764093007)
(5.055469209228277 -0.01646733471387826 -0.0068488008098546)
(5.060760914700033 -0.04848725539764637 0.02753469948253821)
(5.085369169123579 -0.06280759158491689 -0.01491593134224018)
(5.005192888315608 0.004369330994275811 0.005248299758992791)
(5.078114649093822 -0.03209233328798686 0.000324571770668447)
(5.08907610814664 0.04101233893893781 0.1038661530871516)
(4.594294634089667 0.06475322310635238 0.1884187084158573)
(5.047941410760031 -0.03461407942943206 0.009096272118815557)
(5.002590332679304 0.002415333817208547 0.00563060510255965)
(5.002093327863045 0.006272450524683148 0.006627704184121779)
(4.880017915404142 0.0347833745112114 0.02687876218399675)
(5.007472274920448 0.004316989727440971 0.004335016675586339)
(4.98253359373312 -0.02513477570788628 -0.0009123002596133545)
(5.006243649666858 0.001912045960761826 0.007255192613544879)
(5.054680474466308 -0.02074089645099054 0.001761624942271428)
(5.058077363052148 -0.03246208435514569 0.01032602756229208)
(5.051866711717049 -0.02301202348913142 0.0127116177182055)
(5.061159336845885 -0.02849696196474639 0.01016018116045186)
(5.004439979585857 0.01694327517480113 0.08795024057818437)
(5.135731148146145 -0.0346007541328207 0.2352120445988875)
(4.997313072645591 0.002530644238542589 -9.576399920797494e-05)
(5.083168868169042 -0.03870771338448408 -0.001673496805256631)
(4.713902740498388 0.01681175715333329 -0.3424346388190361)
(5.088059128803009 -0.04071928582750126 -0.01390890157616412)
(5.010324031647883 0.01260145775706961 0.02276354981803471)
(4.957152774685483 0.01792455772300189 -0.03314584500199369)
(4.961721261236868 0.05380953873453008 -0.03599907524571466)
(5.051395918980017 -0.0269383254273317 -0.003268317523233305)
(5.053108347349994 -0.02492156038694449 0.001585398941644678)
(5.006300978500404 0.02048691257676184 -0.01588861033297589)
(5.055685854861933 -0.009930646143546796 -0.01628689115115707)
(5.000077589453745 0.003466254910245125 0.0005152727618809137)
(5.058241784139426 -0.03604028629569991 -0.0174748802020255)
(5.043159908788589 -0.01653800940503051 0.00222506979188087)
(5.050206540322768 -0.02342086547644872 0.009484426087826714)
(4.929512441370727 -0.01707572453766859 -0.01185506822911142)
(5.080366055307998 -0.01921968343055618 -0.01642478972311796)
(4.98606800094246 0.008706140041850418 -0.008931919949983635)
(5.080712262909633 -0.005066924072625084 0.0497305134598528)
(4.462196311939485 -0.2561278066843703 0.2609693590277267)
(5.005110186475808 0.001090388894277917 0.0008211307700633072)
(5.031454152850132 -0.05666809075148266 0.05821839484581112)
(4.642710044357067 0.05112417755888123 0.1198674708305378)
(5.008865176723865 0.001201699386110325 0.004301259830657584)
(5.008548825573431 0.001315014914901526 0.001784560021692372)
(5.007614698916754 0.001344377503855895 0.003727915233812983)
(4.709400310897706 0.05902945314418481 -0.0165510897648928)
(5.002143796650859 -0.0008738778377529089 -0.003558516294978044)
(5.016860645211741 -0.002575011578392427 -0.006468222446571283)
(4.980067546154719 0.0307985698718457 -0.02157614143250501)
(5.000721728640559 0.0009717728090775094 -0.0009413574395397905)
(5.013663059462761 -0.003300557205526878 0.003150465322195289)
(4.996634676289421 0.07552560233784061 0.008397156218225753)
(5.051467645843733 0.03111751788181703 -0.0749764161927521)
(5.023030625845493 0.00104619388826274 -0.05288978167983235)
(1.204331067012765 -0.04946978957653175 -0.3016354652546491)
(4.407635134242387 -0.06543156132647518 -0.1401641286019343)
(4.990003519565483 0.01568849273543225 -0.01514898659992993)
(0.04825492791211608 -0.01050986046571954 0.0356728615084663)
(0.01262692937361061 -0.05982165860114848 0.03110626941111606)
(3.763011649734191 -0.01033936346153371 0.08083110136783392)
(4.525359695483525 -0.2668533546345043 -0.5577398668544661)
(5.006534062298492 0.1233337740277545 0.01550286179274635)
(4.281731795972124 0.4347543581455606 0.07430955724170583)
(5.06865337055776 0.1301005538114821 -0.146151872883638)
(5.004647477026487 -0.007166645901871982 0.04131419761360075)
(3.971586547686246 -0.6599131508083915 0.1882751973344263)
(4.972454719491725 0.004091526410372882 0.0017902043152857)
(5.059619972079872 -0.07540755296904975 -0.002816434728492521)
(4.995264786169775 0.002424207830110424 0.005351275434963251)
(5.011343666111292 0.01530202300768239 -0.001380982317121419)
(4.992780350193321 0.00639330968843809 -0.003163825734911157)
(4.943405012630375 -0.01213061191266574 -0.04632944562336499)
(4.962327070237039 0.006816661357831485 0.003115383125035559)
(5.000995454505964 0.008557381587536786 -0.001820695913273203)
(5.095137458306872 -0.08565445091229956 -0.02832905506211771)
(5.02066352459018 0.004683894302614078 0.03083102952841995)
(4.940249532738896 -0.127445490708309 0.003225778556565922)
(4.575143760502366 0.1395155557588084 0.02738218621262921)
(4.982846448945891 0.05376008475928076 -0.02438099828036817)
(5.149736183279456 -0.04703726791020525 -0.01546248542327269)
(4.971206633866005 0.01519131276277578 0.002810717193305639)
(4.81396543447616 0.1307959807500473 0.1667318079028144)
(5.071266631559316 0.09708425528515444 -0.1100383864065989)
(4.188193831351757 -0.09244874059815897 -0.2052997481745684)
(2.7410607067212 0.02955233230074773 -0.04398727395537883)
(5.038038959966554 -0.0193732327079255 -0.06757247147994495)
(4.99290428111747 0.01524041352967013 -0.036817459836343)
(5.044652287967421 -0.1026958160703083 0.0947528066189582)
(4.891544844812416 -0.009810228064926188 0.08799696681030859)
(4.944533961332114 0.0809293671825954 -0.009022346585811459)
(5.048823264302637 0.007019201777202362 0.02277438926583021)
(5.016309890195017 0.0148354370711997 -0.02433228423556761)
(4.987063397707385 0.1050192651566793 0.07937991226089028)
(5.051881244134897 -0.05509222056157501 -0.01858990928281759)
(2.268923418591376 -0.04884118712042023 -0.03490347453704923)
(3.778755647400347 0.2778669309326889 -0.5390682055110723)
(3.074146290302729 -0.07459371280110093 -0.07619599665750876)
(4.969606571661333 0.02837617539781843 -0.02186184045695875)
(4.193556323757794 -0.09022792381590108 -0.1006148228701978)
(5.002831827694782 0.006514240566053622 -0.001801768118653268)
(3.456170179798167 -0.04392798597482334 0.2075658433706573)
(3.178156876626738 -0.2543933587480346 -0.1168531312704539)
(5.000384609539331 0.03617935461038686 -0.01366148763549239)
(4.806284953273456 -0.007935276712733808 0.002825808256308588)
(3.893333328673346 -0.05610159013454409 0.07345908644674555)
(4.997132431115697 0.009874525757949426 -0.002260461243208994)
(4.853158657450596 -0.3110621894782825 -0.1867862326383403)
(4.990167033937353 -0.1123846941569386 -0.07143900503600467)
(5.015518067179898 0.0161972866021084 -0.1007326082464882)
(3.024961761097767 0.3670346408780918 -0.05823481249211159)
(3.384182480301979 0.1899557638938865 -0.08718717684176794)
(1.426112840541534 -0.07582552358988572 0.5321234113801477)
(2.544615843823665 -0.1800519684890943 -0.08007327625490476)
(3.284603582844958 -0.1579055484281641 0.1428378656331273)
(5.074061228813624 -0.00609404776562772 -0.05287036252202524)
(4.664713602984661 -0.04284707998658181 -0.1407948419721612)
(5.126758761244263 -0.04486798769278546 0.03616898387505129)
(4.979989775029761 0.03281759142591469 -0.005085609558890669)
(4.997302995658407 -0.04719821615172346 0.04820562863837655)
(2.772872191577429 -0.3385795987834286 -0.2288222198379747)
(5.167045921261837 0.05136588660545702 0.1478032363286034)
(5.000577462700236 0.002031376886118151 0.001501419570024365)
(5.039645919932644 -0.01642525512696887 0.1014904223011275)
(3.753309193109698 0.1263394336110873 -0.2677337520416927)
(4.989493413911889 0.0206310855303208 -0.02933295050019616)
(4.896169539565449 0.1587259471778752 -0.127352573160429)
(5.15504880701908 -0.02171964495521345 0.2071639877124135)
(4.541598042028038 -0.01047032921167803 -0.2443594744966198)
(5.120843889235211 -0.05945242619295512 0.01602618070180186)
(4.877818085476055 0.005905806454417915 0.003755636147234222)
(4.860167367315582 0.08980741377322528 0.2904853267473239)
(5.040676596381334 0.00515792331465831 0.02828843517809798)
(3.993977992073336 -0.05527114799353754 0.05975735918498366)
(5.069195538738108 -0.08274463286098764 -0.05607456554005344)
(5.038226173093901 -0.00771118038593381 0.04209281005500188)
(4.931738061026695 0.2194280888699437 -0.1461120783305669)
(5.023879378294614 0.05926021571507326 0.01903902471352628)
(5.002924325716451 0.001686421999180219 0.00107553129792913)
(5.003419676368896 0.004555989100590961 -0.0006466965642845607)
(4.990855403146464 0.05515912660403312 -0.05470566642321021)
(5.077447354278259 0.1084470204923939 -0.2051149117106562)
(3.936847512898392 -0.1450305876971217 -0.08052065953824827)
(4.440827646072163 -0.03238671636588074 0.04615608405180834)
(5.090158139272608 -0.08195124106196537 -0.06998740701016361)
(5.048795621640014 -0.01505450745199231 -0.01959809290899895)
(5.002925941208576 0.0001536951653944806 -0.004348841857037077)
(5.052420174768186 -0.04381296149519062 -0.0150849272836231)
(5.057607413711573 -0.04722444085011934 -0.04843369108152694)
(4.454655513874997 0.02587878566839131 -0.0453486446835342)
(5.064595000695586 -0.03898729619747499 -0.00928261716344759)
(4.996029974401163 0.05445827995881088 0.009962892175159752)
(5.025366960596643 0.0367250917364554 0.0688470351311463)
(4.766240358943669 0.01797134423565758 -0.007461507622779022)
(4.989351599133864 0.005677256102182288 0.0024160694137547)
(4.986195116908443 0.01602707892988406 -0.0298345117889062)
(5.001882018032537 -0.001196938755899815 -0.001661314998881459)
(3.340791986227304 -0.1298401028761211 0.05652867549254818)
(4.794429497737092 -0.2410413487427222 -0.1160889188137402)
(5.080188227679372 -0.0352165988405069 0.5498156291905864)
(5.059909255815277 -0.03097986574835235 0.05784961377768379)
(4.94084143672893 0.07441337281507565 -0.007392766156494321)
(3.836989149657734 0.01624893929468293 0.046213906391389)
(5.03608768602585 0.03217672175236459 -0.02001092650508871)
(5.098739145035896 0.03813569189997678 0.1157720339846887)
(4.581326484684562 0.05916545415811067 0.09003896395782102)
(5.004911652738572 0.003149243430167792 -0.0002486987174038148)
(4.142709106724341 0.1638315059694825 0.1917122669583361)
(5.046670641977091 -0.06184445951847005 -0.02680596902180769)
(4.996311934102547 0.003085964216163938 0.003478865096028437)
(5.141031953787987 0.01068801105946126 -0.4405971733473186)
(4.911346306897793 -0.04543221127135508 -0.255575174941103)
(5.025551098989378 0.05321971471400956 0.05767366404270558)
(4.47677512171433 -0.01471272725806423 0.07063849850563504)
(5.052892907127677 -0.02279691735195349 0.0126027712177924)
(5.013100549194024 0.02167366945848325 -0.01618596247112559)
(5.015114492138704 0.008111525564384756 0.004388080158077038)
(5.040498018979258 -0.02640256669774207 -0.02150657570756102)
(4.999949526339267 0.002432530322284806 -0.0005276118460434483)
(4.589108529086579 -0.4227638689361137 -0.1144412393659013)
(4.986612999245093 -0.1504314407887747 -0.08347523290212093)
(5.027785884603167 0.0002494056449518648 -0.02247907321551463)
(4.245516337254086 -0.0308978724080063 0.01749837502376065)
(5.037785041490915 0.02873405718190473 0.04375828703485088)
(5.077815047114668 -0.04520030982801441 -0.04402485818283581)
(5.115253358337856 0.3605101789686875 -0.129801000662178)
(4.728934457908776 -0.186325495854038 0.0606826432527279)
(4.583137554326456 -0.1386451485051637 -0.2225811932478982)
(5.215618107592262 -0.06735280034148267 -0.2596941282698065)
(4.175253815701097 -0.1537937966171817 0.1787976020961468)
(4.917608911244256 0.2002209992907747 0.1167051382453585)
(5.072803305092914 0.04795141289102429 -0.09306381808796556)
(4.134953943211408 -0.4262294231146485 0.3663698584786654)
(5.011492440765756 0.05311219499681699 0.02763650962580803)
(5.107909166327086 -0.02176263367389053 0.03666451194355071)
(4.294559866252455 0.02742831941697094 -0.0116561392956167)
(4.970471516954373 0.1518050552877465 0.03389194926680713)
(5.056532783478857 0.06491777403768062 0.0803850324056441)
(5.056023811900891 0.04831515976108067 0.03223017671026913)
(4.990589796960818 -0.03328697797613462 0.006620136644608803)
(5.001495091078828 -0.003602380710734035 -0.001287259344247045)
(4.829592636842811 -0.3159852548788841 0.0875831130704264)
(4.995508589544392 -0.002023215747494347 0.002961057020670731)
(5.057236656695967 0.05058094045195328 0.09476078578985736)
(5.007239689457803 0.00176270965989642 -0.003208538997861584)
(4.807265874156316 -0.07664109372522909 -0.03782901525075656)
(4.988610871397814 -0.2226995715935654 0.1337759583189846)
(1.971759255895685 0.009706624465882357 0.05290487940151807)
(5.060247314807245 -0.01711651840800724 -0.04297423087017289)
(3.360390039343187 -0.1597214586944933 -0.0757144337244864)
(5.063231548286187 0.1673992044263117 0.01788174296415782)
(4.981918054845714 -0.0751181466966447 0.1289402568846079)
(3.598150645683073 -0.1809972702547488 0.1312602497855569)
(4.414626739889572 -0.09590797121835531 0.04099838337438839)
(4.133610084088888 -0.1381998790279988 0.0365095706576731)
(4.912865769477991 -0.06646291025448149 0.202480243422266)
(4.996223439283039 0.0008977148573562267 -3.670216044600209e-05)
(4.998012346451475 0.02800696321061499 -0.04736221552724396)
(5.015807106864342 0.08026669848885554 0.07284016231718839)
(5.022125616303135 0.02280230462983022 0.02383797849892336)
(5.009448384135266 -0.00355198732383363 0.04624394959234437)
(4.986104266768204 0.01742929564311566 -0.001100991205703962)
(5.004579656004533 0.003579013415046409 0.00403010437733521)
(5.01850833371523 0.02086801171113427 -0.03206821826483276)
(3.708918867586574 0.1015165631866523 0.1234926065921595)
(4.999439734555041 -0.00458415558243859 -0.006843394623997476)
(5.039463800642517 -0.04651654895654069 -0.05032904367510049)
(4.988917559890086 0.01123752886745604 -0.05047300180633307)
(5.051690829283435 0.01902692353294077 0.04378841567356227)
(3.660283458378533 -0.1939208059497612 1.038532640267705)
(5.078058760550268 -0.02069152955249687 -0.08859427369809734)
(5.016122412291382 -0.1131745920062931 0.07131968985583609)
(5.035029176487171 0.0001980328933289857 0.03816688592943088)
(5.041696050791079 0.05586867188111831 -0.001836754181798133)
(5.05436420510803 0.01946648217282001 0.05526838617472677)
(4.99433908708361 0.09845308139233411 -0.04071785226313335)
(5.004974079474931 -0.001109594863347011 -0.001458225202351446)
(4.998564248603852 -0.002424728653011914 -0.008377987574194935)
(4.897474010230405 0.2449452250955383 -0.1334165103822469)
(4.999408805573044 0.007790124143182236 0.01069029914341086)
(4.965002705287849 0.07142073750210881 -0.06042708633038268)
(5.002435482581975 -0.0006605502483245611 -0.0005642711064359617)
(5.032419584494732 0.03349583425969493 -0.02472120833113309)
(3.978364072972643 0.4007850955866374 0.2674851472083903)
(5.063955549142627 0.07180921270232689 0.04948608488857179)
(4.997922590035405 0.004646688438292865 -0.006475386731820376)
(5.031740029533296 -0.00538152204583553 0.002982128815790529)
(1.425605921335846 1.221613476132267 3.19305784525745)
(5.016064839203276 0.04135505073955145 -0.003602350549566118)
(4.991421036545239 0.007555614460348884 -0.01152671703990013)
(5.067049691476528 -0.0802318158651362 -0.05753048823049373)
(4.978256454472167 0.008268669419218532 -0.004529939021922793)
(5.053967430852025 0.002451387413107485 0.009483524674901902)
(2.483861203765261 0.4061654909823247 -0.1412335335070599)
(4.971745289447218 0.0674659875521272 0.02504533948262537)
(4.995209208093715 -0.1650732437957576 -0.04342110228270185)
(4.979709064166463 0.006970393345486181 -3.009371587629233e-05)
(5.004315572637483 0.003209771087777909 -0.001006567205921612)
(3.100211007054877 -0.029993686910359 0.288394931112385)
(3.370880993462629 0.02938095406730614 0.3574667225420647)
(4.983291387688407 0.0133229891290635 -0.000365835838087734)
(3.026134469472699 0.0004330567882009773 0.07190292829787)
(5.002893729552626 0.0131092388808461 0.01484511562791267)
(4.969091579857926 -0.1444912702096418 -0.02953912449873686)
(4.987321275637337 0.1151028269241746 0.0930085445870892)
(5.001009593482785 0.001321281126347559 -0.001137129935071951)
(3.202652680088573 0.03662095656431653 -0.1443779749164171)
(4.980401570710532 0.1360697615250241 0.08639050506081111)
(3.238938866060268 -0.2129263376478427 -0.1847868942406216)
(5.044167837475007 -0.07995350292425843 0.05320263661620644)
(5.02892080969931 -0.07406589784927912 0.008528092504383541)
(4.964798490192431 -0.0541954216595838 -0.01677154048996313)
(4.910863407936261 0.01857382241268786 0.05106932223800171)
(2.688500400400708 -0.189784043993279 0.02762562243309955)
(4.873157549515494 -0.1107180147744732 -0.01532109924644961)
(5.004224563843581 -0.07568917408367543 -0.01599662628070525)
(5.065444872728463 0.439607129412716 0.08955131753492246)
(4.9963583540495 0.1242346884321646 0.1132056477285059)
(4.954914304217127 0.009118303375974503 0.01365181933634417)
(4.99406058443953 -0.004235368365218303 0.01065896562945185)
(4.233529268453033 -0.01374241961275753 -0.07896979765208884)
(4.994717336449844 0.2423514692947821 0.01433773427365364)
(4.997206002064829 0.0007544571315153901 0.008828061612514638)
(4.983367681333864 0.0104773268497661 -0.001885507162964207)
(4.938968817192884 0.1073206848616064 -0.02289415709338552)
(4.809380467243065 -0.07031949339929335 -0.05810717126953556)
(5.028257946420315 0.008370282134048359 -0.01473381185258866)
(5.078443086745286 0.09384266196016841 0.07936982506538043)
(3.016489568559575 0.003108275601372752 0.1642332579904557)
(4.702900626889686 -0.1898218511983484 -0.1676656674487204)
(5.007539648612532 0.004212642708832139 -0.006689534618259197)
(5.05970294059783 -0.06155824644031491 -0.05501836884066925)
(5.130906152647276 0.06544906325022133 -0.01132034417417654)
(5.079225206563185 -0.1144303501460865 -0.2467413592284)
(5.065022090235771 0.02907409567367376 -0.1259824461298627)
(4.58492703198037 0.24323795853351 0.01033034278669023)
(4.756966635258443 0.1665308718386541 -0.2328659724296123)
(5.016064947416472 0.01656400928954509 -0.03363651717262563)
(5.277599313283553 0.01922249187893606 0.0292648485105913)
(5.001879451159335 0.0599509042092771 0.03393259687512365)
(2.768175314339852 0.4612596969167938 0.04220061520408977)
(3.142421443735229 -0.05223778085121925 -0.5304708702167628)
(4.64584552873526 -0.05187433013271766 0.04606649669584656)
(5.001287691168442 0.02801749317164719 0.02562771663757649)
(5.107882553583573 0.08760274000700345 0.06858698610893627)
(4.999660327191561 0.001957351826721473 0.003907616467253727)