/*--------------------------------*- C++ -*----------------------------------*\
| =========                 |                                                 |
| \\      /  F ield         | OpenFOAM: The Open Source CFD Toolbox           |
|  \\    /   O peration     | Version:  v1906                                 |
|   \\  /    A nd           | Web:      www.OpenFOAM.com                      |
|    \\/     M anipulation  |                                                 |
\*---------------------------------------------------------------------------*/
FoamFile
{
    version     2.0;
    format      ascii;
    class       volScalarField;
    location    "1.8";
    object      p;
}
// * * * * * * * * * * * * * * * * * * * * * * * * * * * * * * * * * * * * * //

dimensions      [0 2 -2 0 0 0 0];


internalField   nonuniform List<scalar> 
19631
(
0.1370514045224128
0.2292549210535394
0.2665924838809991
3.753625993779009
0.06934805154350568
-0.1769768698351216
0.08771806482551946
-0.5884365734715639
-0.2516281969589368
0.3101849389253484
0.348754343447261
-0.128152354189104
0.8997514651110309
-0.04379763001599611
0.009734577730494406
0.416477946069346
-0.01118928942336004
-0.3140921738580577
-1.164566232528518
-0.5537120223637925
0.209542938578322
-0.0354234809083462
2.21132367072003
0.2864063981485164
0.1091870997638894
-0.5863430772624475
0.01087966449481664
-0.3395264889576343
0.1906127709986647
0.113194117004174
0.01323293271812053
-0.01382933901067184
0.03365977023921389
0.2346132732549196
1.679048359183431
4.127969265647595
-0.03227394696837942
1.167590101766253
-0.3052843099323129
0.6238996024686689
-0.5993692173112063
0.171711922326673
0.03379148300505963
0.3438079102391589
0.1854770431544488
0.8643971529253199
0.1381813358806308
0.3204064088814975
0.09723640966819211
-0.04769874277162537
0.2637444115379016
-0.1868774430421928
-0.0507174512531666
0.1615782214648478
0.3723161791553141
0.0478643909143148
-0.07535073687312327
-0.02560065623684846
-1.071865142820025
0.2596286291141847
0.1582154273823426
-0.3703946730707258
0.06456758882540346
0.2451027388339886
-0.1589522626098109
-0.7473542065854768
-0.01979795010254117
-0.04489196100862999
0.658151012771988
0.1927963070838935
0.2311509244421213
2.295874156640931
0.2541082758098606
-0.002949164932024657
0.002797790031806376
0.2131689867029704
0.03961192558412686
0.1706050692110136
1.005673393841238
-1.821876464601935
0.09381910684979196
0.3768731336389762
0.6627157748343766
-0.4726595312096316
-0.2090541849933853
0.2921704038518095
-0.04201958052870345
0.3743174125124445
-0.1828613811686168
0.180932123169591
-0.2283775760017679
0.04120546919585296
0.01232996379777894
-0.04188978210926388
-0.07922738439490189
-1.02490481339074
0.2600164692019469
-0.1977185122762209
-0.09052429238301039
-0.0661761372126928
-0.04434971818029505
-0.2051129603856605
0.1547444658216023
0.1730599182992854
-0.257680003466139
0.04176293456305442
-1.188752973873067
0.04533363959335906
0.1220195290410788
0.007650432457416895
0.4240277595817267
-0.6786577441132666
-0.2633177036331172
1.57870941290478
0.05087765261151006
-0.5016156472621975
-0.2181480081075706
-0.06515516148850418
-0.3982591493696288
-0.126380319171811
-0.08609407954416415
-0.03618975862822934
-0.03127474699151797
-0.2174963883019851
-0.2099618570407027
-0.1616771170338378
0.5772364230487814
-0.05614125967584453
0.2777668552626007
-0.2474246234999283
0.1102703267796903
0.2808996814561042
-0.1548981714094485
-0.4515497155995803
0.1390758697389653
-1.171753890423564
0.120660421569767
0.04640260049223747
-0.2435590778645721
0.1710107779368805
-0.381230619798222
0.1155482110966798
0.5356308386244063
0.1434219390697167
-0.1890041990556943
-0.1932028144284546
0.1202354534747168
0.09519831675630984
0.1564182788779317
-0.03689377388831287
-0.009491008700235981
0.04346637466591656
0.03195075486324358
0.06654320425065624
0.009691462425544105
0.08268372899091106
0.1442081706145795
0.2518570354427191
-0.1415421192005156
0.5062827527813344
0.04266691598107114
0.3179363498036475
0.05706760669219352
-0.04321857766634794
0.009023505489107103
-0.4816750925742266
-0.06368781615944735
0.1118131147207953
-0.3534117823215293
0.1542235422528422
-0.1127376871348907
-0.06541227528438372
-0.203109544135381
0.02471930353997909
0.03829373624669094
-0.005037706116109561
-0.04328010773447991
0.06000718602427108
0.08701886328753566
-0.2550701563767906
-0.0406830804407571
0.2053906292656055
0.2362440706825606
0.7406012280911685
0.2087081941533231
-0.1356408978459413
-0.1089294290229973
-0.03050241380449389
-0.08431271348154513
0.0516133000565274
0.01289395810728602
0.1526548407389297
0.3023812041756321
0.09576721715382984
-0.09339045115985944
1.49210672446641
-0.03922822684387495
0.3114586424670976
0.3843265434800372
0.3919971080454751
-0.05217264637911823
-0.02789716472893873
0.007756426631542915
-0.08515529276940076
-0.05406501304590766
-0.1105700991004472
0.09414567355430707
-0.01859721293272232
-0.05192713538335129
-0.1730862095514772
0.04205807636989583
0.003612490225379984
0.08725225772950244
0.3920016419046488
0.08816360075858941
1.129103092021887
0.2171039207110119
0.2819544911597855
0.2627292555364857
-0.9766431006943495
-1.331348664282946
-0.1748287206897683
0.352123349301781
0.1102230751793957
0.2144567360267967
0.3962810284760119
0.1449536656207538
0.2348754123394997
-0.2426734190524735
0.07441560600658961
0.2184633328282989
-1.290706644466092
-1.327254503058128
-0.5500619792307103
-0.05800800007867876
-0.2238262554434499
2.445561146468054
0.570287078366729
0.3977524737703343
-0.3595819124011215
0.4078311579957988
-0.08531790113057189
-0.0394781393848687
-1.193827820682946
0.1469350245643412
1.476412336227146
0.1552109693891556
0.2216691414909609
-0.07247708812855978
0.1530645568773334
-0.2504463832062216
-0.5350016895815479
0.3644580563211023
0.05204735658840583
0.1648164586373701
1.369137183968207
-0.4719377546650733
0.04840104485071519
-0.58457808335842
-0.07841153748909083
0.2769339717688181
-0.2253940358411612
-0.3529070508142007
0.264909834123937
0.1580334011401035
0.1820617612531222
0.4055146541639608
-0.1825132740936301
-0.233543853182524
-0.8014640855997225
-0.1400890858719319
0.3039466172803824
0.1285500750633935
0.1504676056274344
-0.4685362608454233
-0.08859261652962774
0.3122441523515171
0.381848979801712
1.277420203205645
0.09611491401030693
-0.004258634931943324
0.3235457219281668
0.4087770651970214
0.6058324012916513
-0.8398639364064856
-1.535863608823389
-1.697269562198098
0.4505529174896418
0.007409192537844888
-0.3578459098003216
-0.02450172892980556
0.4475177474988936
0.3288248928840761
1.641481689356108
-0.182874089617764
0.0387305364331612
-0.05100047180777988
0.7604365796205643
0.3135088892198309
0.6479739926667742
-0.6698891924323215
1.084087783999588
-0.412223552118574
1.645804256108735
-3.253895601758903
0.1278892449147018
-0.1945189354613707
-0.2384636148306825
0.1712187001559801
0.7923260087856204
0.2529538038786542
0.09647318086722048
0.3511148559419121
0.2698106406490341
0.0002022956254942566
-0.1824641563217754
0.11310011894821
-0.4837947763855272
-0.4682937614401461
0.3057733003670064
-0.1172397118386572
0.04684413463222038
-0.1297527768377624
-0.1467861263554943
0.3369473698860427
0.2538462872909887
-0.1006687294657029
0.2512296894495356
0.2575401143044453
0.1317446011915708
-0.7887564390650453
-0.765992611894137
0.09862829435674554
-0.1417212954619005
0.7215537092803846
0.129263327025653
0.3420594170517852
0.0001259552606103347
0.4702495354158399
0.1167891325294121
2.304046107681693
-0.05051800075840786
0.2034398633559601
-0.8143200065246877
-0.03563605466269185
0.327529386845489
-0.1255399067280846
0.01991271883222983
0.2105437920277879
0.186163815531447
0.05757552884150833
0.1183714727908977
-0.5359996261296287
-0.06806935190145753
0.1603266750099973
-0.1445182664055419
0.1513290505908612
-0.2982637060237245
1.658889589843678
-0.4095058477088843
-0.01428335143086708
-0.4273883735928482
-0.5637088386473273
-0.3132641155938903
0.01670671306941018
-0.6289016706430264
0.2792507879501849
0.03076365955225089
0.1230622394674624
0.5378382876192904
0.07511101382420241
0.1388164240509439
0.1544131099417551
-0.3811027040272586
-0.4726654974791262
-2.240987593514427
0.1354806271776825
0.1147309693975111
0.6302778082784494
0.4797517764525155
-0.05099282375560771
0.08257782092460199
-0.1156554596354777
0.06725411157689783
0.4301561219306219
0.3754881185782494
-0.5580844567965727
-0.5081417922007848
-0.3136557839207916
0.1861671584257082
0.2196472732487552
0.3282993385986372
0.1856185295768713
0.4747988198345239
0.4416574681886403
0.3340049403550225
0.2005451308422088
-0.582947784549679
0.04542084902836885
-0.09653367171942426
0.6931325877340344
-0.02404252317030824
0.5832184996780587
0.01728337555131684
-0.3439507976438835
0.1613858127312185
0.2092829383731803
0.147840396784054
0.3074920499939869
0.3539804514280241
0.2791483737681309
0.959380284691607
0.1742175831661056
0.3956225292345044
0.107308636034901
0.2025785668703629
-0.9283722017440452
-0.6870719351970408
0.1719053407548065
0.1042689862143681
9.009646391730351
0.1975581795484113
0.1243516843409084
-0.4810349412875077
-0.01972161433591506
-0.07967850456562502
-0.8875173693725675
0.406633371564408
0.1592503518307826
-0.04510825942530571
0.1021042383553224
0.2398834507661983
0.3700457047993691
-0.02718385353853389
-0.7815674880093395
0.2831077711425461
-0.08875472509065073
0.4635349506674148
0.06884665393926591
-0.08034120324016239
0.6227365438459554
-0.4106305589577812
-0.04801862834045844
-0.2161374439797801
-0.2400594672464372
0.8019441171028203
-0.1049525138324131
-0.1196437947135176
-0.234531453678379
0.01381773876057345
0.3630410402667287
-0.3382486611670961
-0.02402105128166995
0.1670282535013744
0.3280047267452711
0.1651321954032095
0.4591137279624972
1.162654822186856
1.532223575365211
0.1102453025304972
0.03129513711840135
-0.2275951538080267
-0.0706197458995013
0.1681959122315373
-0.1817970986055962
-0.2502053346886326
0.06962562229825382
-0.4223103531442123
1.941109442459935
-1.533253559230808
0.327787570520326
0.1174585023230092
0.3652483040230758
-3.759719275835752
0.3843484798653592
0.2280179126942121
0.2859735832565155
-0.2922172556634275
0.1005242528654848
-1.061011626599777
1.053296368380747
0.8310562454466168
0.2122401270550275
0.1309037875129331
1.517451807433253
0.05824920629221469
0.3806712003258526
-0.09770613331880235
0.1775405054831222
0.1264297609269456
0.3413196155535487
0.125368530410359
0.5329775909675144
0.01364034114820242
-0.5850004224051685
-0.2387433190266844
0.2880663572194955
0.0821181781298975
0.4123544760132401
1.380017322732225
0.1032634784167429
0.1046260107043365
0.6390754607029655
0.4004630615707149
0.9753606174648781
0.09118475972786161
0.246197683364369
-1.913160031302339
0.0827914265032437
-0.2354126692694867
-0.007161321219243698
0.2527856628301109
0.1208371513992614
0.1642997999299042
0.1430287649981521
-0.153252122820609
-0.3355069839215633
0.4081409731878512
-0.1182984197708046
-0.2090086298760611
-0.0984566874811927
0.2164887749392424
-1.093183746336935
0.2231791041598988
-0.07692136335217846
-0.4162054137345748
0.03378161088082019
0.04345672407202595
0.1189108594810334
0.8591734203400785
0.7418748010199221
1.815252966620817
1.985809164380714
0.02603346983212041
-0.3258321141603219
0.4168400001029727
-0.1174040086846388
0.3829996814331077
-0.2061675047356356
-0.3326622375651218
0.1421510047768984
0.4050373427202618
-0.124276185402432
0.1874406973437032
0.2728261087319561
-0.07113856144121351
0.3080860175946546
-0.06906624191365375
-0.4448564918612501
0.460025752945743
-0.9121104482865119
0.1319843403804844
0.09547838148311071
0.06726700808243115
0.1957493999529369
0.1060392944204238
-0.1029855723338455
-5.873995576478207
0.2069172100773443
0.1362611883427765
-0.4857668424592543
-0.2108521095205725
-0.5851397303982402
-0.02451467873300967
-0.4018257693885852
-0.7352185335397261
-0.05713862044935529
0.1849448485920731
-0.181128761148459
0.02468708574965044
0.19369908389617
-0.003576155826300419
0.2786684714035141
0.4154241479184624
-0.2201136914999368
0.06609802471326019
0.17361702537578
-0.6688438711689927
0.3035247998260387
1.737117880157433
1.226641611572301
-1.054856597544611
-0.4891059955110129
1.48042714854887
0.1270529761612565
-0.01183240480323617
2.033472768935821
-0.3448262459254771
0.3281799184601721
-0.2364825646844308
-0.1817424557818113
-0.4896687475755336
-0.1806252001714982
-0.2215379018253194
-0.2573091406147441
-0.4450790158107295
-0.8308610026414535
0.1331976415323507
0.1914556651615647
0.1364486887495077
0.05638118422268242
-0.3420748964911251
0.1131279290939938
0.2251183623996602
1.135881709159452
-0.0587215289996052
-0.1373732063593378
-0.09715002584888945
-0.6788687735176576
-0.09573931377156222
0.1794036425612106
0.186409627828553
0.534160844745222
0.3529762165954958
0.01093312064229132
-0.5081367491975125
-2.161470183257406
0.1682126234658246
0.072937061775722
0.811775858623249
0.1287956044327958
0.1534462263999505
0.2192746915983757
1.505586937705649
0.1743380689852106
0.1809275981194076
0.4479005975471348
-0.3187468837808215
0.1196347842159124
-0.03210691710494137
0.3299076155344294
0.4028411390156301
0.7307196515790174
2.730101052288765
0.2372282239875136
0.23783508893244
0.4674574687252185
-0.2650144093564904
0.1601336177554342
0.04786601585971332
0.7105674193305658
0.4710060604568885
0.3265643130351796
0.4407388839743948
-1.91219939807207
0.4639753651922179
0.198209342159125
0.3680217250877178
-0.3123350917736348
0.5318388020367506
-0.4332501163825073
0.08335728446814884
-0.3285503482782796
0.9503584838608844
-0.5796878191617005
-0.02136177233653128
-0.1977740105710385
-0.3948674691661236
-1.431929942062341
-0.07194184447452968
-0.1949336201706255
-0.05018938723188047
-0.1305853438452699
-1.563927844521639
-0.4634824295494333
0.07624420154885704
-0.3485961534911574
0.2883347084109311
0.09979332288120164
-0.8957617429801171
-0.03684699764878063
0.009883020592427832
-0.4346343136683949
-0.2280638625046435
1.105266581386268
-0.07605012338037243
0.1720871093101723
0.04034250598279977
-0.4182465944296452
0.05406996358446821
0.3082796191806745
0.01867815732828327
-0.5265370232774954
-0.712417384147386
-0.2246018813488541
-0.3768894081926868
0.1233129215740983
0.09078723792929315
0.1368541435433791
0.09833171170120432
0.03206227466724113
-0.3742949365487713
-0.1013939891998262
-0.1960315477283478
0.4234960638790394
0.1914640531162234
0.4200006880817234
-0.690045162775286
-0.07411810241240152
0.289861286455382
0.04099658039958649
-0.1559791299826916
0.28244987402354
0.2542227078302337
-0.3606175869531504
0.1068915453948517
0.2318321615834335
-0.0238626774965948
-0.2841159209308686
0.05671439030753097
-0.2447226479871657
-0.1359407664691111
-0.248215458136833
0.1857464664661229
-0.3260184121669312
-0.3676746167149295
-0.2755712771017874
-0.3734647858935181
0.3382127260374236
-0.1825114600652595
-0.102132755975108
-0.01489441706359173
-0.230773353080776
0.1816708752235178
-0.05428006474979272
-0.409774418425333
-0.2022306357867169
-1.523037710776845
-0.04232786426001806
-0.6008984110890035
-0.425737756878547
-0.1208844590489522
0.07012009590809598
-0.7084228336321924
0.08395024817922585
-0.06789848749081887
1.555590727397168
-0.1401373491588382
-0.3669704928322427
0.1583641977216085
-1.285055600637204
0.04051162132881121
0.1584597945422757
0.2879879180318929
-0.1644341002552405
-0.1877357359033156
-0.3441704280302243
-0.1459623187188876
-0.1447380378825165
-0.02110862199789205
0.2295670000347499
0.03452281816245024
-0.05182233974689301
-0.1692325263377377
-0.1882795027763552
-0.5157853650934247
-0.08909727126275695
-0.2796499449007377
-0.4061421457781391
-0.3451865600680396
-0.2193982028734423
0.2008133742031795
-0.05061221279101173
-0.3426571179343078
0.1768527941775547
0.124099712591719
0.01270332496298181
-0.004178691382645371
-0.4412699267239809
-0.2683843269845564
1.144616488631484
0.1424830004807686
0.4030469030763935
-0.374090083367114
-0.1640402191858256
0.2483017962059779
0.05474014990061087
0.2386565767845977
-0.2321341547633201
0.01022636779541208
0.2010663288766399
-0.09616316385508447
-1.056590584006908
0.4290276836738939
-0.567432375861349
-0.3363923807935759
-0.3127729044850346
0.2598994567008465
-0.1679706624064984
0.1587452557806068
-0.3807750907333762
0.1519600016647034
-0.3577992342939098
-0.07529161023634415
0.2684787106916486
-0.291210850047964
-0.3290017974531238
-0.471359900076936
-0.4677718626538228
-0.7403238961920479
-0.4659337532865169
-0.1441909502587
0.1877169644779851
-0.4157477834473157
-0.3239567883535432
1.408082393559881
0.1321912272228184
0.1332871166743297
0.007162687141956152
-0.203794756881649
-0.1132489692776489
0.5444939848800119
-0.2739578941698528
0.6546533736731668
-0.14123258188191
0.04284404982169641
0.7505995991880977
-0.8494833933473676
-0.09104333894610263
-0.2331537741189681
0.09180170881626992
-0.1132946991333339
0.4773862027623131
-0.3201949080249675
-0.5027968316877586
-0.1537002326296387
-0.0780510942321299
0.3571353197634792
-0.1293571585355212
-0.08018626540795179
0.1061500628433608
-0.1873771309630014
0.159694532400384
0.1883341528783698
0.3735174848142517
0.4589786417854992
-0.03875717885713226
0.02205063568649827
0.007530509633837943
0.3929470213557576
1.325495113373197
-0.1557287536335514
-0.1068457701720964
-0.1239619940535937
-0.118219685897424
0.3819691517149892
-0.1882082631269045
0.9953366855035277
-0.715483939152918
-0.1371962551561677
-0.162742520769957
-0.02439732985037426
0.196442296873231
-0.2378298809618131
-0.36208361326324
0.1968464311262155
-0.4228547576011982
0.7067417464985489
-0.05664889034046039
-0.1870312140569068
0.06723356540254111
0.06831932755914627
0.043769571895698
-0.2371308319058126
0.2124974719446777
-0.1146106566447873
0.07939369526607125
-0.1620431430498774
0.3382438135172334
0.3051855502954759
0.1787811495522933
-0.07841002974836105
0.3058014655783942
-0.05752457115149147
-0.3111236524144069
-0.4142342555634159
-0.09471453749688161
0.3881460933073493
-0.4078782035810509
1.26545187599897
0.4663105900162473
0.7173863484664776
-0.7482812649665833
-0.5931617857893673
-0.6955918853842258
0.6593418225957725
0.1317843075386678
-0.464723171107137
-0.6020587958803991
0.9054709767216927
0.2379960932600476
0.07878712363911368
-0.07817286136477906
0.09832631224068879
0.3085633707340001
-0.1798206975755706
0.1188606835485328
-0.3983296374267022
-0.7775886835774465
0.8063970476634545
-0.1755738432973845
-0.2948940266644663
0.1889779117466305
0.04731506584619537
0.1027362514148099
-0.04405540435004545
0.1035058307777384
-0.2499666465025671
0.4682867607820114
-0.06824504694541768
0.5215503871567085
-0.02285174597838669
-0.2003230378914751
0.4081349127715031
0.07892010197192
-0.3227943069010574
-0.1787080622279477
-0.09629917025838641
-0.2442232561478371
1.42975732271062
-0.1459746833448591
-0.167402407788473
-0.9759129475624744
0.1277927981095338
1.722497290072048
-0.6132872690008238
-1.065886721174524
0.2013738111609195
-0.3118774663112783
-0.07888210148117278
0.1006255735908438
0.1410354782173037
0.212855510757743
1.621537960747136
0.7465476143242502
-0.1880296316332948
0.2873608167604016
0.2130076523813444
0.2118237581204546
0.1844978424633314
-0.4340256475433277
0.1038027665717664
0.1678618543297732
-0.3088765304558903
0.1245316685731834
0.04049370540156175
0.8733857480820163
-0.4895237627499329
0.1891777590431097
-0.3224829993132242
13.02089603101534
-0.03387405080847455
0.04840010229625312
0.6612978081282925
-0.4675408219674675
0.6348627094788105
-0.6725549559718591
0.7348029569672416
-0.07817528544026137
-0.2042496854488751
0.08269903699001165
-0.424480832553823
0.1624997811376282
0.2945141770716204
1.064456892425023
-0.1808940142559322
-0.8740785416912189
0.8674408748732466
-0.1270453382320266
0.1618272683588257
0.3559522094011298
0.2382151327756664
-0.6226924773729414
-0.08178186557485179
-0.13138919070346
-0.3219546277222962
0.5598958405935041
0.3204460963936647
0.2932771571458775
0.2836297982025793
-1.85635175657636
-0.4028156874383884
0.1092170087859451
-0.0673152565607848
-1.065958493480552
-1.935990495484265
-1.166198630534668
0.1011791388354679
0.1046677381215998
0.4688056986677278
-0.359623933406438
3.017638873832424
-0.005150104942614106
-0.581555074942081
0.05710048522307636
-0.2083718007839109
0.08809648933147174
0.3494881131257452
-0.3675121974870562
-0.003523145225179696
0.1568086583391962
0.2412474973254467
-0.1516418679233676
-0.6229549742733573
0.03813272529123218
-0.07119086460957613
0.1403324140733657
-0.09149721054941003
-0.1207424454463177
0.2935240433359637
0.5235207729095765
0.03768046082602183
-0.2469939742749902
0.1059328097064023
-0.0236475510909467
-1.221614663793905
-0.8913942957411001
0.6310975788567434
-0.7438141508975852
-0.6509364202501987
0.08880563150950825
0.001022434037413543
-0.06981563556639603
0.2672264410813329
-1.112502574533101
-0.2845992495755384
-0.4650584551086879
-0.4064239754458751
-0.2250341792805295
1.723620320678147
-0.005461804043354647
0.14130960270398
2.099174231802055
-0.4200646024238704
0.2107677285185885
0.5377290318000252
0.04606484116533872
0.2133963412940071
-0.6756294521258234
0.9532481066443844
-0.3284832201424359
-0.3701181426376043
0.06705364821999393
-0.1558839597542039
-0.01206087989970611
-0.8400162035808331
-0.07448637334738492
0.7363631952497131
0.4905557212837603
-0.05474326623948636
0.239624629546082
0.09939451940231094
0.1607182509869675
0.3040752314076707
-0.4385385299939473
0.3738762865028393
-0.1998624191220744
0.3582278923459826
-0.4494733332762885
-0.002281506070984178
0.2528786628815963
-0.01598756444169683
1.592425546018676
-0.4732496262495448
1.045701837674996
0.536580163964416
1.485153029348732
1.191941376428886
0.08943798426441649
0.2240765097048167
-0.08212670310369982
3.592822858528487
1.731091315844122
-0.6911046375194916
3.24307995819522
3.322295066636426
3.31660857611616
-1.161212115784891
-1.143814344110164
-1.665488368120118
-0.3071584809241564
2.571270649755468
0.1984501793946772
3.203509343162705
0.2292626135627981
0.1003180564764615
0.110015526972509
0.1021826467666804
0.09446071606625314
0.1516210908521677
0.09032450299010841
0.1116791022805724
0.170979364318139
0.1636740807371145
0.430973568757507
0.06197374102910162
3.459333587395705
-0.8298751524434421
3.434680044413079
0.2563259275080651
2.310080284833575
0.3903065636684626
-0.7220533463056087
0.8159830750880039
-1.670247448007711
-0.2758275196189335
-1.176775383180276
0.7300423175802108
0.1873591945316371
-0.07544706813970033
-0.03011296377217867
0.2118047571794063
0.3051741314356976
0.2230881374620348
-0.2639394407003169
-5.378470408731034
-0.498707946247376
-0.9890769432140131
0.350276609224021
-0.4160105151694441
-0.784866974863488
0.2116047493397264
-0.8027231323807662
-0.01567719130198762
-0.789012688163876
-0.4715751685375617
-0.6163338506751384
0.02361302835542753
0.3624184060204084
0.4381179368309673
0.1305019858903585
-0.6191642574450823
0.4218844616792515
-0.6567076804300265
0.2801641028164346
0.4120342064789548
-0.4011268516340497
0.1057464149731548
1.093425277762804
0.1536738970024875
-0.04100385866911672
1.057045423963358
0.8971698119330963
0.3570393288147142
-0.3755232431441846
0.04114338368590799
0.1092305068736467
0.9153097216316277
-0.6307848022315006
0.1138989412962476
1.030916441245113
0.0920749918470563
1.03552010133604
0.09620497336143415
0.0712119810283357
0.3994330733094589
0.06480332229054063
0.2771771193121648
0.03687954177525629
0.3281622545781196
-0.6116849367633787
-0.6538526173777625
0.471993092269871
0.4004250942678815
0.07428481644351506
0.1247858375475342
-0.7779151304969395
0.1391260351337348
0.1786670141121492
0.4013525458079006
0.2308528905387348
-0.1617822361260519
0.2506380119383705
0.2636345286105817
0.1380381804943629
0.4303957489762837
0.2811502072955095
0.508722096977451
-0.3162352132781455
-0.8205346732673078
0.06087006250601462
-0.2616917249219379
-0.2697301535863317
-0.6666895499132185
-0.2673434440734037
-0.2776337403698326
0.233755549876257
-0.1647179702988523
0.3414019543919997
-0.6345846712376015
-0.8681392183514772
-0.512714735478155
0.07952791724651631
0.2198782706767141
2.141851857364361
-0.4595903664173348
-0.1412158179785663
0.1905835268443864
0.1471883974728768
0.2211563859352475
0.2399695468499671
-0.191295788722954
-0.1290081317721222
-0.09586051062849882
0.3749892059830032
1.143427769542191
0.2612001292356575
0.04111394350995744
0.1611146056753192
0.08146493262205422
0.1469157904737693
0.1950177929611626
0.201662266017761
-0.4337386417743025
0.3157315127631338
0.2859243995847428
0.9357058459135462
-0.3097241728170771
0.1192969519988205
-0.1679598628085707
-0.3974390111914954
0.1927514112348616
0.3218481077870565
1.761380630957426
0.1416141125816516
0.1369113163825955
0.0391332002326753
2.973894048727896
-0.317280085005876
0.2327069519896071
0.2260974666658545
-0.1357916199339982
-0.009106127765257741
0.08722423687256189
-0.07600075089028431
0.09742272568387644
0.3929408956638291
0.4218379272859784
5.266175853827252
0.19203799491227
0.4503860695705604
1.633601176009586
3.51925658997239
0.2354139134065522
0.5570531538405409
1.210582936171714
0.1265163867175147
0.2810493989522732
0.1499122339073041
0.1031110022362685
-0.1479129338200023
0.03279239481583344
-0.7789891833680106
0.1274518739147142
5.204182328820889
0.2600495117094632
0.215400825536738
0.05668651797616302
-0.1132772169518788
0.4503790207559457
0.1357975437401048
0.3292204445321122
6.835833269531554
1.033012481628487
0.3405686362228673
0.1751805259474986
0.02517205919750357
0.5126153792002099
0.3501971502669212
0.2059343550991454
0.8203830727722781
0.04768402880487029
0.742571394894819
-0.2468864052718418
3.523396234747492
1.100869859351019
1.068502371927488
0.0878412067310656
0.2581404608241145
-0.3093197319898212
0.1308034859892168
0.08210601369752088
0.915947420153868
0.01348384987841659
0.5184290435691877
0.2663038250814314
0.2050920670898247
0.3987539366310492
-0.845761252085571
-0.03162490141827964
0.08905548241745476
0.1333613853970436
-1.149539133887468
0.3851799043880559
0.2134372348010054
-0.1380822294296212
-0.2805666428766128
1.106122951538568
0.3495790109520415
0.5180195891457888
-0.1478693627681474
0.4383650020945397
0.2425669589775959
0.1562348349534522
0.422305703070548
0.5064916533742546
-0.7843423121802894
0.3120707999476968
1.335196608499859
0.01709817358195278
-0.0784204339855014
-0.01185736030703009
-0.2638800398770253
0.4559027617779337
0.3840961503396026
1.312577725673227
-0.3926082306983208
0.1598699477487065
0.1128106913034118
-0.0175405317938859
0.07455782914503073
0.2351720633215343
0.09710189738426951
0.840096795089459
0.2946007579739915
0.2063135703436612
-0.01740428913407945
1.272522433251634
0.1370507003704132
0.203721969796013
0.09523993466732848
0.2289406604731896
0.336217787694555
0.08290612926937009
0.1814769649721655
0.1935213694262251
0.2704911568149431
0.2851305852507868
0.2483682037047434
0.2425413724988824
0.3476856081183618
1.161967453961086
0.2399626399828122
-0.3876036160357798
-0.09480532218986949
0.1037633354597677
-0.3379274336618123
0.02586342104705149
0.2068536327531462
0.0868567921444124
-0.2998626690783359
0.08085651766619401
0.2940946292162166
-0.02938018052697522
0.1630955669719132
0.4691918537166531
0.06213930528737393
0.5336764233333539
0.2470457455761131
-3.009272357954324
-0.9733413915843762
-0.2056721118393535
0.1648550372384989
0.1786142668034056
-0.02063045527162955
0.4588347151647462
0.4829292404907443
-0.005907545321570019
-0.0841921151988006
0.1328049936444581
0.07027558215848975
0.1325292549846634
0.4410502824150213
0.2911250712791613
-0.03573186565727027
0.414343458180372
-0.0252476793640127
0.1724884708231569
0.2494680292747852
0.249864201455804
-0.5519778067400128
0.01757321854782495
0.1347852956109774
0.1591303025728382
0.1530754549557326
-0.2058729933139176
0.2274394994543112
0.26388608542698
-0.2063711128796235
0.178104342138237
-0.01385316609673884
0.03875799556999831
0.3930767918233821
0.5018445396992548
-0.6266734926481137
0.2337691214687095
0.1294531058015665
0.2819314963201792
0.07340473059437286
-0.3518821095168718
0.06473423320696939
0.1378945146011079
0.1752659233053262
0.09726707396843026
-0.06481389878696033
0.2453956829982559
0.03508531635525369
0.08123364764407526
0.3756875457889424
0.3501482558806762
-0.07965369502749887
0.01503260920200968
-0.06952315596246596
0.4520063106850052
0.146577943031372
0.02328612659641287
0.17654861766456
0.4379197341982913
0.1595215863957181
0.1149195807441556
0.2257327672805389
0.1159628286417742
0.310303872957584
-1.324247232753711
0.2363723303339737
0.6503875266725663
0.09789802305700836
-1.711507367595849
0.3023356496527402
-0.09864131230044701
0.03264619282874011
0.2080250455642457
0.1828251436348327
-0.2982115944304979
-0.1462551384639164
-0.4571825307037739
0.1794275898966239
0.351943490911911
0.07958653604730194
-0.2102679828419479
-0.1395612488263602
-0.3733900911252519
-0.2608517015578767
-0.2571557590011036
0.1620848663753452
0.2362879853562573
0.3448910351231566
0.2266254474334289
-0.1258851157215015
-2.52272945830253
0.1053778614646009
0.04714475004014628
0.1607879455687707
0.09752661231490262
0.1399682456495226
0.2799955349435232
-0.00244594153285846
0.3040806741171152
0.9540098181211218
0.04020922353151171
0.1880982428659236
0.1030849474973453
-0.01572251877154745
0.3362118083755602
2.078648602924976
0.1834894152829487
0.06363167376186589
-0.03853733439148158
0.1743606314341658
0.170780246248377
0.1714661068928019
0.1156257798501456
0.1683272359186109
0.004477632921611185
0.01046793087616554
1.527786439520942
-0.1238403555273946
0.03452651019546044
0.2712656955886331
0.2959613473116993
-0.1036829181593532
0.1830827994339251
0.05543699235847391
-0.3113132016711579
0.3106879665651339
0.4657686211455854
1.116523412174183
0.3478546645080701
0.1512038136720162
-1.855985929033375
-1.557591392271653
0.4011486583014726
0.1111737684911363
0.2491425499627221
0.1169165548191565
0.01324327064557965
0.1122222746189326
0.1792796361133563