/*--------------------------------*- C++ -*----------------------------------*\
| =========                 |                                                 |
| \\      /  F ield         | OpenFOAM: The Open Source CFD Toolbox           |
|  \\    /   O peration     | Version:  v1906                                 |
|   \\  /    A nd           | Web:      www.OpenFOAM.com                      |
|    \\/     M anipulation  |                                                 |
\*---------------------------------------------------------------------------*/
FoamFile
{
    version     2.0;
    format      ascii;
    class       volScalarField;
    location    "1.1";
    object      p;
}
// * * * * * * * * * * * * * * * * * * * * * * * * * * * * * * * * * * * * * //

dimensions      [0 2 -2 0 0 0 0];


internalField   nonuniform List<scalar> 
78526
(
-0.1087115749065869
-0.01245682102450473
0.03696959952734351
-0.02904299391767524
0.01340394533750745
0.006689570522883451
-0.6846925676407369
0.02837848060766441
-0.319845268436573
0.006741197103814232
0.3031133126649538
0.3893426428705979
0.134013056405336
4.783725680642914
-0.2580851637429026
0.007706303264628204
0.03513977347719902
0.03198556024920038
0.02492513730839468
-0.05934544500261419
0.3361260391939959
-1.118229228845826
0.006419775440247915
0.01238317640032203
0.06667092036133347
0.07749211301381806
0.06901578592548321
0.0184066383705445
0.03789905755565255
-0.03389899634885943
-0.2349289853268904
0.08008149430946102
-0.6648092066271285
0.006219432673020685
0.01105350908158554
0.102491656630733
-0.4049548263019173
-0.001576965461944146
-0.02257618190427638
7.870977780318093e-05
-0.1397098178352378
0.00174210715452017
0.009867204593829828
0.02532360904162034
0.01080718548969381
0.01098232809262386
0.1438541598347886
0.006646784239693565
4.821956048022185e-05
0.05802106848959657
0.1834384320326086
0.06146913144528503
-0.6345872149204198
0.09108416204413466
-0.01804138472270751
-1.843184867125495
-0.1796887668597133
-2.148825501395331
-0.1317758915143324
-0.4889849691924857
0.05784342673189151
0.01043442979112076
0.07329124628901282
0.02545130483305515
-0.008725735422162616
-0.007115704067282446
-0.005749669671706749
-0.1579013660537263
-0.0005134755631481005
-1.250561169976638
0.04461129873814886
0.5878680756604978
-0.447806522239087
0.5398122091013308
0.000748694896275247
-0.4084297076768397
0.007240209099258179
0.08000871022589828
0.07071590531604545
0.0511052440450572
0.008924695605553248
0.007810808310477602
-0.3360425989933947
0.7038702025920653
-0.02586012264111036
0.009169329304360752
-0.3663240725747689
-1.133275054671152
0.004479567689440137
0.07539043483182795
-0.003024187401830878
-0.4766826492514835
-0.002439850060818951
0.007331667662769119
0.01522803691077399
-0.0139936199225153
0.01705332688264785
0.003795197718270937
-0.256008811088596
0.005584085681742051
0.04639896622851091
-0.05116019398470106
0.008224969867252841
-0.7335827037193758
-0.002577262834423703
0.01679247405052629
-0.9547826851943243
0.04964531396777156
0.006489702954324773
-0.3598757088185446
-0.02049924323452047
0.0721487040265375
-0.3537961562416588
-0.4271250474059022
-0.1910762632372845
-1.643877929366014
0.01184805060053637
0.02845629192560072
-0.09657880667121485
0.07967417390974725
-0.01339254326080828
0.01796698410882898
2.151295867307939
0.04380336996790665
0.1297567081602002
0.02407733473945136
0.001010271746808414
0.007222800570290765
0.06774662930005501
-0.04795524320868677
-0.6015964295042199
0.0186793847798959
-0.1877567451488338
0.0645912787842625
0.05676577804462613
0.007251347583019442
-1.046539426932539
0.002443872016046001
0.006354273550248506
0.006502301132110748
-0.07037965667582857
0.05812097917138695
-0.5741193036805713
0.01274624900724831
0.01658575708651971
-1.405099359340075
-0.4151642581467415
0.209520792216903
0.06265117189354723
0.02844884744888774
0.01753995620035776
0.003183478471794822
-0.0007417884336879323
0.008940719521587001
-0.03349926542888615
0.06439823725996506
-0.007830330571331817
0.00819504165421259
-0.004170774797340168
-0.4553638902712003
0.04490390949487176
0.161556683755798
-0.006444457292275701
0.01136532144604269
0.00782436428807789
0.006732156752444253
0.00887887654838548
0.0193666074247959
-0.002685126189542032
0.02131798457219821
0.003875665333501011
0.02442968682698692
-0.0361233500802787
-0.4664848441798273
-0.5129592504711564
0.01000727510519035
0.01985737823480945
0.04257582252462847
0.01265610223120334
0.003912031982576722
0.1401310347550765
-0.1601041286063356
-0.4209662245593734
0.06991404144973966
-0.0462812931748214
0.05055472811279005
0.1027626852788744
-0.4226005919560371
-0.03418469489750454
2.409503380658377
0.1697628903044219
-0.2074931712426922
-0.03201926229615775
3.649182017146115
-0.00416465669421932
0.06304122182023497
-0.1815459471291938
0.1101880884422453
0.05368181423582037
0.07044651128516079
-1.60838599014932
0.004858058495210598
0.0341437622413651
0.001321620639066722
-0.001070275227453869
-0.002721903602440774
-0.2382019755891175
-0.333753351521158
-1.276691813603658
0.02236624192571499
0.02842621954213582
0.02935838722515327
-0.09198448349278089
-1.449559507094492
-2.088520846080202
0.08505769988592267
0.007754759944337357
0.0009007606455484386
-1.627061035755762
-0.04887685564307629
-0.4929308194775186
-1.771636489521588
-0.2849995717399845
0.003865970142951203
0.06245941741080137
0.002082703853071641
-0.0306358743074515
6.449480479945
0.07501937848675713
-0.1363959800318507
-0.0600687082584142
0.01198345838317879
0.003424889601044796
-0.1367656673036808
0.005295233761025242
0.01780895064139101
0.008224349238424349
-0.00228941446032244
-1.503425893430484
-0.7714798885236391
-0.4485294453655818
-0.08147472911921211
-0.2778495508946722
-0.03437799544607967
0.009930745556966117
-0.3270386471545594
0.05390642170139207
-0.1986916258191239
-0.318736506296638
0.03935554439056589
0.04575191131147772
0.01286676543566781
-0.493226503368413
0.08069741721710012
-0.1479641743398076
-0.3115011713623906
-0.4712127112306689
-0.1169080281806689
0.9021694547791963
0.01490617408585797
0.0178672293154333
0.3674702469665001
-0.2563117925661241
0.859693147900259
-1.307300574783612
0.0005597090108188286
-0.5103161205478048
-8.468391259351e-05
-0.2987172246730364
-2.100795069453587
0.1435599328261668
-0.5911548076968873
0.001638451485998734
0.2925297506538421
0.01522232080757505
0.0003852848839047674
-0.4394704246541176
-1.251960083038994
0.1006386174776495
0.06588005184377092
0.07236903712960084
0.003094890957656159
0.08237906346900228
-0.1926865675479349
0.1962675182913426
-0.4581049472444773
-0.6499312201484997
0.05468485243090819
0.1655711826526206
-0.1973008528784428
-0.01176162169508157
0.004005129755110034
-0.1989637405548511
0.0692837071999519
-1.012319553962544
-0.2934270563935263
0.02227732851197577
-0.8087974281770214
-0.1323372749577425
-0.7623701528207395
0.07439940676504307
-0.001359851779299086
-0.1154216575180386
0.02398757365752609
-0.3370076603219356
-0.1307783196397663
-0.3852367004352208
0.008787436751456365
0.09511644103676231
0.04085666683837741
-0.3621232657596181
0.01634858687167832
0.008094590782687401
0.002177703960161098
0.003914602837158152
-0.01651502985980754
-0.4700319852541739
-0.2004778657023961
0.1895246898735267
0.005820644605525674
-0.1920885262674772
0.00200598843323458
0.7526255779996683
-0.5379935529368247
0.08102680309147027
0.004676713460340543
-0.3276165766603843
0.002098547620856765
0.6646507088859601
0.05014928831620772
0.06830202423058111
0.01856377347291644
0.01090026440700053
0.008706372584245513
0.061200981872873
0.03789766601006796
-0.004441278338114894
1.467737016454529
-0.04043008277264728
0.01197736129615702
0.009201333905161728
0.1797188741830412
0.05555953683678898
-0.2751698053760037
0.0575428530450695
-0.6837584265655279
-0.3066345257666786
0.02017127049641134
-0.8125514699791181
0.05467226817833697
-0.4265981505207301
0.05313100427724877
0.1038315320304588
-0.2751506313103352
0.05720000401635084
-0.1103905368291101
0.1228823846142219
0.06207380295606577
-0.01303758467113004
-0.5625874374881296
0.03193067565735587
-0.1377925500341523
-0.2063393021943003
0.0847533740650198
0.07753447179203982
0.07335621607834233
-0.3017239005870116
0.007965339850190068
0.0491970994921044
-0.6928461366037453
1.53718940128249
0.007555772341970588
-0.90134686369763
-0.4680559968220669
-1.480642023259874
0.04149366155362375
0.1517342849664246
-0.01416258980402443
-0.07836689653146676
-0.003162462972196268
-0.969094576295769
0.09903446380736035
-0.5155791746166294
-0.2666355870253331
-0.7237345842980819
-1.913995484131168
0.01747322426415435
0.02029134791192317
0.09319149664447104
-1.766811453160187
-1.144665762776798
-0.2920917261192976
0.01503494246245919
-0.5414114463607628
-0.02238369143919399
-0.4475940373743187
-0.3639971311359687
0.003682130427876018
0.01243381934709391
-0.1712014378559137
-0.1826292190448513
-1.409050883641639
0.08834538031207544
0.09052259104320581
-0.2533732186046599
-0.7785121227421751
-0.9194196176533311
-0.1761723950287482
-0.3923615358541958
-0.3363164010296198
-0.08398941758228309
0.1013418999567401
-1.795673752854062
0.00735496870052584
0.01839215461720861
-0.2675048390687463
-0.4440540315046013
-0.3942151205702473
0.007958824941686699
-0.283851588909926
0.3183251295207527
-0.175416576844788
0.01194329506652516
0.04227809273105366
-0.7855308748725742
-2.009135140526534
-0.1303163753995638
-0.001102216071380729
-0.6833987645339059
-0.006984365678064032
0.05311000184581819
-0.1999541242044416
0.1028817467674089
-0.00555184658041544
-0.9541617872606651
-2.13433016510336
-0.3609101527772597
0.2480970191425394
-0.4671385700878218
-0.3761488635612714
-0.3852449294632458
-0.3786841788270823
-0.4209293682070417
-0.1810103924607403
-0.3304766367491689
0.01659130477626836
-0.706546462996917
-0.443520984649819
-1.228365429174317
-2.196314584352046
-0.4279766950205343
0.007580801257465745
-0.3915328941702605
-0.4003104481725472
-0.6272900609075726
-0.01565283956022234
0.02240432916112919
-1.377134174620213
0.008678484294086023
0.012322085831953
-0.3178547254665345
0.02097908986547332
0.3675673100478922
-0.1887027208831726
-0.5683022826270087
0.00148325121993218
-1.055598274228336
0.1182411133005515
-0.8630416473305125
-0.6126774614189598
-0.9886057714756284
-0.9207823492570802
0.002387409445576629
-0.1886571462648545
0.004216689820357976
0.0001183720197493914
0.01717081653863184
-0.02897003943182462
0.1010123096640639
-0.8098236106080769
-4.887987317299008
-0.2916469225889578
-0.7940395365515067
0.000754729712051861
-0.3823640023685279
-0.5690293798915175
-0.33580121608749
-0.342238392641953
-0.3795631109182361
-0.3873144130424578
-0.01334947151068655
-0.006489642897691063
-0.4186152296299742
-0.342418641349181
-0.4409567932750552
-0.7444991128337127
0.0004576405496943933
0.05407499834801992
0.4676990063195998
0.2910491486527204
0.01090729878969607
-0.3768304738642742
0.03267381628133428
-4.060719048303468e-06
0.02714972975223458
0.01143179062178204
-0.5673726338552963
-0.1474595263202121
-0.1624422923146461
0.008013117333941215
-0.5803826385385605
-0.006465341715924466
-0.004569249594162987
-0.2633526956403222
-0.2765645035352186
0.009421036045357026
-0.02383245239603587
-0.3215618048250616
0.01741252235708098
-0.5032969886014891
0.0243676042860814
0.003053278344190373
-0.04259136433134809
-0.9219737455183754
-0.1640553258244719
-0.1325967999387953
-0.09937005237856973
-1.940158825021391
-0.9212819472195617
-0.8907851067986897
-0.1950707782873203
0.06378590617173736
-0.9179962305343007
-0.3224468106341725
-1.92701806268331
-0.520241866791988
-0.895259275052531
0.03766008541326188
0.06069409698719071
-0.3534027777297943
0.06505603794781409
-0.2286925863751956
0.1210476602899839
0.002901186942839551
-0.8080162588258336
-0.06065563844040861
-0.3264090270840988
0.05217894895094602
0.03732679299225063
-0.4942959786352702
0.146697658193303
-1.010313041879079
-0.3919292937448623
0.03794631809707835
-0.003832075440466634
-1.407126649313934
0.03565053891152856
0.05520669148137197
0.02742585592631529
-0.1809349519783469
-0.3441824823605927
-3.074643286121999
-0.3292749943966845
0.4457788907249839
0.04542071635585553
-0.2986583612760254
-0.4988735691438497
0.1041265703410729
-0.3978795240835659
-4.239395097897974
0.00428891230722032
0.04986757763912873
-1.988277798188631
-1.39523286887191
-0.5502053645565516
-0.2175289670174264
-2.886358901079483
-0.3048199292117559
-1.13971649971458
0.001303904828011978
0.06701950766258737
0.02257701076591075
0.007682853378590236
0.05552370881889296
0.02604039888780885
0.009859629060160096
0.02411462843972998
0.0996762505373702
0.07392775607372067
0.06343983537998173
0.005519090826822436
0.01098320950854795
0.09185713350288692
-0.2291712056233165
0.008039992087825297
-0.4149678627401501
0.02647686007865693
-0.3897044572861491
0.1094620982510653
-0.08638051291129462
0.0001935355402200587
0.0002466264215356555
0.001083568625266885
0.01457765801764981
0.08682784191737833
0.004059982133488365
0.007109499985677078
-0.4305158673996053
0.02967671118699265
-0.3261035727378253
-0.3774926579467837
0.004545067831165716
-0.000289994318068318
-0.01218519794457001
0.04799948362924718
0.001312064809905913
-0.0002286522027789952
0.01459850141036551
-0.002862608273857655
0.007379310396027102
0.1008156096253947
0.00527316822788979
-0.05073259228755789
0.1102920037738844
0.02466046189239626
-1.839600769857354
-0.004438967384321397
-3.198636708700061
-2.590012696184558
0.6685443394547003
0.0161328429213336
-3.663089042346618
-1.675695542838069
-0.6767300346567121
0.01007203377139866
0.01193945777464724
-0.001577791756729791
0.0004269169332020127
0.004740946432121801
0.1098115914264416
-1.651656800235593
0.008973796925837987
0.09449330476580312
0.001267557996278639
-0.004036479471823188
-0.05731132736638028
0.01046811889231558
0.005601998329996009
0.00378410446756692
0.00158236555602495
0.008668866510453498
0.00780855147916661
0.1527682541881838
-0.001039132036672873
-0.005623686967344197
-0.0004659395180217431
-0.05167216683521984
-0.9509387222559753
-0.06664723401371098
-1.908638694645275e-06
-0.0656122132514267
0.0009600985965404755
0.0009774718450413456
-0.0001134683919536061
-0.1879237266568141
0.0001214349480304834
-0.3928952157338722
0.035198192979406
0.0009175993042135507
0.001437436038779023
-0.01453901950266377
-0.004481916711806927
-1.291657871115068
-0.05651513406523163
0.01296602687898849
0.1667423642724246
0.01459051307596026
-0.223041545878764
-0.006172526817856096
-0.0009593782526692692
0.006881670331257752
-0.003079605646084135
-0.1000280126909715
-0.02798895366168261
0.001659875765590243
0.02910855703774835
-0.112193818944981
0.5370365484962809
-0.1941281209680535
-0.03527291167412344
0.02057154904225545
-0.004084862974779549
0.0400338065070354
0.04578129983653082
0.002311648453206954
-0.01988734833289431
-0.1288964215570778
0.03400142445017507
0.01577085715607104
0.00209195276173805
0.5960851353309867
-0.1515282154135683
-0.00755496690369271
-0.3459623122981947
0.002341523019949898
-0.04685413267202661
0.5634613549609178
-0.9747851065214378
0.01928916191072365
0.004508308723113831
-0.01015712590911656
0.0158725539316621
0.0006653433350367011
0.734738331203473
0.008695234274220478
-0.03522874687366322
-0.001286614412804057
0.219031709384761
0.01489473916419339
-0.00307219124806277
0.004147473956615664
-0.3370070901720058
0.010173201297847
0.003247381504791319
-0.361885161819159
-1.245347215129066
0.03799641712734139
0.0509853573441763
0.0220116855170066
0.007056357079462798
0.01212523683619907
0.03501063984549479
0.014178916933926
0.02106104682614635
0.01388552927962768
0.119153987669443
-0.210669000087747
-0.01576376451392067
0.000473064583340825
-0.4249255427280689
0.01110361888417469
0.001488492882513731
0.07447463940119425
-0.1507290140207272
-0.003512960740842991
0.003914312533312563
0.05519771401613875
-0.08646013714399393
0.006491495945616297
0.01124419035470699
0.03753873619009015
0.04310734352608579
0.01562993597515073
0.01996739054701177
-0.0484188470187369
-0.008762343019722219
0.009893775113830399
0.0002174911891829055
-0.2147734697903784
0.00731278316571596
0.003362128741416782
0.003321280902722489
0.04002435053511706
-0.2947695661121362
0.02274076415546761
-0.0486178859257787
-0.01695261176670768
0.009894829476390183
-0.001799141088949638
0.03669588989295465
0.001152166917681255
-0.02164496587889192
-0.04704020753625793
-0.3616698987170663
0.003747076216546903
-0.4569440859976359
0.00636192367042291
0.01560877589793707
0.004489864281549643
0.01489014156434478
-0.2441976275991801
0.02170455906193525
0.008963176651434155
0.01677394273675412
0.006176573104957351
0.003039706329124761
0.002063073990483499
0.009050774281223336
-0.4057061069031481
-0.009756721713423337
0.6425515477806536
-0.4399553746278993
-0.3175255444619494
0.0142981549361626
-0.4091324785013671
0.003280153460011968
0.0006071668539315455
-0.02655314538283781
0.009710683977786976
-0.1095720611821735
-0.5002225702761887
-0.005618788296197526
-0.01383204443329112
0.3470187849525099
-0.0405679008674744
0.02483276383108556
0.009491888542997847
0.0260623441404895
0.01564949552096232
0.01319339603500348
0.03154063580234129
-0.4191664985382377
0.0611231917757134
-0.7180337200410886
0.008480628899996172
0.00245259086685623
0.08434962369298833
0.01253431719887656
-1.370437107474572
0.01141618694882941
0.006883813008845487
0.01020301008520847
0.04255547757024621
-0.4038573361098537
-0.001390070476180268
0.01201666319862245
2.742793282155158
0.01792637199145243
0.04187484086346946
-0.07209524422260084
-0.5429786137803142
0.1090960227152103
0.01630775884373179
0.08506444549963695
0.01513463280267187
0.1242024233284154
0.02911337045923433
0.08523718000156662
0.008585518741134173
0.4582079851429433
0.01999943270325154
0.03500399640293568
0.1162763005690019
0.02070729756592022
0.02160280772136026
0.02639966510349069
-0.06682995082888735
0.00589383347017354
0.02017221661579183
0.04438231259786658
0.02638996087968317
0.01424627381521167
0.08897689768622279
0.004382682171286329
0.05001872704029757
0.08617137716352258
0.07364052730660978
0.003119203416754626
0.00440885619347238
-0.008137894862111496
0.004026591762439006
-0.05477345891251874
0.0721782766843784
0.05911595327800824
0.02715393686864624
0.0809726921536259
0.002651155371157543
0.08257277194831256
-0.6173202565088457
-0.07478441552327345
-0.3169711890471371
-0.3941625140923969
-0.3375380957299604
0.0381701337851938
0.009354917808564392
-0.394984643192828
-0.2211204986136965
-0.1435967406669118
0.0284461947983928
-0.04795702523484132
0.01466319817978107
0.001390669814070823
0.08304241843442743
-0.3090699457074253
-0.511031899353296
0.005348989904154832
0.04890268339317334
0.03866197047303609
0.09523284836770775
1.161360101062706
0.004079292943421044
-0.4308935526362291
-0.04713044813062154
0.4780283328517529
-0.002022055007104286
0.353045917060767
0.009595037864153869
-0.4016208653467883
0.001926885223337596
-0.3801254414456026
-0.3566957470370561
0.007352009773156084
0.189495593133418
0.007830430751182203
0.07668271883900239
0.007350071223328212
-0.4198483531768433
0.003015626590535845
0.003390470367909376
-0.3661622063273066
-0.02998203102314355
0.003815115745127513
0.02957549592353902
-0.2529134304898996
0.003755332254979609
0.002246033348261328
0.002250386572432484
0.1433163609506645
-0.3501539306145939
0.1240917091770096
0.0009623670362337154
0.1430272364940999
0.04619426140117602
-0.00163068233081275
-0.0002696429286215388
-0.4291328677764021
0.1868723256180152
0.003092107873016432
-0.4412658588465223
0.009179531653357597
0.03201697119829208
-0.2516819366892914
-0.03600505238624541
0.1345905322560031
0.003681986101743769
-0.5881679001009961
-0.03878857582515965
-0.578621909857545
0.006320008709819303
0.03238623704846263
-0.006165716993348552
0.03364578686958132
0.04338494159184608
-0.1592514804362697
-0.1708644930358482
-1.042845623125306
0.002496484648308606
0.1450422650060373
0.02109889874090132
0.01805661689306863
0.04116398620335512
-0.1981648653077205
0.02975343941175229
0.7795380026253907
-0.001092620243309348
0.004323487997977245
0.0728803337973874
-0.1932688738394585
-3.46823506358758
-0.007982000833134004
0.07604581108409206
0.03733564240669615
0.02924179237225288
0.06630488738076923
0.016944708077899
0.104669981240471
0.01690464732085981
0.07261340428638993
0.03637395672328283
-0.1850715583555785
0.01499590581286938
-2.12146482222778
-0.3960518813347112
-0.2662645140905823
-0.1566129684334997
0.131611596968437
0.08198755228597931
0.00208482282364718
0.1406042822844175
0.09871013320073259
0.03021101188141202
-1.053722577109915
0.003534004155036951
0.04119241471878566
0.07184111308234849
0.0195908817477485
0.05895964440412653
0.03597199776121029
-1.136430149354559
0.06555850655896875
-0.003938127486599113
0.05267580005299855
-0.0252446131162503
-0.2930145360385853
0.05515404921561395
0.04196090690724273
0.506948226253963
-0.002749131132174175
-0.1459823514515521
-0.09512272689395843
-0.07521547536858615
0.009296172157543208
-0.05514849669329123
0.3921949511593387
0.01447147261142413
0.05524048000577626
0.05085343358462891
-0.005043041610471036
0.03309965031903387
0.0008180331870110499
0.0008919962303472229
-0.009048893259493849
0.03168019641198704
-0.001865964013363551
-0.1861143012387899
0.06852456318254883
0.01324309815359093
-0.7511964461731284
0.001208034206807195
-0.5710417485297314
-0.2021033915012768
-0.6241983675856629
0.03586435296874955
0.04183925649483656
-0.6660406668537618
-0.03583935771268326
0.001219732913856154
-0.001659149611899083
0.3699312684225558
0.007135676221848544
-0.2512198358377817
0.005448179819628109
0.02236488573775403
0.004147636139621349
-0.4419631190316208
-0.001361041965533189
-1.510389068756383
0.00754143342777684
-0.03317483788882008
0.001808684799617225
-0.901819204554356
0.006512526767880993
-0.2416462952902636
0.007621718266641989
-0.5365383241975377
0.00782420638830731
-1.446965370602514
-1.217101819904838
-1.101374429865328
0.04927738363148425
-0.5517355113562268
-2.105512139538622
-2.066075573070021
0.02025281736006196
-2.168945682696908
0.009650469045877604
-2.036511287847813
-4.302527374561535
0.007777391303657319
0.003545713264984842
0.3343488483004233
-1.352313596949075
-0.0002982198360335398
0.02537827137512742
0.0267973376663214
0.04980932543224795
0.06179517880627107
-1.232534656904047
-2.261703361031186
0.005085730678187299
0.01630297037782304
0.07022474064239689
0.009766303510079871
0.012566342457905
0.09398611107792422
-0.005961249272698727
0.1477561253462819
0.1018562031590067
-0.2140066986759834
0.337889608002125
-0.03344073173811545
0.05196727206526231
0.007045679421188175
-3.198384759192978
0.004240631674380695
0.07345712944930297
-4.182141105300952
-0.1890350947008919
-0.001622857296533922
0.005873797409006819
-0.002957414529088552
-1.262834309632774
-1.627042756417438
-1.933984150516988
0.004217853154089342
-0.1166205316428645
-0.2718232019131294
-1.085686179666018
0.01511243783371051
-0.01072302170257543
-0.03913159937791232
-0.02935618244355356
0.5118216183593512
-1.500484857744833
-0.1172635853007064
0.191798385173526
0.01457901463422386
-0.004578059516300752
0.1035411496021783
-1.388489173247331
0.0516579296910644
-0.005132009271936366
0.001100570359565788
0.00733277315471566
-1.570378261910713
-1.878626233882729
0.00197995653486402
-0.2137088656209183
0.01154325739584864
0.01882286965953018
0.04616971352712583
0.04877518062796337
-0.4113982220998431
-0.0002100766152230104
-0.03292260002374878
0.06578366926459643
-0.08221841024254906
0.0003022263100269082
0.004639513481684033
-0.3239284537869808
-0.181896691307433
0.03586705250603597
0.0335998555277253
0.004127881574901132
0.00411599547001445
0.07708192890389198
0.01007698502210582
-0.1397097448445292
0.002419484128133879
-0.1717522291231647
0.02336815554929165
-0.01325901887167015
-0.5512831682720054
0.02061840853451409
0.01360212510843953
0.003091896067509875
-0.09922421144466949
-0.554751998913976
0.006348019816568088
-0.01341163448572141
0.03346995643991035
0.01148658712475444
0.00411424384094055
0.01257594945006022
-0.2219853779277448
0.02884048894387345
-0.215451238170499
0.04601548041404373
-0.00114569216757672
0.00932632399120588
0.007263359617599201
0.01660125429476459
-0.6801898387986335
0.0172226288690681
-0.8162540789692568
-0.001480118039652812
-0.0005559759128739296
0.004970176093342219
-0.002312420359570131
0.2787002011522368
0.01185453620401367
0.02022858594324278
-0.9193019325293035
0.01723315301185456
-0.0001302425605175282
0.01055521386963142
0.07959363182807337
0.009048158232554188
0.006393575699101188
-0.6595255995812308
-0.499303464515945
0.008410442461701296
0.2582772976531442
0.005746836412799248
0.1682101382388735
0.005685816349253468
0.01549617737667544
0.006323501194858652
0.01050716034835633
0.006084000966461387
0.004748420392260494
0.009154535823164618
0.04250624773946447
0.01074963374221146
-0.380416860890642
0.00819063470300475
0.007597916268635536
0.02154689461064318
-0.02038795877633638
0.009544469891813283
-0.2926083154854861
0.0269823904799551
0.1287766691441194
0.01768752987968888
0.1379316089143244
0.01179587699875249
-0.003075159411361953
0.1366728382955389
0.05464421650836798
0.008301120137222064
0.004373788128569586
0.1183012054684093
0.03479691710445879
0.06721359878002817
-0.1971005644277688
0.009439121411919852
0.01613498516065355
-0.05165265550172284
0.002773477780392275
0.0162671650547538
-0.4435896735946774
0.01696487778590635
0.0431471187614881
-0.1892000270128742
0.1000745398468907
8.877100676443594e-05
0.01706815625790883
-0.6728813171325074
-0.1445585349701031
0.03220119997316538
0.002924606614362924
0.0165033420940397
0.004314316954649899
0.0009147239675796274
0.006901163001978025
0.008264765666644788
0.002977037801380178
0.006118185866075377
0.01897139772191569
0.00820038094317406
0.006776629211085658
0.01777178581723128
-0.2488930509553161
0.003067503221432187
-2.142329811392432
0.03237223755765842
0.03703232779674789
0.004230557727897744
0.008233585849764392
0.004616719305593595
-0.8976450663916193
0.01942085991790977
0.003270738614218775
-0.5109602516514414
0.0218700825684616
-0.01309377513598402
0.0224066635020215
0.008476614466312682
0.002249344738754201
0.01976933016376569
0.01292704921448974
0.002931838903756206
0.2373109473742056
-0.8904833465671341
0.01806543710364999
-0.0007577453462326526
0.0006291791601459815
0.004780786139697447
0.0001643064872040451
-0.000650800929381895
0.02312108616053669
-0.0008386416690831858
0.004808274398351796
0.007912417435145692
0.0429172494381296
1.045681435305053
0.009717988832382939
-0.6844101302195321
-0.3818426314349045
-0.1533537271561544
0.0511534980966149
-0.006287197164519152
-0.4351057433552545
0.04618523020494349
0.02060546976755343
0.03028041095119969
0.01936910166429231
0.04166899708423509
-0.6364120367386475
0.02097453089706852
0.01705246573709646
-0.04242368349054519
0.007331564794426141
0.01589851700816667
-1.06470204833971
0.2549134684860146
-0.4710991831341948
0.02278257838236928
0.07971782374176137
0.01796815626089523
0.01902645860099547
-0.06671311008811637
-0.003390668459928523
-0.1539955476935093
0.02127962237682906
-0.1996849159731314
-0.08631966711308862
0.01803523914659563
0.04284624608437104
0.4042236162588905
-0.01322873385532533
0.03250682631070951
0.04485092642026425
-0.008266355551614752
0.02438354647511441
0.005564780507451026
-0.01088123676313023
0.01843354272990338
0.01407350770101994
0.02342597556474927
-0.04794029358978481
-0.8084827555685078
0.02112837771090071
0.03140541348310592
0.007001440993385493
0.01336876250614793
0.01968410169719843
0.007134408265151918
-0.0008256333314082298
0.01658617587922249
0.01642396046027152
-1.645698488928657
0.006994669737480631
0.07594722019254804
-0.005065608792933533
-0.0006740730095597344
0.003233735605639848
-0.01130188816338259
-0.000483456481012061
0.01932146950388072
0.004492060581300024
0.00817083109120573
0.008265759848073335
0.004942695534071443
0.006840706515417536
0.007056871750502971
0.003084721211883793
0.01375483309253837
-0.07547697361146762
0.01500790008291289
0.004501002286331337
0.01946002158172968
0.01736379277798473
0.1799730581694006
0.03363535420728469
-0.0001817693128076826
0.002717291393075158
0.003337462594807028
-0.001293042158100843
-0.1972384065128728
-1.315012335469648
-0.003345460928602845
0.01116754564586521
-0.001625890245967975
0.2111562338579705
0.0159684003697998
-0.3539670067717514
0.02048651422841703
-0.001658901848640083
0.01522792121489027
0.01514372388267793
-0.001518424232418957
-0.001068893165260447
0.02280031742925079
-0.1144644044722132
-1.51848244085259
0.03567989550176652
-0.001975283493850571
0.008391402909580473
0.2247164713042657
-0.8354434150984814
0.004481745240530418
-0.3649278134344428
-0.1725286029640054
0.03103276074105154
0.005889975423708376
0.0098299982627324
-0.05325866052301977
-1.166983686043252e-05
-0.01503180160048856
0.007177725163186917
0.01295033759885057
0.01424102311612439
0.0003103836313853789
0.0003750410889704503
0.01559428393420559
0.01501683022679575
-0.0005023188281777416
0.01349303444121933
0.0008039137888679048
0.01053546001537514
0.0007253604265393901
0.03471765278192943
0.02239596686862429
0.03187556671210501
0.03864102725217074
-0.151708435282143
0.02022670861876965
0.02217157154354486
0.02237495557537207
0.02768508269954043
0.0247784455305884
0.03864300056677302
0.008332894072372041
0.06705108920415807
0.003900330706347978
0.07342866524179389
-0.02196447034627331
0.01197164322768107
0.01970583497484221
0.07217063928530223
0.01914309834001887
-1.030161336207909
-0.0007058743345831556
-0.002324806185398561
0.05184175737175205
0.08200535569091397
0.01444383130539695
0.2553544768980088
0.02893882784507651
0.2204032564745474
0.008524381724547361
0.0102560442108092
0.06132537965682164
0.04350260211073801
-1.311281830721734
0.002807801535210645
0.04337538149580394
0.01068792689384212
-0.1207335823469379
0.02353048620917086
-0.07739606113509313
0.02320402542766123
0.01451187027319384