/*--------------------------------*- C++ -*----------------------------------*\
| =========                 |                                                 |
| \\      /  F ield         | OpenFOAM: The Open Source CFD Toolbox           |
|  \\    /   O peration     | Version:  v1906                                 |
|   \\  /    A nd           | Web:      www.OpenFOAM.com                      |
|    \\/     M anipulation  |                                                 |
\*---------------------------------------------------------------------------*/
FoamFile
{
    version     2.0;
    format      ascii;
    class       surfaceScalarField;
    location    "1.1";
    object      phi;
}
// * * * * * * * * * * * * * * * * * * * * * * * * * * * * * * * * * * * * * //

dimensions      [0 3 -1 0 0 0 0];
oriented        oriented;


internalField   nonuniform List<scalar> 
153371
(
0.01501772748831269
-0.8080201806212561
-1.449026477421877
2.242028930543155
20.61970700645548
-4.648879502093689
-15.97056568083515
-16.56252950272174
8.222930529716477
-13.29053195366527
21.63013092667269
-0.3770591236234715
1.001181384470156
-2.775852717428837
2.151730456570172
-5.161013207839371
0.803628454275287
52.37026653367614
-48.01288178011058
-18.28098187644873
21.92287245176976
-22.79788770185204
19.15599712651627
0.2233433969333039
-0.01542002629461569
-0.03195926064493185
-0.1759641099788331
-13.910699549294
-12.08145809388331
25.99153890030871
-0.1093362409446665
0.4224631059378736
-0.4555665664350636
0.1424397014388544
16.79571722154054
18.26624272278261
-18.54352362044328
-16.51843632388024
-7.329844343197536
-11.00479746672483
26.09637569383646
-7.7617338840561
10.87047830118734
4.71490941644583
-15.58538771770381
1.590506236952436
2.837470907153
-1.491341244678712
-2.936635899402589
0.5345689122705781
-1.103840485674527
0.5692715734869183
0.117000695321653
-0.167692763629703
0.03009744106842105
0.02059462725388732
-5.077903564747831
16.72686796888448
2.820331174014506
-14.46929557815318
9.383509094833475
28.05554348361787
-20.9449273571504
-16.49412522130845
-10.19813586641633
-24.85821035785662
44.43985531910331
-15.07926617357502
-30.35306303612241
29.13151071144379
16.30081849825029
-10.83753989517382
4.569850888322579
16.77036736391531
-10.50267835713413
0.01680699281491427
-0.7047868945713892
0.8314424062960282
-0.1434625045376705
-0.1043176410487447
0.1296528306927708
-0.003387495544209599
-0.02194769409035524
-8.941551314130534
-24.34296473446551
21.28112161218097
12.00339443637937
22.75644339448156
-22.15993871797296
0.5015423974597456
-1.098047073977613
6.969781496940167
-2.98138542767785
7.608457989805067
-11.59685405904798
9.652545014369618
0.4399373381448363
-7.431736856279063
-2.660745496250334
-8.920674957016868
7.612636288143816
-3.177057210240983
4.485095879170006
-7.538575971599697
-7.295868340372046
14.83371383061787
44.36387207180941
-10.65893881415119
-22.33651775621714
-11.36841550144525
-11.2753600148266
-5.81095342719315
17.08774560854614
0.1570533962560463
-0.4823240275811189
0.4000186168426327
-0.07474798547158297
-0.1121433445060404
0.8440134019253899
-0.7265149659338695
0.5874321048258061
-0.6655282937415566
0.8046111548936919
4.851381974839606
6.943926889217995
-24.12707319812776
12.33176433406939
-14.94182559895902
23.74701394642494
-3.414119428305271
-5.391068919154845
26.58926492146801
-24.14624289113162
9.192309964233976
-11.6353319946239
0.05021303461143826
0.1432197897967523
0.3033097849079528
-0.4967426092650868
1.511631621382193
-14.62320376258491
-14.31336779564367
27.42493993682663
-2.274677387374168
12.38378044329534
7.201925313563178
-17.31102836959473
-10.10326948422487
3.662841439495844
-11.81907720467662
18.25950524937589
-1.432775703750813
-0.1271033347717513
-0.6500040580356072
2.209883096645522
-4.873487971292057
-9.485419797705219
-3.432910087083265
-17.14048601077737
14.55744735289453
-25.46237602345761
28.04541468132243
-1.497795253596991
-0.9611407798684545
20.45301122030359
-17.99407518689389
4.408205923523232
-0.0145852742334891
-19.33544624824839
21.12672010859662
13.41290380535403
-10.79260996752732
-14.91654098224046
29.47850821994532
-14.56471047494923
-14.16150562671483
-9.921993354458232
-1.579530319946309
25.66302930111205
5.336965466464355
-18.78062161140303
-5.07732270155992
18.52097884649075
-17.94926521710077
2.306620270198308
0.3223155189530554
15.32032942798133
9.148584907714998
-4.651678816515755
-10.83608503945002
6.339178948253579
-0.08131580783670289
13.5980270797948
-6.546929774993814
-0.0505210788980863
0.05521290906632449
-0.007243197140152645
0.002551366995714088
7.279468567509087
2.76267318678917
2.523474936769558
-12.56561669090855
-19.60388189054597
18.72097372804776
0.8832951043783585
-0.1589730539163066
-0.03706551136108178
0.403139592525268
-0.2071010272272445
-0.8240699050706567
0.3084914173227391
1.128097484440219
-0.6125189966496837
-0.2397021201376064
0.1652786160821142
0.208839631034966
-0.1344161269651871
-14.0992748094478
17.92112255461906
-2.549266945767333
-1.272580799480445
0.6021836827554142
-0.02175441743656705
-0.08412742098606574
-0.4963018443207122
-4.460431194645259
13.59801117068909
-1.524943687781861
8.274889743017614
16.64848568401746
-3.796655318447341
8.634050155157372
-9.409413617867726
0.6632201181641182
-8.331954186357347
15.13557447339135
11.10112491862029
-17.90474520558492
-21.67939748633313
-14.97605009025623
17.05156568604243
-4.709906434361832
15.79298998643184
-23.88964780787379
12.80656425580141
14.85036773242514
-11.62431088352809
-0.3798254271660291
-2.846231421732228
0.08351895922654225
-1.613312988218928
1.57746651516504
-0.0476724861292942
-17.09542610790463
-9.023799300569483
14.70572808533922
11.41349732313119
-0.02713932259566238
0.01078059939370326
9.713742732835671
-20.25220275841133
-8.171277242100595
-0.4741470149038919
-1.412805784826152
0.4200286076617299
1.466924192089382
0.298664818398649
-0.5491906506768232
0.7721154667607506
-0.5215896344005386
-1.033095579591662
1.311732749684618
-0.2786371700637758
-8.444015691831751
32.55891699507309
-27.41921519266775
3.304313889418757
-0.4592642752623939
0.4943649810674239
0.6097303497498724
-0.6448310554809874
39.66850163669076
-16.63538542175516
0.7779048834716945
-23.81102109841188
23.53395779095092
-16.28418863550789
4.243203955169131
-11.49297311062169
-6.215814798947759
-2.206396727823223
8.862148864948077
-9.719903309363298
5.607097394321468
-6.409133587438562
10.52193950258401
-17.20376286139211
-16.29809015545349
24.55269279791743
8.949160218867968
-3.229345367905979
-15.90778299732368
0.7838025728993165
18.35332579233882
-0.05860445505275173
0.004226203452584994
-0.1209681962779715
0.1753464478945162
-0.6053523938412007
14.47517304665926
-13.86982065284943
-7.733978321815697
-5.768475617626155
-7.824849051435711
21.32730299077297
-5.090905292973978
-16.73082132185731
6.425701082616949
15.39602553221134
0.1597773542582708
-0.2670185298598513
-0.4820867092320341
0.5893278848759952
-0.1217311462292635
0.1055424909898194
0.01449120346966176
0.001697451781457589
13.99462368192292
19.53499911513802
-0.9050379933176762
-32.62458480374264
-10.20335080236483
3.517273919343988
-11.99656921896269
18.6826461018336
-10.1521517493547
7.738037381365786
3.935474453925866
-1.521360085939146
-0.4684264993107417
0.8202276319562851
-0.05313631420128467
-30.5426057134101
25.67652613628406
1.530658615783877
3.335420961326986
20.81197188448901
0.3788122708493595
-24.42012952324408
-17.59079703735429
-25.34362621999399
19.08148478890502
23.85293846841601
16.61594926029414
-19.01141641891026
-17.95652986873317
20.35199702734902
-14.33558125424526
15.42622688055865
19.72132625817072
-26.56178652963889
-1.131819195052627
4.120204586957982
23.57340113773177
1.795982002043526
-3.131267939611236
1.484181947936369
-0.1488960103306679
-3.483213482770073
4.90729177569467
18.21488125313669
-19.63895954606511
1.481827616873234
0.1881743967191573
0.4006486712648639
-2.070650684879452
-0.9408478526734597
-1.522346429969593
1.352270263181545
1.110924019465504
8.562000375216826
-8.748886905991794
12.97403188430942
-12.78714535354023
0.2045891315531041
0.01279980651165267
-0.1686256665991068
-0.04876327143298537
-11.21942495527083
2.014932460339739
24.95211343667996
-15.74762094174884
-8.053086678824808
10.60281169625218
-12.91693356980295
10.36720855237085
0.1000612402688236
0.02767932416925627
0.001660019823642833
-0.1294005842405878
-23.75732310903161
7.421843804130113
-9.019311305276204
25.35479061006403
9.292315278251897
8.776751063944504
-18.06927515503137
-0.0247546663422108
0.05872322440080577
0.03474005169366493
-0.06870860973200081
14.27481558786837
7.288481294150299
-5.892615416159488
-15.67068146595163
4.578574925613535
2.628786165680769
-10.18874651894381
-0.2205629561808045
0.3828554081389895
-0.4234535437744876
0.261161091829421
0.4073064014797288
0.6839007745546732
-0.2767158019359787
-0.8144913740352153
1.711423846641425
2.123871305413704
-2.718320295920253
-1.116974856223213
-0.03080778184614877
0.005146107267831292
-0.02535079733361239
0.05101247192506651
9.077434263761742
-7.306702392342672
7.52158340683193
-27.40621506902513
1.955684666919056
24.24226086525506
1.208269536863102
1.079187606653743
-3.557989706296179
-1.021666223040309
3.500468322531733
1.464121781175779
6.966755771274479
1.294214974714219
-9.725092527453363
7.333764357662457
19.98143782415323
-43.19769055663728
15.88248837481915
3.145000051969697
-19.42884633190435
-4.105699493823214
-0.1167037214737396
0.1229945181979953
-0.1057529872093159
0.09946219051125994
16.38146320033989
-12.79692146241677
-3.132988414611001
-0.4515533233141271
14.73781959377597
-17.63463738551862
-6.3537462182078
9.25056400978697
9.117027110534339
-23.36855119273432
14.85721267191214
-0.6056885897121165
-12.71836010440009
-10.77085201445515
-15.57466972107517
39.06388183993044
9.213618943260839
-11.83705291678443
28.13065087634453
-25.50721690282522
19.29836802772228
-8.680695990086544
-8.23860615448816
-2.379065883178352
-0.8890691166124938
1.971502062023529
-2.781041782090701
1.69860883658865
0.592881800785131
-0.06910861726380373
0.09361140681339562
-0.6173845903242295
18.89025775153874
-18.96751973250053
-0.8280316550765963
0.9052936360163539
-20.38051143194545
9.302529500124637
11.07798193181131
4.274660198624284
10.56181250404133
4.562693459204673
-19.39916616180803
4.820011856919897
6.9693608548801
8.371005221532842
-18.93645584845695
28.59516706919949
-5.702562352982947
-3.956148867765047
-0.01263116862687292
-0.1592739488267997
0.1436498992941483
0.02825521818278304
9.435347617945897
-16.67564936033461
-1.057426781769239
8.2977285241447
-1.891668212978477
29.90317293966713
-2.919868586862497
-25.09163613983489
27.32183351390796
-27.16892667995642
-3.799910972903204
3.647004138947385
2.092017009091969
-4.639495074885233
-1.987998883259554
4.535476948929186
-15.57346456065738
-9.506973628658974
10.23707077267208
14.84336741663945
-0.1772841760515055
0.135993270397657
-0.4271355936197838
-0.1408259866369899
-12.2783363921881
12.41877862680415
27.85779007202935
3.222321212222532
-10.75665994009623
-20.32345134415681
0.08162681417505238
-0.08710841733484857
-0.1760311293157611
0.1815127324946375
0.1633978172530244
0.0103937171334872
-0.1754054862073735
0.001613951857431341
-31.90027871525835
-0.3718251767867345
33.56904954818501
-1.296945656274564
12.32116457573158
-6.316637342472069
-4.655899796997002
-1.348627436271237
37.08459910361162
-25.54239845734427
-34.52430566456373
22.98210501827293
-4.253023266907159
-22.45034185887346
2.749488879993507
23.95387624555191
0.1586007882468273
-28.58361691067125
-1.044120668606871
29.46913679101571
-16.88194720551551
13.00022170855786
-14.14623778393057
18.02796328087312
-21.59159770408199
-16.49687256318885
10.12561554497378
27.96285472230432
-20.78227375170011
-6.614872517729453
14.14978661962892
13.2473596497723
-16.12108421639148
13.55770064430531
6.850052032165732
-4.286668460040142
18.59416928625095
14.13515794856833
3.006834634189315
-35.73616186901312
13.93605053908982
0.3550706018318394
-17.24364305286604
2.952521911907468
-20.22602126427712
-6.319899729607213
28.08210225239507
-1.53618125858589
0.2161600153241842
0.4018105216658175
-0.1586859378520862
-0.4592845991069158
-22.1911105798516
15.41317732966688
9.943248904267968
-3.165315654094726
-8.113255087197945
6.929197329422402
-8.08110248456269
9.265160242289642
20.06058533935441
-25.69671856313436
12.02847949989711
-6.392346276277475
22.835146452601
-22.06718947520404
-15.38093320271391
14.61297622531399
0.3909880047504833
6.646805458819739
-23.83939353114794
16.80160006757337
6.199593156883704
-8.322179883957142
-16.82221764461896
18.94480437168939
-22.6406770953465
2.170643335393197
20.07369602130482
0.3963377386565468
-6.757803857137231
-11.48934675126132
25.64268218275355
-7.395531574356917
11.48806346548944
-20.38078650453411
9.051662791188301
-0.1589397521421878
-28.99757467917393
-16.97116049505897
16.95102754569525
29.01770762852516
-21.77884137274813
7.073756795633703
0.5959596009639962
14.10912497614817
13.88233594751439
-21.00665229706437
-20.28189871945097
14.58412647655961
-17.49914000232663
2.915963703889917
-0.08671517964721587
0.7101815964662153
-0.05648298114802459
0.4611958250577076
0.03443640035223573
-0.4391492442532421
-11.08559932734681
16.29860019268865
-9.214940437497972
4.001939572155015
13.58049890049598
-18.67590630975683
14.91114548308994
-9.815738073842263
-21.85471674228246
30.73230553795852
-24.92051400231681
16.04292520662271
23.17858798056129
7.009916257274283
-27.70147384895654
-2.487030388878585
-23.26494379806737
11.40108770743422
10.94241001465979
0.9214460759725976
21.61087961294774
5.184935924326517
-2.020740993309428
-24.77507454394079
-0.4540956481846678
-2.191646898049552
3.724930152800921
-0.01744873719338178
0.1101400371542697
-0.1046313141356078
0.01194001419520344
-16.79602636642135
-3.723681729603967
12.20841466130253
8.31129343471698
1.396853627823692
-2.672146572671001
0.3862238281688966
31.04185606954917
-9.162576093427717
-0.9223786122599729
-20.95690136388122
-1.324885933217118
5.205151873284884
0.05892462306072711
-0.638066307102182
0.3381928388709213
0.2409488452153483
-2.966145973453596
17.55121718813747
-0.02871393435290009
0.06122199060829327
0.08700308503844062
-0.1195111412563851
11.35744900079938
6.677545964485271
-18.90437787098616
0.869382905600535
-1.437935208293242
1.919464380936222
2.208720331995428
-2.69024950475315
-17.51256122036729
-3.567696956126307
21.0809486108509
-0.03467623291722798
0.006777416998914307
0.1190538004472951
-0.09115498451282047
10.32157496043206
-4.163818504133599
6.501514531378103
-12.65927098768172
0.2121006332888023
21.48246810590877
-19.31879138388686
-2.375777355321579
-0.5038691630558056
0.07399942118784145
-0.9046614250340961
1.334531166960619
-9.666625630790513
-9.568706567468588
1.153445358903746
-10.3006261163489
9.033539371729217
0.1136413855815921
6.1773688217579
-7.814608695075096
0.2488296781097415
-0.2713686828167146
-0.0291503481557511
0.05168935289406763
-0.1007628352664851
13.08289141626973
-27.2831421996992
14.30101361866773
6.989429438030319
-16.31162254853468
-9.494890352605962
18.81708346301399
-14.69429337528237
-2.095944667356552
16.79019509965286
-17.15321849072436
26.89723139322557
-9.743987798989641
36.66892573748138
-9.0974230969401
-16.74910754103379
-10.82239509951144
-2.315374985248836
0.4688091255487388
-0.0245429489175438
-0.04372056633498641
-0.1065620936097273
0.1748256088819283
0.02824413703089322
-0.09743951193476622
-0.05253577131883416
-11.30567223850288
-10.4145432685212
21.7196238504189
24.59248786192017
-10.46828666941842
-0.2418652449833625
13.54091512167831
11.34654905308478
2.626821278552073
-27.51428545332354
1.64874577665261
-5.727001181408206
2.23539259521912
1.842862809639711
0.05654372144887154
0.1202835957218009
-0.07128482616994634
-0.1400888296519184
0.01863380467280763
0.1458340928838748
-0.02437906789192316
-20.9366638932033
8.141967682355903
6.582946646592051
6.211749564135634
29.21889239318317
-20.03734564486115
18.46737978599928
-27.64892653431193
4.42442633530318
4.839794991815532
14.40884221061494
-23.67306353772847
0.1351703289964423
-0.1198783337475018
-0.0008007917693056076
13.10538850588322
-16.1906057325604
-23.76871303115719
26.85393025794719
-0.1499344737614102
0.1281044913935002
0.07678587230883618
-0.05495588992406603
0.214366550437881
-0.0868270238617386
0.03773908951253611
0.5531227501088286
-0.7007068564057375
0.1923622211132953
-0.04477811479900373
-19.97840975989611
0.002395237754471627
19.97591932089533
-23.79845117112955
23.96492401339411
5.820875009865645
-5.987347852121757
-21.02286600548356
3.668216182016327
7.17003726264077
10.18461256074485
-1.555155249248959
26.58157587124304
-10.7041688907856
-14.32225173133112
8.96744241227119
5.860583927169281
4.126553607708122
-18.95457994717774
-7.842190864351054
-12.41931656159057
2.356872078061146
17.90463534781078
-1.552827100625585
-0.9975827689074757
2.096314221235265
2.289102986998965
-2.216240848385963
-3.681887485488479
3.60902534694002
-0.1427449970241201
-17.28660311579251
2.526713240525188
14.90263487231002
5.844023473817309
-27.41823861298785
-2.277129625158105
23.85134476432668
-0.216778002658789
-0.9184051173332549
1.000462735280395
0.1347203848039754
0.01945308195508428
-19.99799505768517
10.46084533106408
0.785303770830137
-15.84667901632372
4.600529914437437
35.21864730044368
-9.093421531461424
-46.46886459295998
20.34363882397172
-7.246253474709706
-4.339903010481316
32.36445853690387
-20.7783020517129
0.3433240050523056
-0.004422735025075892
-0.4588661711179906
0.1199649010872682
-0.0005470727523845991
0.6207815688737802
-0.0006263710445178084
-0.6196081250203469
0.2357842189885939
-0.0267660072873347
0.1997229796832598
-0.4087411913573548
1.329078035163646
-1.1735840709318
0.5122001200421998
-2.063417269373738
2.724801220168318
21.4323368733426
5.09122882370637
-4.45369187146036
-22.06987382571113
-23.0578194928546
14.84880148336902
6.140092634660553
2.068925374828049
0.05714455076094905
-0.3142169787478458
0.11266614045768
0.1444062875635965
-3.592428515491772
-21.73302067382738
22.60516352686667
2.720285662435707
-0.9472710892405193
-0.6630542859241264
0.1738586683574398
1.436466706810913
0.5172942973844155
0.2486392875731142
-0.5237604577423617
-0.2421731271937818
-33.12025575428716
-1.711248682130645
8.332971911764606
26.49853252471339
-24.37556742367741
3.869210076710957
-12.61389840730996
-14.32445818240187
0.9293095942633759
-5.755541104667829
0.4227516436310149
-0.1786598645200875
0.3765767862590643
-0.620668565336985
-18.46803066862144
-8.643820737455421
13.93658100565429
13.17527040035983
-1.164343148969217
-9.676371877079095
10.84071502588579
-0.6869965748865101
-2.73295782930505
1.109054348848235
2.310900055673622
-0.2567337882060056
0.5927702521990994
0.8083942283403796
-0.5482333436464473
0.205577995116404
-0.4657388797981123
-9.77665872768787
-20.33413937821992
9.451950946352113
-16.20958847519472
-1.054242984579624
30.44678533959096
-13.18295387981924
-15.44538488451808
15.93805717837733
-0.4933813990839246
0.01348123078378179
0.1913350990971179
0.05979494604985858
-0.2646112759014194
-0.1312036666883907
0.04331083079184902
0.106913998250276
-0.01902116233711291
0.05709574852898937
-0.1162569223540824
0.03806880055323851
0.02109237328854998
-0.4957084057771517
-0.1096343121702039
0.09051407570701361
0.5148286423357056
5.397166946550625
23.76923676316217
-21.5138274557084
-7.652576254038361
-0.08354333708310853
0.5929596974404765
-0.8764911408426739
0.3670747805230249
0.05076870843070806
-28.53325527570589
25.7919490117227
2.690537555534284
0.3049785891072045
-0.5926386670146648
-2.175369538171905
2.463029616138041
-0.04344808160720303
-0.2240263593818628
0.3823455648979065
-0.1148711238908009
-4.158227000087081
-12.63490819799332
-1.654170849757095
18.44730604777363
-0.05856451827793065
-0.0480047428487194
-0.007349035653354865
0.1139182967928559
2.398610679408577
-0.3941091150054002
12.56836397196876
-14.57286553637263
24.21356710076198
-0.2341030015727163
-5.286286184724642
-18.69317791449188
15.5191643455772
-3.141325383911683
-1.415412923840437
-10.962426037809
-15.8725918260666
-0.1787210743881367
-5.628084585881584
0.2774200196204565
-0.07842105179352425
-0.02359830659275869
0.01883468252696288
0.08318467586981738
-6.980863760031085
-3.229280921024702
10.77594413926346
-0.5657994584205356
-6.599630945786213
5.857355999193755
-0.9658743443094128
-4.922047557621459
-0.7117090438283975
16.45574224392664
-18.38705948039496
-24.63046929317175
-3.060340887046222
7.2339598475876
0.03641458319816419
0.03540549360876034
-0.03168378195215944
-0.04013629484193925
11.79106657837653
1.860685244504777
-15.06525823129645
1.413506408367892
-0.4954704040566658
0.449937192446655
0.2980432309769377
-0.2525100193405831
0.006337613996484098
-0.08252222179675699
-0.00615951072745442
0.08234411853938126
5.89086545823105
-0.2057738035057005
-25.42102301370373
-0.5750567224459727
0.6644511741311337
25.33162856201618
0.8963234959467588
-0.9465108824156009
-0.3261051182238563
0.3762925047150761
-13.11834558052695
0.2218227085546642
12.89681391781891
-14.55567841176127
15.03527773963459
-12.69989755888681
12.22029823101053
-0.09756983203705064
-0.3035958066987378
0.5419451063678582
-0.140779467586773
-0.8104084809743288
-7.702217745621997
3.781558880967122
-2.538165949936548
2.483484626717987
-3.726877557750413
0.3918939034876052
-0.3774566466768294
-0.1349804625690375
0.1205432057990056
-18.25353486454037
17.09134969425125
-17.06721657149607
18.22940174168804
-0.1301367186467666
0.0282570683201449
0.01984801741189796
0.08203163292922863
-1.726895191235545
0.2451790726691675
1.456509774508481
0.02520634404674706
-0.04412306123909833
-0.08371395296190737
0.03395484931246309
0.09388216490941501
6.237172542631913
-11.04012323324036
-6.396787087157794
22.85257346112764
-0.02497933144322363
0.1158348923344899
-0.1413517335913097
0.05049617271295652
-19.34397137762146
-3.46478982157229
6.599172723998364
-0.3193759318451174
-0.1543558417439491
1.157632548198147
0.01454236416849462
-0.08934181265136508
0.0180431753658735
0.05675627314092223
0.1147359027371469
-0.2994071121862368
-0.1584991284251737
0.3431703378963365
-14.25074001717972
-0.3052222557431108
13.0053875197368
-24.87299645163746
25.29856122371757
-13.43095229169576
-3.37233978457152
7.95248132823713
13.0993069833703
-17.67944852698692
1.96087958213883
-0.9861044214056119
-0.2414678743762861
-0.7333072863418709
-0.4346911177981126
18.54334727439741
-18.1090114192021
18.95552522138553
13.24594679245511
-21.8274159234405
-10.37405609040458
-38.06430405384035
0.07008121447049691
20.92350790157643
17.07071493778803
4.405530537756034
-30.71875954824961
-1.869606709813587
28.18283572030086
15.70077808688418
-19.44888021637119
11.0458658011266
-7.297763671643305
0.3364104609511991
-0.7917861273719747
-0.6637913128296565
0.1825128661935301
0.3257198832892365
0.1555585634104579
8.772688881239333
21.05036160333509
-27.27553061666038
-2.547519867922095
29.2112259337111
-25.1745055412653
0.3688101453068092
-1.254407026160633
-0.08286354338901367
-1.38104972641192
27.80581378466101
-13.26436156302128
3.66678818786637
-18.20824040956541
0.2233335560594119
0.3516027723968422
-1.142210015854748
0.567273687436577
0.4451472119085155
-0.1274562585675267
0.0961659176672332
-0.4138568709948835
-0.1183326671744111
-14.36059904079302
-10.749720150924
25.22865185883836
17.65496297108774
21.90069271373807
-22.27447387865376
-17.28118180617831
0.8195255598072716
-2.181234371317627
-0.9536661738007397
16.75415887884987
0.9007457269039799
0.1528949570697737
-0.01110362410160178
-0.08252555869047366
-0.05926577426225427
-8.54720949412062
3.960431761251338
1.526436845771041
3.207691377156041
-4.788145099814225
-13.38643789162844
-2.604906537965199
18.28525752979253
-2.293913100199701
-26.79387411307724
23.42900171797378
-30.65576091923588
34.02063331432699
-0.2116015806455734
1.514881188802459
-2.093671085767646
0.790391477661895
11.85887365000362
-5.762820636073148
21.20502126962694
-18.58535520932949
-29.64550092847008
27.02583486819154
1.844056315918635
14.08587074597992
-10.87097654722286
-5.058950514676793
0.07616122829966908
-0.03659839918614074
0.01298870351092892
-0.05255153259753485
2.797700736614467
1.388554918878525
-1.424389870034415
-2.761865785359323
-7.691769787765313
-7.4613642693796
15.15267867464243
-11.65946767183388
-5.958144236275423
-2.600729206889095
20.21834111499154
-2.382860733634758
1.02355583281783
1.111653732926985
0.2476511679388424
11.2503307602565
-13.51533107301494
13.94655313128855
-11.68155281853601
-0.5378076718351353
0.5361312359969824
0.09414901717721959
-0.0924725812869204
-20.18587765933082
11.56706698214458
5.856762273531775
2.762048403684761
0.0195370059345539
-0.2869289220939876
-0.3630799554450429
0.6304718716131843
0.007836445917038842
-0.1237323839533331
0.03247265450131352
0.08342328354881023
-4.961362018790337
20.56429075369695
3.254696674817982
-18.85762540971622
-0.1583354980345998
0.2144478777051057
0.006067384609434416
-0.06217976426188541
-17.01439840022476
12.54856883716907
-5.143790910751004
9.609620473868432
-0.2339115639042237
0.1235869899227538
0.1691301270300836
-0.05880555302943485
-9.909755422431235
0.787681439926018
12.23008411396792
-3.108010131439968
1.044873762456659
0.9981029378058945
-7.254681802334808
5.211705102067899
0.3491795425693138
0.07019349291065889
-0.4161081605375987
-0.003264874925440885
2.46236875238107
-5.919066508266085
0.01663581869081943
0.5700511498528323
-0.5846165289712829
-0.002070439553931708
0.1144691354323656
0.08005739591657865
-0.1533037709363176
-0.04122276038684398
-13.23841302776456
1.639492303760658
3.023241111985674
-0.9767141540007431
-3.68601926157561
-0.02378302832145304
-0.3886351951909225
0.7067926432052281
-0.2943744195908805
-17.67315869199838
29.3191452567356
-10.17402603882043
-1.471960525927648
-0.901415608554144
-0.526808761706189
3.163221614401965
-1.734997243952735
-0.7666546828709871
0.6954000202451905
-0.6020434930703139
0.6732981557724367
7.063386864186374
1.203698956873815
-7.222212058580881
-19.52232740245757
-12.21739331275516
16.89367507612244
14.84604563908248
-1.71709617520201
-0.04765905191701775
0.3265993220187041
-0.3198673846936022
0.04092711462466795
8.15783867342828
17.77467380802442
-37.31410003043899
11.38158754898379
4.98764368169137
-3.330332121906109
-0.004486995279721153
-0.1066591311886217
-0.02738651372654909
0.1385326402188673
0.6320477079050369
-1.938395203576585
0.4075524319491307
0.8987950637853245
-26.03671219426124
14.37902649774263
28.41184457536282
-0.01021058377773765
0.06029412713497671
-0.08609220856862343
0.03600866522489281
0.005040638269516967
-0.1335705837820525
0.120848274630893
0.007681670902419932
-0.02115518280159443
0.01040583523828748
0.01074934757612489
-9.168719554075711
0.307656954326356
13.84870628140351
13.78969384276795
-1.019205374112489
4.738633957524161
-17.50912242627651
-13.88313485430797
-3.615529793072511
-0.02695357934034407
0.1497150077235007
-0.1251887114481551
0.002427283077593797
24.20633255158455
-23.65313776892796
-3.51934075611146
-0.06851584250170799
0.07068596204000045
-0.03497928032614797
0.03280916079639454
8.007620529915751
-13.58178099339802
23.76852296708085
-18.19436250376263
-0.2380863354327077
-0.2313304561107804
0.4616336511989853
0.007783140378407274
0.7362917056946574
0.07031015205213489
-0.03677247748645606
-0.7698293802332057
-0.1050454506677004
0.05904779394854805
0.02448199142561721
0.02151566530772757
0.01680076999279845
-0.04047055664693482
0.2380363371007731
-0.1868448492444305
-0.5333549136249978
0.03980527917294971
0.68039448372568
6.806625475622638
15.06471710931138
-14.13401158715957
-7.73733099776448
1.573144743489097
-7.555905565754754
0.3148927557328002
-0.14425081793525
0.1047857004696177
-0.2754276382275195
0.005942666152621389
0.0778261124376162
-0.07124319806138388
-0.01252558050813531
0.04096357265442251
0.02434019578158966
-0.06530376842503256
-15.80018236047175
6.970973458715424
15.45726706506142
-6.628058163321044
-0.1072471396781383
-0.0006357072212226074
0.09330997766785776
0.01457286924515745
4.270447659079275
-21.78240619631055
-0.08056358397196467
-0.5345704755563453
0.3584002713261879
0.06426601064637044
-0.04189968806576554
-0.1112715057798693
0.08890518322038832
23.1358314397164
2.758959825938812
-18.85883299105564
-7.035958274604329
-0.06809826539633426
0.06209596907246297
0.006002296341025579
-1.936819862065604
-1.154189376997023
0.05862417434989869
3.032385064581428
-20.02906927771218
19.42508247184185
0.6039868058515568
-0.1677935915396034
0.05011940565617006
0.0967677904543103
0.02090639544874215
-6.834353836194333
-0.5866423402025123
-13.51566771687527
17.87838757081401
-14.71968729683592
-15.20148857814781
12.04278830404651
0.06201128213760491
0.4308140744721535
-0.06013070679967572
-0.4326946497781157
0.0893238659475516
0.02357813858773783
-0.08551573934712721
-0.02738626516262173
-0.1530898474477627
-0.4912928409911941
0.4370344091429169
0.2073482793224359
0.04524693472029526
-0.004007852649331223
0.07821026410192729
-0.1194493461582218
-0.1158339308489431
-0.2327176983464634
0.4632875319460666
0.1227902609431742
-0.5823124748684887
0.4869287247670036
-0.02740651077755039
-0.3099990289972664
-0.243501489864328
0.4099842151925084
0.1435163036972325
10.77338798743966
0.7833882002693072
-5.738784210235573
-5.817991977447072
0.01841710418293192
0.1732969462681664
19.00576546697595
-18.38877217253129
23.1142563820618
-23.7312496765092
-6.079275838902221
-12.15649822085212
1.550746561986765
16.68502749774654
0.1502002969180569
-0.08384486940962101
-0.1010038711942533
0.03464844370803954
0.297508762266102
-0.01153217142656093
-0.0335257538922898
-0.4608179804264931
0.5379329190387816
-0.04358918468840636
-0.2500353983995648
-13.09552574334989
13.34526303173329
0.1964442795273618
-0.2215805971185155
-0.1551460684492748
0.1802823860711985
-0.05810809153037137