/*--------------------------------*- C++ -*----------------------------------*\
| =========                 |                                                 |
| \\      /  F ield         | OpenFOAM: The Open Source CFD Toolbox           |
|  \\    /   O peration     | Version:  v1906                                 |
|   \\  /    A nd           | Web:      www.OpenFOAM.com                      |
|    \\/     M anipulation  |                                                 |
\*---------------------------------------------------------------------------*/
FoamFile
{
    version     2.0;
    format      ascii;
    class       volScalarField;
    location    "1";
    object      p;
}
// * * * * * * * * * * * * * * * * * * * * * * * * * * * * * * * * * * * * * //

dimensions      [0 2 -2 0 0 0 0];


internalField   nonuniform List<scalar> 
19631
(
0.1515802248566204
-0.02411366304046072
0.3243956392450755
-0.5393938902371487
-0.03398229599816308
-0.3416595716831962
-0.1230918268836187
0.3370460584466465
-0.0459278191292607
-0.1880430570988262
-0.01655269821012412
-0.08386511598186046
-1.836023893347277
-0.005323349586797839
-0.01514694642572806
0.05229239607504809
-0.8096404615350806
-0.0236460621626936
0.0738721257281337
-0.003805242778088574
-0.05720450618293529
0.04755707867115649
-0.05343153540464429
-0.5619190379957267
-0.07346508589243729
0.003682465396247484
-0.07797170740136146
0.02327850270887714
-0.5205950691635436
-0.10129933997551
-0.06224029711878995
-0.453974635008539
2.259353465981917
-0.04792389779749698
-0.2910402889156129
-0.01719227032161038
-0.1338016130331345
-0.06693445696669736
-0.09100456299104026
-0.1524949999172844
-0.3160035131415775
-0.7682498847989123
-0.2553052491583567
-0.1345397584874161
-0.7035572608005727
-0.611856967841909
-0.448017116051201
-0.2241558872611028
-0.2499217043976376
0.01757510171802741
0.08605742389831751
-0.1018554624677608
0.2319096667877698
-0.172772214757749
-0.004862484769210995
-0.2948032893701256
-0.186830862785804
-0.03820648827958596
-0.09112390909101786
-0.4702801997784908
-1.018020938395085
-0.1742051831244929
-0.9763202987952591
-0.4057658309067051
0.118705138527042
0.3818875591070849
-0.08549113821271401
-0.213627984105153
-0.3723451133911485
0.05033759659206786
-0.4496062779434342
-0.3759307250192154
-0.323519904855861
-0.134446102512778
-0.04098897278064415
-0.4474122738766306
-0.0741723485384975
-0.9953379799185087
-1.08224381788743
-0.0454593785700079
-1.087982920657261
-0.5765075281458552
-0.0780406318540635
0.1173942841304354
-0.4117394784252337
-0.3015681837448478
-0.4435926453959114
-0.1969758703304712
-0.6354997612781259
-0.5086643444737693
-0.4928707443771788
-0.1141544050896418
-0.02646820690363256
-0.5880457247681751
-0.3675804778592095
-0.4005129124112218
-0.2428486599274856
-0.01687237216991102
-0.4791722284827505
-0.2010217486840203
0.00398014379733425
-1.55003385089416
-0.04148988467068423
-1.519059486636026
-0.4622185269552702
-0.382007697944667
-0.0759743301689467
-0.3870548946112374
-0.1843938872440039
-0.07994726854968046
-0.3230433683779425
-0.8291114530915553
-0.1571472923926389
-0.328062317346408
0.5671420097692272
-0.8239250375216846
-0.4261847532408069
-0.1272480716801946
-1.051872075405247
-0.02863345118279723
0.4635396382477799
0.02170087082899173
-0.05065364079890483
-0.2096257606153275
-0.4993940944131869
-0.02294974656819396
-0.1919144307231996
-0.02395999812112999
0.004358128401164544
-0.080711379518624
0.5934158422998362
-0.2907977382615645
0.1596201668605998
0.03593675844579415
-0.08135774389133103
-0.1071549119950183
-0.1198200818144229
-0.06571295466551547
0.04615605492847295
-0.08416087402199852
-0.01114263677910663
1.460649726371576
0.03904576029714941
-0.471910470465603
-0.119766329560261
-0.2639736287879576
-0.1499768090400599
0.009399934490023002
-1.076725064926577
-0.06921628812274175
0.01875904752660852
-0.06870716916653641
-0.0968952334055211
-0.06655556119212223
0.03133831431733079
-0.04155399255374689
-0.4726804450346718
-0.2792415756560932
-0.2292597934585055
-0.05549014346199853
0.06626671556925368
0.02479800394412203
-0.3076853396360952
-0.03847160181014887
-0.07711237564643451
-0.03969126477862451
-0.03864246412551062
-0.01554843665274294
-0.156368962087648
-0.71400693247916
-0.3732806989370684
-0.3514893956214248
-0.4830580237510985
0.2566209012060779
-0.1388699985379078
-0.1529163341880876
-0.01259176536074822
-0.3498666159316778
-0.1909050932577001
-0.08188304614547731
-0.2322746602223277
0.02532405591071485
-0.02234438382417165
-0.05221907040456172
-0.222632088422784
0.08128391267891046
-0.1207663430508329
0.001786845981945652
0.09575331678542139
-0.1737805572243808
-1.908645465940305
-0.3475203328834136
-0.1259258527805637
-0.06109288594145831
-0.7465055873147052
-0.4809313434607123
-0.1380171261005234
-0.4139173116096367
0.4231803067680047
-0.7225351203798428
-1.068814338594713
-0.03605262353311022
-0.6292604136278752
0.01828260521351267
-0.1305889240977745
-0.02329566406944587
-0.08674008043135029
-0.8546186392378587
-0.2314713011069311
-0.1677264895984202
-0.1811162270287373
-0.2168320014632802
-0.1766957801787004
-0.2712202663037242
-0.2266291063914732
-0.2466454351437944
-0.5574253605856698
0.008615498807783749
0.07739938140821634
-0.1164299791652756
0.02994058161144884
-0.02263434938932914
-0.06609363273543513
0.1113071858350985
-0.3353573613263041
-1.252733192357649
-0.2554949589517956
-0.2630324424430375
-0.3105706086876917
-0.6229946850680802
-0.3655364093849973
-0.457132029189261
-0.1340190940845974
-0.5992017602241658
0.2245230476167158
-0.1050890155439352
-0.06610602112099305
-0.3659135910677691
-0.6362540623365323
-0.405043490070596
0.06484866884436512
-0.3348861225750329
0.3276542814708047
0.03338866972025775
-0.760904885782395
-0.7438937721909938
-0.02822395830967889
-0.3605000094407303
-0.6123283512363229
-0.7902926402987978
-0.9115600110614964
-0.5549833095780726
-0.8157858339053222
-0.4852463498497909
-1.054395082596569
-0.2776275275171435
-0.2144398036467388
-0.7000162178869189
-0.01279919760270622
-0.4680503789480904
0.08695579235873965
-0.4678872730515604
-0.2887523135716416
-0.01402286902856805
-0.02758961308131017
0.1776124541810505
0.08934217512092231
-0.9130498328210215
-1.37989275780571
-0.3822557854046486
-0.01182512453431286
-0.2064801917165534
-3.645800438094374
0.08212996859301037
0.1970174268226619
-0.3685302598002208
-0.5055843429954142
-0.9796631250278095
-0.1980999876950367
0.2443908169879095
-1.276845586074669
-0.5164784627585637
-0.2744072639704112
-0.05202385721204157
-0.729002218814522
-0.4518407276445456
0.04226723121585691
-0.4140076497939749
-0.4088882423345449
-0.2350806741338608
-0.2406630584977651
-0.2821463942258508
0.09468386858889014
-0.0530815708182089
0.03952487707109043
0.3808737244000285
-0.5419243337159935
-0.612821540455073
-0.06708123548788132
-0.5861255546912295
-0.3214183659612983
0.5253061011807043
-0.08318412736078447
-0.4977732811077836
-0.865831744803485
-0.09008982084738799
-0.4234861593260314
0.1666949228348677
0.06881236668764558
-0.1044548533020737
0.1327050292544699
-0.07050631613941756
-1.195487713787276
-0.1997334212866468
-0.06608425794194012
0.05772498328401128
0.001174144712885564
-0.008312851849253816
0.1179184384819521
-0.03953455801271485
-0.252750773807168
-1.52633522578565
-0.4172545812927611
-0.02202162247780096
-0.1738717592579856
0.06329918380117701
-0.06805830863680669
-0.6041628164860858
-0.4178774116442041
-0.2430079669383344
0.1991382837232959
-0.1410175651345517
0.01420397497187648
0.1261260210979305
-0.4666561649831131
-0.02417970112170022
-1.015617000252852
-0.5102947769357629
-0.05847786385708301
-0.1933514404456562
-0.06355367637174922
-0.4106781876939804
-0.1345684163940324
-1.127736239956189
0.2417666474024886
-0.2711741414576015
-0.1355875972806483
0.1601499877797061
-0.1701243552796491
-0.170485608533449
-0.2449717555951729
-0.4567444061597526
0.5035737204455172
-0.6607404054606741
-0.3427526581741898
-0.5087560521024448
-0.07677645126141953
-0.4644656286355059
-0.41491177004506
-0.2025492623546777
-0.2388977198787137
-0.963607429168401
0.2161731142881132
0.0903182048561403
0.4443230281568972
-0.1423968001970585
-0.772395095900015
-0.1397613143836307
-0.2094605256000205
-1.103352021177089
-0.0164947184425272
-0.0367214738020741
-0.2750592753278314
0.05127622013304111
-0.1734917492665855
0.06896363011569411
0.2457530733688149
-0.02555195113353309
-0.17902957791087
-0.1237216857706677
-0.7155724649059689
-0.02414223948596222
-0.06051156349538573
-0.1264267388723155
-0.2167815904389516
-0.4873851139036209
0.2175105974350156
0.3896114469415081
0.2884753985602079
-0.8215243585370263
-0.6477119511693447
0.1332996164015437
-1.230416069927977
-0.6115840455432501
-0.2247359046444201
0.1168933955436804
0.04883733780521484
-0.760153354821077
-0.7483538814298046
-0.2855606237884478
-0.585945507405683
-0.6446114045001086
-0.006974232574816216
-1.041313075001539
-0.322991494194877
-1.733294592214535
-0.886976238065184
-0.6216491630135417
-0.6396188165070156
-0.4998534921584764
-1.081606473067872
-0.7328095291840908
0.1380247957530597
-0.5181947272071649
-0.3670724772587951
-0.3330567778359352
-0.911458902541461
-0.1844887045223759
0.08571911619701621
-0.478678568990456
0.05161813019087183
-0.1425631525062813
0.2250857446593148
-2.569254211709938
0.1239487041660176
-0.225278266468202
-0.4115490446929235
-0.2287400994344154
-0.07636054284528751
-0.1308413634615406
0.01933975707601463
-2.279959714523635
-0.4253132951253098
-0.06990871057096762
0.3324386070197066
0.1905348755736613
-0.05070132831140382
-1.485834162214456
-0.2190908551738814
-0.4800963021746084
-0.03952802805031122
-0.001064072476499987
-0.5408520304673105
-0.7975082715400447
-0.003226314675125319
-0.889783458924774
0.01462690950026032
-1.25467896455276
-0.3944385950174209
-0.2228475782054447
-0.1608202835133475
-0.1598952749625418
-0.8479678344856912
-0.9379601682752827
-0.003565057275106236
0.001137742232751784
-0.05824206285553624
-0.4669661540238063
-0.1802231424944236
-0.1588096951947938
-0.01881360026508733
-0.1779777550800528
0.2909709546255846
-0.01467007399552086
-0.03011151585050192
-0.1663598106898379
0.08624919202408768
-0.9310802963421543
0.1691328200143453
0.1728640354410192
-0.8763579411820193
-0.4995932730961369
-0.01253490804419181
0.03382136261921665
-0.0513990488685764
-0.3654687471432023
-0.08359902563528347
-0.2583382517001807
-0.2395164470174197
-0.3161158809828646
-0.7906280243996124
0.09908090671954138
-0.06459211035481266
-0.1856680726130382
-0.5975688963451136
-0.3258849929994936
0.2234942013716899
-0.1335245258943762
0.153984950295689
-0.1682685129499794
0.2301244781137155
-0.2938683095711191
-0.02946448936982533
-0.006382920505557382
-0.3671484214857353
-0.1078432640854783
-0.63708818046162
-0.9030422618757952
-0.7089780792912879
-0.4836206382741896
-0.1932137069298875
-0.128864402141411
-0.8104446415542886
-0.0627009954506938
-0.06751620060181278
-0.09448249935787034
0.459670673866697
-0.006795595786857144
-0.03464497236257905
-0.03646814133352708
-0.6439708597197191
0.0002098358353745378
-0.337374246311407
-0.1099184132112029
-0.05992717891710948
-0.04758397386688267
-0.02577768416308095
-0.01346736617363486
-0.5480250158348285
-0.8149344836099953
-0.8984558627066136
-0.395388384139048
-0.5255314982968816
-0.1015918860303633
0.2275422092887689
-0.2515810381757108
-0.7874906043768902
-0.9686547051513437
0.001195340999845324
-0.04606976508962692
-0.02267685044606215
-0.03073113155024464
-0.06226972819621642
-0.02749511127292033
-0.0289658222722539
-0.02855967618424945
-0.219280561818504
0.109748007003721
-0.1660903373210372
-0.2183001645493977
-0.46476307362902
-0.2334534982050396
-0.3309949894373816
-0.1360700437583108
-0.1321607654762461
-0.1948595854834166
-0.007029058808795997
-1.687997616320366
-0.2058161607611637
-0.1101664624035358
-0.5788597634086132
-0.2200049703117044
-0.7356278211521714
-0.5208780663097777
-0.3342297858495479
-0.0460303109115751
-1.195150283089697
0.2434856318074815
-0.1019090799751215
-0.5963738728391348
-0.2042470671020795
-0.1520379677130277
-0.8151468272640442
-0.3416035095436971
0.296420581017368
0.03157887638164399
-0.5779244310283618
-0.7977182084672346
-0.2799655141020343
-0.1554157063495715
-0.02613852324276563
-0.3948648729630141
-0.205215048558448
-0.5339728328342065
-0.7746183851904526
0.1187487051706504
-0.2601465860351529
-0.02543800111600689
-0.4847353939302844
-0.501627618118987
0.1476934557962857
-0.642944231398662
0.3737791070451668
-0.4338513053705212
-0.4031679036044507
-0.4230391430401129
-0.2490113858417037
0.1213790678940203
-0.2776497157345656
-0.2657068656947147
-0.08543779494530503
-0.1318458317193379
-2.168648195016059
-0.9682445967643646
-0.4619279694261029
-0.1932556548981215
-0.2329196288592891
-0.4322641709633883
-0.3142820908253092
-0.2896245419743798
-1.593818982064528
-0.2065900686517604
-1.415640810260786
-0.4496189173041843
-0.07132867539044781
-0.3460615625968032
-1.488001463034109
-0.2858464912646089
-0.03470668124571478
-0.4413079699298709
-1.324409241890474
-0.2162127331237025
-0.1625402114045864
-0.7793552681661697
-0.3094281541617758
-0.2075135528374414
-0.48238132425796
-0.07045163377015959
-0.9372502589674296
-0.08163660524706759
-0.01794112137294591
-0.2597643207113479
-0.06945745795423004
-0.07114618512894376
-1.490879728817364
-0.02320569448399595
-1.022997218731684
-0.080521545309404
-0.02146192241279556
0.2717882828750789
-0.3427757957704465
-1.258501757742124
0.1799028858434001
-1.713430837742434
-0.3196220096031122
-0.4823216712590854
-1.519380473886482
-0.6043079426057631
-0.1815449775167656
-0.4532320354340115
-0.2419443493969579
-0.8095987854734713
-1.184095969183096
-1.834721153771765
-0.730172631957133
-0.8269339157246646
-0.5191742420344754
-0.3756369707125563
-0.51707455751072
-0.7439927204622118
-0.8657994470222076
-0.5699398737851968
-0.2887988118711123
0.5739560152137786
-0.3866852149480386
-0.3520331725645787
-0.3523967420504129
-0.3598525073778066
-0.3430162174923135
-0.2436076724398084
-0.1929893122950288
0.0379950917032507
-0.6992951932357232
-0.537418200209439
-0.01133458839903282
-0.4368939274778896
-0.5287222872125648
-0.494187663678347
-0.1276473216119314
-0.483437921100089
-0.06644563207609892
-1.357857436579064
0.001606180982065412
0.09099569350717042
-0.1803399363542922
-0.1327126333100656
-0.4933692415655407
-0.3450261005067435
-0.5050511665626668
-0.541373818717701
-1.379356236753647
-0.8673065507168637
-0.8079860462413196
-0.2691357694319366
-0.868555923820879
-0.7648119548225178
-0.1640493139178915
-0.4795499189201326
-0.25473265741208
0.03828527869218732
-0.4714260648959994
-0.3897029690023466
-0.3524071933449408
-0.0519560946706925
-0.1285223890187173
-0.4640729134096787
-0.1785352854155703
-0.06479658017691901
-0.4569228494253836
-0.1999393639489556
-0.7257058248115674
-0.3066881011047347
-0.2823304591187967
-1.120432505554883
-0.557722568532302
-0.4611275750201806
-0.7107375732328666
-0.3890225709414482
-0.5627890445426142
-0.2075320771536458
-0.7049653071785529
0.5415497231289614
-0.9713100847031476
-0.2676658521927917
-0.09240613041385067
-0.6289651415151771
-0.687042850736353
-0.7976509639467724
-0.1899691697052
-0.1354621391076813
-0.6607896805495982
-0.2446321408165457
-0.3872352103950621
-0.7913791827778973
-0.9489102776329198
-1.197684425186826
0.06363850717178721
-0.92908112973989
-0.9130715744474299
-0.1414048737959665
-0.05979568735891709
0.4947243571555335
-0.435558661327281
-0.7788915612168492
-0.402684364976954
-0.2032724778957284
-0.6654632719578957
-0.1273532884551036
-0.3617314203422422
-0.1982027432954398
0.03542085766587539
-0.5688350759041982
-1.37407152984299
-0.2125508402108859
-0.3039777502961715
-0.6969330925751314
-0.2244432663038836
-0.4520400562776435
0.1301859885968954
-0.291439045218145
-0.408322411032979
-0.5425030151449985
-0.5227106236358738
0.09235500430926338
-0.5790645415509463
-0.5999274311059036
-0.3281384143071688
-0.6438930963256104
-0.7455954406941214
-0.2374148500981164
-0.567065362015289
-1.391110222213569
-0.5838742623201139
-0.2671064583596826
0.01885987225839205
-0.3244214422172536
-0.6981203449735142
-0.5394593259798374
-0.420925763452501
-0.1900106814141969
-0.2274917802902432
0.548758547750437
-0.002403369474807396
-0.5593191696578478
0.03843007263709481
-0.05248275625192947
-1.213807316776393
-0.05376740346516719
-0.5756541990469557
-0.01616513543587598
-0.3858897265174963
0.08684879986312453
-1.141995054956645
-2.137516239023981
-0.6445096639741045
-0.0771205454818643
-0.3791026059964393
-1.819867019278472
-0.171843017696007
-0.5398924735924429
-0.207270264051357
-0.1633349943437905
-0.02869294514564411
-0.3551023527817594
-0.0323344613134454
-0.1976589854575781
-0.980261716825007
-0.4656704557850576
-0.1450377690840249
-0.528414294429429
-0.4013236571432995
-0.9599858024376673
-1.00644497279086
-1.554047615850818
-0.7408405185522787
-0.3648804997949407
-0.4193858140501305
-0.4765104427438899
-0.689700092427357
-0.9408732546060811
0.03978264391827441
-0.4374601575118711
-0.06812878272819409
-0.09859356613270459
-0.3264868050057996
-0.08193324542983725
-0.6908374683358686
-0.5445638598009857
-0.4062159494373515
-0.2123828596382062
-0.3957071089296646
-0.6814619403927765
-0.4619722822380481
-0.5561448780340128
-0.2062508199133468
-0.7041810563694677
0.181848125242609
-0.1721191965414601
-1.37564197007159
-0.5352969790884705
-3.268074047886457
-0.3829098127095372
-0.0004544569851453704
-0.2028266960325603
0.1644695155533296
0.04446818426244292
-0.1894023559906078
0.01709291068625287
-0.02637071890191204
-0.007801191652415878
-0.1087303938866859
-0.6141912878671576
-0.6803155049005604
-0.2079040386267799
-0.1803267643593143
0.1201543891105746
-0.3174807309458813
-0.5292548267011744
-0.1254291836709088
-0.1231394830520332
-0.5519648344973409
-0.1226981183670916
0.6421555256749039
-0.5746389067489814
-0.7159593004287386
0.01924491730010255
-0.158068110771845
-0.3448147066782665
-0.2387990940483102
-0.1753752649615757
-1.213448707830196
-0.1700422153977958
-0.2933558846959213
-0.2819660764498284
-0.5093826853853392
-0.2244613620925048
-0.2656505027114082
0.009344073841058304
-0.97106642351206
-0.7437489629928457
-0.5528363754584199
-0.1585359497462514
-1.026135139331151
-0.2374695282684667
-0.4473139200248212
-0.4852540142140399
0.01688675635256372
-0.6155551794157947
-0.3976318560317553
-0.3903318384980219
-0.2350210912535118
-0.4243234509059681
-0.08022148933833816
-0.1987460353502104
0.1502484381065941
-0.05221888906204188
-0.7020595003086267
-0.1344416399847507
0.03640262035595616
-0.4287211758609443
-0.6517249947111392
-0.1885836269046338
-0.1424205588234865
-0.3490980476859408
-0.7287345974824109
-2.898073101986141
-0.8338399204107091
-0.1731153725216464
-0.9732454515644215
-0.4763526622830284
-0.255197707246172
-0.6801673771245872
-0.415279718297727
0.3374577348380611
-0.1520769788125319
-0.518833804734573
-0.4570310256515339
-0.02862535659102336
-0.3139419240126029
-0.4427856346303856
-0.778491951261236
-0.1887981218852928
-0.4000774200749213
-0.6278071323480172
-0.5843688640998915
-0.6769759201917541
-0.2945835326214072
-0.3899444119292174
-0.2211718342858667
-1.197792871671258
-0.3966750911207593
-0.4220103557205729
-0.1638706880011954
-0.5862256642895529
-0.9063494386470297
-0.3535609775033007
-0.2274164139904647
-0.4535500527519504
-0.624041984745856
-1.108582949014165
-0.1221489144405234
-0.3209157026042601
-0.3322061485503223
-1.130197693801789
-0.271069042174975
-0.6318616024536333
-1.045783873984817
-0.1773449651650051
-0.5499752667194434
-0.6036736620784484
-0.6284912157553689
1.484987471053106
-0.03607676239368476
-0.3117855346549013
-0.4208945445169808
-0.3829313381482091
-0.7041161180371835
-0.2439873167902788
-0.5522172976009119
-1.030206303028664
-0.3623204962539457
0.07392055010190832
-0.03286647364168496
-0.1470051699202956
-0.01244295130829605
-0.3258600476979995
-1.095311744315132
-1.058546666844999
-1.882704952339917
-0.4099406708313914
-0.1939752182221746
-0.1653114326435743
-0.4517011227165965
-0.1436379034442338
-0.224051295271322
-0.891555592481392
-0.3659887390354367
-0.2848806189310602
-0.5669005890676201
-0.6641751069729469
-1.642616106967747
-0.4207048447241474
-0.6453892763197391
-0.5931151054624098
-1.742263859626334
0.2505929260092611
-0.4485258645707501
-0.102402337368985
0.3266788089178277
-0.07470964905068211
-0.2369722063566163
-0.07085300035978583
-1.022184315355047
-0.882171436066773
-0.09965417451942303
-0.4527223081146214
-0.1184220175348058
-0.4225376254533618
-0.6101722161410389
-0.2272319532534901
-0.3793043667257702
-0.1990434662467794
-0.1072989073664412
-0.397689077891794
-0.526027449722171
-0.2132171703886702
-0.3583928805011486
0.3542125530718672
-0.2526874826142365
-2.574793225605042
-0.353412607701765
-0.7610396359483862
-0.4495744888451278
0.1232308634856765
-0.3486880134771805
-0.3432219227901924
-0.03738192582713065
-0.1925762721249764
-0.9254758876609066
-0.4712724884728401
-0.05161407953975246
-0.07315331588605779
-0.04196086594049452
-0.1471482739485989
-0.4856517801706825
-0.1826893057720302
-0.04657187029292092
-0.08914108101411161
-0.02294643513376867
-0.4295618744066704
-0.1268139745059755
-0.03080819949459616
0.1531376198832189
-0.9852114644699852
0.01693307471746735
-0.2971322651563295
-1.15095410803658
-0.1307761573287405
-0.3014244081450588
-0.06021225199298964
0.2822496811382507
-0.2767088447599946
-0.08656858479538967
-0.0530060533504946
-0.2755158709996289
-0.06194547910843161
-0.02088232473077979
-0.0850515028713193
-0.7838367500431673
-0.5541354628536915
0.5963747443748013
0.1040143976419814
-0.230343658750357
-0.1538913205061007
-0.08528147849760134
-0.1723030583059725
0.03618730062507822
-0.2390618248977951
-0.9591688842972808
-0.5806839607492474
-1.102172678154602
-0.6328856732548724
-0.8370871478761955
-0.8616693622545375
-0.1368180758120357
-0.2204108666891026
-0.1626724031852947
-0.7695312424306304
-0.4366326244424881
-0.1814563713982811
-0.2558547225107698
0.1501366431258502
-0.2724855242289607
-0.951057664657421
-0.8715673857373312
-0.224359596749797
-0.2463010598817777
-0.05418713730261376
-0.4014507961957042
-0.1912645159662981
-0.7713297880427497
-1.46219069506799
-0.8536457983373607
-0.8244553468793492
-0.1766459893078156
-0.5814688086633144
-0.3590434480020958
-1.250421878031873
-0.376554375521813
0.1029564801184236
-0.9171489335560333
-1.542223841499215
-0.06266509020327465
-0.818904636914731
-0.6956124258465827
-0.4687264580365744
-0.4591134291780252
-0.6575267574349785
1.800647729576384
0.6645849264119061
-0.2190017049123346
-0.01702952487161334
-0.06168263535686142
-0.1515514873847859
0.1945586034593935
-0.03560252921806847
-0.4972345535848389
0.177936652061353
-0.2104610780777728
-0.1171848774768074
-0.7211694833318932
-0.3414634708980744
-0.3095676537586456
-1.340310692011135
-0.3975951152029058
-0.2617518389155797
-0.4086264026152966
-1.110430450525311
-0.3811957377209849
-0.06479845056606207
-0.03158697193184273
-0.1535981022062605
-1.414977758186331
-0.01468718300835248
-0.5024921804981305
-0.07505453880136304
-0.3911532588855097
-0.5962071868724461
-0.06306054977192033
-1.153902307983129
-0.2939826507629512
-0.5941711123185488
0.1814919254549086
-0.1812513843944433
-0.2352848266817358
-1.087724125524534
-0.06036966505078897
-0.04298947621406395
-1.560453892032761
-0.1593998029813715
-0.4530944067692552
-0.3029813608849704
-0.292130325296679
-0.5441060904286024
-0.3640624744232408
-0.1746194412078826
0.04823256500487112
-0.7819843085939528
0.05029711262343187
-0.6598560986997853
-0.4426281807637404
0.452396923991806
-1.168499369141602
-0.6885761393082651
-1.927730830741603
-0.5549002750908714
-0.5914192041181043
-0.3504614149774872
-0.3232280849851087
-0.3277180076104968
0.02631478018874936
-1.046918546209484
0.269022998802611
-0.5693231197207146
-0.01171401935863537
-0.007629669912716602
-0.06990318425163446
0.03229298965458354
-1.876001312565398
-0.01666449874175153
-0.1695336945625782
-1.104731416871748
-0.09927743602182766
-1.459392477174287
0.1168794414481702
-0.9762628048191159
0.1007719668461243
-0.2165388276665915
-0.01816634672222268
-1.583183519627725
0.01791212563554516
-1.053357805999195
0.06087579552639058
-0.2756878572057727
-0.09245227277028022
0.1571536504027478
-0.2640261633959696
-0.1959509601148908
-0.2313954093650432
-0.5777618358423144
-1.914224131356184
-0.6799957672657199
-0.1087693179575261
-0.4502157692293617
-0.5459037821442385
-0.02874632341503586
-0.8562109458277368
-0.6578361207371627
-0.2321251859152242
0.1907638389420523
0.07808045758009205
-1.443611874742272
-1.797246409378457
-1.519841713838547
-0.06458053510003961
-0.1496503228397968
-0.008650740550128471
0.3423342570882879
0.139049927574405
-0.3888114724856334
-0.02140247154474859
-0.4542711911542503
-0.1955131367251098
0.005016449642328484
-0.4951694223023697
0.08438287823045856
-0.8930848142505418
-1.089786227424975
-0.03130381219511544
-0.6078943843846072
-0.2066756409509559
-0.2084149812160311
-0.0785363212328689
-0.09568765308597364
-1.970537471773173
-0.5494427420576418
-1.246907671337986
-0.4788688019392932
-0.1138594998250622
-0.1995946292792585
-1.014689391868767
-0.3680660018322592
-0.1724450899213792
0.1024795015551087
-0.1158533991788364
-0.173284286547302
-0.1694032427917743
0.02156507654755416
-0.3528904742217807
-0.04421168081699952
-0.4931894705041129
0.07774354048993953
-1.653799189643896
0.008801907824545017
-0.2004471924795821
0.06691638073792867
-0.05255480049069317
-0.2244577432410546
-1.012264169543212
-0.1674537328831773
-0.6654068978532963
-0.7093835394040364
-2.379613456937019
-0.8662878267580928
-0.1892025864182253
-0.282036379055459
-0.04285919660992665
-0.007766287413281242
-0.09821292897846379
0.03744100034550857
-0.03463336205905353
-0.7962290337465783
-0.3542945347168567
-0.2593215729415854
-0.2624798165431954
-0.7144408753584324
-1.160624112047655
-1.200503472554365
-2.126949862052785
-0.6571056812707922
-0.2672067304250645
-0.304055706337878
-0.1665671183672985
0.2204140234689795
-0.4468131559527726
-0.4795915599694608
-0.1271893274300695
-0.8371703747522928
-1.277412174227376
-0.1291190231019043
-0.2188612703517056
-0.04547057856318271
-0.05184599234552321
-0.5536362252645537
-0.6261991154050448
0.8181689708247976
-0.7068170033874834
-0.02594207813246406
-0.4439936108288077
-1.580751084875507
-1.027083730673835
2.138197836470132
-0.2481095847861663
-0.469856352710531
-0.17357516235077
0.2266643470976897
-0.3065660114634421
-0.1713910611305369
-0.2052060049270771
-0.1063467620096177
-0.09813232576812692
-1.156526885400314
-0.3385125513359105
-0.5162560295390582
0.06910474029433605
-0.3133058135817786
-1.035585538102126
-0.1552115824707908
-0.4234248734614574
-1.247498701169935
0.1424576342778894
-1.390523233016567
-0.04468978247542134
-0.8603106049618943
-0.3859303433368799
-0.3289688965298068
0.008709888902938641
-0.6736637880656152
-0.08428929435567178
-0.1905648137395359
0.5573044532314881
-0.2287011058541368
0.06488797672213756
0.002073217047901379
-0.3992726704003159
-0.3461313268345882
-0.2930593539000188
-1.730698605329648
-0.2043258346204168
-0.2992033483400003
0.09051823586983157
-0.1317876575203091
0.229826019640004
-0.4815077470533081
0.2570152006812309
-0.1415902414723598
-0.1086041551436522
-0.8244933816231108
-1.473015099477287
-0.03231979363841052
-0.3134772621529824
-0.2675378447365529
-0.1227497385143693
-0.1681322202041686
-0.9348568524597611
0.4325405048104065
0.1226575299956576
0.07226236473193037
-0.1616687574707708
-0.06829368654865968
-0.260983715571109
-0.3421181197711697
-0.3014725254050434
-0.9292167636681339
-0.4741638442069896
0.1322271546513783
0.02466367634610997
-0.765597837982025
-0.4671265230103276
-2.125794637954221
-0.09049322631035223
-0.06175336957815997
-0.1618536299069938
0.1495719065169175
-1.047796152463224
0.3623967834652306
-0.4327341947911387
-0.5737753033193703
-1.446759783373771
-0.7722969895010672
-0.4298968694589729
-0.1259876145178517
0.01582745984458672
-0.02393213682066538
-0.19834098705373
0.2889267098320496
0.05134821095928504
-0.7844827769867778
0.02022598426112237
0.2839165222499374
0.02996812286028106
-0.4556019893630999
-0.9099725465227283
-0.01729395533333556
-0.2968876586283667
-0.114246385083413
-0.6969059058663795
-0.1462402753925248
-0.3974906008714562
0.1440482694387169
-0.0620200154970693
-0.04980848659665708
-0.2151872612590893
-0.02219828519439822
-0.5544567831120599
-0.01443675450883468
-0.1046720499104431
-0.1775702478024581
-0.09850611904009739
-0.01853010992068258
0.1175078149448378
-0.2614305527203249
-0.5232002168806122
-1.601461309420271
0.04440700929789587
-0.04539922164761641
-0.4047684260070358
0.238702654874361
-0.04812414355870268
-1.190176512070615
-0.4185688176593657
-1.465300365767274
-0.2601694060535512
-0.02008443231570606
-0.4426582773122223
-0.04311862441899968
-0.1653678036939874
-0.08683790460644028
-0.03454159222692817
-0.4265809749682967
-0.1650642318119635
-0.4799365340611577
-0.001211727741783723
-0.6175443733402729
-0.6445353516340998
-0.1824071074244097
0.3830659748683105
-0.7541876107336352
-0.4877523344803349
0.05119386353634978
-0.2406150877876224
-0.2805117085822905
-0.2510887079362571
-0.6591512296387865
-0.625711710530808
-0.2799905119643726
-0.1700760207835854
-0.1295037158477714
0.381978001043761
-0.8408639879072155
-1.674581283738757
-0.6216953722159899
-0.233647066088279
-0.974039825679634
-1.307869611988289
-0.3901711658396173
-0.1512402329302596
-0.6411487204432195
-0.1384880104426258
-0.8518817670314841
-1.027706130549721
0.02756071832375703
-0.7169993656651726
0.0469769332235144
-0.1885839901115599
-0.05657034524659958
-1.595949883076608
-0.6684177611745344
-0.6435080061103403
-0.1961697957122968
0.003438908992563243
0.09104301809347308
-0.008094446200183644
-0.3914169750527833
-0.9642552698739235
-0.3631243007881965
1.778954348173906
-0.4115978278744181
-0.2626279052681091
-0.8469325391230446
-0.4584127185093765
-0.6552422034070289
-1.164820679921825
-0.78642325769981