/*--------------------------------*- C++ -*----------------------------------*\
| =========                 |                                                 |
| \\      /  F ield         | OpenFOAM: The Open Source CFD Toolbox           |
|  \\    /   O peration     | Version:  v1906                                 |
|   \\  /    A nd           | Web:      www.OpenFOAM.com                      |
|    \\/     M anipulation  |                                                 |
\*---------------------------------------------------------------------------*/
FoamFile
{
    version     2.0;
    format      ascii;
    class       volVectorField;
    location    "1";
    object      U;
}
// * * * * * * * * * * * * * * * * * * * * * * * * * * * * * * * * * * * * * //

dimensions      [0 1 -1 0 0 0 0];


internalField   nonuniform List<vector> 
19631
(
(5.000827116558935 0.009435057173157509 -0.003245318801158698)
(5.014715677405997 -0.003743023196093689 0.001969517891216389)
(4.953149840442048 -0.06438023859932382 -0.08672187885331656)
(4.054019763235238 0.152072523991864 0.2069535888552482)
(5.005921216079199 -0.001830013565244569 -0.002096314525172624)
(5.087246636479645 -0.08578550488751273 -0.02512670080078255)
(5.031765984957389 -0.00984072740823389 -0.01163534592351329)
(4.913237619204756 -0.06236297491632728 -0.03734381084475722)
(5.003501161502767 0.01388415150616436 -0.001768381110723499)
(5.018712167585671 -0.02459942765827423 0.0246455904389079)
(4.955790953222325 -0.01498253343878803 -0.03852474024731024)
(5.038135956784624 0.004535653745091708 0.02397655319532604)
(2.791617822568844 -0.2319432223322999 -0.1934000135110525)
(5.011849305676396 -0.03410221849616768 -0.02605936818300481)
(5.021486651707653 -0.01560838978206208 -0.006725237363082168)
(5.014391535234842 0.01900007384018467 -0.003818436344040858)
(5.086412700301761 -0.1679635249780758 -0.1351656068166378)
(5.019170640943014 -0.005052343427742648 -0.004823067504519162)
(4.999516182500144 -0.004683627513859795 0.005139328327036169)
(5.019300387782259 0.115337918794939 0.0887274179794663)
(5.003684740804341 -0.002735704435763892 0.003463656359750817)
(5.039276154279087 0.005942019362996853 -0.01975848542202715)
(5.002324989557079 -0.01420236128348006 -0.01407403917249564)
(4.986843732133024 -0.2754522356779142 -0.1645188024889482)
(5.021217072083411 -0.01201623432179585 -0.00932285863205427)
(5.018206905163008 -0.00935969175359334 -0.01048037419093826)
(5.039968565185286 -0.04364830572578567 0.008721877718135694)
(4.799197777451226 -0.0204724070157275 0.04911431637859213)
(4.126404900451194 -0.5932449934988773 0.04999759613453307)
(5.034959130889963 -0.04199325424402004 -0.0227868126456204)
(5.001965948318783 -0.0017851185826741 0.002174684111668476)
(5.053681348012629 -0.1282602832156751 0.109518488458689)
(4.83385742936238 -0.2006857922054056 -0.1628984957272136)
(5.024063350900977 -0.008089258796203657 -0.0147092267875302)
(4.973691728165247 -0.2057415124334018 -0.0721256578093188)
(5.024917693824877 -0.02024894702888704 -0.0002039643192669284)
(5.055386024882174 -0.03338235019557859 0.01568284850057633)
(5.002057432838222 -0.004600849428353329 0.003099576976088487)
(5.054368835383044 -0.08001194911014312 0.1349060145283431)
(5.047576713303344 -0.01654379357727475 -0.09411223203752168)
(4.954240719134683 -0.01256010181419302 0.0881301272232116)
(4.574080853323776 0.1155092077246987 -0.1843894727283932)
(5.069003628409846 -0.04213949441016916 -0.005559176103467995)
(4.231154452821456 0.0331462204490558 -0.05279027383704632)
(4.93729087161778 -0.002056273080053914 0.03574047733927815)
(4.17023360755637 0.1327059760476479 -0.1416853147351399)
(4.834067801063971 -0.1436711044284799 0.04229340625109691)
(4.892752355740749 0.1698245944999196 -0.7141942916298712)
(5.059405461117952 -0.04633247767710425 0.003692243032028628)
(5.023979219775287 0.02177899465275724 0.07600026089421792)
(4.985597287232167 -0.004218292129484338 -0.005545745332675958)
(5.041528912602173 -0.005282616370805222 -0.009597877031706467)
(4.674886833646966 0.1626850870986651 -0.1455290731658325)
(5.056122578460951 -0.0505644897771113 -0.00911326008028523)
(4.965115176408542 -0.0195872811554395 0.04766820126203849)
(5.043763839844527 0.01784595368958136 -0.1437671343555342)
(5.159267154134787 -0.2421880742507778 0.1953536877136119)
(5.030564885652073 -0.005421897831406324 0.01608981182417474)
(5.05590540265085 -0.05168282100072925 -0.06650684768121272)
(4.413102500907476 0.1398700819938063 0.1578545333672231)
(4.618064885438349 -0.42399061962813 0.1710663087442888)
(5.111682004312864 -0.182325113294158 0.2379640820426875)
(4.895338294276136 -0.1783903257459657 -0.09396576324367881)
(5.10831551085742 -0.09859568961861304 0.03231578612139444)
(4.333472255993583 0.328471877858107 -0.763601580651405)
(5.029766994901252 0.01824151275980468 -0.3052318754592334)
(5.033119943896754 -0.02284706192613304 -0.02199327191863239)
(4.990684340695444 -0.002524510972515592 0.01788593688315922)
(4.020787121595578 0.1391668943804669 -0.3077362573660359)
(4.984951739423803 0.0400002689959111 0.02608494343213256)
(4.225222498750364 0.03820704130601963 -0.008699622064525377)
(5.077681754751588 -0.07883702504525464 -0.08313416639756276)
(5.081239391042758 -0.06178399723341684 -0.004135313130459053)
(4.842204807441657 -0.09097932233358574 -0.2526312701685741)
(5.034955666939957 -0.09432939099564316 -0.09160574990739556)
(4.203166835252349 -0.6656827424969423 0.1640859256109103)
(4.998493841114753 -0.02803171230117307 -0.03805530492819752)
(4.745839911215621 -0.1585011993555245 0.07613841102326231)
(3.109713333117077 -0.2289459911442756 0.02361742626279924)
(5.036681231185969 -0.01527746595119196 0.005867880930047669)
(2.606093261189657 -0.2303662699242422 -0.0399477501678609)
(4.973512329907946 -0.1762697496252777 0.2270561750488482)
(4.341991573046624 0.01023403541113822 -0.005272390463450951)
(3.808398434337435 0.4849581613359196 -0.06711195392801494)
(5.076470602077099 -0.02714206159663064 -0.03135414755041097)
(5.084546266508968 -0.08931367277476036 -0.05429211944492619)
(5.096290582188612 -0.1072393367008006 0.004491318271512021)
(4.232164690808329 0.3359191338513086 -0.08949398034922479)
(4.009530120365518 0.08827395283831369 0.4069942099410305)
(4.677332357521215 -0.1515284079656793 0.2834261476508576)
(5.088354622382372 -0.06064652624692462 -0.1224646546191884)
(4.520364714761722 0.07757390704925493 -0.1163748275364029)
(5.095747238563668 -0.1104409284818169 -0.1511853172233922)
(5.105362991653884 -0.07019249472145707 0.1024535812942027)
(5.044994915503046 -0.06098228793820538 -0.1323815410417971)
(5.092769949930442 -0.07884682369660569 -0.06567813521556307)
(3.770616879044697 -0.205401028046829 -0.1814452200594214)
(5.022497200121881 -0.02596755114674004 -0.1608101891821722)
(5.092585371718909 -0.2215295435221618 -0.1317361956591271)
(5.057220242263664 -0.08378125884775309 0.03380095802166867)
(5.013785589980708 -0.029312361482955 -0.005351720088687552)
(3.242072881633187 0.3908019042622748 0.2019152433506836)
(5.022894315854828 -0.015857483077275 0.004199943479079082)
(2.121751597523984 -0.153657110691974 -0.07050234420872054)
(4.85822099280579 -0.1219435955185856 0.2440429179161435)
(5.024747020631734 -0.1541161838256658 -0.1408395815373901)
(5.037253521257302 -0.04066346605720216 -0.001939235401209913)
(4.128841686208744 0.02437993743432782 -0.3510029219504111)
(5.023642821282645 -0.02135091572919315 0.01947731695667773)
(4.957211471041572 0.04507402282108564 0.003231531980452874)
(5.07992545820585 -0.0160413234938757 0.02905945895474146)
(4.322863878279611 -0.06903666786502501 0.2579150051725443)
(5.017623865456163 -0.02523453622558058 0.01443947192913761)
(3.105589061981283 -0.07934099742972853 -0.07874485285395111)
(3.628434170572701 0.1772131857734503 -0.04211324351603325)
(5.077533041836415 -0.1277458455300277 -0.05673594422181574)
(4.938962014059505 -0.03332917292911514 0.04208785822373409)
(5.048108725209118 -0.0642045925316968 -0.06246717761568029)
(3.138482795293971 -0.4772297879919726 0.2933990680108672)
(5.002461084132856 -0.003649168429743503 0.001082181374252336)
(5.017055609101413 -0.1079474207223295 0.1125630191061849)
(5.019096119603192 -0.0487005497304423 -0.03675419675508958)
(5.023638868572787 -0.01743036339137306 -0.004655608637927994)
(4.991541629882075 -0.02143089271592025 -0.01476999678709218)
(5.031230943468016 -0.02741366981702826 -0.04933161385155035)
(5.017724955679744 -0.02461359597845755 -0.01015397109410782)
(4.726902255884325 -0.0301984742394284 0.06493523803775082)
(5.021691691267331 -0.01264044204738839 -0.01434212965551082)
(5.02054259667555 -0.02148144403011713 -0.01046332261607238)
(5.034442839817766 -0.009239516097204832 -0.00734281682973632)
(5.025775836822458 -0.08464207185084882 0.07361685281355221)
(4.655764144870544 -0.05941490375472401 -0.157943466658412)
(3.706245077117815 -0.1634864265044621 0.1673854331991665)
(3.870455647341175 0.4116496108375255 0.1120632256805933)
(5.026075939288216 -0.02440470271878518 -0.01524254646541075)
(5.039114196534772 -0.03896494850437209 0.002383759536055723)
(5.050985778944597 -0.05285670443209922 0.002724702865183134)
(4.835190506998508 0.008110647437050977 0.05233087420174787)
(5.016942300029829 -0.04247072985397386 -0.01457490293887815)
(5.043482706964524 -0.01171372177124202 -0.04557558123607695)
(4.943943206601698 -0.03988788754601092 0.0547521592061395)
(5.127555748396834 0.03606067592183979 -0.09529944036920979)
(5.049089387499293 0.003893811367676275 -0.2461080661098611)
(5.103521973870451 -0.0646999366651107 -0.0678904601227422)
(5.088030249536269 -0.1390891942399437 0.0799837546087671)
(5.063499013813037 -0.02176650445570967 -0.02999487543660467)
(5.042322679877387 -0.01681648660524825 -0.07261265286824242)
(5.012553981981611 -0.01557927143885358 -0.01164658570024251)
(5.107088275485854 0.01820236764116219 -0.2404819965869186)
(4.703259978830499 -0.06693212316302946 0.07297887280910383)
(5.00865333604473 0.002388344033204553 -0.01026318835400483)
(5.04446032190376 -0.02006412118586884 -0.008663809692442594)
(5.036335719014309 -0.008935315141665104 0.01556168588372267)
(5.039672238249689 -0.02545568584411276 -0.003859783203297613)
(5.010209569099192 0.002254030649230083 -0.002904025047996661)
(5.026366017456506 -0.05068269513143391 0.0004375485141946054)
(3.33686984960803 0.0458607854847121 0.8317689934961759)
(5.074055051843674 -0.04084539099418028 -0.01066839484942851)
(5.031081373033549 -0.09390970128303151 -0.04833516491172231)
(5.032106630639773 -0.001711197301457656 -0.01379306767999261)
(5.009199349985972 0.002588105263711724 -0.00439219213195617)
(5.0062201458101 0.03683207250617984 -0.03921799000104037)
(4.733040372141507 -0.0132412777137285 0.05477543814989559)
(5.01500501593233 0.001888008758925752 -0.04741844642471971)
(5.030625511802723 -0.01227184748564338 -0.007667402436088096)
(5.023204771130278 -0.008632385128476536 -0.01028915248797473)
(5.021686997992501 -0.009105852143800882 -0.009974278659368993)
(5.019401236534776 0.0009258675137106365 0.00116892788859421)
(4.988694901426933 -0.0003425703837992655 -0.008662795139029813)
(4.759003638324415 0.03390129693277228 -0.1601314997154829)
(5.099072411520615 -0.02575625228164232 0.00448225166657391)
(4.991290610781011 -0.01106400952212841 -0.0259669450654823)
(5.067004021695412 -0.02875553883506578 -0.02007690160376985)
(5.208612600832616 -0.02481746218631437 -0.06455769418575087)
(5.024583690628251 -0.1048499355604544 -0.07130796882654625)
(4.777136903881733 0.02253429707025712 -0.2743453052566894)
(5.023394187200883 -0.01363052163612554 0.02763034129369617)
(3.6378561327601 -0.06986311497569508 -0.149191892494284)
(5.033340354116213 -0.0350214850841173 -0.004015802442099657)
(4.822118467093954 -0.08605108686508552 -0.06419129361856857)
(5.03193617952155 -0.1901229712837191 0.2918144224389493)
(4.991852720476459 -0.0101491368903532 -0.02466610150613796)
(4.961863397427359 -0.01601774795504752 0.02842732022924487)
(5.052368980807027 -0.00727983790703351 0.01096067202410125)
(3.670400455277479 0.0347376072584898 -0.155695336462925)
(2.749676730386575 -1.686006329765311 0.1323580978692979)
(4.508627637741424 0.1884940037071959 -0.2007602463689588)
(4.999945794666862 0.004196960297869415 0.02401371632469118)
(4.781925571938242 0.04920782048854942 0.3795581799655104)
(5.02707007197893 -0.03094369896766837 0.01945159980076889)
(3.703956195507479 -1.566523517656931 -0.06244954351698994)
(5.069937535819381 -0.06366471267721513 -0.0254363250595686)
(4.991862526751612 -0.073067045211577 -0.1076017068454336)
(5.019414819197466 0.03534850986017429 -0.05054884702221364)
(3.690689100464247 -0.09294502482970252 -0.04509077770722272)
(5.087708793750179 -0.1604925628827389 -0.01509467766815197)
(5.007417002089962 -0.01868352986529696 0.02265649279404718)
(4.965182263264696 -0.06174145132105808 0.116718784478032)
(2.760291401162229 -0.4482498742963423 -0.5772467587330717)
(4.943592563759494 -0.5618597945941243 0.3224065442445931)
(4.67586639116105 -0.05856456163755155 0.3379579618109639)
(4.78093975338423 0.7651087719534158 0.550681236088535)
(2.105611114020397 -0.05442405813109272 0.2576402466932087)
(4.329864957735216 -0.1837100104428919 0.3494448068641898)
(5.009071545179829 -0.03019953616466044 0.01531194992696209)
(5.015775907039415 -0.005244293736529641 -0.0113464101847699)
(4.967314496711466 -0.01687022180483995 -0.006649298839764068)
(3.678984848181124 0.04050103854509467 0.2864849026695965)
(5.005886842342683 -0.0315069710408787 -0.008863139569470014)
(5.040334283249805 -0.03844319023230294 0.1008534553235735)
(5.06218971105807 -0.05736388810773467 0.01992700909508121)
(5.028021997427401 -0.05426800790803477 -0.1229652850094485)
(5.165330062750083 0.1021611841873875 0.1594816145324035)
(5.005063774310817 -0.001072768338799475 -0.004141210966598299)
(5.072714381618083 -0.111205732778268 0.01830287472453086)
(4.193276305192811 -0.05891847109993609 -0.2128795720848277)
(5.038246629726329 -0.1055869308053622 -0.2082083315452186)
(4.971949868106087 -0.3141489810722011 0.009270582595718314)
(5.003908360319482 -0.01238847004953409 -0.01162340110735408)
(4.958715650146873 -0.04937718410164232 0.1832745793575824)
(5.002301290909089 -0.0007036504558259957 -0.01143502803351118)
(4.944589003324298 -0.1544814006291618 0.02532960385493736)
(5.089326527514753 -0.1307556764994605 -0.0836037927796818)
(5.050347896096748 0.1129245886739782 0.1038071098554621)
(4.98786907886681 -0.04576531136849139 -0.06491591553485181)
(3.340977863623975 -0.2558555132680865 -0.03625486968396615)
(5.062778025765522 -0.08894243063627974 0.02615226261342653)
(5.063881655686304 -0.04108521804907603 -0.01899553773556219)
(4.754235265056396 -0.03678794747185064 0.1376605730454807)
(5.006050317211165 -0.1406338857060189 -0.03170388126995291)
(5.056522900577919 -0.01116832477542527 0.1283377308290596)
(4.961619884619988 -0.1739800635560683 0.01810267174164085)
(3.485370845126764 -0.0721370070762592 -0.5776397407877718)
(2.286080937130736 -0.1168958826522905 -0.1744198311306339)
(4.951242159588611 0.001238009677005042 -0.01193579524463307)
(5.070531216038785 -0.1081885047177179 0.1159091117510991)
(5.018681398596423 -0.01105411497159456 0.1688874976178882)
(5.09601270600032 -0.1182237112910784 0.03063328802321419)
(4.524910687432217 -0.328565400333907 -0.4293307878496038)
(5.094409092266726 -0.04524197059916437 0.03707922436108807)
(5.000210173419162 0.00179360002118021 7.405437546358276e-05)
(5.018210598446146 -0.03117213895564633 0.04097707468576658)
(5.004960524308656 -0.01417040882410001 0.0660010460592108)
(5.00729284409143 -0.00299535086614446 -0.0001459542283454831)
(3.323130494473756 -0.1723258959878098 0.6140003400379948)
(3.384090315299828 -0.0396611724458832 0.05321572442310592)
(4.98386263790232 -0.01803077326872682 -0.03245201873295051)
(5.118149567280742 -0.1174515255198299 -0.000894984420889554)
(4.24712574539507 0.02968617263994062 -0.04094379863218613)
(4.856662374172188 0.2815094020493107 0.9141764996841683)
(3.049511066850049 -0.05485757464657604 0.07711826297823347)
(2.809156307363604 0.1316887405385403 -0.03264342130699859)
(5.140159821177408 -0.1476245131763255 0.1281961022906371)
(4.996027588604612 -0.1104699747324711 0.004385937510500943)
(2.026084633633287 -0.02025909943881152 0.02624795892780356)
(4.927387858508693 -0.6200800990277492 0.2466932298834141)
(5.060625825867656 -0.1013099320576545 0.08842607523654096)
(4.309832598926576 0.01350942656940965 -0.1155381140387955)
(5.019376608731733 0.01150182387516899 0.002868406526123063)
(4.35882461688445 -0.04320809519476265 -0.09442516329200309)
(4.527006909051554 0.2094675209182136 -0.1048096514240126)
(5.064921320423117 -0.1138412485541852 -0.2659166042928373)
(5.072122213939284 -0.08582190071203215 0.08396064105738313)
(5.060137137834771 -0.1271201024078056 -0.1460530696786947)
(5.001090613624741 0.01751341569151797 0.003858417852894553)
(4.547074575374966 0.09906331068082072 -0.2186237045342983)
(4.443679809156972 0.06639111057526192 0.226417451315017)
(3.292032901825126 -1.178900697812718 0.3436923131063736)
(3.648477808631718 -0.1409134611473631 -0.0536821110477931)
(5.12750455706274 -0.09630027598058857 0.09410454758672704)
(4.286316678329341 -0.4379811395128692 0.297720442812911)
(5.009431177982039 0.03720182763253753 -0.1590500963771233)
(4.559242261938498 -0.1416372758555651 0.01794248290752304)
(4.974130758225935 -0.03592377417881358 -0.0734800898385522)
(4.992149376180616 -0.0297827644419947 0.0325773386690149)
(5.098951321169681 -0.07906360401680612 0.002073691200779792)
(4.357730342616645 -0.02899399939199509 0.09261901282057382)
(4.012609072069708 -0.2907420214560775 0.6834559158137926)
(5.069453498987825 -0.04704394208449567 0.09997964450068487)
(4.979995607910086 0.1071127087600168 -0.1131761352490214)
(4.519407996332424 -0.06686371437647776 -0.2720072318510865)
(3.484259401587588 -0.136793352868022 0.2011854155059397)
(5.021902668410407 0.04594210951190369 -0.03264544588224215)
(5.058043180859884 0.02484856087113423 0.009799494846995136)
(4.973452029248232 -0.1228779248344968 0.2068549169163492)
(5.073215965165249 -0.1155519015753407 0.01705464513823483)
(5.009535464240686 -0.001377778924817024 -0.01279996332775776)
(5.101589976089988 -0.02572191496547175 -0.005546914717600785)
(4.966534438452738 -0.4948871725747329 0.0212153535600559)
(5.055272181433446 -0.03800560938916199 -0.07959295519506983)
(4.973737452244658 0.04935026337360846 -0.1960693850901675)
(4.556284806859519 -0.1525757549289476 0.3338942564348337)
(4.995880651496631 0.1109235778643149 0.06347687864789141)
(5.032949622711572 -0.01418816975730195 0.004002638500203349)
(5.006619864374164 -0.0003056854356082564 -0.005089922795824793)
(4.801980546149337 0.24663459075775 0.2042358260453074)
(5.001724651321918 -0.206907964890107 0.04511736317579766)
(4.527197823443514 -0.2356508831016703 0.02331996268016468)
(4.87281436465105 0.09056239000788445 0.03838041825296531)
(3.51403791797098 -0.1798436462945875 -0.05461255433396485)
(4.536093320904021 -0.1787688358069662 0.1325490213818593)
(4.91415525756915 0.3655111405812154 0.04828843109916693)
(4.964923413594115 -0.03990904827284643 0.01522897907682592)
(5.062008548732336 -0.0852309987523712 -0.1203405829651888)
(4.719004507478439 -0.08143893974727211 -0.01254021726066689)
(5.03867222598778 -0.03729377188053085 0.0347052698265166)
(2.841724392140454 0.1584725946460591 -0.07357224398927166)
(5.003049327190407 0.00515291874004859 0.005515366612655572)
(4.979165753687258 0.005316122678038594 -0.001847920568107879)
(5.005632402817032 -0.0007020579832442732 -0.06087217193301353)
(4.981643873340489 -0.001909172557514675 -0.01438526565300093)
(3.029589564622935 -0.01734967868630742 0.4033901824700005)
(4.874630721513354 0.1154342659223589 0.3205229344906206)
(5.071266445562576 -0.06076224288983616 0.00799541673149036)
(5.038543316062799 -0.009849888948561083 0.01221419081279677)
(4.972390137191926 -0.04318846368087567 0.08557637498936511)
(4.986134269862104 -0.006112753801949038 -0.00857785867621196)
(4.987681332481197 -0.005048257027868431 -0.003434131787674331)
(4.041587899749464 -0.1164742615807317 -0.299643853808124)
(5.000547656426759 -0.001897120731153635 0.006361984988316999)
(5.026864420291511 -0.1017772656268161 -0.09037044048520786)
(1.655837873937024 -0.2689854439711286 0.01487184867521069)
(5.065218219105446 -0.02105953258537711 -0.1669649220022752)
(4.950364309560703 0.03609167400427658 0.006378573289039127)
(4.267225563670977 0.1422716550158557 -0.2135750644976542)
(4.245904575623979 -0.4642804282562513 0.116922802009882)
(5.017300428199654 -0.09063912844754608 -0.09373841519998431)
(4.543481656025359 0.4104371332232111 0.1324907656687985)
(5.085866658481033 -0.07134798160047826 -0.08816677056834991)
(5.032819364213598 -0.07168837824275812 -0.2096310027079908)
(5.036283043653567 0.07988395189110313 0.185738736972828)
(5.045418603953136 -0.01579083577027439 -0.05316505743170783)
(5.020807477768312 0.02145408037137606 0.1234899668785058)
(5.037183016782703 0.09739355852473842 0.09746505951162568)
(3.993893307330404 -0.08452933344293533 -0.1559919229547733)
(5.016721049667801 0.02362106019376613 0.02355129040078907)
(3.498944926872327 -0.2643013651869761 -0.1100417410061074)
(4.584743973802717 -0.2110168048201133 -0.2460868886931559)
(5.004205717962053 -0.004955848191833666 0.00408061878720389)
(5.072607259705386 -0.05370973584521374 0.01603247114437667)
(5.031403472472904 -0.007438407077091281 0.0360907707687279)
(4.989629505700898 -0.1475443138818867 -0.1904464578372014)
(5.051616684913379 -0.04551548166296325 -0.01385103519706996)
(3.197390322721549 -0.1186628295492782 0.01529130917765199)
(4.598671138937398 -0.09062682357880716 -0.2732253242019537)
(4.024517874471885 0.8591146862137324 0.09867264194623443)
(5.001977640169276 0.0004920535113845489 -0.002182325699045355)
(4.939768995073448 0.1144344649810149 0.284896163487482)
(5.058063938324441 -0.06782367312022913 0.01869419992362347)
(5.045376398232587 0.03404440849470112 -0.08058631429228913)
(5.065829281628547 -0.06395137271743959 -0.03627677360370615)
(5.048184833724082 -0.09357012681730521 0.1016334912602642)
(3.854862715441869 0.2385370270564479 -0.1835437994679564)
(4.426954593825982 -0.2126918532775721 -0.03395025287245028)
(5.071646801711299 -0.04754070452327248 0.03807919703628789)
(4.364017887850244 -0.2743342593640113 -0.04919342564302774)
(5.060522721681799 -0.07894669420741457 0.1103354397072674)
(4.2627696132967 -0.08492772086451056 0.03988422012713781)
(5.251138051185917 -0.5693085282949412 0.1802558246933773)
(4.965625632760867 -0.1122478073070549 -0.1439068184231482)
(5.072349615246357 -0.06577380870072051 -0.01545317776417319)
(3.347124264842595 0.09699790194030561 -0.112060877066176)
(4.991001042880904 0.06741436051799618 -0.1320133992872873)
(5.007462805235769 0.03613946419950054 -0.03003259103717531)
(4.889129921143206 1.346427450359613 -0.4418383369750405)
(5.05295399588519 -0.04749836846876449 0.03294828529147448)
(3.808589826801628 -0.1975709744662052 0.1698270626167347)
(4.943238695942418 0.006642481660998531 0.00826195488097683)
(5.046437897492411 -0.06192042567503885 0.03277846987347192)
(4.930131991701638 -0.1235708720060572 -0.02069277910313833)
(4.999188822470525 -0.00789219964608677 0.003010046683898495)
(5.003680646118873 -0.00104030411768129 0.007415392559003131)
(5.078389641817694 -0.05480279915821915 -0.05270191172386338)
(5.023330667676165 0.02713396377353713 0.09089011964578045)
(5.123828839353283 0.02454046428455619 0.003945325165188512)
(5.001413703503437 0.008092983399261797 -0.005550781362797629)
(4.973035975665586 -0.01507961115952606 -0.04634536237416349)
(5.027612727373934 -0.003676205212590591 0.008245217237903073)
(5.071246962903921 -0.04544598497003422 -0.02050534584384025)
(5.013630930808593 -0.007449025519581345 0.02063979408841096)
(3.600410126803041 0.06216149033544233 0.01344393312911826)
(5.02196291004774 -0.007919084784822629 0.002388014202422148)
(4.997012084197363 -0.0006892175184581593 0.01274807906231301)
(5.010412564185976 -0.006839144680102023 0.002275765062772662)
(4.682184660215323 0.0233153948660749 0.04506569165496641)
(5.153216571875455 -0.2094213528608264 0.09123733556787554)
(4.994540819649726 0.01319089466868917 -0.008954508311973027)
(4.993377880955475 0.02787164859986273 -0.002672869644812476)
(4.996320522438713 -0.02604817956081424 0.001285769099950241)
(4.792310520448908 -0.06000824384834089 -0.07390820378584838)
(5.005905768153895 -0.1487291826323716 0.0643960616294969)
(5.003546512774968 0.005876138717547903 -0.003141259443923083)
(2.691977444209222 0.118735070027645 -0.2436204907298587)
(2.973200678480339 -0.3239562496397955 -0.1797610657119579)
(5.167717320651005 -0.157159552794663 0.03261551996641224)
(5.004821727958994 0.004350178358036764 -0.003432482448894782)
(5.009125565066482 -0.001041125704898627 -0.004338533974710556)
(4.835518765791011 0.008906910680168962 0.1023949339755481)
(5.043722556603128 -0.08092059404045386 -0.1444253597916736)
(5.074145470112361 -0.1079779770796078 0.144657378138337)
(2.213404924097082 0.095004647696861 -0.1860924294121733)
(5.056295704449305 -0.157934751877866 -0.2030942370052579)
(5.03985590125744 -0.08156409296137955 0.02774118442997028)
(2.926851420803106 -0.1908734508906193 -0.154625767299526)
(3.876819557614616 0.009060400322328839 -0.3281909359661193)
(2.288959420001014 -0.1188636587784966 -0.2071056887974377)
(4.691817483338977 -0.3129746376367456 0.4458467463991303)
(5.000429941994577 -0.4957910624005437 0.008825049315980018)
(2.999752099474325 -0.08862225509940626 -0.1067133230828759)
(5.035829166606245 -0.1379074413376276 -0.05232718025439742)
(2.081466546002113 0.3152231476254458 0.03575912849906396)
(4.679794677096659 -0.3190695737755092 0.4976144699092784)
(4.998265780444656 0.1201378947595426 -0.04265863589338405)
(5.1204272961994 -0.1186080645581249 0.008923029105941997)
(5.088452920891129 -0.05120552990368672 -0.0331483544511426)
(5.083207017491874 -0.1353909657616613 0.07389221109657954)
(4.560987762941561 -0.2019749490261528 -0.1723754167649001)
(5.059286490774827 -0.02670688826876865 0.13181429773219)
(3.651268969926532 -0.1681794358303429 -0.6882471466407966)
(4.471007426362497 -0.5028661127550319 0.03730124975193412)
(5.011928767214989 0.03286262818069481 -0.03695713739766771)
(5.014371789384337 -0.02228177784896511 0.01970954390526155)
(4.969161372345596 0.5662687271344528 -0.3563491086413682)
(4.62290953024617 -0.07697351082897343 0.5412849618521468)
(5.065826703620492 0.1824188904740785 0.1061471949725556)
(5.062149222105043 -0.02418586647582729 -0.0149339217937692)
(5.036366055575241 -0.116403392554973 0.07056159305868527)
(5.038087083421935 -0.08118949881577116 -0.09200887937578611)
(5.035508105149467 0.00309110472893559 -0.03345789329793514)
(5.039475601533185 -0.03688460295242819 0.01237119913639923)
(4.964371224698295 -0.01731010425076482 0.06834166212878576)
(3.382046055204818 -0.05892236312431932 0.2340910449260262)
(4.467079699409585 -0.06593875125199267 -0.1745996452426723)
(5.013611560384684 -0.02228365877767373 -0.02814704271077551)
(4.958638094450346 -0.1588623682583336 -0.1599266159239875)
(2.23568906874233 0.5824690444310567 -0.572158007475547)
(5.001081983855471 0.001262328409065656 0.004355617270205734)
(3.09806911783049 0.6051229431451399 0.3514919669056406)
(4.249374990093142 0.2845489289755153 0.02767000783306373)
(3.788522594572583 0.05624518361478199 0.2417042676426155)
(4.999148021613183 -0.002708544396210995 0.005920144649638269)
(5.052279812552126 -0.1456388512775506 -0.2458158336577012)
(4.661533133342092 0.1914394652423454 -0.6002931272104507)
(4.711172030645043 0.005244024983640446 0.06202680470817905)
(4.999380567841409 -0.0005038795119015331 0.002248937616418811)
(3.798830672643584 0.479786339945584 0.1865460092836126)
(5.003140306142511 -0.00472799807815449 0.0002756666075761668)
(3.243249557533339 -0.2476734503939577 -0.4996046082443393)
(2.885542716672848 0.4135967478951524 0.08040795659604037)
(5.041949867495264 -0.01772411269409354 0.007612359411867305)
(5.154147466418075 -0.2718054120270144 0.06996161877514645)
(5.065668536584558 -0.1345540586926329 -0.1211596112012186)
(2.860185996223465 -0.1208709386860096 -0.07481965524143705)
(3.49575223291306 -0.08521453980528393 0.03426829545777453)
(5.002521197665192 -0.0003638245148679092 0.002182698556139779)
(5.002600002135386 -0.0007257775300143199 0.003096246692917132)
(4.996881061322172 -0.02708465356945584 0.03864098105630117)
(5.10888363402339 -0.1307606472858073 -0.04617264955477848)
(5.10772030453209 -0.09926579847466958 0.01330804141052374)
(4.997228325325025 -0.004032165664380711 0.02890966084649376)
(4.92038550591975 -0.0128907258548522 0.05736327298059711)
(5.009204431886015 0.02904111550076324 0.03758548083798433)
(4.918583285911886 -0.02117346210456029 -0.0475939522821105)
(4.989330735523389 -0.02334488780949918 -0.03405261730000699)
(4.939727004336328 0.2384944167395498 -0.1432648428609676)
(5.05798526616939 -0.04598902258094906 -0.02249961369394786)
(4.877016257745744 -0.08008392692364071 -0.1450890139954281)
(4.684732610386205 -0.1563183322215843 -0.08462042896582847)
(4.97151371180365 0.01292871762501354 -0.005230926490963063)
(4.27625342623918 0.1390790372159385 0.02345845327158317)
(3.761868001508281 0.06229148044813709 0.284722787608262)
(5.107643992877531 -0.1361237527338697 -0.09344788669849743)
(4.983690820440182 -0.01709144761964514 0.01726629899320712)
(5.011303214739952 -0.00380588704331573 -0.001395062888556313)
(3.21136912604525 0.1431792971792558 -0.1414427438784464)
(5.092541960640921 -0.05757296031224961 -0.04122225393221572)
(4.971583564318724 -0.01449196899633801 -0.04164466621685411)
(4.190545238606444 -0.08637412419622768 0.1826044748355263)
(4.200495912007846 -0.1006412432249018 0.06059397978910738)
(4.814496826951952 -0.001804122364348311 0.07571454274119502)