/*--------------------------------*- C++ -*----------------------------------*\
| =========                 |                                                 |
| \\      /  F ield         | OpenFOAM: The Open Source CFD Toolbox           |
|  \\    /   O peration     | Version:  v1906                                 |
|   \\  /    A nd           | Web:      www.OpenFOAM.com                      |
|    \\/     M anipulation  |                                                 |
\*---------------------------------------------------------------------------*/
FoamFile
{
    version     2.0;
    format      ascii;
    class       volScalarField;
    location    "0.3";
    object      p;
}
// * * * * * * * * * * * * * * * * * * * * * * * * * * * * * * * * * * * * * //

dimensions      [0 2 -2 0 0 0 0];


internalField   nonuniform List<scalar> 
19632
(
-0.01249690085128157
0.01692936214446437
-0.002694921049892129
0.007376879717343808
0.009166729511603043
0.03850824620869729
0.04007869426169257
0.000133946945073524
-0.00232070241321293
-0.01252680720327799
0.01333307691392254
0.03888670638835527
-0.006949334184114607
0.00963069907658364
0.02621404644178343
0.02036872941868478
0.02614217329742913
0.02586488109152885
0.00536846998321277
0.09714344142030672
-0.003526153012429446
0.03159901772190103
-0.02174115519276005
0.02360146993525002
0.005843736059191805
-0.001657299290934457
-0.005181894251534957
0.0318698821760505
0.01059729653557579
0.01023816304682622
-0.002340358374613024
0.03007695255267059
0.02080803771391644
0.02977220812345472
0.008683357125379614
0.02375730476348757
0.03038299451884289
0.01027081450841673
0.005442224591258735
0.009355696522937633
0.04789753140244656
0.007473394752696428
0.03334604143119352
0.03657629974549277
0.009860844398315605
0.05223043499071379
0.03085288643285948
0.05520645053766671
0.07272094179728732
-0.001002657248083092
0.03946934835141847
0.0009365854058659828
0.02257418746450732
0.03098341429210062
0.05559205448125699
0.07393240645321365
-0.01129513267590555
0.004428992125390777
0.05524053841857886
0.008053198007430947
0.01298217242897006
0.00209458083413559
0.006853636258915607
0.01674773871125315
0.04769071002874285
0.008066877084991604
0.05202341420743395
0.01020530203070852
0.001669506249521075
0.04602682333676197
0.01165062830170401
0.07008556388923103
0.07767467655019376
0.001862992851764229
-0.004483610799961723
0.01659625670847222
0.01318525689397241
0.0887213935608601
0.0550852109262348
0.04989822698847304
0.059333693226928
0.04159168631843453
0.03302794232213735
0.03922582850725024
0.07555671872878268
0.07967119595859883
0.01744369423019247
0.011852206263641
0.08531363463573963
0.03662083742016365
0.00510894731064342
0.008855530904259149
-0.011710198258557
0.007443238542977265
-0.002250654627900495
0.005053178177362143
0.01866431123218254
0.0095454581593731
0.03238434824931151
0.006713879501497097
0.004487465364481742
0.02720735846605112
0.01835558649913919
0.01770711223622448
0.1219382939730929
0.009976919786903
0.01187073538870844
-0.004074827219805622
0.07538909648828322
0.01174371701296405
0.04468527317857613
-0.02078169847252146
0.04623554585569318
-0.01629863546909828
-0.0268678155901228
0.01626971605831724
-0.01407912965385829
-0.01438121254446358
0.04491743738139015
0.01348300819803715
0.05378455074410887
0.007315109362673529
0.01035358054117153
-0.0250800519601827
-0.0306448316148129
0.03396708586626071
0.01707066693711894
0.0005571282325106337
0.002274420945939844
0.06379066215591714
0.07008152635442406
0.003555791199351187
0.03296740606383643
0.002416941361170615
-0.002711042540754907
0.0225521211415959
-0.02610165473289771
0.008025519399998533
-0.005492628530699535
0.02105107232072708
0.02387058495615478
0.0246903445410105
-0.001026328098888568
-0.1158037509794583
0.009896621136741083
0.0163499371029758
0.0008594272764428881
0.02895204003714186
0.02529296343593876
0.03670140937010869
0.01015295113900146
0.09094687875007586
0.03978719061153343
0.002993435292363629
-0.0620633053922597
-0.01162370811355102
0.0170147369023642
-0.003971531978288488
0.02991099638064353
0.002232147437393788
-0.02428505571548649
0.02854561967633727
0.03324663440095294
0.03819899673436856
0.03455327513513774
0.05094910288796797
0.005066088039501162
0.04042431510131441
-0.004302142098789264
0.04315818103185463
0.03462421049105217
0.03995297794725803
0.04535535108964876
0.01041442631841567
0.04558865117911202
0.04215305732753986
0.04102074641791324
0.006890788320270661
0.02373421982796927
0.0305252379638319
-0.0005709619087040777
-0.002051116283162241
0.008259184713770911
0.0567809292041782
0.004053628140104727
-0.001187583944470045
-0.002944177544971509
0.002058129943821911
0.06583914026808028
-0.002103600354356941
0.1094874010159944
0.01495614909872733
0.004920113543828282
0.001862611060606006
0.01569817608535105
0.01437056643907171
-0.001214039437826824
0.008184710211707696
0.006221193626024281
-0.002829766395136852
0.006265394498036392
0.01343020360403705
-0.005769714764818728
0.01188506821858513
-0.002644071493508837
0.009696443474939719
0.1413925005607446
0.01456436901473492
0.025339539914855
0.004276012334743646
0.03934705796552439
0.01354174422459275
0.00148866073348447
0.01063268063167775
0.02313353916861664
0.01033825762989408
0.0425988401504666
0.01148799068605149
0.01468416967477814
0.02160515925177416
0.008940245975079459
-0.003243682220568991
0.0144456184303076
0.008082091599097552
0.008239561003102929
0.0050791946944146
-0.02048225411634049
0.006895206531475229
-0.02806053795505515
0.05775917125550785
0.02798421861739568
-0.0130914226473078
-0.00385687408024107
0.01300898462665094
0.002113071279468232
0.007728850855735449
0.0002106164521349038
0.01014207758171277
0.009417429756111729
0.0004048953980508465
-0.01726055901744573
-0.0001943795766647654
0.1252848380904461
0.02031286603255202
0.006526772145612791
-0.002163882610534923
0.02299403747621075
0.02024047048461189
0.01474820115675699
0.01023422392896684
-0.0002645372635448251
0.01319746474665923
0.01827931939258606
0.01829444135708017
-0.002417587732126674
0.01686555242735834
0.01808203868111722
0.01139384346758568
0.03340119561825673
0.02061407835244874
0.01244742726531425
0.03066139654868443
-0.00841524175429112
7.161587347233706e-05
0.02460508150502419
0.01292182636974078
0.000266185527066394
0.002420872258134941
-0.005480898266126229
-0.01855414528517057
0.003940323691177455
0.06970168419672845
-0.003151248481177832
-0.01568083737194949
0.0007005541019133395
-0.005989479033140688
-0.001705417937444282
-0.004708756981232598
-0.001004383112961025
0.01191338834075586
0.01431041015470879
0.0228397221269503
-0.004027668105236403
0.006536852664295059
0.001112208082141937
0.0009058968796774902
0.04375670629632401
-0.002377429402952413
0.006649237408791486
0.002577564851371241
-0.0008579112889568947
0.008697773913059105
0.01959167944696184
0.002152011532249677
0.00923454663491299
0.0290183733959825
0.009278991896117975
0.03553598174245993
0.003001715969737562
-0.00106597523856629
0.01882546580111114
0.007988278485198608
0.007393661515180473
-0.002028384164447302
0.01944593108548862
0.02752663222584929
-0.002311717672269339
-0.01582191699163335
0.04013364101950893
0.01985184789891796
-0.00863029142526635
0.02976150087104337
0.0194301503467967
0.008509361277221879
0.006953795062399321
-0.005132395705622899
0.002390421269435626
-0.03244012099345701
0.09303910837153762
-0.0112125240103751
-0.01368215555712397
-0.01224927962163986
-0.01618628287520929
-0.01786279208386113
0.06969574899744402
0.06743155247883452
0.0734137170402563
0.005237141140688415
0.005001383465924616
0.01615467475203202
0.005070817758828435
-0.005338768569677845
0.06870519928166954
0.05890873712699633
0.008013490678856136
0.06669185056661105
0.01294015953554458
0.03224369579064966
0.01067312120879598
0.03319894234051051
0.06276803097899922
0.008302921199659192
0.03239856108699695
0.04232716941827422
0.06449031510146039
0.05046726400941806
0.0004161011388795956
0.04023718777773935
0.00277136126495462
0.001011780202819402
0.0007666088205079424
0.02910015588816676
0.006731547119801826
0.01197522078316317
0.06528146876681705
0.008823016327860497
0.004264140127270278
0.02474054469810796
0.08238974128356731
0.0219071736169803
0.002958168471105748
0.009166512238571761
0.03580340732236477
0.04607140047289588
0.03329350311163893
0.004423014586544591
0.01099228618827079
0.02671022896804305
0.0114478845560205
0.02456557188865017
0.01556955420972204
0.00829177104000412
0.01737720490369941
0.01452175179906533
0.004696877469730192
0.02816945768373454
0.008282389862527002
0.02324728728178556
0.02125642252512565
0.006863477153027716
0.01920645517254178
0.01213906128622633
0.05688581171520887
0.02652367229136681
-0.001259647942674926
0.0005182156213488076
0.001440866969167744
0.09545628040413351
0.06671001290571037
0.02288561556991992
0.01367344965885754
0.05548017121449651
0.01492632150916113
0.008301462999242216
0.05568048295322692
-0.002237786025928326
0.03249260559242801
0.05620241674752679
0.06099408111779823
0.06709126578891443
0.05994109138987826
0.008315535635343848
0.01164758510749434
0.00402866903678949
0.0250736150867748
0.008823394698200333
0.086507631032086
0.01040227132900106
0.07977132469274063
0.02948053093592701
0.01926175867657134
0.01660524044223029
0.007783961519723464
0.01327100377596681
0.01131051138277436
0.009954680184214431
0.006787021546510429
0.01338772435186156
0.05206572841060202
0.04444975746758409
0.02673984803084867
0.005345805000716285
0.004318296195592048
0.005392610777238012
-0.02211686520417988
0.00435680096186108
0.04634921705078231
0.01043494155894658
0.005491276163029474
0.03953142163249352
0.09263367401377874
0.00643339752763657
0.03648131331309563
0.07745663224663277
-0.0471745792516565
0.02254814801586257
0.02481266445429629
0.04348780234615013
-0.02168258096970966
0.008088006934430776
-0.001596627995115898
-0.003796680378705052
0.007983306955581875
0.009567699595123436
0.01068161706097476
-0.02743463307445723
0.008128041718715485
0.03225366833447693
0.01017040702110635
0.004838027209257423
0.007612802224889333
0.01089274607333404
-0.004867335507432373
0.002330601278615694
0.007360995806326509
0.0120250831804772
0.03077371124249518
0.01465750842896016
0.00501100817402167
0.01113736934977677
0.07507708955937821
0.03431302156723469
-0.005189080895088653
0.03528628413043815
0.05284492750841891
0.01088524718929337
0.008647387366556097
-0.004092807530122353
0.0172155883043764
0.02174528278212301
0.0372769836126364
0.029882301494999
0.01834659086681375
0.01101105580324744
0.04957067448129938
0.05559175403599124
0.05231377274475026
0.02172732120434004
0.008264088768219149
0.02288573901298696
0.02958690239879743
0.01974760937087998
0.01908941872027101
0.009041494601865154
0.0254728915043437
0.00758245650937089
-0.004048926518764774
0.00342262182385945
0.00446091822419311
-0.0008650362512174062
0.01401104568241185
0.02514774840994387
0.007647573963485123
0.0103253115924839
-0.0005951122817139106
0.005628874930599174
0.001687890162019609
-0.003803071725988316
-0.00570794436517914
0.00868954880944353
0.09369877998718204
0.005419640815232689
0.0234384860113963
0.02092490437691056
0.01085017899835047
-0.04112681104402415
0.01391980355349969
0.02105949859358556
-0.005551760464377537
0.01869217248205417
0.01973212460776881
0.02247696862818465
0.01040338812229852
0.00929466257529055
0.005981407207767285
0.09082737677178565
0.01752196869216541
0.02330118697753594
0.01961990198362953
-0.0041134703681571
0.002608222861891956
-0.005873865644341608
-0.003096475397873312
-0.001583631209456323
-0.0009852339035425638
-0.003320119160170709
-0.007742780097148391
-0.1187478770530012
0.03847323379793308
0.005883548915523545
0.02029821263593686
0.04476432510546709
0.04478699514144269
0.0423317326210715
-0.04931744268043026
0.006363189528396456
0.01817597383840088
0.01739071718395649
0.02744229467737472
0.01715284476306195
0.03179322956525693
0.05516342711148263
0.07261306785349948
-0.004889228998940674
0.02456583791367134
0.03516693784695768
0.03145938137944505
0.05975152853125247
0.05927436990283204
0.0309890955497472
0.04095079721317915
0.0313759542503903
0.03184120729298068
0.06334465124680173
0.02986524612798476
0.02668673311129291
0.008017236156574908
0.03135333155413061
0.02949088950837879
0.03233012659148345
0.02872104918602737
-0.003004870476367975
0.008435382751247233
0.01726258103239539
0.01268809991011413
0.03347995580790245
0.006337862496432572
0.007367572441247749
0.007179237679221837
0.007758648070465579
0.009574440494937463
0.02505815859548812
0.007168266339927723
0.008666053826521128
-0.01020020461449187
0.02671939273246206
-0.004460985381546218
-0.002661737807827276
-0.00374074130037304
-0.008763590623237815
0.01957377109120666
-0.07208185528388943
-0.001128019718057178
-0.002867796455736585
0.01312714851515305
0.02992295469438713
-0.01283437722232088
-0.005040661449320123
0.008026016658886409
0.008075024131681267
-0.005904500985890617
0.007868002286138136
-0.005669032860794951
-0.006172717242160077
0.005020524409427633
-0.02164010867200887
0.007343826627659889
0.07648104502831082
0.0055394970013153
0.005362624887508944
0.003820561518267966
0.002427494626168615
0.003015434615500034
0.00420152144202821
0.03060402080641044
0.005067304116820547
0.002856033173852471
0.06976927990234348
0.02327900887796101
0.004756287028293207
0.01590635260138177
0.00476607086975852
0.0520460437351366
0.01404795165961866
0.0256059714454454
0.08761307669510929
0.02260916660048529
-0.05311180905820036
0.01456126926442381
-0.02277737271548047
0.02675448147215689
-0.001480518869958735
-0.002566718144513229
-0.003048097615016013
-0.001203139230353637
0.03634833598584956
0.000978910481558059
-0.05880988658192656
-0.005911850261366937
0.01039831762552819
0.01006266276620754
0.01264159543428082
0.01351782985427047
-0.004974780772281502
-0.0006115442253542973
-0.001702602479271274
-0.01143129676489327
0.007288264525013081
0.08759854735815409
0.07791242737692483
-0.002109578758345945
-0.005843053961813041
-0.08819954793490052
-0.00669438614927689
0.0248743720168137
-0.005536095492012431
-0.0050739749980207
-0.005904981609536859
-0.006201468221526591
-0.007003542951255892
-0.003541032892976426
0.01093477580505452
0.01154002649913225
0.03437096962325174
0.02056713314332188
0.009646560821008817
0.01122622362838606
-0.001179368185646026
0.01082785266458373
0.0113097770418
0.01083963295706635
0.01025894625513728
0.0103763185040273
0.01048542954184505
0.002004866132376684
-0.003664978491087438
0.01146007826456205
-0.00322383193560062
0.05227155971250236
-0.007882801352898938
-0.006139859856982685
-0.006237581541669555
-0.009114063471265584
0.01304350132721477
-0.00775589449061807
0.01261792136624617
0.01329247401923889
0.01360938404883744
0.05087032557786624
-0.002938061180270095
0.008083045585445885
0.01244667021785641
0.01200196574030922
-0.03391235059164565
0.01505835771708396
0.008105905423337934
0.01831041723253429
0.04473325844486847
0.01779627106814108
0.01296086524663421
0.01439262529396286
0.001074035182834488
0.01166130890701465
-0.004260999878012628
0.01348171340107306
0.006535027534450655
0.001241365169111364
-0.01154305184694096
0.006660300358799364
0.005799889381077619
0.001881370576419983
0.06084043227107817
0.04225860929911488
0.007925784130250052
0.004491088378763696
0.006833226423751382
0.006771433373058662
-0.03908415310633628
0.0548613195582571
0.02436488071963585
0.02697644754233689
0.04295151747043914
0.00536409339729678
0.008434359886371133
0.009152645867872233
0.01009178221859525
0.02560558636208119
0.008046351711610212
0.05284766750596438
0.01383785445004273
0.07303283675491364
0.0134942869434418
0.0008228196850572618
-0.09385996058652148
0.01255043779002906
0.03382556307367113
-0.0002714744595271232
-0.004435475159575094
0.01281034117387696
0.04943708177978211
-0.001230944535892327
-0.006378447741439536
-0.00384808135319168
0.02529754270117681
-0.004944182703503033
0.002566964421005602
-0.003765617823589099
0.04005723076659558
0.02973327065714634
0.01421365299054772
0.07343575224567467
-0.02145611025373166
0.008816649884968648
0.002835959615497198
0.001689029665306992
-0.002403398102515854
0.04001993923394887
0.01729093328231118
0.006739475296679764
0.01407113197575286
0.01110867690613494
0.01599274774451865
0.004655542165366957
-0.01677984078765628
-5.81873437602045e-05
0.0006218281268482508
0.01182654627425609
-0.005587796247080777
0.0002747917918045489
0.07865964168698859
0.0112078496943164
0.0131454977322198
-0.0006257320968851743
0.02856506834639193
0.01145166741936803
0.0127015245045567
0.0632788191024477
0.01092601019506381
-0.0068875632041932
-0.008083505367448861
0.07669780808089323
0.03722171170226966
-0.001399909704690771
-0.001622792447568746
-0.00234153730219814
0.03945422728769658
0.01010312420778986
0.008920269819709978
0.009648068101060127
0.009621434046406366
-0.0121334809333418
0.006771402225085353
0.00678994247807931
-0.07042252591516851
0.1412979388386245
0.1066103314466489
0.09870677196922283
-0.004183830229472509
0.1007904575037845
0.1124222573472429
0.005993919698411737
0.1036499983604712
0.00659838335183234
0.1147991703245079
0.04329187159820158
0.01757425402198414
0.01741051299223747
0.05108399885607896
0.05373212957033031
0.0128795025424359
0.08008343815104518
0.03094297153274347
0.07353006732161639
0.0400048098124748
0.04371998825737632
0.005531306131508443
0.01065456246966574
0.04697173617346812
0.04736198659668491
0.04605969058341545
0.02681282697601004
0.04407324316655636
0.03417969393206572
0.00541282520847285
-0.04545152807402537
0.006199797395775742
-0.1032340830599908
0.03961133119298359
0.05007705512458523
0.03689245544623158
0.0366960194701843
0.008986516111260433
0.07984081351042983
0.07579794446433805
0.09007955421998029
-0.005484074022137961
-0.03998728541235323
0.005436332316752413
-0.03384865114524342
0.07748111988859158
0.04579979036803319
0.005411826963049979
0.0310947361175634
0.06781332716669096
-0.005041543611890808
0.005983257077697541
-0.0518187185164625
0.007966946472459671
0.01037876108936173
0.04615126979443087
0.01087238633716828
0.09303720142442679
-0.06398326917464491
0.0002880888350989549
-0.0005635003290880438
0.0002014477296792402
0.0001595484045524751
0.001582615515230484
0.001008876734049556
0.09108496221897527
0.01203377661607039
0.01006181389060333
0.01276680888619174
0.01189230557208795
0.01242571883219888
0.05011785261021245
0.02420949615102986
0.01413430182686784
0.01510025433852629
0.04963117938891869
0.03763333404815255
0.07234136851376055
0.04975448946446727
0.08392104670770524
0.05622585254133271
0.03226878877978168
-0.04183177916002265
-0.009103963801918795
0.005687389587319825
0.03209954459701841
0.009810295383326865
0.02744337810306405
0.07336589904269736
0.07563123163728162
0.07910591666105855
0.07391416918498363
0.005366709664650987
0.02400839789469939
0.01860652251569505
0.02094890966145638
0.01951578973044744
0.01643286075247729
0.001243014364867607
0.003203390912093188
0.04604298035536176
-0.1172387950200289
0.01928782547666583
0.03031885473921058
0.01168442419421847
0.03674297949861913
-0.009212122541278267
0.01236056505286543
0.05885407373932733
0.02460506798828669
0.01422428590413611
0.009446029474417472
0.007164995238634192
0.008439697503950372
0.008432177157346531
0.007501025285431885
0.007147386188218917
0.007517242702314968
0.007945086178975748
-0.03924521525901976
-0.004690396282175785
-0.006190281137953567
0.0461214954268236
0.0511795025697634
0.1091890160843838
0.02633853977844406
0.04023468327009288
0.0006899335385979197
-0.06533868747620193
-0.004709848800493426
0.006848528325845975
0.01136821850220211
-0.0006402860314500371
-0.0002178239054480443
-0.01922237581278071
0.001231430237777294
0.0005894255533194864
0.0007786697406416938
-0.02391974436130621
0.0001190568503675882
-0.04158340487522363
0.004071869728105381
0.006125369195071168
0.07471247557062694
0.009887909037484436
0.01826839923191475
0.03919810049232518
0.01020289919958041
0.008370958869534876
0.01141471233226522
0.01057435107855323
0.01019894448702514
0.01050873890704862
0.01277658185112732
0.009967370206796233
0.009913945228232629
0.007805249651584358
0.01210576327899821
-0.002304551252002224
0.0127418003776696
0.0307896258227789
0.03204833432931221
0.008880165349671398
-0.02308441584953518
0.003577023877100705
0.008988736179821656
0.0307931616058263
0.01601437206729613
0.03823132271936271
0.008798186711615918
0.010472693307396
0.010232321418948
0.00824215662538846
-0.07823445237468026
0.008388646917473909
0.008517955992518833
0.008236492388921565
0.008347672544836524
0.007935860264428201
0.09182501868989751
0.00695668642239975
-0.01109107188350741
-0.0685629686709391
0.005614589481167121
0.003487011901859944
0.008702649045594002
-0.03527755057835445
0.00878158944112099
0.004520837786547425
0.004548753072133371
0.05414170404472304
0.05349141659106416
-0.07632148407376342
0.05497305363964538
0.009131016785152995
0.04475273530540644
0.009890123553322127
0.04602952609904427
-0.02371582897619246
0.04503202875537458
0.03107685576657483
0.02533468992240525
-0.001303418472323145
0.0316302210294567
0.04838899183312326
-0.01149776791180386
0.05765737759926115
0.004384770156611551
0.007746526838373654
0.004961981421284164
0.008098579188942552
0.003878823311076932
-0.0360233193068446
0.004592505269552996
0.005717705334574007
0.02009652852991797
0.03147500005223958
0.008524570353488636
0.04190575058266384
0.04569104043601226
0.04186770705987001
0.00705819863270221
0.03942691705861492
0.009029471098558143
0.03649266762357397
0.006683418516028692
-0.01190025640116864
-0.01184714147842049
-0.00863696041996974
0.007086496316758524
0.001117850513698168
-0.04993379862217973
0.03599709787724825
0.003326458136199337
0.09271856755899555
-0.02812567563149985
-0.0149742493268626
-0.09188714849095478
-0.002560073650180283
0.02191103536001568
-0.0734751888912126
-0.001445524649918696
0.04403514549436933
-0.03326966846858686
-0.03391234816268687
0.0233975869518859
-8.687593352050104e-05
-0.003024362894356689
0.009877733977129984
0.006381374176861874
-0.01366408852214965
-0.01157317394453608
-0.01098901451829684
-0.01759577398600249
0.05726435209404657
-0.02476985146884669
-0.02155455527794191
-0.0963318510913035
-0.004535829497347532
-0.001016031416839168
0.008617602164019878
0.008057077559335003
0.005948987244446036
-0.01698470552941331
0.005158944055325573
-0.002540249545423515
-0.008101875415892209
-0.006300672359778205
-0.008914344218585757
-0.007117518385327803
-0.01128659368749985
-0.004937629320669662
-0.008382772053395677
-0.04118453846696211
0.01966118593725216
0.03453870969916964
0.0281740813881627
-0.01000217110503243
0.01681072188205594
0.01937961711755042
0.006585145653462203
0.01146846864923705
0.05196910205602468
0.009378309390955134
-0.05173173454006021
0.04907449131700999
0.01022062279031672
0.00978776754794433
0.00978978040256271
0.02139703021676946
0.01763080631844343
0.01035612952035378
-0.01422784629687739
-0.009822290797596984
-0.01388088315684828
0.01001154406544708
0.04518527403955749
0.03088182852083299
0.03084309963515438
0.02827728387548067
0.02939245030305598
-0.0114324732400531
0.02816601168702139
0.01307224175830491
0.004166005998555894
0.003337354781819487
0.004903721837417473
-0.001551725476176583
0.0002531278828863016
-0.003279039031975352
-0.00147684776439042
0.005420639901213572
0.005640381012276255
0.007394453832728852
-0.002912483329482588
0.00615448516097317
-0.02352208944500222
0.002992345964647459
0.01280288514476693
0.005110196398348883
-0.003851577591395768
-0.004755977140683693
0.003678078837263505
0.006335871585454405
0.004299161134444444
0.01350497536502784
0.01263357627050322
0.01454241134054987
-0.02296896373208219
0.01714174934497818
0.01326345307510145
0.0141720172398977
0.01465272069395439
0.03059927294732262
0.03410497453376092
0.03205920027039496
-0.001837538022471833
-0.002776975292482407
-0.001921118204858771
-0.005171334784241299
-0.004070233144738689
-0.004996841008192472
-0.001821061475930662
0.04550788392792105
-0.003374655294940266
-0.00935560512188777
-0.006383256314231645
-0.003866952003591428
-0.003764102711275133
-0.004430669541673736
-0.001673722689359359
-0.003245500133888667
-0.004688733913889489
-0.003205616410624851
0.007029286517275532
-0.003449389771521497
0.03827184030045084
-0.002353426445944969
0.001189244872223788
0.006810938978734579
0.006915731493640984
0.04102324008575991
0.01567421525223511
0.006123587941324328
-0.006546797036967925
0.006558100861844652
0.03675075902594262
0.08103673749333103
0.01400970338063008
0.06257051713298727
0.02840668697564362
0.0123239695142877
0.03428477071495187
0.07529724058254723
0.07367132980439549
0.08221075750534737
0.07962262385789895
0.06835759108978286
0.01301382550833153
0.06047068186637048
0.06914988128128827
-0.008716758009765478
-0.004018181829966717
-0.003366914382347373
-0.005677954747542786
-0.005817492523372636
0.001185117352677613
-0.0003480345105941998
-0.004866828226052076
0.006857294868906107
0.0001584313112446886
0.0339497326750915
0.008857592513521232
0.03025195549248817
0.005028050589082201
0.007225392566741552
0.006986999839301754
-0.001650902259275049
0.009916575998125992
0.006963317779958032
0.004751599368214077
0.01196647378796454
0.009603081473466699
0.006065104494356237
0.003334655070954609
-0.1328961568224718
0.05825451814660799
0.05124946546709615
0.005932254727278301
0.01391166831094923
-0.01194840644374798
0.001731501053179942
-0.002264484340465359
0.001232546923292773
-0.001986376826085807
-0.0001337273621482651
-0.002259832217229582
-0.003160040556720275
-0.002995445775252039
-0.002218330995079707
0.001678916929069817
0.000668052779691991
-8.868706513445832e-05
-0.01279902542966294
-0.002578125805546873
-0.001848590353031717
0.03412046893957716
0.0386193700361184
0.04094943005043023
0.03611066430085272
0.03443277880674936
-0.003882252032887611
0.0321345814753428
0.03128470153472429
0.01038870283437041
0.01256680098343205
0.01978422203675984
0.02536931231126749
0.0242241002556033
0.02965878645907563
-0.01951058176486671
0.0330946621660254
0.03207201717989749
0.03283190993750983
0.03314213199457242
0.03363811889170789
0.05854609591882236
0.05593433231908742
0.05857668312508621
-0.01503461268459882
-0.01588432989208959
-0.01894792341588583
0.02085444568910134
-0.009620267572217961
-0.002148982277810057
0.006431952530707208
0.004308204509985827
-0.01307543514228083
-0.006814050664780048
-0.008437770202629251
-0.008358413242352329
-0.0008398892423836188
-0.02925714990481785
0.01530591945399398
0.01868016505249789
0.01440369051037886
0.0138602797929854
0.01131891037709474
0.01682459066158048
0.003233350020938785
-0.001185731795461928
0.006851302179770616
0.009587457657907679
0.04655448538848508
-0.01099972020563053
0.008766135853439163
-0.02746604512173753
-0.01218601332070926
-0.003792921276802675
0.02260395161819965
-0.001551041567061229
0.001001660744698971
-0.009597473411035722
0.01627828067974901
0.02337160090012556
0.004508557485234124
-0.000744365789238256
0.02380806029113617
0.002504014776068885
-0.003074245999210213
-0.00388080861607224
-0.002406205660465187
0.01498548620857996
0.0175016777456181
0.01843911014724821
0.01667795958705947
0.01755715130329204
0.01874840040306612
0.02546306392581932
0.02461498888371679
0.02217414427774772
0.02288341485181409
0.02455608501554743
0.02488735709180708
0.01502449542503193
0.01540282310959514
0.01501906502145105
0.01454622545080438
0.01283854656471426
0.01854520798731856
0.01909982306108169
0.01304301661037148
0.01211574385252242
-0.09440487049353073
0.01755040256299915
0.01722015931141999
0.01815327289841099
0.008707068188884755
0.006923151364831558
0.009661643314841069
0.03437343387504568
0.03108096836994476
0.03080499822244585
0.004647201255341367
0.02631527243637307
0.04578706719889124
0.04653362998301111
0.05256706057724082
0.01655063400010357
0.01817336758669369
0.01645447455352437
0.01935155897091527
0.02375386575132884
0.01944670875330464
-0.0009039629418296596
0.005278996768712256
0.007121323822247121
0.01102913278440663
-0.00812082747606699
-0.007863310897444048
-0.007983738166805424
0.002591784741016127
-0.008555286289123186
-0.05143279294470025
0.03823382276912636
0.01869877522534423
0.02057269340537073
0.02102875778797286
0.02031257605801357
0.01876010671846516
0.02090025079588929
-0.08453280955362508
8.500417187282271e-05
-0.002601450164802001
0.004117912163024447
0.001068242563255203
0.001709779359488924
-0.01200586647053999
0.002766761570635531
0.003748152408992184
-0.1480501645921653
0.01008296852172209
0.01210099711351197
0.006633883887932501
0.01139066747266013
0.01504356352491442
0.01363516015183501
0.01483633935886281
-0.001185550922760733
0.0005867135909316954
-0.000839025536671318
-6.795309757729588e-05
-0.00207601905536786
0.002653053948473779
-0.000497991218005418
0.001184801029278536
0.009225861467870192
-0.0005394832901392707
-0.005927259708419822
-0.01138175203160025
-0.01121219315228821
-0.006898171957871432
-0.06252432081358367
0.02878218140199994
0.02271093586611847
-0.004983986883853269
-0.05388711434623108
-0.004572983146182124
-0.005242124604806932
-0.0006543354629267898
0.0001132385780882965
-0.001529689099580073
0.0004227358984219737
-0.006111610717171479
0.05073981160290774
0.01097457221626323
0.009837821359803217
0.007501787590041138
0.005806294414066692
0.004430626055921345
-0.0003954809537404231
-0.001852562709680595
-0.002387360965669966
-0.00104742746578178
-0.0004250389220286142
0.002616610292089184
0.000430424532339622
-0.007572765603239408
-0.01089340039872614
-0.007477941480241448
0.008364347273840991
0.009770438372635821
0.009689194403186373
0.01225706173038652
0.008974335200167058
0.009434031923336392
-0.0005849878684548506
-0.00144908213520021
0.001276896176492872
0.001571513073307724
-0.03526878479567883
0.001426793171600906
0.00428825834409365
0.003087118030721334
-0.004795378714168207
0.002060367729351305
-0.0009495190927019253
-0.003552147430131844
-0.006672654488238374
-0.007747658118027661