/*--------------------------------*- C++ -*----------------------------------*\
| =========                 |                                                 |
| \\      /  F ield         | OpenFOAM: The Open Source CFD Toolbox           |
|  \\    /   O peration     | Version:  v1906                                 |
|   \\  /    A nd           | Web:      www.OpenFOAM.com                      |
|    \\/     M anipulation  |                                                 |
\*---------------------------------------------------------------------------*/
FoamFile
{
    version     2.0;
    format      ascii;
    class       surfaceScalarField;
    location    "0.5";
    object      phi;
}
// * * * * * * * * * * * * * * * * * * * * * * * * * * * * * * * * * * * * * //

dimensions      [0 3 -1 0 0 0 0];
oriented        oriented;


internalField   nonuniform List<scalar> 
37377
(
0.01600092540741029
-0.8050863327253145
-1.449537328451571
2.238622735772949
20.6188326934414
-4.648335725524425
-15.97021900837411
-16.55988420372122
8.219675497184335
-13.28937879325502
21.62958749979114
0.2268364497542531
-0.01023934061576651
-0.03771244597356643
-0.178884663169457
-13.9131844470039
-12.08008874317799
25.99368680757492
-15.08322435587112
-30.34700340726883
29.13143465088494
16.29879311225612
-8.943026984699577
-24.35499593421429
21.22604127195042
12.07198164697519
22.75519992987264
-22.15959706646977
0.5021051958278488
-1.097708059227661
-11.26728073402543
-5.807632995058761
17.07576865758873
0.163366325112276
-0.4813522259540793
0.3784669497883667
-0.06048104896396467
-0.6970000058742236
0.5607564215692235
-0.6331538003031266
0.7693973845938051
26.58316100890108
-24.12361862044602
9.189605848570721
-11.64914823700778
1.512525809601968
-14.62413374241774
-14.3099978476792
27.42160578050149
-10.10268385842623
3.661691267386377
-11.81593364864007
18.25692623968967
-1.429816602758885
-0.6482246796431376
2.209687180526478
-4.877240580186951
-9.486423003173426
-3.427956979540417
-17.13996660764595
14.55126429870136
-25.46240105900178
28.05110336795216
-14.87565785862926
29.44569976827983
-14.56905639583607
5.336240362546427
-18.77943931457406
-5.077947294529971
18.52114624656024
-19.6023602338822
18.71647119640799
0.8861371022546203
-0.8217266448014098
0.3072531358234148
1.124050981770825
-0.609577472808038
-0.2379622339946738
0.162722311767635
0.2089399859817163
-0.1337000637598567
-14.02962247768557
17.8539209097854
-2.56532382474173
-1.258974607332164
-21.67242884890074
-14.97654974631549
17.04661836133435
-4.708316644268908
15.79275877027428
-23.88693395878771
12.80249183278314
14.84922047170902
-11.62228200022327
-0.3792401745168965
-2.847698296968447
-17.09402724734574
-9.020884611694633
14.70046902195077
11.41444283709084
-0.02954404263193587
0.01841825839073427
9.728294387221457
-20.24785721151797
-8.1887714984861
-8.442933963664673
32.55759288036026
-27.41429181680448
3.299632900111496
39.66466366762707
-16.63463457324777
0.7796017089554056
-23.80963080333317
23.52463329292009
-16.29628171788671
4.254910352493014
-11.48326192752235
0.1590205362718458
-0.2618368891783169
-0.4837811879118935
0.5865975408037964
-0.1203815636306635
0.1028699480717676
0.01130823642611029
0.006203379129085922
-10.20517245380172
3.514226029247605
-11.99006963080045
18.68101605540492
-30.53969099379379
25.67179186594534
1.531686187929887
3.336212939923585
16.60554471673257
-19.01142222095106
-17.95790396052261
20.36378146474119
-26.56125678580135
-1.125798860117544
4.119760131479514
23.56729551443996
-3.482685519252446
4.908736178336742
18.21426397218148
-19.64031463126453
-0.9389592862424848
-1.51949534746103
1.350184648191929
1.108269985510741
-11.21694786601828
2.014313673368689
24.94846926124807
-15.7458350685985
14.27110674719041
7.285249128537509
-5.886394972477469
-15.66996090321972
7.322071020432233
19.9789395474045
-43.18884678495785
15.88783621712192
2.862506302777867
-19.3312929296615
-3.917174753016174
-12.72029963243405
-10.77402722369313
-15.57499475554026
39.06932161166743
-18.93578498172561
28.59395312548915
-5.703089312611636
-3.955078831150117
27.31978835148071
-27.16875243780264
-3.799883825535222
3.648847911858569
-21.59012802275043
-16.49537803536502
10.12416624020002
27.961339817913
18.59767012404001
14.1423171548149
2.997776371649342
-35.73776365050276
-20.22164767478094
-6.322742063247786
28.07501757912102
-1.530627841066929
11.48323187429554
-20.38544618427682
9.051739400532261
-0.1495250905514427
14.56463219206472
-17.48410124259815
2.919939357500925
-23.26519917784512
11.40154495837871
10.94365797529565
0.9199962441710102
21.60558797345006
5.186822843036883
-2.037144926833673
-24.75526588966157
31.03865223602481
-9.160208260361447
-0.9272267111383945
-20.95121726451842
-2.969093072095674
17.53420114765906
11.3425926134718
6.697225382404961
-18.90885082808872
0.8690328322451548
-17.50525870284124
-3.566343387789327
21.07187917426172
10.31999694941707
-4.162495127011068
6.500680168996365
-12.65818199140068
-0.486889319793857
0.08222377831376131
-0.8948470392177478
1.299512580678664
-14.69451060266664
-2.093963381963416
16.78882484524674
36.66777812302036
-9.098320548013447
-16.74839482623102
-10.8210627487746
0.02818582681854245
-0.09824347813564993
-0.05032391231589256
0.05141350578353804
0.120674675130511
-0.06921823284555242
29.21710075395582
-20.03582898086548
18.46529095917863
-27.64656273227207
0.1318815874830071
-0.1206959254657562
0.0001225744056243195
0.2162707073389624
-0.09105515140994029
0.0375067558363413
-19.972680960389
0.002340593426916603
19.97052071634807
-23.79343128851289
23.96330426136054
5.815465572591649
-5.98533854544205
-1.561666571061525
26.57923600800071
-10.69728289148297
-14.32028654541554
2.287826335074993
-2.215237858657208
-3.679796954372447
3.607208477934361
-0.1429721138339729
-17.2849007638643
2.527509979281267
14.90036289841093
5.841697848307191
-27.41379243038483
-2.277749360050821
23.8498439421291
0.02265706576943769
-19.99520659816299
35.21615335637978
-9.092231778464978
-46.46704645445222
20.3431248765394
-7.244553903299551
-4.340573170781568
32.36278600343085
-20.7776589293497
-23.05736562276697
14.84808580419039
6.14046838547749
2.068811433098092
-14.46048261657781
1.073474274295554
-5.758213550340628
-18.49111011765179
-8.564481851104587
13.80803987784299
13.24755209093442
0.8080270747102586
-0.5476478745855627
0.2054240779582785
-0.4658032780872624
-9.613977994542596
-20.24273039622749
9.225066583627521
0.07090372471222911
-0.1158647069926496
0.02903937476096349
0.01592160751465774
5.395402718412726
23.76470312510591
-7.650075916714251
0.0510744204223418
-28.53191389253372
25.78974680809891
2.69109266401841
2.399286041079257
-0.3933345956533009
12.56941479810784
-14.57536624353358
24.20870046310127
-0.2580267872113332
-5.279973272274039
-18.67070040360674
-15.8767574619326
-0.1655171573932713
-5.630154229573807
16.45260471069436
-18.38782115103676
-24.62604034545855
11.78383653364336
1.860344902961481
-15.06758722978906
1.423405793200098
-25.42132713054054
-0.5508618453732533
0.6521020420377724
25.32008693387672
0.8940373110224196
-0.9491473218060923
-0.3233452527336395
0.3784552635089966
-13.11567544812679
0.2210379155279727
12.8948789996259
-18.24995012651571
17.07956077658682
-17.07632912597891
18.24671847594064
-1.725472917495606
0.243190849995379
1.456372546014223
0.02590952148825777
-6.397088809718991
22.850124549729
12.99980643759956
-24.85763166065984
25.29404380393362
-13.43621858091543
15.69661916700797
-19.43677541145723
11.03919752838153
-7.29904128393107
27.80281744656819
-13.26413007803298
3.666976871064711
-18.2056642395804
17.65420834266051
21.89984813181771
-22.27367946955709
-17.28037700491906
16.75416414030597
0.9002869837471729
0.1504924403521488
-0.0009196404673828505
-0.08748356930793802
-0.06208923058177736
1.843784156245959
14.08652132123342
-10.871895255013
-5.058410222466019
2.797749905412771
1.385450794571667
-1.425617053886836
-2.757583646130068
-11.65684029810849
-5.961216411742561
-2.598281849849562
20.21633855970289
0.0070354190290535
-0.124304477561844
0.03380362930579811
0.08346542922312858
0.3483064203253275
0.07149587809236428
-0.4148461659287829
-0.004956132493872912
0.004590592108616947
0.553457595258261
-0.5774344192741804
0.01938623190149818
-0.7651239223806052
0.6931701467025716
-0.6004988686869699
0.6724526443418241
-26.03347278977616
14.37617244229967
28.41146448778434
-13.88240175106122
-3.601284601684588
-0.02542331015020187
0.1534549919378823
-0.1290566240663119
0.001024942275060179
24.20883625687646
-23.65339599158861
-3.524533337383115
7.999761076133431
-13.58286408974879
23.76719800173418
-18.18409498806621
0.0206048405232847
-0.04150942356616685
0.2371752903786788
4.272811253110338
-21.77774844446566
-0.3069795540228371
-0.2444161595341434
0.4077824362980084
0.1436132772490297
0.01168973550130224
0.1716053577632246
0.08426648645153181
-0.1283575855637593
0.05065710101394553
-0.006566001907413677
-17.7904784103341
17.28588251392634
4.547326811962462
-4.042730915557918
-15.79046495606652
23.34313288078526
-3.566577207294021
-19.77634476710839
4.775663509670936
-19.93157735465014
1.992777700205139
13.16313614470326
-27.28574407965443
-0.7017934444475964
31.60255631712831
-3.615018793022428
-6.580446701933456
-23.89687330931871
23.80559503962958
6.671724971625778
0.1072613082027379
-0.08310586094439061
0.004162062683545424
-0.02831750994718964
0.5065407863083075
-0.7272355378993216
-0.007197895724933084
0.2278926473020705
14.92331508126942
-0.1698942855099831
7.203771419304895
-21.95719221506354
-0.4491656110960661
1.084453658761903
-9.374109943598262
8.738821895942593
-9.638472517550385
-16.7806152830559
19.6156043906021
6.803483410009525
15.56303301066296
0.1037770629024241
-15.5507243759764
-0.1160856975886447
19.76769853969757
-24.19596678642568
-8.450212103018689
12.87848034974598
13.16446571416711
18.19162602341333
-7.823698396043707
-23.53239334153623
-0.214000313806982
-0.5430525377765835
0.3536784663651873
0.4033743852143066
-7.314747287504833
11.12060926000211
11.60172958617868
0.5229047873687012
22.0486559301277
-16.01331317477806
-6.558247542719305
-0.09945354835842247
1.430446486681921
-1.324187521254306
2.415103647112188
6.053236998751096
-9.718233319776582
1.249892673899275
-24.93346213934859
14.36274549772801
32.17630461505304
19.06924629914499
-8.14959436049223
4.003663142617174
-6.797737925732467
-1.402194425269996
9.519865914429337
-1.319933563456116
0.1240048954441697
-0.129801592081547
0.005796696634427161
0.0843882100214145
-0.1440052307313546
0.0807211284353283
-0.02110410772872858
0.09717138338927302
0.09755930569601717
-0.1380307885051611
-0.0566999005831464
-0.0778865773778195
0.1176955285086955
-0.01162312431512195
0.1356946309445529
2.905306532006263
30.42830094602224
-25.16941605799609
-8.164191420033093
-5.748444086271594
2.591474303690748
-19.39429349134554
17.11451546327832
-10.07243996636388
-8.324140292544278
1.282064795632347
-1.753906691738349
1.883765139792187
4.444059277829374
-4.573917725936226
16.01463536897768
14.20167023016877
-17.08702537560724
-13.1292802235381
23.88744872754281
-8.361403449299118
-1.224325202272677
-14.30172007595562
14.39913040401711
9.378487615069691
0.1098307084689106
-14.87325870330226
3.035536004245991
-4.510692505453949
16.34841520452806
-16.93573428996264
20.5878996474557
-16.37246498992685
1.809910567282921
-10.5212616657182
-9.383198648475592
15.47336466182641
-18.28419025023788
12.19402423689788
2.774270271904658
23.12007254593235
1.169449504774763
-20.46503067573985
-2.428094795026135
22.89342838416951
-16.94239893450008
-13.58750469349314
5.855522354001099
24.67438127402136
0.009336890444026424
-0.1102198351751052
-0.0198129807368057
-0.1455083394326364
0.0003410102805572962
0.1657721696727509
-0.1376704576809427
0.07655032826851754
-0.07320455960993541
0.02637071226562489
-0.243918545018573
0.01519293592628613
-14.49357561234247
21.84470314963347
2.988210875449842
-10.33933841273179
10.48691151204551
9.268893433148525
-8.605331117262921
-11.15047382793093
-12.72518564379731
15.2977521858212
-19.07161148579539
16.49904494377211
22.33410294205535
-22.35178495062654
-0.2608963457150827
0.2785783542921467
-0.1408374535218482
-0.005521785802052444
-27.0943608395461
16.41925925955287
1.940329076766319
8.734772503245859
2.337890275315958
-26.29609188720081
3.140781883167581
20.81741972871752
6.158868876475383
-0.9933356080407252
0.3465383999802955
-5.512071668458253
13.83546336019644
18.07016649173989
-17.32974868098883
-14.57588117094733
35.42103009048081
-13.28692043601287
3.237899118917431
-25.3720087733823
2.394848148758947
19.63800787172027
3.504031172281997
-25.53688719275806
-15.14890311917605
-2.79009896257213
-1.944886524972326
5.729723774399499
-3.107932532893874
24.14750946978324
0.5046700548385912
2.396513545631493
0.2293201757198935
-3.130503776231876
-20.69989303049578
23.996483716681
2.43313308821502
-0.9902619851138443
-20.04087849731466
-0.1393442348687952
21.1704847172967
2.425094075185319
-13.0674051896344
6.667554509708384
3.974756604741675
-28.48658334692476
28.52667775756919
-1.030356395759357
2.504224215359783
-30.35762351715831
7.812520804483457
-16.61940531984397
1.09539525853663
15.52427648146516
-2.324568852159131
-19.28174902798197
21.6065735955168
8.102498194216768
-7.836074209159242
22.03927684574577
-22.30570083080134
6.127499092779497
-12.12031874494563
-17.20240044448914
-11.5680118052639
12.07960752662388
-5.426792023356221
4.915196301997015
15.57930480288487
25.16642078951054
-44.83822013877191
4.092494546379661
-21.6297008182204
22.70218179475799
-29.5590643234644
-5.539764109639972
5.515430500505366
32.48281403958974
-32.45848043045162
-0.7089474026579751
-1.12925941372007
0.02188751886729618
1.816319297500886
0.3785294608658269
0.5836914787621081
-0.7173425775946731
-11.81404032304653
-11.07745054680518
22.8929558716996
-2.733248461869709
8.185129793117595
6.683203323878792
-17.07282234124159
10.62615303995236
28.4167083977169
-21.9700390964333
0.5683965062575106
6.667564727235872
-7.685126844551966
-0.2635888588216121
-0.1654647455294693
0.1964322305414346
0.2326213738005318
15.23013736014905
-8.465059578663679
-14.80316801164554
8.038090230163188
18.83647108075739
-26.93565892627254
-19.17794270760455
27.27713055312983
-4.196056425633073
18.68112961737632
-14.48469054450428
-1.88753908801995
1.669440965115838
-1.295840158110829
1.513938280997717
0.4988241409860603
-20.2610941199458
1.311727933692935
18.45054204526862
-3.989625443111838
-20.29195789062886
24.05183391813384
0.2297494156056424
8.223452153082585
13.8401281765132
-10.05566079064769
-12.00791953894793
-22.87218293198706
11.05942621122994
6.781626673977611
-21.17956010921479
14.22803914972757
1.698746514373966
21.99657313897766
2.468483747123076
-26.16380340047262
13.05478079605031
-33.60757503908084
18.08766069739128
2.465133545640117
-34.72973874689615
-2.037096165956837
22.58391698587352
14.18291792697524
13.45349542139437
-12.66892700382805
5.299899432263813
-6.084467849874393
23.7417266659821
-20.5417040877445
-7.213585382642687
4.013562804409863
30.25949355939203
3.414943834934955
-8.734108594579492
-24.9403287997455
-35.14023128699314
24.90232516073543
18.43546952632191
-8.197563400089319
-16.17823576195203
24.54541647898357
-8.366580731150464
20.7697764499568
5.94673027699468
-19.51273530764633
1.166493195623657
-7.144747650874628
-4.779208131499175
10.75746258667661
14.72901807743741
3.196569167294439
-15.5230737298863
-2.402513514844651
26.10462664790504
-3.606563636490097
-29.07544171287104
6.577378701457053
-28.80616014561562
20.08372562121601
3.842116041552285
4.880318482859898
-3.22805898217569
-20.36459470591922
3.205955997249192
12.52030684716558
-8.383377638571218
9.745832768247777
-13.88276197683952
-12.19742547264786
12.15571134827283
1.545791919384147
-1.504077795004951
21.44820601371127
-4.274876016226397
-18.39270314814653
1.219373150662597
-0.5373708149206502
-2.60538367735284
-16.30730289935368
15.07834465397562
4.732378284966516
1.3468780663666
-21.15760100530792
-17.55070177244855
11.35448701250253
6.666616186960682
-0.4704014270148717
15.1160892610221
-21.10280963421741
-10.66531955273742
16.65203992593977
29.36558946217454
-8.924411683351199
1.361662958620709
-21.80284073741869
-22.11839753302572
-15.08663496359349
10.77584989848909
26.42918259813792
20.25034394876776
-5.434120529889975
0.2621212350982837
7.584241165614932
16.4282714158968
-30.27850706120415
5.928807661473297
13.87223052443383
10.47746887529783
-11.1376611597587
26.50907705710907
-0.4817491221240501
-14.88966677520615
12.59055878825757
0.7434216795407885
-17.77530703049755
4.441326562645612
30.7387032542078
-7.233760132716625
-21.05662775354576
-2.448315367945135
12.68588095667184
8.436899212959606
-0.5637684550198178
-20.55901171461203
-2.959630901809741
-1.178352341576899
-17.06009202259121
0.8212539837192309
-5.156567320713926
-1.437109274948783
5.77242261185941
-1.279628371726942
-22.13048936412004
22.89017369125449
0.5199440445979336
-21.64335848311564
-3.428695661687946
3.682985879440345
21.38906826536389
0.478450052005189
-2.213247307660426
-17.45301873815927
-2.441163826066405
0.04854980340781748
0.03512743810153576
2.357486584479596
-15.53813865815402
12.04812584233455
-11.71714167566271
15.2071544914835
20.11348377996172
-18.43028031161043
22.6613491091672
-24.34455257751159
32.62241375307622
-12.85470123697876
11.27093971993083
0.01132921948227463
17.56070958196621
-17.57169941941688
1.921357642600745
1.715773767302767
-1.80212739084467
-1.83500401910018
4.264587937451655
-3.53858774794646
26.01701103054627
-26.74301122004923
22.59379551908441
-23.33217406137593
-4.795735827134487
5.534114369428518
20.5970741670163
5.669218081455102
-7.041938590324616
-19.2243536581436
-14.0116398343059
9.120725081384139
14.10671144162822
-9.215796688705796
18.66934380452151
-10.99425123429118
15.03316852922628
-22.70826109945531
4.263937162258453
1.233789467957003
0.6611422462116712
6.539009150129504
4.677736387034179
6.188110416051462
-17.40485595321838
-2.210306751166264
-10.23653855770748
-6.633518099691459
-20.47020398383225
-15.29935365429969
50.14573008043332
0.02180885217773056
0.2783094194058077
0.30199169924613
-0.6021099708509915
0.6261525822965389
-1.347628466782805
0.4434003559172922
0.2780755285575258
22.52509792727736
-28.6410194425567
-8.850884116975099
14.9668056322585
6.679749117108234
-4.874782327040684
2.516712454309324
-4.321679244353794
12.74399483196984
4.638527226956579
6.548698504088072
-23.93122056302056
15.01692336696039
15.67590402743438
-15.76338614264759
-12.9469422462331
12.26617258900571
12.79947949843449
-12.11870984120703
-22.89976566803542
10.67026220818669
12.23023789091976
-21.95780270936105
10.01600907643835
-1.005148613311048
-8.96936874664164
-2.582558050839889
23.81809938649329
-23.66157097068644
-0.4289946367207284
-0.5718403100139841
24.66240591744088
24.44150574238966
-5.403765608727367
6.99207624075869
-26.02981637441897
5.881666887616048
15.2550260946954
-21.29574676494819
0.1590537826380113
-11.28512835815575
13.18960980001738
-19.94780755938854
18.04332611752793
15.72606934316911
29.44132622659452
-46.36850074148439
1.201105171721867
20.45598626478031
19.47356695547585
-32.60748219982336
-16.73140158393673
-0.330816971654127
21.32680649304388
-11.16452159668667
-21.07991560932399
25.65167317097103
6.592764035046484
19.94613030991167
-1.337306631320359
-18.60843619055934
15.76047535515353
-0.652578989144577
1.610475953818401
-16.71837231985817
-6.11607026991271
32.35490831845231
-22.51982507986619
26.46085449994933
-15.57432785244907
4.61420549387982
-15.50073214137597
30.09480731704948
10.77078621175408
-38.79530179262189
-2.070291736155397
6.040068962612872
9.473286934272839
8.446895454913598
-23.96025135179821
22.61933856288882
-20.83910440380986
-1.779932856311282
14.83940219255358
8.903880535792169
-10.35141621071802
-13.39186651761777
20.44238030088352
1.921900559885042
-22.31582161951699
-0.04845924125257378
-0.02913232682202335
0.1013265144627322
0.1194728758854952
-0.1916670635327051
-15.84566487386816
10.31738636214198
5.529063728923939
26.73565675676107
-10.61679117920431
-2.099832067056965
-14.01903351049939
-9.616128838287556
-9.919247236277565
19.53703493025393
1.599562771124858
12.21494621808646
-16.92677873211014
3.11226974290493
-23.34112149508769
19.71518274188044
-14.86806775559936
18.49400650883445
-0.2536968581190697
-31.54407766674065
7.776718791687474
24.021055733179
-16.26340390711859
-12.82955947802546
-8.142562255471749
37.23552564061389
-9.153836806891064
-32.40472480402112
10.62891546754778
30.92964614336571
-2.931267633324169
19.60444909932096
-17.64422870141154
0.9710472354143076
11.99981738049873
-13.86003327422104
12.40183173981365
-10.54161584609071
19.60586038807208
0.1964730640043905
-19.80217303371298
6.021144821738328
-6.239061839962849
-4.634480960401194
4.852397978626113
-4.083363628663954
-19.46042945711367
4.536390299733496
-8.497556793769268
10.46483886100221
17.41661180657081
-19.38389387380549
-1.727947039719952
19.5749769613363
-28.32179498661384
10.47476506499772
0.06249556231960968
0.8533687302953007
-0.2897117103302704
8.103468583842497
-7.712178147343137
-12.21326623270832
11.82197579620907
17.82672041909074
-5.817740317795554
16.94641588745672
-28.95539598875226
-1.654015207785464
14.42252198814645
6.663492989202719
-19.43199976956165
-0.01235053472817473
-0.1580309614276235
-17.68737934681096
30.39681952293641
-8.797488918238942
-21.79103982283561
12.20096327895049
18.3875654621291
-26.86823194253055
-2.857037443994407
12.99386780258918
5.699970321367783
5.807470093462227
-20.47143564628179
8.963995231452307
-24.19917009276689
-12.81147207018992
10.14241022042757
0.09234418286404616
-0.07392592447447319
0.1058344589525298
-0.01349027608984409
-0.06314192913879599
-0.2401162869497849
0.1240063611652734
0.1792518549115007
-7.161008972819893
6.517461824042553
-0.09164934958674936
0.7351964983262764
-0.03026064963786381
0.1976912120510279
-0.09425058334377875
-0.02621411829533903
0.07557380931410852
-21.61343780678693
-16.43223244195422
42.17742571839447
-4.131755469652785
0.1413278676738229
-0.1113628195992717
-0.0241683514426556
0.08106213871424101
-11.43787314317237
15.46276337323002
13.41646919599739
-17.44135942605354
10.07816802822527
-10.31028477068246
11.79753736872463
-11.56542062626708
0.9079692959302215
-3.811060869423803
0.01011221670420815
-0.08331677631684506
25.00082206349028
-22.57699681817015
-6.239425578043454
3.815600332724671
15.5874327814585
-13.20039488228628
-5.66569056660268
3.278652667352947
9.623814615604191
15.5413127438633
-40.70326601762056
-0.1402691065303912
0.02198845284432394
-0.02268113313362036
-0.0975507978493052
-5.572821680757166
0.9246615748114467
-15.58016365045417
4.555830436477839
-16.80312035300742
12.70646307827217
-0.459173161748328
-8.671583032463316
1.511839020745705
-10.37939618244115
17.53914019415882
-8.24116883925789
-12.7575299827664
-16.46097231200419
37.45967113403072
3.559250562283065
-6.682183235750088
16.46651954069371
-13.34358686725286
-22.57788370346324
29.80866825570184
-7.230526038226738
-11.14310171874873
14.21549092615614
31.40468340023138
-34.47707260762597
24.1188372853696
-17.51207468004609
-9.777667442272444
3.17090483695381
0.01318844462953775
-0.1014198269621683
-11.97784065385582
-5.302827904497591
-5.176501411393418
-14.20504843795307
24.20111564275904
-17.38839893342621
7.392331728612646
-0.03943265445640442
-0.0384539229230904
-0.06211378759094052
-6.055349469420715
-0.0775794182273464
5.400206027862184
0.7327228597790615
0.01539287793589349
-0.03190529065969977
0.1371870878517075
8.472730515339876
-12.84744213822678
7.848900949438608
-3.474189326557804
-1.043891046591882
-14.68665433091667
-3.666347866254126
10.67046136393502
-4.291539252401522
-13.61162017167706
7.232698060115247
2.65254946906533
-2.703252440264808
20.81152011587393
-20.76081714467237
0.04847729566125604
1.115747010888567
25.5525496122593
-22.14063128882305
-4.527665334296598
-24.54613147777794
6.481149004093318
0.2282792923316954
17.83670318135423
0.7121618327002129
24.02077467568812
-24.73186642239022
0.1129166358205148
0.1641058627958993
-8.414160266126329
11.52946819770202
20.22782494920994
-0.6561781927247921
13.27079249308194
-24.56912327993512
11.95450897957991
10.32675998616004
-0.7396051924753316
-2.047153669155875
-7.540001124527974
-20.45764798868474
7.657426657566175
4.302664537347419
-2.73508881309467
-0.9991819530588308
20.99152690817797
-17.25725614201859
11.80086781311973
6.334691963867781
-18.13493636767435
-0.4684063719136329
0.00722092206635078
0.511849392408238
-0.0506639425726099
15.22718317509102
-9.334362235845843
9.67021207141811
0.9753788515634593
0.1416916325813632
-0.004194503786664691
-1.112875980432671
1.225004902044431
27.40513988450975
0.7354446756500354
4.159261967642986
-1.259413571900979
9.403177570309555
-12.30302596604168
-3.899172754044311
-9.02314923943227
-0.4220649704755687
0.8910623845044154
5.198339691192061
14.2136562250736
-20.30305830076627
-0.4309530344917296
1.451714599876542
0.9409651006796292
-1.961726666107424
17.57552882967688
4.741300993043676
7.58552348896066
15.54018716237688
-19.73580505930454
-3.389905592033438
-3.691186823928537
-0.3709461735990378
3.310823367857319
0.7513096296685003
-1.379103056395415
-15.06020933126423
16.43965368863837
1.123361361418669
-11.13320626357938
-7.184611867154552
-0.5867613839991648
-7.861286172179611
12.50587283548747
-4.057825279303407
14.48143225847233
-9.864908137709666
-5.203285504757782
4.982460081662163
0.1906457140271269
-7.484926049025017
2.311820253328127
-0.06448224919341788
-0.006984502247723208
0.02399694785179644
0.04746980358653745
-15.8823023617873
-3.027476900217521
18.17641491008546
0.733364351921453
21.17457618820396
-22.24225484644291
2.319952768103701
-1.252274109861978
10.95436377695323
-6.638228162452148
10.16529664397117
-0.472937078667664
0.3745155373794936
0.09556867783646796
0.002852863422863456
24.16392010322331
-5.66616625369578
-0.9871053871813753
-17.51064846234203
5.018230988914362
19.15140849248003
-1.001434226466819
-23.16820525490619
21.93052434406874
-12.22551706088241
-0.9453136803676239
-8.759693602814815
1.250250880247499
-0.2010283455807896
-0.9777590638731143
-0.07146347080891979
20.95784547041022
-13.3601880746792
4.156645225759593
-11.75430262148583
22.85212670571115
4.231929564435081
-9.35035778714118
-17.73369848300327
-16.93121779888005
-15.4829538739855
30.71137214175723
1.702799531101808
0.3239216707482224
-1.005494087837317
0.5457326004470632
0.1358398166240977
13.69435368994369
31.42741188369254
21.79529350023152
-3.365881995173413
-12.99683860494521
-5.432572900108105
0.3697134344635545
16.54245935571666
-18.41241457929689
1.500241789132537
-31.34198868746488
15.48569993713072
8.200798457174759
7.655490293172792
-20.23068948037077
-25.09561259390128
25.91397299885476
19.4123290754171
-2.355214703425091
-8.118430350070897
19.45500431782451
-8.981359264327986
25.16673359062302
-12.38713842654317
-15.13480986750198
17.5356036079934
-0.5799341338105215
8.211064116443978
-2.616907509742057
6.623908252306749
13.52860286543421
30.4936039557721
-39.18599550031433
-14.36497407822552
-26.31992266478357
-7.582914636005715
29.69313062762179
4.2097066731708
-13.49544489741634
16.64033272814624
21.47701545951227
-24.62190329022484
29.01217085040371
-34.6824924279903
20.27676424724888
-14.60644266964695
-18.54636870188808
-8.350881493235432
22.99273672698632
3.904513468187909
11.48325046321964
-29.62896199570257
4.650266635104023
6.448872415717489
-10.85097096213992
6.995576325535746
-2.593477779186602
32.95396506026934
9.609871396504076
-1.659036026272378
36.35196821803996
-13.24307381198581
-21.44985837977489
23.21039326598449
-11.89564568917683
-11.31400293868254
-16.36756442079064
19.11435834153609
-3.058057752122175
-16.0561036664498
-1.060559878660655
0.5607158994106614
-0.2623825683824577
0.7622265476406984
-10.94921652854595
-18.67482258113457
6.139544456790198
23.48449465287877
0.1599251395946728
-0.1744934182658502
26.07438185132161
-8.892198351692503
-3.896000254897404
-13.28618324473638
12.45583159058363
9.72010867287875
-10.69270838916721
-11.2879746215883
15.80899054203672
-21.38179505379341
16.86077913337407
5.429972442179653
2.843867236831231
19.02427821854493
-27.29811789754928
0.2912433747866944
-0.4051237426808016
0.3160834019344027
-0.2022030340612799
22.19106648970093
8.883151358277996
-25.64424540577693
22.40961714064884
-18.15948193585568
12.00547794261483
-16.25561314740566
32.32042211058546
1.082950997074149
-9.533776711591059
-23.86959639607486
2.438468771368306
-27.77978856081695
26.51022300809021
-1.168903218630252
-12.24335944299924
24.3987620341623
-18.87951933090195
6.724116739736502
-17.1809269357052
11.92925664677624
-4.820769677426393
12.70273975309689
-30.63747001211643
22.50005008173624
-4.56531982271911
4.409451015789585
-5.172181067250531
-21.19446216360222
-32.78430355555105
26.65008396213436
-3.608631655865838
9.742851249285192
-4.5599261633795
-22.27188841571661
13.57368946924443
13.25812510985238
14.2130464107729
-11.92226388714336
-5.805949427782942
3.51516690415384
-0.2899535019171486
-0.7240787510408671
0.5673348553420938
-23.79965129741504
26.12267182483847
-35.10732408297047
21.70914086270366
-2.199711305088977
7.140654404521966
-2.900279956678153
27.99436487225313
-2.614925047898482
-22.4791598676731
-21.95740066994101
24.56325687893767
5.384371675300835
-7.990227884292801
17.11082429438428
22.30066305993129
-28.95687572335783
-10.45461163096229
32.32842172624962
-30.13568164556159
3.544482894291929
-5.737222974986748
24.29170733626855
-14.48988156643433
-13.99359779194756
4.191772022116358
-34.38875958484485
12.18805917618547
32.90673830357575
-10.70603789490846
-24.23265905183699
12.35064271786149
-22.50674325086348
26.85775186457151
-13.15716687878153
0.3055206201218416
20.15264457412561
1.58838200577163
-22.04654720001993
-5.884355750658232
-19.7801252984847