/*--------------------------------*- C++ -*----------------------------------*\
| =========                 |                                                 |
| \\      /  F ield         | OpenFOAM: The Open Source CFD Toolbox           |
|  \\    /   O peration     | Version:  v1906                                 |
|   \\  /    A nd           | Web:      www.OpenFOAM.com                      |
|    \\/     M anipulation  |                                                 |
\*---------------------------------------------------------------------------*/
FoamFile
{
    version     2.0;
    format      ascii;
    class       volVectorField;
    location    "0.5";
    object      U;
}
// * * * * * * * * * * * * * * * * * * * * * * * * * * * * * * * * * * * * * //

dimensions      [0 1 -1 0 0 0 0];


internalField   nonuniform List<vector> 
19632
(
(5.013330062376362 0.006625727321236185 -0.007384427370851331)
(5.000013391015493 -0.002494681989934904 -6.770162754278649e-05)
(5.000323819106099 -0.0004177245677412811 -0.0002174429570660046)
(5.13983596098553 0.08140203453635557 -0.1999261773841287)
(5.000411160735829 -0.000450182159158739 -0.002879240900861915)
(5.00046424213939 -0.0002799738813889186 -0.0003976005658427008)
(5.001057206360059 -0.001847512413057265 0.001298609789827803)
(5.000176788146629 7.142925516003549e-05 2.828688020605996e-05)
(5.000030574940661 -0.0005301996659263349 0.005335086644585376)
(5.003602160978894 0.07074055739888455 0.06134068683598352)
(5.035148559806243 -0.03267736743843618 0.04303848795322292)
(5.000804190856706 -0.0001936987165701408 -7.211622655511622e-05)
(5.000150249549692 -0.000553722695396278 0.0002505112066188427)
(5.000776840017481 -0.0007262468404415119 0.0003165448930161558)
(5.00850706974802 -0.01228973902225849 0.01752766818346883)
(4.997007539647745 -0.000160050515059973 -0.0002457067314356766)
(5.000125843183177 -0.0006819733239103588 0.0004636422219116816)
(5.000337052231397 -0.0007107185429481643 -0.01311548855326828)
(5.000100370190877 -9.002796564255786e-05 0.000105335651851305)
(5.000141362431025 -0.001967018578166454 2.50338786797756e-05)
(5.011898210047369 -0.01414519943124188 -0.005887592126139736)
(5.239143403422953 0.2744232688416346 -0.2840182103798166)
(5.011362340482877 -0.001175151745169668 -0.002779975603205003)
(5.00018264080517 -0.0005786357359600261 2.2830116601349e-05)
(5.000027581985454 -0.0008392771336363635 2.755812354489102e-05)
(5.000073852331677 -2.467033162438315e-05 0.000111660227190316)
(5.000210383175015 -0.0001277411037803962 1.246225017427461e-05)
(5.088360897767643 0.1705924370862465 -0.4434579320354982)
(4.99715860175811 -0.001546501485611987 -0.0002974767517555125)
(5.000125465248833 -0.0006379991473424196 2.536968033763387e-05)
(4.999971791216521 -0.0001552776283791162 -0.0001166345059782102)
(4.99933417826153 -0.002804472078950208 -0.002086343676494227)
(5.052596038391147 -0.01209852817721049 -0.04669106980091826)
(5.229523582228238 -0.02975505052713372 -0.2330209187603838)
(5.001245277256945 -0.0006880177550537906 -0.001198511967082258)
(5.000131701270568 -0.0003956872729898887 9.644782370030234e-05)
(5.000068389082082 -8.263528373882796e-05 -4.549943675616626e-05)
(5.000149404713283 -4.721848852928787e-05 -5.444142518249553e-05)
(4.999993490405143 -0.0002230156407517722 -4.282811281166424e-05)
(5.012882567638433 -0.009494521356502434 0.0003655442110324739)
(5.000039155322272 -0.000160759457323647 0.0001611688473457137)
(5.000501206399127 -0.001911501090532329 0.001868978819554918)
(5.000054380440099 -0.0001590451496207241 6.120588800577474e-05)
(4.972245092834911 -0.01284302041113915 -0.001880441374768609)
(4.999799070137385 -0.0001948252788667652 -7.677453640310419e-05)
(5.000148933774285 -3.077348755743331e-05 -2.736545593623021e-05)
(5.000173582905006 -0.0001196321660498033 -5.875523103731808e-06)
(5.000238217891472 -0.0002170564898644948 -3.551464339806215e-05)
(4.99978827564748 -0.0005511506109960484 0.0003627466484535367)
(5.00098038803065 -0.002013421639411974 0.001012996758815232)
(5.000058723141126 -0.0007530613361786337 -0.0004277372035893778)
(5.000410580466557 -0.004557776691669166 0.0004832857664948213)
(4.999903633724799 -0.0001845404489651699 5.487572688337569e-05)
(5.00137369439449 -0.0001083405813357485 -0.0005103523036686888)
(4.999858409154561 -0.000813800663838243 -4.492841984982327e-05)
(4.999823348516307 -0.004962251703560708 -9.405129653410349e-05)
(5.000768370765643 -0.001564693453259991 -0.002423359059282244)
(5.000300676491677 -0.002787040669972993 3.501737324374106e-05)
(4.999994876146346 -0.0003022737550352811 8.582360789451653e-05)
(4.997105710678252 -0.003389648836867156 0.1238005541726507)
(5.00012746594385 -0.002346799222074434 -1.958753596007707e-05)
(5.000017067344293 -0.0002184734042819127 0.0001126963815241979)
(4.981217608656022 0.1609972848221816 -0.03214954256273825)
(4.505370367809421 0.2771490823564672 0.1471566491455718)
(5.00030958588074 -0.0001258024760814085 -3.630041878859759e-06)
(5.0708027245766 -0.1630713176406376 -0.542950510726854)
(5.281917120149078 -0.00360307827836932 -0.09676668068826359)
(5.000233955043855 -0.001263071339517934 2.790367075598797e-05)
(5.000418436836667 -0.000522632040766871 -0.0002014822797134277)
(5.000701734791121 -0.002183589485460231 0.001471638014532049)
(5.010564636578914 -0.003354050243418632 -0.0002454321082835869)
(5.000233893783959 -0.0003827432505485954 1.952650553101031e-05)
(5.000113328182959 -6.147287301055336e-05 -2.988803618710448e-05)
(5.000205197584044 -0.0004921195239378144 -0.0002359385059872792)
(5.000118845767998 -0.0001451139375733677 -5.609239168288315e-05)
(4.999974545763116 -0.0002035355157147467 9.319117766771048e-05)
(5.000143634797224 -8.959420022377153e-05 -8.569350935816644e-05)
(4.891981650958855 0.004437823346685746 -0.001248717093897769)
(5.003554413580299 -0.004306432786110191 -0.005436344130656219)
(5.025368767950736 -0.0006398451082872177 0.02051308027117395)
(4.984363440639665 0.0004352173517839239 0.009189974632321145)
(4.968580015314655 0.2998632465809544 0.2471635988641859)
(5.001061770882134 -0.0002562902713748311 -2.749504951200161e-05)
(5.000140663421228 -0.0004952724582892749 0.0002214467055538412)
(4.999904756418522 7.276779247511154e-06 6.909948957489957e-05)
(5.000130924356061 -0.001046587418375336 -0.0005768973823439187)
(5.000171271322579 -4.266286175194904e-05 8.208324340467327e-05)
(5.000151783145505 -0.0001846393468452557 -7.276376702247886e-05)
(5.00105153846425 -0.000962675109037052 -0.000998057265746376)
(5.001596934368616 -0.0005642899645844638 0.001496302140347915)
(5.028769605480285 -0.01610513822886564 -0.02566658518185785)
(4.999976811314504 -0.003080641353922741 0.0001105013577094874)
(4.998999875627628 -0.002461709504374187 -0.0002975952330044227)
(5.017750047236446 0.002858904486172452 0.02111512088873454)
(5.000193454033173 -0.002629445400687746 -0.0001147562601063481)
(5.002702635347029 -0.0005302331496533646 -0.001694152462519071)
(5.000344934772632 -7.117329598523378e-05 0.000245747645413026)
(5.000441282758893 -0.000393951292320362 0.0001096216017531935)
(5.000111741104969 0.0004619097335858426 -0.0001025846167078052)
(5.000086783523147 -0.002396154490216478 7.450868936466854e-05)
(4.760842601684626 0.6062664848628838 0.2693342267086945)
(4.999917456943976 -8.719874812638152e-05 0.0001739786462048065)
(5.008562161820971 -0.005858543349686877 -0.002600222306082809)
(5.000054164673267 -7.334302805869962e-05 -0.0001449755218363086)
(5.081016600995174 0.112831225653295 0.2039638715443601)
(5.050235437494981 0.0390544742713895 -0.05074008029449973)
(4.771606726452076 0.1359242444337005 0.009315938263424349)
(5.022292750094936 -0.01270306005228639 0.006790121183985583)
(5.000065595368815 -0.0005623260308302972 -1.027774963772863e-05)
(5.000282998569921 -0.002878855768035026 -0.0001716655838162311)
(4.949442856135086 0.1882154188820152 0.3292635054701437)
(4.999681345441113 0.0002062911852862936 9.348944713091043e-05)
(5.001346875060865 -0.0006176948369503769 -0.0005857000176134308)
(5.221475538939741 0.01646380979015808 0.1545738308421639)
(5.000057603683313 -0.002216384966507729 1.493633896636323e-05)
(5.020642724774991 -0.05883454984017441 0.03322290046163216)
(5.048587117484526 0.003482453650445819 -0.5328645659944935)
(5.062682276066589 0.1833527576185155 -0.02848714172165822)
(4.999904148155196 -0.001451127940334222 0.0002824624022557608)
(5.000111466877573 5.866774827705269e-05 -8.268008700470693e-05)
(5.000000142608172 -0.002059941931788052 4.324792256861256e-05)
(5.002408048330995 -0.0007644712183794743 0.0002276994219023016)
(5.000075229878168 -0.0005794402198448011 0.0003286281400397083)
(5.000197143463987 -0.0003266643076621335 -3.630423793174455e-05)
(5.234194403402561 -0.1491922188524677 -0.06034810415422306)
(5.060828711840872 0.0215000828431096 0.001148908621372795)
(5.000031035510355 -6.196608067095384e-05 -1.232524844248052e-05)
(5.004647690427195 -0.001310915248244675 0.0005812693958297973)
(5.000425351383567 -0.0005762517475182451 -0.0001010402844971516)
(5.000114611330851 4.186457465829545e-05 0.000145996766364123)
(5.000045648321714 -0.0005436469710882555 0.0001624718697626956)
(4.999969308991385 -0.0002449744837226197 0.0001354219129713135)
(5.04765085643372 -0.009566901117943921 0.04014456246374431)
(5.000207078637537 -9.841639681956846e-05 -3.003995450252386e-05)
(5.002677361247838 -0.0008213096741377192 0.0004197926596023687)
(5.01313483494532 -0.009496128352440942 0.005183172910615221)
(5.00395449883008 -0.00248278967075286 -0.002092227867048158)
(5.001301916261038 0.0001685712122804322 -0.0005083561124186712)
(5.000037972255969 -0.0003363877430660199 0.0002327116197049124)
(5.001189524263253 -0.005209489236479912 -0.003193329155706438)
(4.616833719521813 -0.507471127919393 0.5608709090863233)
(4.845492757792011 1.386508274903373 -0.9052652950009252)
(5.315584791923355 0.5116556065051652 -0.1379522628313363)
(4.274286357672308 0.1919554706976357 0.02384917309987536)
(3.159721232229862 -0.7307895166140657 -0.4418476519241674)
(5.000182205457217 -9.482946744636801e-05 2.821421915043853e-05)
(4.997297961544424 -0.0004158660828659904 -0.0002367194751246051)
(5.002873380797094 -0.001275968052355657 1.014263492238674e-06)
(5.01126300390458 0.00145826019515149 0.0007249463299092275)
(5.000044222849259 -9.977922349639344e-05 8.211802986264816e-05)
(5.001180109833994 -0.0009426591219469608 0.0007381775704822695)
(5.001035925621154 -0.001172652447436953 0.0008765630973579763)
(5.001013542532998 -0.00100331417614513 0.000815454153074719)
(5.000154647363179 -0.0006744286931061988 -3.294420287733683e-05)
(4.980283132552933 -0.001826438206241263 0.001023458244601902)
(5.001240777643666 -0.0006080068433650823 0.0008746670310107775)
(5.00021546550919 -0.0001379570109609228 -0.0001081809164731556)
(5.000110228973673 -0.001788954581848553 -4.490192109836587e-05)
(5.000988211685529 -0.002892153706844391 0.0004022621423203166)
(5.096558392416147 -0.2754254726605217 -0.5343870434447525)
(5.206479284582734 0.1590804122096783 0.1753300250953247)
(5.11875126793396 0.2600718281777175 -0.005937814378085028)
(4.667851177257774 -0.7906046290398138 1.108734157063461)
(5.158167542494928 0.2801900153797212 -0.1322725192251702)
(5.00080107191538 -0.000529826992058677 0.001346491788881149)
(5.000083816226119 -0.0002101494223507296 0.0005318425862586841)
(4.999889686882788 -0.0004380676911467939 -0.0001071254875179846)
(5.001359020487293 -0.0001442329561009754 0.001585926916500248)
(5.111191091349004 0.287023889210837 -0.08224259153179116)
(5.001439002561696 -0.0002778777234371406 -0.0006098687518147146)
(4.99994185428146 -0.0001511757401625667 -0.0008279058237435232)
(5.007791079339935 -0.003076460256297871 6.33886695221784e-05)
(5.000083384499113 -1.566526036259169e-05 3.076584262832076e-05)
(5.000015678123943 -0.0004477846701282222 1.987374482098593e-05)
(4.999850476192658 -0.0002992963977019195 -0.0001544359976004337)
(4.985928544273917 -0.002397312084916015 0.0003936091638676933)
(5.000401032186647 -0.000105511053624246 -2.517102638764077e-05)
(5.009556687118125 -0.005356444278351798 -0.0004596179662353582)
(5.000320711806662 -0.0001320662777441014 2.031674527899067e-05)
(5.000246304543716 -0.0001479267929838774 9.929726288582407e-05)
(5.000089311802656 -8.667561533196941e-05 7.784124916627813e-05)
(5.000310236568867 -9.30547609739014e-05 3.817420380816305e-05)
(5.000262676738735 -0.0001351439009598164 -5.613405813985661e-05)
(5.000066729612583 -1.047128980409777e-05 -0.001462592350667964)
(5.000191122858126 -0.001818230993927386 -1.19528480730019e-05)
(5.000100425892859 -0.0001912375957297496 -0.0001118754033102692)
(4.996198112661046 -0.0007344760508423097 2.243395117113363e-05)
(5.000126104804105 -0.0001372963851079793 0.0001440978210893577)
(4.999941553653653 -0.0002410403898178533 5.925275452881401e-05)
(5.000367520821959 -7.959040340995296e-05 3.335137608407369e-05)
(4.999926000805313 -0.0002379012401891615 -0.0001346053639085088)
(5.01448887643889 -0.005457362687590276 0.002328255730024064)
(5.019425484825293 -0.02894003037159223 0.01065687285424634)
(5.000522887615173 -0.0005842621813686802 0.0154040137345628)
(5.000142491726724 1.412519544664661e-05 2.802707851269114e-05)
(5.000383282520154 -0.0003109524616990952 -2.861842590755282e-05)
(5.006073011228712 -0.0005401583980949469 -0.0001672247609295957)
(4.984777011256897 -0.1253003405264358 0.2238976220159075)
(5.000760234874829 -0.0007008460790604112 0.0004322045362503906)
(5.000609705945688 -0.0005740829527462985 -0.003448187988605554)
(5.000190272675471 -0.003106449919981208 5.909233430072715e-05)
(5.008749894605712 -0.007270952044065538 0.0006408413587143564)
(5.000041680509283 -0.0001074130471482489 -1.415480951019312e-05)
(5.000437809336129 -0.0005111958721865234 -0.0001543085178978908)
(5.000038175248589 -0.0005097659807752117 0.0001109110130307779)
(5.000819695015531 -0.001397468367996137 0.009521775278217702)
(4.99999030942072 -0.0002057984156683005 0.0001555774936197977)
(5.000454978365965 -0.0009838508609783829 -0.0002620264135039589)
(4.999965823447293 -0.0001393307013034338 -7.043282745380688e-05)
(5.000270303392159 -0.0002817866446757335 9.919102209571758e-05)
(4.997685109607096 -0.004270277583754685 -0.0006264303152854961)
(5.00029412140913 -0.0001256301166573459 -4.769056213779762e-06)
(5.000069315995215 -0.0002070456703626442 -9.83943293739409e-05)
(5.001587602640851 -0.0003135965421055173 -0.0009598878929787505)
(5.000244124146042 4.82325967406556e-05 0.004168018082010526)
(4.999790622987278 -0.0001417922987277299 0.0004529675793563674)
(5.002239027486556 -0.002127883085136294 -0.001694089271845345)
(4.999914174790396 0.0005898239391368818 -0.0001076391529892292)
(4.999888080584324 -0.000111759736595166 -3.001035566006837e-05)
(5.000055466812028 -0.001626979102739114 -0.0002515446833284093)
(4.996803869329394 0.000252275261596122 -0.0004885714307020534)
(5.000075457331722 -6.061426201395451e-05 0.001092343867137229)
(5.000128697006649 -0.0003200673444598198 0.0001904554343005496)
(5.000140904464626 -5.216499240781579e-05 -6.508153392460751e-05)
(4.993681039924327 -0.0005026666064078703 -0.0005707041497733211)
(4.999854778662913 -1.16198565304286e-05 0.0001466974831872241)
(5.000066923187582 -0.0007543104805309463 -0.000376596818980904)
(4.999753086454395 -0.000641761237749455 0.0001459808391546995)
(5.00118236172271 -0.001243252053703123 -0.0003511652967362894)
(5.000922201809542 -0.0003978569572954376 0.0001356738724671272)
(4.999974420840072 -0.0002785458136178791 5.690957814507851e-06)
(5.001127244994454 -0.000244300868856184 -0.0001666127787202055)
(4.999911921014923 -0.0001535983202551217 -0.0001172751338433425)
(5.000931364445468 -0.0001825386212808723 -2.062993519383438e-05)
(4.998885827742955 -0.003559603932414504 0.001670269477805624)
(4.999915570307402 -0.0001500690958828834 7.849372809234543e-05)
(5.000097933563088 -0.0003412650163813937 -2.04370217195687e-05)
(4.993640745981179 -0.0009159007789296857 0.0005892779295161184)
(5.0105867168153 -0.003045306222506643 0.0009868711994993238)
(5.000109517406779 -0.0003311494956140824 -0.0002609516830838862)
(5.000002214572119 -0.0001229532875645421 0.0001427431228118536)
(4.974456685993536 -0.006764171458210065 -0.0008821300632669318)
(5.011756310809479 -0.009637723346402147 -0.005797930314029754)
(5.000179641873526 -0.0002232902945502304 -7.641017219979831e-05)
(5.000403656403821 -0.0004345990803160444 2.116082711977734e-05)
(5.000132229528363 -0.0007171752245258982 0.000152969890951345)
(5.000163074246066 -0.002454224675200827 -1.060144679495526e-05)
(5.014421489680986 -0.005046073481301107 0.002111079533687152)
(5.0001466562188 -7.44813281004873e-05 -2.006467789026112e-05)
(4.999923891584747 -0.0002302513893816205 -0.0002014995938322051)
(5.00025551782193 -0.0001360411295322851 -3.283274019801012e-05)
(5.000004262336543 -0.0002762666014514282 -5.051175650992975e-06)
(4.999896628027568 -0.0002080351091104463 -1.325530105910168e-05)
(5.007085697210527 -0.005583901999937599 0.004210614939201162)
(4.999288089151052 -0.002869801167253978 -0.0001271185022190972)
(4.990169103642344 -0.001958690895215407 0.001117981351970451)
(5.000098525802365 -0.0002076213841960618 -1.567034609663122e-05)
(5.007409514498649 0.02060922741971035 0.01945331686933155)
(5.025405869709465 -0.01326663650410521 0.0105073190493405)
(4.999149318856477 -0.001805287484733475 -1.454025717988128e-05)
(4.994478817620389 -0.004513587764868323 -0.002061897608743432)
(5.000425119520766 -0.002173703836732884 -0.001100454200529077)
(5.000214981706039 -6.163087318403356e-05 -5.84207551239884e-05)
(5.000571314916507 -0.0003858869396708934 0.0001694315962381411)
(5.000073932113847 -0.0005831734074766554 0.01417171202726695)
(5.000522626153257 -0.0003446798017871872 0.0001012537729440562)
(5.000598798720176 -0.0004156795911632638 8.654902393245267e-05)
(5.000315396188036 -0.0009311347214923872 -0.0005411398223774654)
(5.000454912801732 -0.0003796680157167302 0.0001412064735630068)
(5.000107969060215 -0.0001389959076283663 3.51918757097611e-05)
(5.000700686814401 -0.000302831159182542 0.0001135786742979826)
(5.000053957412018 -6.147755949030952e-05 -5.511246429143958e-05)
(4.999867089345388 -0.0002011257123638254 -0.0009179988018648538)
(5.000144696687322 -5.607502446192248e-05 -3.378784214861152e-05)
(5.000118826351981 -0.0005701700818528533 -0.000391026042221989)
(4.999915184342475 -0.001622604117221951 -0.0003391302502423776)
(5.002174357564267 -0.00315770279100073 -0.001547703390936543)
(5.001525169053854 1.878462912863493e-05 -0.001216038750357066)
(5.00018349805215 -0.0001933072875843786 -7.922205170233184e-05)
(5.000364684991786 -0.001894367757523368 -0.000740967493656136)
(5.000131390350354 6.375401890387457e-05 -2.102134259436676e-05)
(5.000926971388959 6.017985492087715e-05 -0.006184384308987448)
(5.000071637727979 -0.00151879794656994 0.0008777630015752776)
(5.000287734897075 -0.0006220087157268492 -5.840980309566691e-05)
(4.590558924765327 2.012934329412614 -1.840485888113664)
(5.0007661068277 -0.0008127362999978237 -0.008528424868738343)
(5.000358981072841 -0.00255626628797587 -0.0009535769906835976)
(5.000322647337101 -0.001216833327683009 0.01199118579578293)
(5.001104119802233 -0.000658731828523626 0.00143554930753896)
(4.999944093117136 -0.002588509522544262 0.001055723156291825)
(5.000462084533679 -0.0002828359973644217 -5.253986537362492e-06)
(5.000308189312352 -0.0006981673523844423 0.000639746157505615)
(5.00007848549222 -0.000258538728412268 0.0001240183060614928)
(4.999897538848924 -0.0002157873057696367 8.857465675249646e-05)
(5.000207283846693 -0.000116419482946161 0.0005052083333089014)
(5.000145604889019 -4.838383346562135e-05 0.001360794800065113)
(4.999992657828223 -0.0002971584071741355 0.0002992933605590853)
(4.984797006519129 -0.003174966042084365 7.357215152371596e-05)
(4.999863330259329 -0.0004440583285549559 -6.855912079762813e-06)
(4.999833922271613 -0.0004298059701791679 0.0001263230615136593)
(5.019548509458891 -0.02156122015901596 0.006402429969615934)
(4.999968331025053 -0.0004031990995087275 0.0001760438409857607)
(4.999916395127157 -0.000449852098619001 0.0001964891140873067)
(5.000117782445373 -0.0002162296614460311 4.987279693865804e-05)
(5.098607697010817 0.2834846243283093 -0.2502547087891657)
(5.000782971310181 -0.002243959929762141 0.001808129920563719)
(5.000398870977731 -0.0003294164241138585 1.550726220038179e-05)
(5.000167570152836 -7.13194981209256e-05 -3.051694291049044e-05)
(4.999941468531712 -0.0002468138971768622 -8.711851180348107e-05)
(5.00020435067076 -8.324354038734825e-05 -4.961640856891631e-05)
(4.513572016258925 0.1048934504741238 -0.2390870652285846)
(4.111299432504438 0.1614957901443412 -0.2184702393346725)
(5.092242878119349 0.04304429319079787 -0.01956537030423051)
(4.998496664802263 -0.004823415961763293 -0.002083331612337273)
(5.098126853397953 0.2417052198883938 -0.1818310205609348)
(4.302577560206819 -0.6295541951661751 0.03732429077755646)
(4.120076187095616 0.09360831951723876 -0.3055352704478155)
(5.000156573731166 -5.732129861234739e-05 4.263917906798757e-05)
(5.274536341374491 -0.07829105893356474 0.787560846265191)
(5.111403351794635 -0.1061418726399084 0.6990421062626201)
(5.000126058848593 -0.0001505466770456547 0.0001044137979172651)
(4.99994907109437 -0.0002785145256640374 0.0006372921240085105)
(4.933144558235908 -0.0003783602233647034 -0.009005726575914858)
(3.026391631156949 1.766137505242936 -0.73238487436931)
(5.000133433832404 -0.000322144499373791 7.817544656661245e-05)
(5.000356274656201 -0.004468269255019953 -0.0003506362478563345)
(5.000109729240494 -0.0002924924447613621 2.774208584677251e-06)
(4.904615845403222 0.7445695293131622 -0.3359857644907631)
(4.980787777917073 0.2187817671603817 -0.02912790708291008)
(4.991575408411375 -0.001320928340244869 -0.000166025712515307)
(5.000899610555761 -0.0003242040295338048 -0.0001494213424963733)
(5.000056623061933 -0.0001375172409385025 -4.62761975668697e-06)
(4.999934002648442 -0.0002363147766340494 -9.236520513115874e-05)
(4.99919272898708 -0.003184805620388485 -0.003470033555753818)
(5.000135993029035 -0.000200561978677589 -0.002046998098691857)
(5.000262841897312 -0.0009293598897175842 0.001308018517611259)
(4.999778905053695 -0.0007208138915754225 0.0004350022404899489)
(5.264249221895462 -0.1062951314397901 -0.4053125011380097)
(4.993817815788606 -0.0007395693746572628 -7.158619851062352e-05)
(3.885443776981552 0.8842295107169864 -0.941878020541552)
(5.000006471147898 -0.001096382765977443 0.0005772558696505545)
(2.987104803827282 0.5241097706823131 0.357704473823905)
(4.259762166764313 -0.04635646803831159 0.423386928562644)
(5.003690370037004 -0.002386852542299025 -0.0001116348269643334)
(4.50376199784708 0.284029169941816 0.0316808427575434)
(5.002984261772736 -0.001417752264969646 0.0005739970344607038)
(4.971926569045999 -0.001326874220971122 -0.003875965154276573)
(5.000788086654694 -0.005657198204071969 0.003945951281710827)
(5.009210797369464 -0.0003787290036770803 -0.001749908744299884)
(3.577214026191668 0.05348439350228071 -0.08580798644874854)
(4.999775122201556 -0.00173243488549082 -0.0002829162105753098)
(5.000033118607264 -0.0004388597751112328 0.0001065705877613403)
(5.001440073196901 -0.0008379849310710805 -0.008503020354990769)
(4.270970674735994 -0.4230278081195991 0.07342788649527211)
(4.999923949118729 -0.0009297010335136035 -1.752295795491027e-05)
(5.000077308040417 -5.051445320885706e-05 2.814996802299302e-05)
(5.000124294065425 -0.0001908367502741364 7.665638977114245e-05)
(4.9999475061433 -0.000540544689862151 -0.0001634538878846025)
(5.000667331359442 -0.0001706008297339532 5.82881460728581e-05)
(5.000141948939374 -0.0007579766678843331 0.00337483489645011)
(5.025567039580664 0.04285916635563758 0.004001452050919797)
(5.000159646308225 -4.352854045016884e-05 3.777075787090795e-05)
(5.017077399753757 -0.01453616589258423 0.01089668789861205)
(5.001174230893576 -0.00127801529320255 -0.0003350834131411174)
(5.001731743463934 -0.0004265831102180362 0.0004064366561446269)
(4.965674389235146 -0.0001876433224235043 0.0007252196563817301)
(5.000249520126802 -0.0006771351251543038 0.0002518314850352786)
(5.015071012205006 -0.01435144885670408 0.006229016691068841)
(4.999975888905477 -0.0001243407525705865 -4.607704571793233e-05)
(5.004674060374004 -0.0034102085503288 -0.0007937836043182202)
(5.010135677449703 -0.00769370829063714 0.003361544833059605)
(5.000115185010735 -0.0003469636232532794 0.003615019549380585)
(4.965272648452945 -0.001054312464525861 0.001175963453245712)
(5.000401294857101 -0.0009982514947720167 0.0003447302028015526)
(5.000289411733879 -0.001282252165720171 0.0004485738246373174)
(5.004198775645629 -0.001877209198053764 -0.0004674358853346185)
(4.139575780099371 0.1378935974683794 -0.3783638557703227)
(5.000124334123639 -0.0001451463401102185 -6.489163233005461e-05)
(5.000146108391031 -9.99350043822006e-05 -1.803445410453749e-05)
(5.000233188025508 -0.001169007834173753 0.0004812002722229024)
(4.999164208443089 0.04933662758264103 -0.0383917646845198)
(5.000308294396111 -0.0003534616118902168 0.0001089894859092155)
(5.00021717888049 -0.001365085826166016 -0.0004823227193397448)
(5.000133979463381 -0.0001512697058147841 6.716396204611175e-05)
(5.019773031267457 -0.003888110018366283 0.003533668431070012)
(5.000289380629111 -0.0003831048524283313 -4.546568141300038e-06)
(5.000109267346321 -0.0001705551468032996 7.276206343990348e-05)
(5.000412415728625 -0.001190103792527774 0.0007589285909269415)
(5.032547166853671 0.0313509280937156 0.05982150199114748)
(5.000312389739904 -0.0003679121850256302 3.249743340307642e-05)
(5.000401283440365 -0.0003706359663517153 2.55504668105845e-05)
(5.000015498573297 -0.001273139308407569 -3.687482940827017e-05)
(5.000291252123924 -0.001491757393186059 0.0003752632705691054)
(4.999978646995647 -0.0002937752844422493 0.0001595083358522911)
(5.000183737350463 -0.000852995252088741 0.0002953349962746191)
(5.000305407299953 -0.0008630733953744642 0.000239355487886173)
(5.000263774997429 -0.0008218658782217688 0.0002057567938876205)
(5.000213516913335 -0.001014836968612703 0.0001043638870890253)
(5.00016747014238 -6.149569475071232e-05 -1.936010141917343e-05)
(5.000010016702472 -0.0004175969060938722 0.0001231588063115277)
(5.000358019893569 -0.001179038934561484 -0.0004381517791012978)
(5.00024294411594 -0.001171921965887433 -9.505126775783676e-05)
(4.998091336736965 0.0002445919174496887 0.0008134278922777515)
(5.000293261309924 -0.001211024458439609 -0.0006203637519730966)
(5.004731195021405 -0.002906285911696987 0.0006514286691939184)
(5.001759689326343 -4.378433764741171e-05 -4.060506623755165e-05)
(5.000319891944427 -0.0002867490518977276 -9.789123293591754e-06)
(4.999939631989297 -0.0009357930231921966 -0.005532022970847269)
(4.904457139225642 -0.008284738071769535 0.01200625830919421)
(5.000221342845022 -5.114663333410628e-05 0.002054781552441398)
(5.022664880183719 0.004881543900477826 -0.01896432960637695)
(5.000241098564985 -0.0005633362696816888 -0.000188098000064246)
(5.037564806804921 -0.03064246758348321 -0.02620759828112001)
(5.000374417151055 -0.000664809507285651 -0.0001179093709182889)
(4.999448589679644 -0.001562498374942886 0.001685186199484189)
(4.999863885759352 -0.001373736890044149 -0.0001116912498087563)
(4.999983077238025 -0.001465539338763666 -0.000284987023078565)
(4.991792892438368 0.04321730527163212 -0.03598047352076582)
(5.000016323118458 -0.00135620796982608 -0.0001082120717660833)
(5.000179837931761 -0.0006214822112918267 0.001002959962352689)
(5.000136314999491 -0.001373310921939763 -0.0002672345771741227)
(5.000275704116772 -0.0005543227870186605 0.0003979946899122159)
(5.00019169654935 -0.0001478845302320582 -0.0001030324177134276)
(4.99931241117458 -0.002116794749427286 -0.0003906933304690951)
(4.999997654776705 -0.0005593367453773263 0.0002231972571509198)
(5.000003590644067 -7.769624164172621e-05 -0.0001120150864297306)
(5.000079910486511 -0.0003727536567852799 9.6676899110207e-05)
(4.999998557028702 -0.0003011543174990866 8.289906282893347e-05)
(4.99954239113011 0.0001245679101292419 -1.578639510574863e-05)
(5.058527567608005 -0.06110685950253495 -0.0080431389212235)
(5.000149568878618 -0.0003385445062478817 3.642154969679345e-05)
(5.000104878732906 -0.0003564637108998546 0.0001504101159527818)
(5.000075160743639 -0.0004835920741134662 0.0002436344859523622)
(5.000074015606866 -0.0003904041393910384 0.0001331380149408898)
(5.000237896981401 -0.0003583310655808565 -3.193513028344419e-05)
(5.000264766526898 -0.0003876671069973434 -5.827841668489369e-06)
(5.000046408944002 -0.0004147116151257603 4.166000392706983e-05)
(5.000138641200693 -0.0004791105932214608 0.0002163595685097278)
(5.000240320574804 -0.0005311738512315832 0.0004011409049112768)
(5.000151809727923 -0.0005685455852466872 0.0001718362778798508)
(5.000135457716575 -0.0007002812661436629 -0.0006462538952745193)
(5.000365487580341 0.0004702961644733613 -0.005031328771532463)
(5.000316851762443 -0.0009494865698338992 0.0002380420726885968)
(4.999883094854599 -0.0006614061164497261 0.001543339494006139)
(5.00047959012541 -0.000600676116948058 -9.333673918611933e-05)
(5.00039593855333 -0.000886040886232545 0.0005506074216900443)
(5.000090476755173 -6.347709589310149e-05 -1.071448949082693e-05)
(5.000313777469501 -0.000902601312026159 0.0005517635554135918)
(5.00038092407234 -0.0006337934489676502 0.0002198296646155532)
(5.000404146155459 -0.0005886315377558672 0.000400663946255582)
(5.0004433312235 -0.0009103577686209196 0.0005883200983323354)
(5.000102061565267 -0.0006799720940305631 0.0004258703439104232)
(5.000297450427204 -0.0002779809310960696 -7.754370772009146e-05)
(5.000220530845761 -0.0007255982344996509 0.000313382124437395)
(5.000439360778612 -0.0003980270853303707 0.000326623032622583)
(5.001175812982427 -0.002424960162078826 -0.0002629457917552397)