/*--------------------------------*- C++ -*----------------------------------*\
| =========                 |                                                 |
| \\      /  F ield         | OpenFOAM: The Open Source CFD Toolbox           |
|  \\    /   O peration     | Version:  v1906                                 |
|   \\  /    A nd           | Web:      www.OpenFOAM.com                      |
|    \\/     M anipulation  |                                                 |
\*---------------------------------------------------------------------------*/
FoamFile
{
    version     2.0;
    format      ascii;
    class       volVectorField;
    location    "0.5";
    object      vorticity;
}
// * * * * * * * * * * * * * * * * * * * * * * * * * * * * * * * * * * * * * //

dimensions      [0 0 -1 0 0 0 0];


internalField   nonuniform List<vector> 
19632
(
(0.01206416308107278 0.008960097452467937 0.008954603023234257)
(-0.0006530462418480656 0.0002669855245948725 -0.0002778662808006709)
(3.883469977477223e-05 3.219783104357428e-05 7.391410245752242e-05)
(-2.237646408569771 0.8145484795397042 -1.176565488983266)
(4.160502450498539e-06 0.002382442678974117 0.0003402793761812643)
(-0.000518549298006109 -0.0003214919227374497 -0.0002359649453800008)
(-0.0007903280934120961 -0.001902396827447326 1.968650501602365e-05)
(-0.0003818287608958729 -5.49411717192353e-05 -9.565762690782968e-05)
(-0.00122344821962732 0.0008759346971716338 -8.395510362539173e-05)
(-0.3955557196822928 0.6311171918714352 -0.4288639309646878)
(0.4817246465232161 0.07440596632507951 -0.1132296345198573)
(-0.0001535075825044922 -0.0002875145466605726 -0.0001026094900728646)
(-6.30990113841248e-05 -5.415360846968023e-05 -4.687631485096994e-05)
(6.458923595240216e-05 -0.0001245911835452666 -3.848493567565534e-05)
(-0.00367348821380277 0.004518337106774819 -0.003534887254644258)
(-0.000133212648551877 0.0005723039950561317 0.0008204280745632102)
(-1.03936313643953e-05 -2.676764301257839e-05 -4.030130279775219e-05)
(0.0009121007453018797 -0.00200395224765694 0.0004947488437112811)
(3.451286873454461e-05 -4.893561098584233e-05 -1.992987852488514e-05)
(0.0003867121635732542 -3.726959763656118e-05 0.0004176023545179733)
(0.02124562785889116 -0.02488044546624386 -0.02255740575934186)
(0.3416301066507756 -2.209824694122058 -0.3274398537999075)
(-0.005893614417287966 -0.005064820457960903 -0.02797456724098419)
(-0.0003563204868396195 7.317933640445428e-06 0.0007851633159369097)
(0.0002027734470891925 7.004531713375082e-05 0.0002860497221162908)
(0.0003645124689802857 1.810359309351203e-05 -0.0001480397144977883)
(-0.0001915575105361388 9.793469075316746e-05 0.0001474384650310527)
(-1.086601406533579 -2.241247113882414 -1.789458355544791)
(0.0008138205259913872 -0.007194983033469915 0.01094273939025747)
(-6.356181648657985e-05 4.952953394012462e-05 1.060118451889868e-05)
(-3.421193138212705e-06 -5.95726684276765e-05 -1.013677979629253e-05)
(2.037000591275292e-05 -0.0001606350870929114 0.0004114146064222365)
(-0.084883434677646 0.01190804601386364 -0.01672170296654914)
(-2.607230469276728 1.877119754737003 -3.396734597986675)
(-0.0002888594611230728 -0.0002412127734931271 -1.078416194258088e-05)
(-4.766216571551261e-05 1.137744654987016e-05 -7.21235510894399e-05)
(2.556650780376419e-05 -0.0001542255174521018 -0.0001870594824434007)
(6.49388211399968e-05 -2.316325173914975e-05 -0.0001665876414303186)
(0.0001048189194453867 -3.224668098114295e-06 8.638283704580095e-05)
(-0.005635330850212701 0.003216952694968007 -8.134768767977148e-05)
(0.0003254817816306255 -2.719897270783241e-05 0.0001964420933605293)
(0.0004411088525131941 -8.272682728874468e-05 0.000158310034400726)
(0.0003075456471830875 -7.804351115514227e-05 -0.0001212484535140925)
(-0.009153006271268888 0.003624346860598672 -0.04308492876189676)
(-0.0002483248593351836 -1.536076809621211e-06 0.0003860578423299869)
(0.000148128095457411 3.436119395166265e-06 -2.195921526161722e-05)
(-4.092166142443836e-05 -1.198331284643684e-05 1.031844303243353e-05)
(4.545364289672366e-06 -3.423843251028538e-05 2.16890508035626e-05)
(-0.000133924476642833 -0.0003880213314443618 -0.0004974334179775181)
(-2.601990795546995e-05 0.0001597540880433843 0.0002353971560423166)
(-0.001079421403146282 -0.0005757905082781697 -0.0004192976647763171)
(0.001893833723502688 -0.0001261385920135111 -0.0006212529306002584)
(-2.276738066683889e-05 -4.346303658414576e-05 7.213493672053456e-05)
(-0.0001824972823939051 0.0001050340387693043 0.0001375516529291806)
(-7.785548470778773e-05 -0.0003697520434397813 9.347702837130955e-05)
(-0.00172336775754387 -5.030979011801801e-06 0.001038486927922087)
(0.0002279334207627732 -0.0004097403942524377 0.0001120601567335822)
(-2.177456964314773e-05 -0.0002083039842088605 -0.0006971178996114191)
(-4.085868564422839e-05 -0.002041483886546252 -0.001267003813412717)
(0.0301027422093012 0.061658061034159 -0.1535944584146169)
(0.001466531130031931 -6.120749088410485e-05 0.0003383802938306887)
(1.155058278421404e-05 8.672030753997775e-06 -6.010991041164901e-06)
(-0.3755428744480236 4.145541749635816 -6.961554242657474)
(-3.332756586736691 -1.276793435013292 -9.858972027130712)
(-2.844024439785314e-05 -1.400395091296051e-05 -1.092901486481256e-05)
(0.9187966252279712 1.117740618500022 1.209778448854038)
(0.1922331019567242 -2.569895349112256 -1.570248267180968)
(0.0006507914377034905 -7.487718722375634e-05 -0.0003591122053207634)
(7.97411775422092e-05 -0.0001087718057318321 9.449036872538047e-05)
(-0.0001189909506884197 4.44612782095839e-05 -7.788688012425447e-05)
(0.002392238793293102 -0.001007245849769695 -0.0001333115377094717)
(-2.794590859147756e-06 2.53097740353986e-05 -1.768736767677075e-05)
(1.15952921798404e-05 4.612517079393201e-06 6.81793277586851e-05)
(-0.0003606824258279364 -8.39098903396465e-05 -0.0003788670441754889)
(-3.56183736648719e-05 1.71861326687202e-05 1.310029848840347e-05)
(6.297274432675257e-05 4.10747631928118e-05 2.098204616429745e-05)
(1.125356314988048e-05 4.184817399791707e-06 -4.947670199036521e-06)
(-0.009521955203709964 0.0085653812379395 0.04325121172418665)
(-0.004566268681730492 0.02249012948640918 -0.02438465430403544)
(0.00136105459480882 -0.01297042254366155 -0.01504148611693169)
(-0.01655014628448599 0.001866369317588702 0.02668835589578278)
(-0.4076695850252915 0.01531417092449563 0.6320051051619662)
(-0.0001604087339965308 2.206128057405153e-05 7.363686642444488e-05)
(-1.495459990578474e-05 9.118573716519591e-05 4.214764462864983e-07)
(0.0003769673022199441 -1.963992076235676e-05 -5.73484098972135e-05)
(2.819315221054542e-05 0.0001719168566139225 -0.0001840503941049262)
(5.785810128476711e-05 -9.652777733467758e-06 -0.0003953715865905188)
(-6.849661231944155e-05 3.455909808699258e-05 -0.0001936876812134338)
(-0.0001941012183979788 0.0002011535035812132 7.633501448805981e-06)
(-7.231077279006975e-05 -0.0003951758838471298 0.001274047092898883)
(-0.06791598256904194 0.012842812493629 0.02455846143520875)
(0.001228782934168194 0.0001585472095819959 -0.0009836996695687422)
(-0.0001946181789224417 -6.270239885028725e-05 0.0001000432890834382)
(-0.005431574833417442 0.01537167634059581 -0.002098070441128969)
(-0.001297922045550989 6.579169244392717e-05 6.642808513964162e-05)
(0.0004910687680162699 -0.0004762012400365182 -0.0002702579086891219)
(0.0005904323877463981 0.0004507316542512865 -0.0003708527616498939)
(3.420396276083127e-05 -5.864956004166194e-07 3.962617053953199e-05)
(-0.0001957354028794386 -7.559822271072255e-05 0.0005912355153248727)
(0.001219123453255443 -8.234651186887212e-06 -0.0005419220325933649)
(3.721933782844708 13.53730653186762 -2.019327149051226)
(0.0001058775719793624 1.850020803126674e-05 -1.027420972449149e-08)
(-0.002366576897987451 0.0023444734386648 -0.002157958625554881)
(6.658775442095514e-07 2.330085399913718e-05 -0.0001260497042843877)
(-0.6004403678425271 -0.3602113886610102 -0.06065434491868291)
(-0.1338630847985982 0.0301378861943397 0.02399797330440492)
(-0.5725841849078888 -0.7843561175333322 0.335364278860401)
(0.03487442780392911 -0.03586955767337213 -0.04981837624677437)
(0.0007320689325102677 1.61258795974745e-05 0.0008120929271014781)
(-0.00114407624353285 -0.0002042008278103943 -0.001046298046081606)
(-2.975006181847013 0.4768353066493456 1.005737468353031)
(-0.0002726327878176129 0.0002600346063422323 -0.0002165962027195765)
(-8.967749705298978e-05 0.0003040527746838574 6.23723833860579e-05)
(0.8472629202612045 -1.303560131192155 -0.862532059857948)
(0.0008257708360285559 0.0001141096215049122 -0.001415909085837774)
(0.2930110121542802 0.0627123665565594 0.1090382053958288)
(-9.326900985118627 12.71805706059203 -4.370027150868155)
(-0.03092612758061331 -0.2434298071522081 -0.3931032378992059)
(4.040950656580216e-05 -0.0001534429421088514 -2.862916318955401e-05)
(4.932917965663987e-06 -6.228911937858749e-06 -0.0005648438303801335)
(-0.000327385189282355 0.0001581370564947254 -0.0002061685649352507)
(0.000325397262820968 0.0001575827954534946 -0.0002572711676858768)
(1.993425636990577e-05 2.627276128170394e-05 8.878286506766676e-05)
(8.370502911288803e-05 5.303766406317365e-05 2.862067656004e-05)
(1.295430299656041 -0.1150349079292429 0.3497433257765504)
(-0.1204041510136815 0.02000314607297046 0.008664939570472562)
(0.0002275464529797672 -0.0001591283807683373 -1.224440718064379e-06)
(0.001020980559566753 -0.0002918971712003494 0.0003856490551248733)
(-7.982717070276137e-05 0.001270926844475143 -0.002247306261317796)
(0.0005371294748549461 1.735484058904898e-05 -1.1262774219189e-05)
(-3.726092699194096e-05 -6.578477385345581e-05 -4.690357116789493e-05)
(-3.160483009543983e-05 -1.923093413437947e-05 9.870952229764822e-06)
(-0.09134275762486405 -0.1731118605437632 0.07258693507419484)
(-8.071105929840654e-05 -4.438474827246812e-05 -2.10088332021247e-05)
(8.25789811484911e-05 -0.003545886419522152 -0.006857667202335462)
(-0.003001730421972878 0.005014750788934284 -0.002345938102931923)
(-0.0005974527857687663 -0.0005485062617860506 -4.664467497840545e-05)
(1.912352501199907e-05 2.584481769334111e-05 6.502471322945766e-05)
(-0.0005221782220986973 0.0002870757106413192 7.223639701714763e-06)
(0.0009979761068886102 0.0002576902477126519 -0.001032497474401114)
(10.66440222731062 -16.51729983732986 -48.92880826915911)
(-0.4739096105255096 9.184065716871324 8.344241492960657)
(6.996248640880561 -8.644445092630944 -9.871761778682997)
(-1.455350003195016 12.94524210830463 -4.872925470902175)
(-6.353912708915221 7.282783814904093 -38.83795879021749)
(1.919638416644634e-05 1.01057453708356e-05 2.574404179599626e-08)
(-5.646991670748083e-05 0.001413396945532474 0.0008108427315868054)
(-0.003168888769954178 0.004662265584858257 -0.01587075911151773)
(-0.0003779320851440855 0.004977341779571339 0.008287005180551183)
(2.428255655127918e-05 7.912296022148563e-06 2.216055455630731e-05)
(-0.0002985602598342855 0.0001215199222097866 -0.0001053711664164598)
(-0.0003426070889792134 0.0001331986004559401 0.0001922028353015839)
(-0.0006976569411624761 -2.571743203235324e-05 4.612485719609927e-05)
(0.0002971179572759993 -0.0001502936238011286 -7.239996458896519e-05)
(0.0002593723038134233 -0.008675573900455608 -0.0004868347134104564)
(0.0001169371916673978 0.000101059808041184 -6.453435230465317e-05)
(6.45402145080425e-06 -5.80690098129537e-05 2.598496167660333e-05)
(4.057915652900135e-05 0.0001337374317113514 -0.0008010791432356924)
(-6.855934799936768e-05 -0.0001953083251721044 0.0001763040588633783)
(-1.813662137657718 7.871753408247669 -2.601477505800733)
(-1.007237782263917 -2.881144560557241 -2.615394256884243)
(-5.592861645967355 -6.693607130116367 -5.220920783131372)
(8.405106296586832 3.376513176462136 -12.1364009434304)
(-0.6148342170192141 -1.195512420408314 -0.7015299624611229)
(-0.0003222048827110103 -0.0001409978373520387 -8.169291887683621e-05)
(-0.0004673655624145547 -0.000586622345322754 -0.0004442455465181623)
(-0.0002843013727093528 -1.120215007000583e-06 0.0001146838773599739)
(0.0006435678723992389 0.0001749049859623217 0.001103539365175828)
(0.4922209486065083 0.5012607205284073 -1.086774895317588)
(-4.323884194849906e-05 -0.0001311673165870156 0.0002258540870939308)
(0.0001256937953016408 -0.0001856178289118067 -3.588294464979096e-05)
(0.001645835419536739 -0.002952333566898665 -0.001121980956687429)
(0.0007878522586613143 -0.0004899698760809847 6.666244554453507e-05)
(3.373212762313769e-05 6.180340630793939e-05 -3.855543942608739e-05)
(-8.451976045509536e-05 8.232901341222892e-05 -3.656648358224585e-05)
(-0.000264751307240143 0.001595468516087027 -0.002028761694499303)
(-0.000303476920181634 9.189776117159173e-05 2.488910582786318e-05)
(0.002934981178808963 0.001260029565858672 0.004961501569777962)
(2.943313426924464e-05 -7.358422877812054e-05 7.577614443325771e-06)
(-6.362016694853935e-05 -1.159954781702703e-05 4.200395462920951e-05)
(-3.730008192771523e-05 -3.771772572813288e-05 -4.002219418725085e-05)
(-2.685663243547979e-05 2.451578781869439e-05 2.620922050791899e-05)
(2.10516486509067e-05 -6.266983479859138e-05 4.368398645039332e-06)
(-0.0001724375398668201 0.001123025200422905 3.261401837898633e-05)
(-0.0003503097518985294 7.143720055829142e-05 -0.0007433779875328845)
(-1.511627028151379e-05 -2.209987851880148e-05 1.766668827230015e-05)
(0.0003970793539469422 -0.003506160853792336 -0.001499245616886914)
(-0.0001128167824922529 -0.0001437676302493629 5.870948364251012e-05)
(2.61453411443572e-05 2.008441812898573e-05 0.0001096285429497881)
(-2.191406206898577e-05 -6.489662382613883e-05 -4.693253192248965e-06)
(6.709214659078904e-05 -2.982032772643744e-05 2.251383817589361e-05)
(0.002185768712603339 0.00767579589439195 0.00408087124339388)
(-0.002032579491255149 0.004281084915845375 -0.01554682100730988)
(0.005166526974813425 0.002880250697129279 4.885004586029871e-06)
(0.0002047117659521629 -2.610969829135527e-05 -9.878838626898395e-05)
(3.073265088308529e-05 -2.638898531541067e-05 4.075438697360519e-05)
(0.0001134907884009469 -0.001063259539933168 -0.001242993875923332)
(-0.5932292390087398 0.1791919341031207 -0.7937419082821281)
(-0.0001714657886477361 9.618965996969448e-05 -0.0001099273097212649)
(-0.001616411210510402 -0.003566759257160442 0.0001998629828225034)
(0.001126531301840841 -6.534405982451342e-05 0.000736072350973838)
(0.001804380571294933 0.0004489544438917379 -0.000747964667914065)
(-0.0001366636615090723 1.274078513918172e-05 4.306040542291797e-05)
(0.0003985950652987855 0.0001118793780020145 5.155645293867887e-05)
(-0.0009832430120332734 -0.0002537207348496952 -0.001103015618631473)
(-0.006089659538532783 -0.00147135310648655 -1.078340387456977e-05)
(7.104383309014029e-05 -2.543789436835646e-05 -8.763568387273548e-06)
(-0.000566706881530165 -0.0005440261090546377 6.855328306787996e-05)
(-4.60136175704839e-05 2.812331694164168e-05 4.817754996245436e-05)
(-2.961489205147996e-05 1.681654359543979e-05 4.429239269443693e-06)
(-0.000350951589907984 -0.000821498908958466 0.001001381100584365)
(-8.193671907547852e-05 7.42856672563685e-05 -2.792821208783827e-05)
(2.746602609014332e-08 2.229425936544938e-05 -1.214592981911271e-05)
(-0.0001839980215354283 -0.0001925525928821563 -0.0002774576776213723)
(0.0009669030547652807 0.0009278603967566585 -0.0001185447910011755)
(-4.914162872760899e-05 0.001221777143831101 -0.0001466053217203852)
(-1.582658145397525e-05 -1.815352717364954e-05 1.020217762358013e-05)
(-0.001390949745689309 0.000253743437983143 -0.0003108065998939121)
(-0.0001397345918421604 0.0002121738909200076 9.628994414949738e-05)
(-0.0003572769436346718 -0.0004972184660618827 -0.001839669124211119)
(-0.001847187841686523 0.002781559250785306 0.0002778471449657791)
(0.0001131522326927684 0.0001474941529072156 0.0003432633849069998)
(-0.0001046208401822659 2.387933586613593e-05 -3.688533069834892e-05)
(3.249937822458277e-05 -1.118655110936273e-05 4.078692408987848e-05)
(0.0001082060573627563 -0.0007053402243588193 0.002848580115944861)
(-0.0003979476793521208 0.000221094214468963 -6.276516309697551e-05)
(-0.0002227678591580324 0.000551469606020854 -0.0006238718296181567)
(-0.0001999826386398149 -0.0005583977987519688 3.118660009757522e-05)
(3.738149609240407e-05 -5.099368288324204e-05 4.889672536962695e-05)
(2.285606033057214e-05 4.827406897227478e-05 6.490215579709507e-05)
(-1.282743427664376e-05 0.0002350773066917157 -0.000185320666178128)
(-0.0002447417166897966 -5.23790120377852e-05 -6.569305724387481e-06)
(-6.213937617998629e-05 6.47868902853108e-05 0.0001528501204907797)
(1.846827949093761e-05 -7.212225359915533e-05 -4.127637091066564e-05)
(-0.0001054949609198914 -6.021818662509031e-05 8.940223736709271e-05)
(0.0001658977253610745 -8.521498083879294e-05 0.0002104617867048408)
(-2.984412894058093e-05 -8.681938986961529e-06 1.641375780441333e-05)
(-5.732293047738837e-05 -0.001454401001332947 -0.0003805857984920434)
(-0.001633322285381945 -0.0006088879016268585 -0.0005507705717358682)
(0.0003055506235977407 -0.0001669129567845248 -5.887774413638656e-05)
(0.00020144455534144 -2.891644472664499e-05 0.0001294482856913814)
(0.01426396274775613 -0.00107920164375943 -0.01608664747617345)
(-0.002081738583173219 -0.001205335238144215 -0.001134053171013651)
(0.0001270980978552114 0.0003008677584922854 0.0004130318563763068)
(8.639059387842851e-05 9.113943118244918e-05 -4.451934684152569e-05)
(0.002304243257993692 0.001198360956234739 -0.0005760856033314571)
(-0.0003844558726607852 2.501968367485601e-05 0.0005437258536306377)
(0.008161567741959894 0.0004051452053411652 -0.0006195171095811107)
(2.192136537849573e-06 1.362584804633207e-05 -1.461259284094633e-05)
(-8.104143618470999e-05 -4.93700509541723e-05 -9.432633290751175e-06)
(7.422451199635254e-05 2.492473898893749e-05 -1.950485481436171e-05)
(-2.481506344792169e-05 3.073485266027606e-05 -3.273409091103157e-05)
(7.62726598685211e-05 0.0001536600946808127 -4.498558146901818e-05)
(0.0009923051090788431 0.002203608424371297 0.000565084213887455)
(-0.0007981703168429707 0.0002886059120393 -5.87637975584431e-05)
(-0.001766381222787845 0.000285959235683778 0.002281931027146041)
(-7.603551868500764e-05 7.030702943720348e-06 0.000203193877268035)
(0.08038320737742169 0.003790268323663414 -0.002346482820835699)
(0.0392463035893029 0.01672583628812667 -0.00339875524559732)
(0.0004728988045517649 -7.754346524928612e-05 3.474409072033358e-05)
(-0.001446339040953148 0.002180534258162518 -0.001418607936709332)
(0.000782872108452229 3.970473080603775e-06 0.0001062268598098866)
(-3.390930709569228e-05 0.0001116483159162013 -0.0001140450063856218)
(2.17193362907316e-05 -1.029338278781529e-06 1.163389900721259e-05)
(0.0009934947949432607 0.0004320446566398099 -3.320355303817207e-05)
(6.637293328121569e-05 -4.985355318906194e-05 -9.188766682257219e-05)
(2.61833092574109e-05 1.314369771141427e-05 3.748259692988091e-05)
(-4.191058263527457e-05 0.0001503648261593325 -7.347363821833288e-05)
(2.294223451434787e-06 6.610168311621767e-05 -2.583759905560412e-06)
(-1.487371991819577e-05 1.728604722356928e-06 3.866236146138864e-05)
(-0.0001285734272694452 -9.164629524156422e-06 -2.261356809455518e-05)
(0.0001359499342464441 3.277766261927223e-05 2.766934770744583e-05)
(0.0001063478094992479 -5.675654699975626e-05 0.0003249839547926791)
(1.953458783748491e-05 -2.298808317818226e-05 5.639429777139772e-05)
(-0.0002213686871468828 0.001981323515854883 -0.0003080528769940339)
(0.001254487711046638 -6.660369026744017e-05 -0.001219247807497206)
(-0.0003521575301429807 0.0001917399185699598 5.606251022620293e-05)
(0.0001546640349958193 1.669376427878543e-05 0.0004140514967317517)
(-1.565785721866904e-05 3.316316985649497e-07 2.228152673146682e-05)
(5.045817823076852e-05 0.0001052458833236472 -0.0002162503025032746)
(0.0004327574876685999 -2.248613266903251e-05 -0.000132620092835791)
(-2.696150507336276e-05 -0.000386956189455154 -0.0001001118301089459)
(0.0001163593156292486 0.0001416810448279153 6.806626191411418e-05)
(5.535462309950964e-05 3.324763666196346e-06 -6.438854280882428e-05)
(-3.068051608656581 11.50712840898768 -3.201288322307493)
(-0.002682667500642781 0.001638093460549741 -4.034629085521304e-05)
(0.0005962770301517886 -0.0002360853238631985 -0.0004445099095431854)
(-0.00515887070729718 0.001398408189839015 2.911631448667063e-06)
(0.0009195630532019276 -0.0003231866560961731 -0.0002451283090284579)
(6.531251004529524e-05 -4.806082381903496e-05 8.549404614692971e-05)
(-0.0001515003215251662 4.941854587626697e-06 -5.518490245564034e-05)
(-8.620652626126066e-05 0.00011254877323072 -0.000281114134864635)
(-7.27953404602801e-05 -5.210098720047619e-05 -8.714440692550909e-05)
(1.995874657678428e-05 -2.919331079219463e-05 -5.588146411224536e-05)
(-0.000358461967687115 -0.0004659907336191615 -0.0001312157965826942)
(0.0008229079528813395 0.0003937014075512817 6.278642621173857e-06)
(0.0001742582382784166 2.759453019501008e-05 0.0001236798527840602)
(-0.002081188990943252 0.007820847289602278 -0.005277350469003251)
(2.434851400029546e-05 -2.595167091314327e-05 -1.981314702635032e-05)
(2.814610616417322e-05 0.0002409189535174933 -8.0413586649793e-05)
(-0.01493641162375552 -0.005277605025569125 -0.002351060503026418)
(-0.0003682318361467456 -0.001327644201538244 0.0007281332236919277)
(-6.972079603106502e-05 4.939777652894703e-05 4.356991078179268e-05)
(2.074730614952414e-05 -1.719854167541469e-05 4.543070937650479e-06)
(-2.693634402771568 -1.981091515806441 0.00114900156590729)
(-2.691479540903351e-05 0.0001196413743625444 0.0001251124563632435)
(0.0002118687602595469 -0.0001219762893036614 -0.0001346481766029158)
(-3.40596142176573e-05 -2.706248075372352e-06 3.25517976695882e-06)
(0.0001491614363615772 -3.941142396017809e-05 -2.302303521475659e-06)
(-3.547928036690738e-06 6.490438502060711e-05 1.348247574221698e-05)
(-0.124980306911054 -62.68312074736565 -2.337313066132774)
(-0.4050600724012965 -54.3866431588652 -2.364206273892234)
(-0.6404777550211498 -0.3363909664315561 -0.05953864999588351)
(0.001108067228546497 0.0004192495991131578 -0.0009129882656188569)
(4.186729937157343 -3.82396015357746 -7.384092665812458)
(1.105499381961984 -5.778205255125282 -12.18435719476205)
(0.8588906212178041 -56.56359940748226 -8.653210386672622)
(0.0002234253034189286 2.812574712575269e-05 -7.423979947689492e-05)
(9.101176377822343 -7.170856840767965 -3.285188075728072)
(-1.716461825260085 -10.92035695632395 -73.25217032950532)
(-0.0001942097052862086 0.0001036073590343622 -0.0004511349487528119)
(-0.0001266330698746346 -0.0001876168332293518 2.195890116885862e-05)
(0.004654026623281091 0.02687153767731863 0.03328548996401287)
(0.2688892010112109 -5.185854853951624 -58.88031124475368)
(-3.299798677627238e-05 3.009359449715475e-05 3.856987993965854e-05)
(0.0003811110731193986 0.0001740637340128 -0.0007245557018137506)
(0.0002132125999709707 0.0001254194666834069 -0.000154964943322641)
(-7.019665480337506 -12.03950047371257 -8.057656552392473)
(-6.650982957782398 5.326731790913524 -6.523515202064153)
(0.0001612311996936568 -0.0001629408591429628 -0.001878857147416103)
(-5.28406101023768e-05 -3.309852559161683e-05 5.025827458133863e-05)
(3.613904293937073e-05 -1.555296314079592e-05 -2.171835270234269e-06)
(-2.136512896188111e-05 -5.397532578658832e-05 6.586616953398854e-05)
(0.0007828787778356391 0.0006979171015468557 -0.000568162823860553)
(-0.0008572918342032604 0.0007088475694056218 9.079294419987838e-05)
(-0.003224346417803197 0.002019013295487346 -0.0001787187227551919)
(-0.0001167741311986511 0.0001211996758836585 0.001484714977588997)
(5.587898693066829 11.67925600501629 -5.538662432675716)
(-0.0001796725792756302 0.001988336223018599 0.001204511496257643)
(-4.662503069070354 5.194976940013341 -61.1448876202812)
(3.452905993615387e-05 0.0001343712595110243 -7.594944153914448e-05)
(-3.926910279204283 62.82243496157893 1.177858495729736)
(-2.69048380954274 77.0490161800671 -11.23845084401994)
(0.00103636127146191 -0.0003359306247749633 -8.753404183534184e-05)
(1.697465327407934 5.406240101907801 -3.395743294695013)
(0.0004360012727851459 -0.0002835567952279589 -0.0003205696160884019)
(-0.001187406259812647 0.002175974084006545 0.002597371313825021)
(-0.000481639591348635 0.0007821441152171692 -0.0004203142906719723)
(0.0006005209595798622 -0.0120287693356639 0.01874108875892904)
(-1.65798965562647 45.9601010433559 -0.3232719424723758)
(-0.0002426268147776708 0.0001150251789866485 0.0003656546384266546)
(1.97951007885013e-05 2.540328974131597e-05 1.123204218862725e-05)
(0.002831298210337649 0.001607639211558999 -0.0001748527475324962)
(2.838467119221715 -3.026288624598153 -3.153604853641609)
(1.355871775996401e-05 -0.0002041009354610811 1.855317155727556e-05)
(-4.96821880086968e-05 -1.210764260677607e-06 -5.562838266735112e-05)
(-1.804528550294189e-05 1.472297791874892e-05 3.763938506390597e-05)
(5.44595814237051e-05 -8.144010191561858e-05 0.0001187171362984751)
(6.351653193800553e-05 2.514241728480567e-05 8.853188751158263e-06)
(-0.001983629477259769 -0.0002304562155594164 0.0001589848575830074)
(0.01391459042167052 -0.008638976239438555 -0.03232865767143553)
(3.152839735697382e-05 2.471439836185237e-05 -9.658659638982112e-06)
(0.01713220151305739 -0.00557854054122385 -0.005283824589718716)
(0.0001078468809191292 -0.000234737449235286 9.497712475029462e-05)
(0.002559307927603173 0.0001850231593369029 0.01803381975718029)
(0.001619560410607881 0.006660889008341023 0.01234114724355231)
(-1.80605230546877e-05 -1.615489466301878e-06 -6.136211286833076e-05)
(0.01782160979954136 -0.002275948435903659 0.002839731461515773)
(-0.0002964880139980905 3.434305654038088e-05 -0.0001919712891145396)
(0.002681290919975594 0.00678285416897354 -0.01538996678768928)
(-0.0004486025665462979 0.004141074878436254 0.007472057944421868)
(-0.0003037743155619645 0.0007395610417253259 7.120280070240954e-05)
(0.001936323087187563 -0.003988075071755791 0.01490328019175033)
(-5.623793101143218e-05 -4.623480374713573e-05 -0.0002468599714013148)
(-6.172016724745349e-05 -3.940188200434969e-05 -6.38515336285534e-05)
(-0.0002969183630138699 -0.0005381160468442914 0.0006091716551496725)
(3.982632694313136 15.18739411740147 19.64214897245893)
(2.456295122740206e-05 9.487861593829462e-06 3.7967196297567e-05)
(3.920941119306648e-05 1.322832951497236e-05 -4.670970204199655e-05)
(5.758926779156238e-05 -0.0001735333920837974 1.585816302284403e-05)
(0.0138188730096805 -0.0258881554966672 -0.03728902513953856)
(-5.863564929690027e-05 5.807873909630556e-05 -5.390433331056081e-05)
(1.629897978023784e-05 5.311681539030942e-05 -0.0001475018803043086)
(-8.503980987506271e-06 6.555319810163287e-06 3.998530949542619e-05)
(-0.005621703024031868 0.02967844463278829 0.02113136810627514)
(9.266063080438998e-05 4.395920455348712e-05 3.949227818011409e-05)
(-5.110873672838037e-05 4.599685891209054e-05 3.601318531922939e-05)
(0.0001541157594173989 0.0001956467385649047 -0.0001499578924198884)
(0.2479395803726132 0.3330565904371948 -0.2451737502029593)
(-6.625370636305482e-05 -5.990548615238974e-05 -3.523197691191318e-06)
(4.083023468081508e-05 -4.579855441385255e-05 5.898765624871264e-05)
(1.578134574133886e-05 7.14433760101788e-05 -3.653105718214638e-05)
(5.509078973016907e-05 -1.954771851291613e-06 -1.546583738557793e-05)
(-2.314958029366496e-05 3.164573440815328e-05 1.479859882510708e-05)
(-3.521747708504334e-05 -4.246433631318545e-05 1.57242285751961e-06)
(4.314355134168008e-05 -3.82298033338456e-05 7.971858193764717e-05)
(8.276894718006845e-05 4.215621707989422e-05 -0.0001691558773249831)
(-8.28016571247537e-05 -4.219637840470605e-05 6.506933727276637e-05)
(7.093813893049224e-06 3.550966213279865e-05 -4.957519190904884e-06)
(9.79420320572105e-05 -7.040753789279585e-07 1.658334985789662e-05)
(-3.484822193051151e-05 -2.041474569864783e-05 -0.0001088376305902267)
(-0.000167260519365397 0.0001218820856753922 0.0001636066016883799)
(0.0009777375879101915 0.001145161358807271 0.004069232961534888)
(-0.000362713977313482 -7.231968600534571e-05 -8.938365286440404e-05)
(0.0008238545232712548 -0.0004394487844981863 -0.0005285377866008024)
(0.0001255779369831178 0.0001012109806915957 2.926836307695077e-05)
(-6.194989673460919e-05 -4.029217371728272e-05 2.839155720951718e-05)
(0.0005632038401589717 -0.0003678626862526589 -8.281323396244678e-05)
(4.572617357492424e-05 -0.01855022401700883 0.0006846680253907991)
(0.001082178005930864 0.001289240289578214 -5.555127396159838e-06)
(0.08349315845915525 -0.0096596865938588 -0.006558031324743484)
(5.154219637101685e-05 2.447202289934948e-06 1.585860158749723e-05)
(-0.002575487975989169 -0.005110706721920939 0.01440620070301495)
(9.458715520377382e-05 -0.0001711591413395586 -3.832258461561363e-05)
(-0.005685850792193733 0.002774345188070778 -0.0001396046980579167)
(3.026522554148364e-05 1.56072249630724e-05 -1.808419512518295e-05)
(0.0001923143800153036 -9.515835178329646e-05 1.407351887446466e-05)
(0.06316201361266581 -0.01613486422009165 0.03334598294217504)
(-2.970015853309689e-05 3.145621203020159e-05 9.550790922943467e-06)
(-0.0003039746819594244 -0.0002434838994875208 -5.287548303795365e-05)
(-0.000125306031835333 -1.705494289220568e-06 4.483871629610877e-05)
(7.518767342617146e-07 6.51542690409148e-05 -6.930349727228274e-05)
(-5.99514187967659e-05 -2.556310782270548e-05 1.286675882517225e-05)
(-0.00184672612218438 0.003170563265944578 0.001334373738049907)
(8.66697614531519e-06 0.0001344494855121408 0.000100533379731089)
(0.0004556796724779605 -1.758244972112968e-06 0.0001903337526862348)
(5.801575589768241e-05 -4.634060833146378e-06 6.351627938914225e-06)
(0.0001535757998199482 9.215574335093898e-05 9.439225133914732e-05)
(0.0006440795640285899 -0.0004127411804055076 0.0002067246596208694)
(0.123866648158407 0.06439941912101671 -0.02379608974090491)
(2.152085121877818e-05 -5.985335869359081e-05 -1.31852735506072e-05)
(2.525352630949268e-05 -4.119411197745572e-05 -1.688808063607689e-05)
(2.553164481416672e-05 4.96755999144619e-05 4.198824088757491e-05)
(3.538644832134607e-06 -9.069698827859223e-06 -3.319372549707037e-05)