/*--------------------------------*- C++ -*----------------------------------*\
| =========                 |                                                 |
| \\      /  F ield         | OpenFOAM: The Open Source CFD Toolbox           |
|  \\    /   O peration     | Version:  v1906                                 |
|   \\  /    A nd           | Web:      www.OpenFOAM.com                      |
|    \\/     M anipulation  |                                                 |
\*---------------------------------------------------------------------------*/
FoamFile
{
    version     2.0;
    format      ascii;
    class       volScalarField;
    location    "1.6";
    object      p;
}
// * * * * * * * * * * * * * * * * * * * * * * * * * * * * * * * * * * * * * //

dimensions      [0 2 -2 0 0 0 0];


internalField   nonuniform List<scalar> 
19632
(
-0.1668448819628049
0.05154649863392484
-0.00608092642377168
-1.273689797353569
0.09635829975592264
0.08455606288791094
0.7970912682017834
0.03792291529075337
0.06396103873827609
-0.4240681181138509
-0.3101417407250545
-0.05264202959458865
0.06971447750753111
0.0364483653237501
-0.2313302662830515
0.03964479467815437
0.4190596876880098
0.2965308634038321
0.03982126643083773
0.03352853925939597
-0.1100690138594769
-1.753766125776332
-0.9787029950851232
0.03460223474500825
0.03481882718293472
0.02997432337654983
0.05314554839369483
-1.523085495061957
0.05765722809986987
0.04400660554823527
0.04295469987590526
-0.5276642242455049
-0.4217608296367589
-1.361981030967407
-0.2441997335506427
0.0551598931067036
0.03292374913266171
0.05138818744754373
0.04399528682588194
-0.3560915155490131
0.03236108269978388
-0.1188600457607945
0.007080689973607566
3.340449696942798
0.03547610794551507
0.02711787383069761
0.03203702553915688
0.02521571538932314
0.08633431381543319
0.4146152530442132
0.13776757107373
0.0263713039437483
0.05022266176226121
-0.3781346479730774
0.08268812466274589
0.02764311023628652
-0.8567801406847377
0.03500285924377491
0.04070200301551177
-0.4554936754111239
0.04927712249753066
0.05414423684239538
-1.447280022354217
-1.845580831666167
0.02079877388607059
-1.611363091336418
-1.848169369077778
0.07356086120117553
-0.06295540819166068
-0.1012892430907686
-0.2078013594489135
0.01316037175321282
0.03180009509083033
0.05757978597965933
0.03824564725919485
0.04081623455525747
0.03185864800994678
0.113437551970087
0.3795468484783069
-0.4209665708578453
3.935905927994945
0.3763215339086229
0.04311607038069084
0.07317576029274409
0.04734167925359499
-0.4214735750045882
0.0298797326717352
0.05535360630693469
-0.8216542863155468
-0.5400914472765351
-0.31493761023761
0.03280920653367064
-0.1315198018523361
-0.2705396269621928
0.07362602049437984
-0.4760657665237579
0.1020147664397161
0.05062951821259349
0.03967784738115155
0.05590847174997163
1.022828503674344
0.0348053124478821
-0.2763680213600535
0.03672294915861678
-0.5324063251909061
-0.4402016053857539
-0.1895230024804578
-0.307810601214026
0.04148146346235004
0.01695127521455106
0.05336540240802132
0.04220684083579299
-0.3213615209931951
-2.106979584137131
0.03565916073330258
-0.5203313732606947
-1.941576541347438
-0.5319313501281884
0.1103521583029211
0.03389004038831291
0.04312392022385989
-0.09946409217887314
0.07251706110713479
0.03273134203555919
-1.465363442426137
-0.4226688428677968
0.04964709693502674
-0.1485838725803191
0.05486081327850656
0.02401457052257129
0.1001831344194862
0.06006521235261835
-0.3126693247438792
0.02234663166356331
-0.003471784864741364
-0.2299917382059992
-0.3168723867195357
-0.4868036246610478
0.04371677975415795
-0.3377826358177318
-3.578480695835213
-4.493025588638875
-2.657474097973318
-1.912169827189738
-3.200102385039641
0.02967202951958374
0.05895267132819063
-3.848132228801431
-0.1886683239522604
0.03941724096770776
0.1734960312999603
0.220046481712936
0.1610951333339485
0.0366599737582796
0.1576533927175391
0.1167041630135759
0.0299709249870511
0.06096939409794859
-0.2289128238159508
-1.887746860172978
-2.862969815046998
-2.513567882644712
-4.081212674248624
-1.62564310638809
0.1226329243057229
0.04630694099756891
0.06174977822900349
-0.5277893671923665
-1.894906439411965
-0.2833078685269202
-0.004939465797769453
-0.1733100568372789
0.08630925180543024
0.04338757694256632
0.03877697663759086
-0.1628896122321699
0.03519280623950212
-0.1894432252199828
0.03780098194484197
0.03959788020860968
0.0251834926019342
0.04112549462162791
0.03769302026748497
0.04218729516486715
0.05240695884982059
0.04514892280674773
0.07330130224724525
0.03173671160952393
0.04127322020017953
0.03859549123010535
0.07881977748684917
-0.2383344134101952
-0.2689562820451518
0.190136187899091
0.02895001681175425
0.002352145967504096
-0.1518168613694703
-0.1534790716434117
0.2049700228578309
-0.689751265872087
0.05031434746467964
-0.2118987672977258
0.04291471361583527
0.2014609230964523
0.07827117460389575
0.1576889806131395
0.04546708454791178
0.163891485862338
0.03455660880365044
0.03314689117436412
-0.2854888624072753
0.01286326969479253
0.05192341730664615
-0.4805485862174865
0.05925536193923345
0.05207873601358852
-0.4265496150117291
0.02409954608997027
0.06273115980775561
-0.01782417266287264
0.07052892377803792
0.1039074536181498
0.06578250239772099
0.03201315679693195
0.1514548670068195
0.04847551871469836
0.06758562905078523
0.3211846313561231
-0.1327881409204687
0.05688632437115674
0.04132832501736983
0.02341312232735664
0.03390727761848265
0.04304836126999997
-0.1161336808033975
0.03105016068518074
0.03995932138014261
-0.02346235571179353
-0.1567854268908916
0.07516590892126199
0.02809920454789549
0.6349485377071415
-0.3801918155709522
0.1406341816248343
0.01886429202330817
0.1014021807354847
0.07757686819318638
-0.3551259108052739
0.03326392501992211
0.07161685083180359
0.0180270252035871
0.04962501446441457
0.03836770546426917
-0.1726894622041918
-0.3634990429079217
0.3568867945973553
0.03487795813740958
-0.1814481119795464
-0.2536906852816915
0.1366279122432573
-0.3662956938266897
-0.5033894582023674
0.07158533222017861
0.03946586112289322
0.1927780142037662
0.03840506166994408
0.04954212536091054
-0.2213764888870097
0.05917138631129772
0.03738546560707735
0.04213873570000777
0.04225709830125061
-0.2957192163005858
0.03094801716900824
0.07784162978254298
0.07686380102877843
-0.2998085036439951
-0.6584990987058574
0.03834986633734636
-4.039791479392814
0.04179659690991431
0.1106891755207793
0.04364040607191322
0.004623125096967238
1.287612092166956
0.3151729203945104
-0.6194085046949421
0.2578250548443036
0.9379223484832511
-0.05818772974819483
0.01477566052992289
0.3737879537632135
0.06131664693851435
0.04266698798444449
0.0356457791941549
0.03131392634058236
0.04521666017472183
0.8727201205357167
0.06229143618115358
0.08886935760583678
-0.2793982066065077
0.03121573266113318
0.0803222213417813
0.04216099772585497
-1.72508131044667
-0.1522091259352307
0.09459940810609975
0.03470791894986586
0.05295889897785473
0.03240847709173177
-1.415900475352218
-1.134868438679421
-0.6121519027675449
-0.3791350960893454
-1.873706302259718
-2.292718117989556
-1.591234190674387
0.02527813974482776
-2.185033076948089
-4.905387647494087
0.04215785498902361
0.05343624059774103
12.50786753359227
-1.895603723088781
0.04730522108010655
-0.2250433513692462
0.3499073044093547
-1.699263005927248
-2.228117526665206
0.05603535974475903
-0.07856417149809518
0.04267566522242602
0.06752514986609498
-0.5886987491709553
0.02773482093325375
0.08313331106093803
0.06577152432926546
-3.050917380580612
0.07117630362206419
-4.513029902561377
0.1825943721627562
-2.000402380398683
-1.48287583546509
-0.1831166390011676
-1.682521794515467
-0.07798516763701169
-0.09956155097471661
-0.1568405660682057
-1.452740840809828
-1.855793922622701
0.0450120813831768
0.04891679562865659
0.2935967252510023
-1.662105124484369
0.07858056474339287
0.03593245271140295
0.032107634887898
0.0625734062854581
0.0619161280606742
0.04752866027535489
-0.2591856585906498
0.02661418928033604
-0.2328261213302877
-0.137835755338905
0.1461526798418066
-0.869203430922929
0.233273697063424
-0.2316808071161214
-0.000292045641837435
-2.219008305779909
-0.1956097756497973
0.05837931265662903
0.4578325899229185
0.1610144113421943
0.1506002957448035
-0.1664099680833416
-1.889891291801185
0.03799536281136386
0.04048584334182958
0.1688018034291397
-0.1066131472456607
0.04038749022951401
-0.1040076793367884
0.04037720080281207
-0.1661514792431448
0.03724778263242805
0.03614743597518801
0.3686171902390638
-0.3866356032447218
0.04047836204418844
0.03144726292490713
0.06572072202384246
0.0410239589296836
0.06400398275571295
0.05724915615473294
0.06697918914300831
0.08129376639514804
0.08087058048152028
0.03243970976711905
0.06751798451454559
-0.1259718490672717
-0.05252842985108396
0.225264711215747
-0.1157601389640014
-0.09692323363116465
-0.02514686849124414
0.006620269345060253
0.2236952595161238
4.737771831045745
0.04152398122843748
-0.2343236978160191
0.009073618813686058
-0.5784815813694834
-0.01811329427186252
0.167918355954011
0.07998385528498925
-0.01515182336016489
-0.1158705399772984
0.008324358810221149
0.4601439100136155
-0.003172973623804267
0.1195972650428452
0.02680499229333528
0.08132560854826458
0.09034591700189296
0.0441524262382644
0.06618345422938567
0.06608651595757131
0.04219454177102406
-0.6641975176515731
0.06691091122942669
0.06720638840009587
0.06136989179155088
0.05482102375157736
0.01762185713618401
0.009671699748484693
0.06240273745907528
0.08181537917952124
0.08316024035286029
0.07349485880738256
0.3027651761470472
-0.644759241496301
0.2688542103016296
0.3536539997681529
0.1261902095525304
0.3262918178292056
0.03314438377020502
0.4074245889496738
0.09101133809974729
0.09923846072574914
0.3387992754275038
0.1791019435070234
0.009032937376439461
0.2012288914336428
0.1045905111899983
-0.1346357527643778
0.03521758241112621
-0.09737106719757317
-0.104358454859108
-0.2101617925164585
0.08977698679574872
-0.05855991364482326
0.1266586619209654
-0.1295632506398732
-0.07360544272118702
-0.03209213887541701
-0.02749475128308432
-0.1859129141068615
0.02449219940377046
0.1124900585352584
0.0393926207685899
-0.4449697998077984
-0.2244722373496671
0.07761523118031938
0.05447779089974204
0.32141760564946
-1.637494503220074
0.05114921340074982
0.2872541132416279
-0.1769278336137978
-0.1254072438151749
0.4778769057751389
0.04151097195375667
-0.3372619534031574
-0.1360234825438733
-0.9568279474332596
-0.1265065061254962
-0.1753426334970387
0.04450760506108697
-0.1016547509573829
0.05354420590105913
-0.3847896946956634
-0.2779752762171673
-0.1932170442244676
-0.1210487384485956
0.0329797872694565
0.07488928470914777
0.06851775671539358
-0.7395480528001225
-92.30132534597094
-0.1888420057686485
-0.2296161270418777
-0.02062947290107046
0.06342274748264363
-0.1764664262489085
-0.2892611433038717
-0.3322714224208299
-0.2201500511477597
-0.3003560719888522
0.128154757121265
-0.1729028844944182
-0.81333784027877
-0.2433394167740237
-0.9665217821783527
-0.08935108109152963
0.02585566726188087
0.06442515801738441
-0.527874624706698
0.5968390008639177
-0.3750737395228318
0.026327929723458
0.01840797720208848
0.05087727829798026
-1.276105014242195
-0.306480350361643
-0.44141346985622
-0.08108457890207531
-0.2127029523975599
0.01791459931962703
-0.07712199744288013
-0.05000953280909507
0.00775583745488783
0.01316026096799183
-0.01917249174009028
-0.188410214860001
-0.3200235966460421
-0.09240811664767933
0.6791403138531112
-0.7115727253139208
-0.1600690851236259
-0.1834383595634096
-0.005927839495135195
-0.01237716024045603
-0.0114201882171685
0.01577301181081052
-0.1156932018345254
-0.255682240866477
0.0379491066269436
0.0403965582094945
-0.01662170473647538
-0.6248953193145598
0.03844129261489691
0.03574224693114835
0.03518976561636421
-0.4173421045227093
-1.800326247200293
-0.2802480091396638
0.03438526898681586
-0.06283933275072306
0.03245943320488796
-1.077908400327288
-0.106940423975257
-0.1876533596385847
-0.1339291304027804
0.01531313331205335
0.6060215408913532
-0.9321544249547079
0.05888761075339655
0.0680689566704195
0.03342266378956773
-1.614973059241231
0.05436901152402256
0.2438518861753354
-0.04628628483283536
0.03131986491675962
-0.4687303893089274
-2.281937109306404
-0.4484647760334708
-1.813519440889112
0.04312847423025756
-0.0388328985614961
-0.1600067348683037
-0.335782363210553
0.03256749434947342
-0.1946834022080595
0.4815099401154268
0.0175903812703309
0.1941497224424362
0.02169142120756731
-0.04234210699139148
-0.5037194573563336
0.04724522431529662
-0.05592602716107183
-0.640878626227348
0.04319788593349409
-0.5273359331047336
0.01992612363721421
0.04004301473035911
0.02154546878076276
-0.1573237127455445
-0.06115827166343472
0.07613784972128121
0.06531130874048076
-0.021432176935723
0.1655005736613089
0.02448787254187399
-0.2036659983707398
-0.05961631225541653
-0.2408949530731397
-0.2045438547563561
0.03311635724693968
0.02363366749997717
0.01968804349881564
-0.5063603343667639
0.04561540794470769
-0.7639530795668866
0.04429536788623469
-0.5168649099364205
-1.1703855839818
0.04682490695090464
0.05956267922782994
0.04778249505739567
0.03584026871905319
0.02003865256013852
0.02210769092738983
-0.7505535578402789
0.0323466601527166
0.03743226216092514
0.06139311799689814
0.06244956281453383
0.0364878466468143
0.02421400935693793
-0.2198214176893883
-1.009979096544213
0.05695685317427743
0.03261995045231263
0.04614503243053756
0.04556055896103887
0.02309009784433824
0.03708243787414187
0.05775755704602288
0.02936100696757667
0.2733598964492894
-0.4254159133497962
-0.5769985411784599
-0.7532729736065624
0.04487620966429148
-0.02578756876363308
-0.03943348480708284
0.03966745992100171
-0.2695125436768805
0.04039003051157881
0.0425246613103808
0.04169254257759172
-0.2906557848953326
-0.3739722433477382
0.04400603805152857
0.04430118958362603
0.05375415323034962
0.04067914933467481
-0.8807123487243773
-1.001444779889636
0.03302351739488944
-0.2721435535131075
-0.1033293838708246
0.03035255120755245
-0.9180188114746209
0.02656585472759941
0.03404164268625344
0.06208763488386477
0.1897089682109567
0.03769376936190758
-0.09215818637374362
-0.07451485965547228
-0.4310255896061324
-0.7467937360320513
-0.5678097346895861
-0.1561155842343153
-0.1511830065757757
0.1048376320324118
-0.1578626847585332
0.03755970608720043
-0.1026646392910343
0.04135459497713566
-0.1625151774529342
0.03969263287137919
0.0727136807424799
-0.1625792296779447
0.03278588913723288
-1.163082589097127
0.03224451155832478
0.05343683736646598
0.03477490475227202
0.0343497922393904
-0.07560836132366902
0.05424078764916295
-2.145701170728085
-0.04566082681475877
-0.04990153656395337
-0.4775768925396502
-0.1838530663976276
0.1683881741625454
-0.6967556113632031
-0.7442272727512375
0.5471878958906603
0.07452642680674651
-0.1269895113323819
-0.05459318812988213
-0.198434998401334
-0.1556787542278724
0.03289124934115033
-0.1522325091161335
-0.154190837014449
0.03124516265136919
0.0417683935982071
0.03183953905379932
-0.4401868680933736
-0.1954813593753854
-0.3151684584364333
-0.490586841907322
-0.1034361197935363
-0.3328806863820278
0.03121015802279964
-0.5179608832221964
0.08380393289930224
-0.1215469637157209
0.05789894555110851
-0.08587052848717353
-0.2243810513668111
-0.1039903862992028
-0.2873425030029976
-0.1201348267378701
-1.009109340802679
-0.2165850546488299
-0.5234585631615861
-0.9622196479378081
-1.302971251668507
-0.4082694187949776
-0.1751021405605653
-0.163598571617783
0.1442971204453898
-0.2033240120779305
-0.3091748562728434
-1.096608041542568
-0.5494964860868645
-0.8890214408451717
-0.3178196772455784
-0.561125878325625
-0.3729550551353149
-0.1994925912144766
-0.1740481010835185
-0.3468336845063806
-3.57427999221
-8.086412158289393
-0.1323892411715901
2.355049761065757
0.2455028525442347
0.03537929499415091
0.03725764310653838
-0.3958831898540233
0.03722074938156926
0.03381128591151108
0.04018723495793865
0.04681218186361315
0.03917127720606184
-0.1909820359141565
-0.5708935620861915
0.03679462884090148
0.04841968461164275
0.04334957138619071
0.05108443711952275
0.03605328768333496
-0.1931034857753365
-0.1727831971188688
-0.2443398963861514
0.03477156159975048
0.04222673901198197
0.04158013481900864
0.04388765704810031
0.04383176625583607
-0.23109926313961
0.04493831020318077
-0.1728891693595611
-0.6168126350780292
0.03817691305451378
0.03355729781003136
-0.0642448640620885
-0.3736159523748546
-0.452567318267904
0.03879524971759601
0.03927673033265527
0.03872679990949413
-1.050608148031041
-0.3458513519275291
-0.04116155006665533
0.02886344591050817
0.02805199275268909
-0.2838113025038176
-0.1280229941516581
-0.08239144400574062
-0.2436130726932356
0.01328760901671005
-0.392001828131926
0.1234072923129761
-0.3684603373789741
-0.5517065747225718
-0.2343268828605801
0.1132539939560082
-0.7888497130854258
-0.2194932410241539
-0.1500640607434581
-0.210997696681989
-0.2371532199164546
-0.8402342776389354
-0.2854302429934931
-0.130903860838334
-0.06797028339928014
-0.9435318234758751
-0.08624473520424344
0.09839565608926465
0.03819758439698265
-0.2490322820021194
-0.02698121464553261
-0.0476966239699615
-0.04908206055165384
-0.04707391544758172
-0.05607564789988631
-0.2793132857010147
-0.2002626346287421
-0.213524959237785
-0.1516450861416449
-0.02724191579223517
-0.1664387784647536
-0.2081746966289529
0.01092864940965836
-0.683139844514667
-0.156519630221299
-1.710168641902901
-0.286461114139287
-0.177721771065877
-0.002741816700920178
-0.8504479289798074
-0.44736900351138
-0.2796202604474547
-0.03600982999118668
0.01372784910672457
-0.4661633059231602
-0.5136434419325467
0.000877328762110008
0.01591933127860036
0.003393143808282243
0.01865512965191247
0.07845406175351755
-0.05870567913996746
-0.03311569565325076
0.0636042133115164
0.07526498784253054
0.05675461073514193
-0.353474679556081
-0.2697681046598426
0.05493417371407689
0.05146150036643505
0.0335253387171322
0.06918508970127582
-0.0438173157575289
0.1044790075130193
0.107039855920992
0.03004227418261585
0.0155298713939808
0.02651550234597487
0.02956693108827164
0.03335012165626938
-0.3416243677547953
0.01022121809613538
0.07691081723676561
-0.2830554053513852
0.0441377287216053
0.00945587944228185
-0.8494734164168433
-1.381831120886771
-1.193365262442939
0.009635331759413142
-1.767058084730744
-2.409973753579309
-1.758956259784755
-1.726759877024851
-2.744574998495858
-0.2184077322442285
-0.4413138048797648
0.03365063025153887
-0.5180502971668548
-0.3135211156748606
-0.6252074863431428
-0.1103415553628383
-0.5711023307573366
-0.434530402410961
-0.1544675244208296
-0.209198810332278
-0.4501271835454193
0.05959353638194447
0.06276986791714062
-0.286273969120781
-0.05430317771503102
-0.1775244002623804
0.309704370407941
-0.313735722752846
-0.2147917641165847
-0.1535873167109841
0.02845959056597462
0.09025884350520136
0.05098733078606794
0.009253085523008592
0.004349457206358659
0.03594293762711247
-1.342838976152609
-0.172894878776174
-0.2116615168217039
0.1866425702316333
0.03650970521338861
-0.1987625242503913
-0.160694831125529
0.08540770585760925
-0.1217219296814006
-0.2220171965619076
-0.4750528502014415
0.03043349259978104
-0.3124148050243413
-0.199850538575596
-0.1813629131772352
-0.09919727062208931
0.0329104564610698
0.03972025352317762
0.03576517966402475
0.2652189274274209
0.03808838814991809
0.03425762383412362
0.04291469140936601
0.04491494508744564
0.03687355556510366
-0.8354092217911171
0.03954538800353877
-0.6408789488121538
-1.027309680217
-0.3532424643177083
-0.4289031424643474
-0.3874359840977761
-0.340146146435601
-0.4251655001109655
-0.4968051951482668
-0.4752774279123195
0.05755174106959189
-0.5102289622509188
-0.4056624719999423
-5.468364223853965
0.0370274647525971
-0.6672205523670897
0.04942279731384444
-0.595221845936927
-0.1638516652350122
-0.3157717046200482
-0.1669810034807525
-0.2629803518380009
0.05184574218719745
-0.01938622589796246
-0.03390403694493557
0.03410134933319558
0.03955530695174213
0.06190288431554715
0.03481344683647601
0.03498486651324546
-0.9215601057893074
0.04314989770310872
0.04664597012873982
0.03824926087277928
0.02316811427204651
-1.473882091233371
-0.2119666414555452
-0.01801144717486759
-0.407901223184145
-0.01785658513092693
-0.01106935723271668
-0.01455022887934578
-0.01982042265661766
0.02390944978052687
-0.5038958701731576
0.02781639924157902
-0.02259288610459226
-0.338410037598368
-0.1796767939007663
-1.27912766844572
0.02086914461066634
-0.02873665245826387
-0.05784782650360468
0.05845681296116137
-1.047127892453993
-0.6033622124422574
-0.02145372962287052
0.007728353354430591
0.01209807534815054
-0.1883229768526616
-0.04046949486357423
0.0007924305738060928
-0.01656870032242006
0.02050040420405801
0.01401820002016165
0.02069129002878923
-0.3704471160696263
0.01545951220690588
-0.2636297676552588
0.03065644840524117
-0.2057898681266211
0.02022271743749466
0.03339800534568913
-0.03944707318347089
-0.1650809544737271
-0.006766850798826699
0.02217623261251752
-0.3390182591063765
-0.8767385456782254
-1.121146732474804
-5.650937343555027
-0.2733663209203326
-1.356362517875136
-0.4488883671798075
-0.01679906134606029
-4.482130650823023
-0.2870365796903811
-0.3471458808445888
-0.1512856904013221
0.02771629845491762
-0.2178910531041283
-0.6120415715011573
-0.4413075081280439
-0.5222672675503951
-0.636979685318108
-0.4506532547052053
-0.1322728691979447
-0.4205982845351929
-0.4154447867095369
-0.5961226815963009
-0.223931959701778
-0.2395284367554525
-0.4517959146052335
-0.4242316245363247
-0.5272974544515383
-0.5249361807317851
-0.2638471956467516
-0.2316851500779441
-0.1904524588742475
-0.8656796259169938
-0.1925465590855064
-1.101929800921153
-0.282620897717502
-0.2842633388500886
-0.2103826152214306
0.08164706785815416
0.0348841416113894
-0.1497688781300573
-0.2045130674170609
-0.5476825633129992
-0.5381931060667552
-0.1553189872965833
-0.2601421303651477
-0.459387614513831
-0.1170020678664069
-0.3361325318319578
-0.4242908820909319
0.03096239911474738
0.03175885389266827
0.03023672205034128
0.02921558108509031
0.03030902456798882
-0.140141937268829
-0.2243614607412232
-1.24182073306968
-0.0678765369536449
-0.4319164648926972
-0.571108205011718
-0.4200159605782881
-0.4383108144841761
-0.2527130537595601
-0.2903861685669653
-0.2460400706495635
-0.3718074209788223
0.04841215387624175
-0.002125586481343701
-0.1983255492062161
-0.1812198958169674
-0.2880969399184117
0.03584450874300096
0.03135833264204899
-0.2832462073085414
-0.01375622843896562
-4.102316105898003
0.03394766638176691
0.3125253726462954
-0.188009393606349
-0.2281141116846314
0.05297353874102646
0.03985895028963374
0.02130940742341349
0.0354564987844506
1.677946154440162
-0.1199130341196758
-0.04702828534707604
-0.305088786633592
-0.1810696464018836
0.03427550215336201
-0.04817199148623845
-0.09815788344558705
-0.2302381868577309
-0.05722542978156786
-0.2731775283096399
-0.06360815000511394
-0.243634743661811
-0.2430971466383812
-0.2166779338806927
-0.237318004136281
-0.2140545900887411
-0.1324985431167897
0.08354637993233972
0.6784807194574922
-0.06076418692460001
-0.214320415694323
-0.3566286436007496
-0.4627031515775383
-0.0429821549887372
0.05619550951353875
-0.330967878572593
0.0307606162045714
0.03933508733116316
-0.1352435164962815
-0.6804815592668929
0.02867517891949027
-0.5063582294745784
-0.2751225420872073
0.03076300958177269
-0.1863607422556905
-0.5394643785809539
-0.4698581885741054
-0.5683968080185184
-0.3511305472815989
-0.3361293120130826
-0.3523920176628
-0.3200379393206583
-0.3466149715288843
-0.4481812731099089
-0.4060409085258918
-1.150565999463868
-0.1719841360621879
-1.050012290910407
-0.1704053365469831
-0.8135228166019268
-0.1666476222868296
-0.7198644413323272
-0.05329942261273486
-0.0598674683718755
-0.04465245003702847
-2.00571989344456
-0.05015432405075951
-0.02009977270197975
0.09894823528447552
0.08375495504182719
0.1013312847837103
0.08117755273213954
0.03520988141804574
0.03383871000835444
0.04049063588320796
0.05101792588907119
0.03711056501258927
0.1018713531481987
-1.516895683599042
0.1274636697535746
-0.3469626656406012
-0.1460350697362747
-1.681212452575803
-1.498026237605138
-1.557130130639979
-0.3259349927759067
-0.476314730899817
-0.3229794538544514
-2.892203895317115
-0.5291932101549404
-0.3238574403407923
-0.4132164435011309
-0.624209395713159
-0.7263779520042702
-0.6314009295922292
-0.5839706907237376
-0.4978493994567771
-0.7765483693040016
-0.2408551660825028
0.0480499781889205
-0.5054051762642291
-0.3479817058619006
0.004890868864782533
-0.03382115819816335
-0.4428102104123772
0.04049562814939731
-0.03078266099884562
0.02517597474469171
0.001915964937864255
-0.2539801365320891
0.0375350269932814
-0.7615252401935115
-0.1651800395833317
-0.0992972313246105
-0.4614152204434719
-0.205257723330001
-0.0485014865746748
-0.05444268039255768
-0.4456191505057514
-0.1759285527726373
-0.03284017416896226
-0.4934747792919718
-0.3359389764361424
-0.4809876212833298
-0.4066800889646537
-0.1347443426840986
-0.07164002211984387
-0.1633696626423906
-0.4545809668684838
-0.1185610596138096
-0.2862380139191762
-0.2267181791011081
-0.2365853636929487
-0.5830279134445177
0.2056643191178832
0.4329447684611218
-0.05393013639596719
0.1299883085592418
0.4068571717170246
0.06643694444318446
0.03640182985105007
0.06941919580966059
0.0682057962308764
0.0695142756076058
0.1621594164910666
-0.5745745957021972
-0.907646519088767
-0.1549913157810716
-1.023177571375725
-0.167445310705441
-0.3786034975696295
-0.8163593390812683
-0.404786278372852
0.008008735156023098
-0.0379386856835442
-0.01291846952391208
-0.3364413111510026
0.1659026527870793
0.01570192117570061
-0.4296100441524158
-0.2087394410554445
-0.4637621113097489
0.3117142733693577
-0.08074537122990565
-0.008360954299536273
-0.1274533991807986
-0.08580932849605197
-0.2718250566714939
-0.2182702259754507
-0.1631033593978618
-0.3522984090300078
-0.1105615108078711
-0.1482044690237585
-0.2744196351508494
-0.2585244600155595
-0.298103463672476
0.07548863823580003
-0.67013494236741
-0.2457743263399215
-0.662439747228459
-0.6910448750348162
-0.5562713966461376
-0.5542782300548628
-0.448352855425009
-0.8810601668114961
-0.6815869183223977
-0.3729957049530349
-0.1889636368945453
-0.3564582857244692
-0.6885593279752233
-0.5294130718235934
-0.6630340442779606
-2.125085893942802
-1.481595533353012
-0.2868363354832648
-0.563947188688525
-0.438555239406595
-0.3898766656857131
-0.7294903413265555
-0.3524209615409622
-0.585213965880035
-0.5737949981467568
-0.1393902950466397
-0.7667035702003355
-0.001691676544662535
0.0201333521792951
-1.351356783425222
0.01435140037169458
0.02489030178734956
0.1131551071399909
-0.1357491056888193
0.007512294823031129
0.06220749484776064
0.02094571406211325
-0.2041975663796024
-0.4476173818364639
-0.4929435652876438
-0.1865520455011633
-0.4292213257341336
-0.3565754991148678
-0.1697352131827397
-1.325208896999102
-0.2682538811240638
-0.2429844945225017
-0.4045206281768414
-0.1013379276545545
-0.1059613627525391
0.5754047904718258
-0.2339800139599562
-0.7181805617982284
-0.1108438748202676
-0.5312471903455018
-3.088305785274577
-0.2935153055722586
-0.2264955660115461
-0.2797421053806448
0.01796815834326762
-0.1846672428265219
0.01844721839376546
-0.4029609761829455
-0.1551758574732799
0.06703114744470072
0.01772739635231097
-0.2492639860563679
-0.4440848382382613
0.0178347200031525
-0.3171533738363814
-0.4127811035461992
-0.4797330715638938
-0.9726351597398125
-0.2373549717258333
-0.3622786189975097
0.01718208014906532
-0.04291865507461803
0.1014404310840168
-0.2768524071495622
-0.2264141256350832
-0.2391762313099771
-0.349601432001009
-0.1972183427278727
-0.7017824589177828
0.1834227892015112
-1.968204874824771
-0.811769632520883
-0.8959592193742245
-0.2110466535726189
-0.04487842477119618
-0.1413309653357712
0.03688204677615928
-0.7210250416159828
-0.3972093112960478
-0.3191784525192725
-0.2915304380380954
-0.3010447618652553
-1.000607313088785
-0.5065064313160945
-0.1862791881344191
-0.6205298064791206
-0.5603380064172119
-0.2047749304867357
-0.001079009075417702
-0.3267808910026697
-0.6702931884220015
-0.4220406131533947
-0.3162125365723747
-0.8110021709565777
-0.5147932522911739
-0.7095576745912361
-0.9664774515885827
-0.6173441676862578
0.02857593553653975
-0.0576657624639974
-0.4679381585694449
-0.1790081026929609
-0.162062016761218
-0.2932585643039837
0.03943573065098642
0.04099539792708473
0.1481846375342678
0.03141044258325138
0.04875083456464843
-0.1078587300132562
-0.3226331056339127
-0.1417090338161205
-0.3942534943080994
-0.2072098562877927
0.02729652002448717
0.02540306320265673
-0.2908724370857164
-0.3916178985563911
-0.3094633841308158
-0.2024539605333194
0.03144708798839176
-0.0172120120302152
-0.3916755831476473
0.03365316149699393
-0.1553458118760899
-0.3577162517783704
-0.824890134186588
0.09520658906644071
-0.1762692509972254
0.06908912623175897
0.09010778949549217
-0.2558284369897838
-0.2240269022832117
0.04141257915487084
0.05646678817857499
0.07451231146460162
-0.1078431381200726
-0.2769937350397771
-0.102091170195486
-1.129623630607209
-0.3675575523715729
-0.6839006104930705
-0.2933849927802324
-0.2213048816416337
-0.1999292784017324
-0.2679045445275344
-1.274487540813577
-0.2314179564889854
-0.5561010646211701
-0.5190181471347417
-0.09515470673614405
-0.2544646839980266
-0.3290866645682045
-0.4791074021960989
-0.2373066057382616
-1.661615760457434
-0.6589977763397312
-0.1866742008496761
-0.06775426662939714
-0.4278296630542272
-0.3137962389721479
-0.7650324862438654
0.03800306136484435
-0.1307969285226119
-0.2429096839233506
-0.5765161123783613
-1.540930056531262
-0.7457886123444155
-0.2848752943297163
-0.2031655138035349
-0.4704971079302236
-0.5264578582545311
-0.7011321234571394
-0.2508881161948178
-0.9848198399222897
-0.3217063809793455
-0.220785555715694
-0.1818518299691585
-0.6970399336464761
-1.481619298624873
-0.1936776130089634
-1.398276324806102
-0.7049368257212717
-0.3829931752000434