/*--------------------------------*- C++ -*----------------------------------*\
| =========                 |                                                 |
| \\      /  F ield         | OpenFOAM: The Open Source CFD Toolbox           |
|  \\    /   O peration     | Version:  v1906                                 |
|   \\  /    A nd           | Web:      www.OpenFOAM.com                      |
|    \\/     M anipulation  |                                                 |
\*---------------------------------------------------------------------------*/
FoamFile
{
    version     2.0;
    format      ascii;
    class       volVectorField;
    location    "1.6";
    object      U;
}
// * * * * * * * * * * * * * * * * * * * * * * * * * * * * * * * * * * * * * //

dimensions      [0 1 -1 0 0 0 0];


internalField   nonuniform List<vector> 
19632
(
(5.021305666208954 0.010575613633743 -0.008027760235846299)
(5.000441913235528 0.006793512139891963 0.001086426874495261)
(5.00019203618564 0.0017378576733747 -0.001293423667204858)
(5.079567755193379 0.2421448763146115 -0.2160782330952648)
(5.000273677917436 0.00407495298026124 0.001230760422095115)
(4.998437446247524 0.002497170387383113 0.002349289850378887)
(4.99601713942039 0.01292433453975546 0.05079072326218494)
(4.999529412533604 0.0002611270350978328 -0.001606525019965083)
(5.000408182507228 -0.002072435613005431 0.003513352663591197)
(5.047263469558863 0.05821202819751396 -0.0125396646041997)
(5.039655003963237 0.005041942321532846 0.007730079894738046)
(5.009136755014318 0.01357979960956446 -0.003076154012901603)
(5.000674512490134 -3.451871757357788e-05 -0.0001135287696147241)
(5.001350861043901 -0.0008662288605371978 2.993646920712642e-05)
(5.024849538786641 -0.02661595176983126 0.006660662073439858)
(5.017533588220065 0.002979248034666899 -0.004343140672443867)
(4.991951393288759 0.005937330807913995 -0.004537495166479546)
(5.012703638759095 0.01764138536462271 0.08591201067407413)
(4.999425417786716 -0.000627658320218111 -0.001098463387875235)
(5.002056384302297 0.001113938558581353 -0.0003697170881558549)
(5.02669114496118 0.003658897846370278 -0.0100833025694238)
(5.200914864746668 0.2246262136969321 -0.1040278201358394)
(4.864776667583493 0.02135812653424757 -0.1562859370246531)
(5.000254764012205 0.003318973144077737 -0.002487333985590456)
(5.001045374291309 -0.001000611148069907 -7.675784559003934e-05)
(5.001424664990693 -0.0005588448463739337 0.000794407468251301)
(4.999973483382217 -9.444854734093656e-05 -0.0004681560634579694)
(5.027610726434248 0.3755680700088254 -0.2839731703594807)
(5.012222728018909 -0.00920899824182863 0.01392271872394168)
(5.001147639583838 -0.0003488916603577969 -0.0008888358144965805)
(5.000227339552204 0.0009403939645795672 0.006279200516223121)
(4.997841055094608 -0.005442246671153571 -0.009923182328333061)
(5.056136426596469 -0.0006209813254753917 -0.07847256662157412)
(5.079673194784103 0.1025529964463005 -0.2291264532834103)
(5.001147351559821 7.887086960731756e-05 -0.003488307312989655)
(5.000966503866804 -0.0001526970060770806 2.770647415261086e-06)
(5.000603164244989 0.0040823829549716 -0.004789307613408693)
(5.000181727362158 0.0003391738345119867 0.0001431146536945664)
(4.999995357339183 0.001255782157100753 -0.0001351873353305478)
(5.026983829958771 -0.0107096718864087 -0.0005332657342255405)
(5.001142768340057 0.0009399546747049702 -2.304777773201427e-05)
(5.006343722128075 -0.01052947504796571 0.005022267255242013)
(5.005559682556188 -0.02160072477834293 0.01032431851891781)
(5.730067371820344 0.1360847440041497 -0.2425899589987988)
(5.000102307673114 0.0001066514270146882 -0.0008128270643692431)
(5.00081702589629 0.0001848700949922818 -0.000441420871539745)
(5.000197001715848 0.0004497181470319118 -0.0001133143392065118)
(5.000440385933653 0.000492359289131803 -0.0003374338304667876)
(4.992814408132946 -0.008546300548110295 0.00577227197708394)
(4.991631289102006 -0.02220649576659322 0.02468034384094597)
(4.999062986703021 0.001849816297919696 -0.00410552886494701)
(5.002710399529378 0.001423166284396602 0.0003368191318498032)
(4.999567624952352 0.0001544165577041279 0.002739705630727696)
(5.003336971816213 -0.004014237336231664 0.00619919376245969)
(5.002210916160489 0.006233892626325085 -0.001523544063987757)
(5.002141888090192 -0.001666989561084141 -0.0004520839068632459)
(4.998533167764249 -0.003230448971182326 -0.01115894342077497)
(5.00189187150166 0.0004054370944521037 -0.001649635582648739)
(4.999201502105254 0.01062783545272432 0.006996380697571205)
(5.040829467182911 -0.03449329093687544 -0.005431114751847809)
(5.000592860148595 0.008255346612933251 -0.0007716889764754655)
(4.999884587074873 0.0008141363468619729 0.0004569526959749776)
(4.778049442078846 0.4254652770489614 0.02603350878011471)
(4.484334797575543 0.2864690290867217 0.3301849997141032)
(5.000566049325428 0.0005199670431550897 -0.0004297360619276489)
(4.999010859469339 -0.06111311245064244 -0.4688872781013192)
(5.262913175290428 0.04439499925318299 -0.04450882159375452)
(4.998574335516724 0.01494572256409062 -0.00126015986594023)
(4.99977102745927 0.002325394774314584 -0.001891075120711349)
(5.005772519235116 -0.009844585416314913 0.004484604407048172)
(5.01748978511575 -0.003023450628556597 -0.005580814009963665)
(5.000968821745253 0.0003329184471422443 -0.000964575837349891)
(5.000224581324378 0.0005150132048667624 -4.189367321060936e-05)
(4.998196856284818 0.01091317863866071 0.003125450624275054)
(5.000283407640995 0.0005767649552824123 -0.0001704893235142167)
(5.000464005280453 -2.86342297674423e-05 -0.0002781019809113559)
(4.999957908729773 0.0007844737482341375 0.0003098821875062259)
(4.907604069040898 0.5442490711362541 -0.01315179356222849)
(5.13567434635736 -0.09387567914932514 -0.2100745283834854)
(5.04869949636204 0.008539834293863525 0.01890843415092006)
(3.709459300678452 -2.076034000483 -1.699727944210377)
(4.974496690100289 0.3712702446105555 0.2449681196243459)
(5.00144352944608 0.0003685807832207288 -0.0008728637343116691)
(5.000712867812458 0.0001800011438050557 0.0001207386978359362)
(4.998744121501894 0.001729058087795059 0.0007582752467146956)
(4.997824552268137 0.02301851455552659 -0.02002537788838662)
(5.000351531683068 0.003158179359534847 -7.453336736749774e-05)
(4.99968549580989 0.001986629245981409 0.0001738480050563317)
(4.996136640056465 -0.002838309818148431 -0.007388117904897996)
(4.986323490248957 0.02014301042282301 -0.04004290589437311)
(5.038169842263175 0.01706715978503709 -0.01837897152126347)
(5.000118707839383 0.001333895307777603 -0.0005639898680480929)
(4.991576055535885 -0.01181463408958446 -0.01371511405224759)
(5.02777738589181 0.01326046750731077 0.02401722617377001)
(4.999954911166594 0.01127706699903869 -0.0001087836385463627)
(5.003070997508559 0.0005021724600776699 -0.004526107610929958)
(5.002026475823103 0.0009384023048618301 -0.002449651325183781)
(5.000883356010208 -0.0002400590077897945 7.322170360201185e-06)
(5.000436034856 0.003894211984884135 0.0004476212813093739)
(5.000038657575439 0.01064977758174023 -0.001161378285859006)
(4.586000810995555 0.5095177555299183 0.2301369140239821)
(5.00046327845651 -0.002267657054427889 -0.00226314004137323)
(5.016138249469443 -0.009644300298221137 -0.002707442239731766)
(4.999997022644231 0.003500887484535939 -0.0005122739270305391)
(5.040875305792554 0.09954661824957996 0.2198541018347396)
(5.067106314637228 0.07591037099056884 -0.07898451642276698)
(5.020878027541062 0.138506418471962 0.03276386847631268)
(5.048769337671382 -0.003710191704495436 -0.009044112425133023)
(5.000230269410824 0.002781498635565351 -0.0012162433220219)
(5.002046404427772 0.001962730683731755 0.002278628088509378)
(4.944120661458856 0.2413685115578219 0.36501575226476)
(5.001869553670231 0.002500086992354259 0.0004744577686622501)
(4.999734640929083 0.001709361743025504 -0.002822687758963795)
(5.193814533748624 0.08497344241424767 0.1375259555196484)
(5.001666441950992 -0.001734275246529349 0.001211631964440627)
(5.041285661072379 -0.05366133174618422 -0.007207935835960341)
(5.027458043405819 0.01112066350412438 -0.5418711882493784)
(5.047691725258691 0.1841090027245116 -0.02600952425485408)
(4.999611279222131 0.001002393991720703 0.004638554679007514)
(4.999862504719141 0.001704704393627919 -0.0003829613747655589)
(4.998795910840678 0.002927687646907893 5.244112031744986e-05)
(5.003412111389841 -0.001808528205687643 -0.004886649198024278)
(5.00049557136844 0.0003428767864242902 -0.0001468786582002341)
(5.000051529240917 0.00112711175419189 -0.0005494044014662354)
(5.124222163636019 -0.01681431547182315 0.08026947631592779)
(5.001960222316398 -0.02244471198525331 -0.05317275032831043)
(5.000441474349644 0.00166532976107805 -0.003491609847879115)
(5.009204897711471 -0.0008856541830316654 -0.001223871112315502)
(4.998253559500426 0.007016022589148123 0.001130873965731868)
(5.000331875910203 -0.0001407296036146795 -0.0004866276092176429)
(5.001310809016569 -0.001261335355176349 0.0007505140148537289)
(5.000682838085485 -0.0009148039828327146 0.002095756054773366)
(5.049478412758969 0.003674597053806236 0.02442131362715222)
(5.000197938137206 0.0008599939000075369 -0.0001129777981196351)
(5.00973491217011 0.01225545481111487 0.01054924596487059)
(5.024344501210479 0.01947588550650037 -0.03821102335926434)
(5.007906178039619 -0.003137922621137431 -0.0055203666496711)
(4.996989762515598 -0.00414225952283466 -0.005605127167361629)
(5.000373130210787 -0.001238836323676997 0.002206417305151593)
(5.005085855675211 -0.01061834032006997 -0.007955155623510539)
(4.440429233997778 -0.3400611261300593 0.5472995849731024)
(4.91814191639831 0.7442978189198017 -0.164241367222115)
(5.327749686931504 0.3929972789116842 0.002203725250649061)
(4.07490228322711 0.4204846948390839 0.03529163674050961)
(2.926602355244211 -0.8344856752686699 -0.3991409005951967)
(5.000057082269064 0.0008322045726529816 -5.446370126109219e-05)
(5.013791279285128 -0.0006771020133840535 -0.005444546531294761)
(4.085508258856343 -0.442455610445761 0.1587290033447477)
(5.01754857215884 0.009586560449533802 -0.003716894322934149)
(4.999460852913903 0.001119050580262708 -0.0007696572752381166)
(4.997731970848013 -0.00170260599209121 -9.918230344246306e-05)
(4.996363955935631 -0.01088924915377572 0.008000636938584662)
(4.998672991958397 -0.002635414033768867 0.002385408733764047)
(5.00111760692738 0.001719491401047302 -0.0001117231354973495)
(5.082511823378328 -0.02118872611226417 -0.03312946047423782)
(5.000080718505591 -0.00336068350281018 0.004329856743159494)
(4.999913056134633 0.001363653193217999 3.34935377170656e-05)
(5.0002438693979 0.007157349760570864 0.0001984709087650485)
(5.017485044840649 -0.03794075965084765 -0.009540239967054298)
(4.992415650338517 -0.0827829046188457 -0.5207307817774237)
(5.063715103945886 0.1445987247070295 0.2768496046717357)
(5.026486882088462 0.2781146645799115 0.1095940908532152)
(4.465524633042699 1.314425557503183 0.49586946583416)
(5.206493320505983 0.3110038457153429 0.01962316091973206)
(4.999486080149566 -0.0003753816383154169 0.002699678954565875)
(5.004001247467664 -0.006552757750541322 -0.006517826866103627)
(4.999599232589291 0.0004954490810903684 -0.002293437575305455)
(5.00749941195218 0.01167853078830727 -0.06826921395504931)
(5.135571708148309 0.3288951134293993 -0.02548395360539774)
(5.000428735176457 0.001536878198459173 -0.005593986629207817)
(4.998905119317343 -0.0005088912581857645 -4.053398586796407e-05)
(5.014365892972044 -0.004815685873177432 -0.001535104844750754)
(5.00896440694901 0.04411848406537834 0.03131303847558788)
(5.0009025539837 3.836016635625677e-05 -0.001492385992488272)
(5.001017220871072 0.0002179880008707537 -0.000802064392241473)
(4.645409347972438 -0.08307009469609515 -0.02081748392703993)
(5.000726570252294 0.001187527785301323 -9.929997433104705e-05)
(5.015871795852593 -0.004497072810794787 -0.001430289941659723)
(5.000920484074947 0.0005467387628529793 -0.0004070171310403017)
(5.000457856048732 0.0001327753479198774 -0.0007572022179094898)
(5.000618490378511 0.000520972397328821 -0.0001312789812150122)
(5.000527169292148 0.0002354797466589796 -0.0008038783597594165)
(5.000782273730914 0.0001127711255345204 -0.0001490759878274588)
(5.001554113425319 -0.00249877847590505 0.002489351619829296)
(5.000200285902501 0.008117861326782176 0.000562660488153936)
(5.000160541689629 0.001001888339998329 2.012180736572436e-05)
(5.054338948157265 0.002643257788958006 -0.005457050510870734)
(5.000734356103314 -0.0002608311822114566 -0.0001578238312036863)
(5.000879621275524 -0.0006019598408850216 -0.0009978935326388717)
(5.000411342990368 0.0002960067814504948 -0.0003799897431698171)
(4.998065119599969 0.001841156354707724 -0.0002687396798397438)
(5.039275089758058 -0.008852785138573941 -0.009330266167810526)
(5.03844879364007 -0.04542276000580934 -0.004283068381228873)
(5.000002931951618 -0.000674742790132427 -0.01591671506753943)
(5.000256891673984 0.00051215155528675 -0.0003503907321388627)
(4.999573539836558 0.002083250138686174 -0.001217843756210608)
(5.010377157535314 0.001359082595275883 -0.001278762885631713)
(4.983026602950039 -0.1107670002765232 0.0329339670014667)
(4.99743959838742 -0.0002140705098578312 0.00202743365783497)
(4.938488730601876 -0.03609210729512601 -0.02658259068035172)
(5.000896895400081 0.008264948435815529 -0.0001653650493084215)
(5.015864222753128 -0.002663574230377727 -0.0009681156037529909)
(5.000514010489592 0.0005220696957892182 -0.0003388323168602893)
(4.997055816940243 0.001248279032244837 0.0009786721570790803)
(4.983698899000236 -0.007189383210232348 0.009632687905818211)
(5.00059978350643 -0.0009064100194110152 -0.009130810499025054)
(4.999876730915825 -0.0005094363287304983 -0.0007462824267261989)
(4.999909375915012 -0.0007141387424418152 -0.002192676665884767)
(4.999721294777909 -2.0000103867645e-06 0.001933643791528983)
(5.000701668264247 0.0003000212736182784 -0.0004615543916795661)
(4.993327666181425 -0.01365999385560147 -0.007073098903452209)
(5.000216882355575 0.0009967228901260692 -0.0003384694156802439)
(4.999800352094923 0.001223354242997201 2.638138738531681e-05)
(5.000124581654697 -0.001776185090790295 -0.007309171383325118)
(5.000538505165621 0.0005549925453848404 -0.005111535644265402)
(4.998599619436312 0.001807472949253299 0.003808407153366227)
(5.003678236918315 -0.002300944402578381 -0.006793973466476973)
(5.00164000484888 0.001367178133357739 -0.002056547434129753)
(4.999604708286777 0.000429084468114125 0.0007196464774843257)
(5.012857757664369 -0.002753143563924424 -0.0009957622651198582)
(5.025218416720708 0.04361515469957065 -0.02713031803169957)
(5.00008868174308 -0.0004811391405512289 0.004759795110870542)
(5.000000061564456 0.0004466612696962565 0.0005021790405327445)
(5.000408262286221 0.0007964317946557851 0.0002038207149548007)
(5.110252019699358 -0.02975301585577023 -0.0234737543735926)
(5.003761591153679 0.004705419236714485 0.005355858799152694)
(4.99868011136098 -0.0005502307047561712 -0.005549693682166928)
(4.994938629925464 0.001250344806860429 -0.005834190059052139)
(5.002097123122605 -0.0005669143531174245 -0.002564878364143658)
(5.000753964281689 7.948367594694592e-05 -0.0001193724110521028)
(4.999781917612926 -0.03530411990821063 0.02487323424119585)
(5.001941764827718 0.0003542195051877697 -0.0003578749807118142)
(4.99968377530395 0.001530767669113483 0.001506452435460074)
(5.001288792808429 4.636179173538628e-05 -0.0003953809942413009)
(5.001139054775758 -0.01015292230159652 0.002195650236098376)
(5.000000778034322 0.0001636262459773492 -0.0002027017605788499)
(5.00062130029769 5.726393326072969e-05 -0.0004900899801864999)
(4.855522064302622 -0.02479701960332029 0.04047906487218045)
(5.019136058540828 -0.007945952940551245 -0.001125648425844851)
(5.000829084147732 0.002793427925594835 -0.00927925250196826)
(5.001826746111052 0.008291476378020801 0.003046290274855313)
(5.997261352420471 0.6703160819230201 0.1651779130618781)
(5.027758097989803 -0.008630399875171923 -0.006645947608889544)
(4.992485336136455 -0.003361720327764022 -0.001212366669254302)
(5.000750989855188 0.0002877733402363079 -0.0006281622753724246)
(4.999328799351631 0.006381873005581807 0.00207012185427775)
(4.998100315702197 0.0152061982237635 0.001389602195978247)
(5.028307071089373 0.001134028649569425 0.00670106463743976)
(5.00005967780469 0.0006649862304268964 -0.00018887714053463)
(4.99837077004131 0.0006423115155316116 0.000317299682395417)
(5.000299752987032 0.0008629586699540208 -0.000367829673373075)
(4.999930385962411 0.0003485640986954041 -0.0007937662449489113)
(5.002986740548994 -0.00371098637791774 0.001569672148923649)
(5.013247580953696 -0.005961273503815414 -0.001570298263119137)
(4.998509261774522 -0.01150120567510172 0.0007670482513505926)
(5.085630382248463 -0.007577771530326071 -0.01006542944452499)
(5.000367398463888 0.001249021067014573 6.620634857764983e-05)
(5.02084319169192 0.03259638147253333 0.01487485823848857)
(5.03963205916294 -0.009881761953303692 -0.0169752327163126)
(4.976320348086952 -0.02243101235410852 -0.0003621191226693642)
(4.980502209844047 -0.01977345173312717 -0.01787870992178281)
(5.001264621012107 -0.003572269607510262 -0.006210620487703997)
(4.999616901476848 0.00795444606488371 0.0007243433613968275)
(5.000943211661731 7.206653333787576e-05 -0.0001977579894661579)
(4.997444240698577 0.007267431439831088 -0.01579703220489354)
(5.00097757401267 0.0001956115860823042 -0.0003615903353486212)
(5.000620702861549 0.0001032496412886985 -9.830332737962837e-05)
(4.998054969569911 0.007645885569999357 -0.007043984690948969)
(5.000261942307367 0.0003021912685410222 -7.002694054878256e-05)
(4.999776314885271 7.458213341044952e-05 -0.001460903096892269)
(5.001017469241036 0.0001230982549899487 -0.0002549261761917845)
(5.00002505465726 0.001244126176941096 0.0004218647307608366)
(5.009508771950537 0.03119209601344864 0.05444037248557092)
(5.000412962431595 0.0004463832762833683 -0.0003484590145623137)
(4.990458283341218 0.008427538920591938 -0.0003904296266159068)
(4.999151539052669 0.007952519526856371 0.001611946500683928)
(5.003390756586453 -0.004411811461029331 -0.005409160817413938)
(4.998253773649108 -0.001876514000530505 -0.007418580416976949)
(4.999964547004845 0.001107708272464051 8.569640910011513e-05)
(4.971382001077429 -0.01247639065422183 -0.1557899645182097)
(4.999630465037984 -0.001042514122678069 -0.0009750031146192159)
(4.999045282889475 0.0002187765591314671 0.08008745644437995)
(5.003054399852313 -0.007976397503489163 0.001500831448353683)
(5.000832678247772 0.0004575400304796168 -0.0008775270043586106)
(4.842089465360088 0.3950684581427971 0.3554976544024167)
(4.989818894297623 0.005846409990350489 0.08800875818011576)
(5.003557550418231 -0.006594375910446131 -0.007742831440998338)
(4.998969891491122 -0.002962166087005664 -0.03188995971781022)
(4.971952191888613 -0.01818338959204528 0.007521759657740985)
(4.999549058900073 -0.007915841552086111 -0.001253336326732652)
(5.000785095917577 0.0003438986398722472 -0.0005549314161609711)
(4.992765864545927 0.004982463643258488 0.00186242538967789)
(4.999445508110495 0.001267852254723953 0.00209621360630567)
(4.999720976078112 0.0007531931079776255 -0.0003289689728030186)
(5.000218570532324 0.0006051030139310951 -0.0001020825414920851)
(5.00045939573658 0.0009185202066318695 0.0003333875307400023)
(5.008698073991987 0.005494940221853682 0.0001086885663740874)
(5.206644329097231 0.05758595552904518 0.1143652346702661)
(5.001094730934928 0.00223512261872394 -0.0002541125798547822)
(5.002332761110034 -0.001060065672014096 0.002118441646575379)
(5.032126201417308 -0.05152321865438091 -0.01452266640330416)
(5.002472087382664 -0.0002784290689925321 0.0004255594234495645)
(5.000688179374087 -0.0004551457079047081 0.0006589697778999724)
(5.000520985090239 0.0006172806943123863 -0.0004489625059171971)
(5.010704875213126 0.3853309699345688 -0.2792424111739379)
(5.007953132469405 -0.01569015748001661 0.00322643172333297)
(5.000072144115593 0.0006748883397043421 -0.001374671795192575)
(5.000218649187105 0.0007716214206240635 -0.0002412858269309376)
(5.001389508140817 -0.0006103848567888505 -0.001308612241841018)
(5.000049409166785 0.0006274584987365522 -0.0002984184397834743)
(4.269535792617899 0.2163975438584002 -0.250056722138107)
(3.929958965515226 0.1171295177582451 -0.2056497220691839)
(5.064740481651614 0.01609277567406826 0.04680108417560904)
(4.996857066041214 -0.01342573339958459 -0.01036603830140695)
(5.063881443895458 0.09313612801015203 0.03794002713229112)
(4.04018129895487 -0.08831277735465881 -0.1655366470990521)
(4.031610668333133 0.05855666465191212 -0.1310538102274353)
(5.000761628194185 0.000426207904380741 -0.0001335789553089361)
(5.202712843050952 -0.1808378754249259 0.8266463387200543)
(4.926923822024841 0.1659932643019119 0.3961050879236896)
(5.00131468161638 0.003113318103572173 -0.0005979921281408835)
(5.005546907248251 0.007330330509663929 -0.01173985787036274)
(7.933306715456798 -1.129431050391417 -0.944050666532731)
(3.110518537232179 0.3295080268796149 -0.52591161936232)
(5.000540256444881 0.0001074711708203668 -0.000133023554996434)
(5.002651838847773 -0.007029460679470675 -0.003171872437103505)
(5.000611092743778 0.03479522516384707 0.01576329828279566)
(4.88359669165825 0.7003264869810333 -0.3839036819128119)
(4.630765196645443 0.602599398684975 0.02845095482864248)
(4.936754413499548 -0.02905432023519236 -0.008572210671843395)
(4.999120832369695 0.002480029712267496 -0.001857997156980137)
(5.000228474819814 0.001135841489679412 -0.0003853616401857302)
(4.99961137706291 0.001081354811199206 -0.0004757366470655529)
(4.997398684271248 -0.005008159423244317 -0.01232165582452084)
(5.002547282219918 0.0007442092914030431 0.01580656688246079)
(4.999487873164489 0.01298039532529196 -0.02611946951107733)
(4.987937263272172 -0.006455024871975338 0.0122609445847331)
(5.144703649028195 0.08816474109890984 -0.5068480327576304)
(5.004743585807002 -0.003095912802173551 0.001143924461679359)
(3.863789600366258 0.8360273192454221 -0.7358136452784361)
(4.99875618583519 -0.003342074423800814 0.002921124754310839)
(2.80943294804798 0.7860460307589531 0.1921040840425462)
(3.749820150889897 0.5441449796828058 0.3323525569463197)
(5.007204224782277 -0.00317651212261391 -0.002805051543730788)
(4.277323508413842 0.2264317283533523 -0.08183736013566177)
(5.005895155580678 -0.002497234466470586 -0.001127155628905261)
(4.540832681173402 0.1345269476456953 -0.1143490069939435)
(5.004734745132546 -0.01359569918395741 0.004552289943315804)
(4.666959809909908 -0.03147546863118496 -0.1399182326738269)
(3.337859523602285 0.1769888478149355 -0.1623347231755244)
(4.994966517500801 0.0007163354234305374 -0.003989311189018023)
(5.00095697253816 0.0001496946345297227 0.0002329165256934122)
(4.986715392561717 0.0190190566352264 0.09190767603836859)
(4.102798761548324 -0.5034435386270147 0.1043331876695656)
(4.990779016706345 -0.009266211433759977 0.006088456211563739)
(5.000396221261978 0.0001938809828201045 -0.0003391072617859433)
(5.00017687147969 0.0005881786412506338 -0.0005843142115433118)
(5.000245492113016 -0.000341776357729827 -0.0005286740240741048)
(5.000873913903377 -0.0002699494387911288 -0.0003005613051112156)
(5.001479753736051 -0.009075451008243834 0.01057753586481586)
(5.026952572858706 0.06860815949786506 0.006320771515618701)
(5.000334620022095 0.0004043589446132989 -1.705251539690267e-05)
(5.028848366012194 -0.01149811137671693 -0.007226534966340572)
(5.0020236714635 -0.000497767467071613 -0.002523244510087176)
(4.988177581047891 0.04492934286946942 0.01842753009501144)
(3.970944235197603 0.08387903822096265 -0.14896210735374)
(4.997485775309804 0.002815995923427799 0.000933722327481399)
(5.03065618872597 -0.01711767897875533 -0.004385371709217245)
(4.998313110280876 -0.007868301373066653 0.003857293310746144)
(5.118719808179088 -0.04806408951306319 0.1356946534292764)
(5.018472997332928 -0.01225125274341652 0.002269592111734809)
(5.0006039990889 -0.001412155788434269 -0.008527018609993149)
(5.111501319273944 -0.1965958071704303 -0.06345305376910687)
(4.998929158438932 -0.0004823315431930053 0.002646660320481917)
(4.998771955675825 -0.0009175680107816471 0.002328585800323715)
(5.007868586623744 -0.001954199718300122 -0.002781533836420398)
(3.997873668236568 -0.2849015717610265 0.5376739998141238)
(4.999928129443186 0.001374647867203334 0.0003611189320434396)
(4.999415492512545 0.001283656621870857 -7.927320601721889e-05)
(4.998798963053078 -0.001736208494558654 0.002479771159475546)
(5.00243707814246 0.03867367416120632 -0.02634433698115691)
(5.000814665776868 9.243619429006098e-05 -0.0001659963998749227)
(5.000635465917661 0.0001203750130878812 -0.00309619024818012)
(5.000451776484795 0.0002928559974508468 -0.0003610829958143256)
(5.032960870779359 0.1114503264059424 0.01818015838272297)
(5.000811090719162 0.0001399057086205298 -0.0002390503902215769)
(5.000127277569082 -0.0001359678341894368 0.0002125232078688458)
(4.990630768892545 0.001711959301081251 0.005586930622054527)
(5.055164548401359 -0.01923956029622047 -0.04409530138841189)
(5.00068924668124 2.283017994810354e-05 -0.0002574754431226513)
(5.000665174452935 0.0001796382763222971 -0.0003334478780657307)
(5.004035583736461 -0.005500178275065886 -0.001946493470908948)
(5.000762961075209 -0.001778392764239665 -0.00135427821379372)
(5.000194026031254 0.0002259466340022037 0.0004174487273996347)
(5.000896532287175 -0.0005853224802732078 0.0002244428855967388)
(5.000521101530818 -0.000880321217006947 0.0003616658369480884)
(5.000410763302815 0.000144829900159094 0.0006546034660079905)
(5.000595927153762 0.0004269911900671088 0.0008333893448105894)
(4.999730951830951 0.0007890235376529993 0.0001353058444626694)
(5.000779419418819 0.0001862346545737311 -0.000135576730925438)
(5.000933527366713 -0.0004536270030809775 -0.004029526700635987)
(5.000385620619119 -0.0006839358019289239 -0.002475756833670636)
(4.951626324268767 0.01932346742155557 -0.01123199539161507)
(5.001174139589768 -0.001108288089621505 -0.003520637735932746)
(5.010717834882657 0.002419165039916406 -0.00327570285338531)
(5.00297512848538 0.001006012234504307 -0.001806512269857632)
(5.000300168088684 0.001042983259011523 -0.0007854202759581625)
(4.999158834858362 0.01247748678242159 0.04620132410819813)
(5.155570769091907 0.4001526364254518 -0.7816481890544882)
(5.000682673849353 -0.0004030495650091379 -0.005181155372323518)
(5.033333525240751 0.02351871868310253 -0.04263102448824409)
(5.000594584475938 0.000437508406912107 -0.001107551100840513)
(5.071322899537183 -0.0801670006496024 -0.0305231870909492)
(5.000297106358867 0.0005459769124449858 -0.001908198144862656)
(5.000032409705351 0.002178778562878915 -0.0009033037636739616)
(4.997160500276948 -0.003502866805013512 -0.004256753548103946)
(5.002136522096367 0.001897454560872425 -0.001624111471921491)
(5.005301886408417 -0.002885494405953493 2.927828702206452e-05)
(5.001576699591582 -0.001450652507120976 0.006943256048958079)
(4.984735058394472 -0.003068307873303833 0.007222655198674753)
(5.001903592988668 -0.0009210786855178855 -0.001324994052584662)
(5.000116348572728 0.0006055883166807393 0.0001864158214125745)
(5.000428589781079 0.0006321820902564023 -0.0001481181965967238)
(5.091604720074592 -0.04229555297523614 0.1787089389838973)
(5.001298624787943 -0.0001904016292068092 0.0006226785864332715)
(5.000421416147664 0.0006546880500487614 -0.0004829592861715795)
(5.000701749758649 0.0001582179529563646 7.838390944402471e-06)
(4.999764894994049 0.0003833165857602294 -0.0003979523413830928)
(5.002063429566393 -0.0006888962537946856 -0.0009324087666599127)
(5.097819325268791 -0.08281652234721172 0.04261827600279215)
(5.000541281183675 0.0001323340622918237 0.0001834140182186523)
(5.000516782383274 9.174410828906739e-05 -0.0001451841574569416)
(5.000564541051141 -0.0003421793431167623 0.0002806532856854051)
(5.000783855817529 -0.0001055495104881433 0.000158771240711139)
(5.000533435231093 0.0004846558253605834 -0.001144623203553782)
(5.000524410790729 0.0007139568501842813 -0.001319253853391813)
(5.000718821982525 5.032207857688707e-06 0.0002764377269905997)
(5.000745859288445 -6.198334821136727e-05 0.0003979180202546929)
(5.000458963562878 4.294269797744428e-05 4.042385677547849e-05)
(5.000597926312827 0.0003947275816213293 0.000449498308793974)
(4.993593324060948 0.006702776372564575 -0.009009149366987608)
(5.016939360526145 0.0001756952802446628 0.06709883919900336)
(4.995640565133171 0.00707249878521617 -0.001289116388099525)
(4.992770134962634 0.002949035294762674 -0.0008558734310105364)
(5.011593297162702 0.0040649933032311 0.006727005807134335)
(4.992946597686088 0.005848941390441056 -0.0002207451071609081)
(5.000437719939169 0.0007411305855719476 0.0004224802219158162)
(4.989740577760759 0.002209607545197278 0.006915042290518603)
(5.000119197696234 0.0007561305693089619 3.92294807438785e-05)
(4.999909222582667 0.0004286335940795662 -0.0002770865827555575)
(4.991718385121451 -0.003254389309582743 -0.0008411360137280788)
(4.999546263309782 0.00173320425971755 0.00130333152875445)
(5.000528515713013 0.0005405981674772392 -0.0004479198895681278)
(4.998534209897743 0.001183501467681337 0.000975427520363722)
(4.999935506557537 -0.0003638845781087366 0.0004230821005151174)
(5.002256865236221 -0.003485313267748856 -0.003319056458077763)
(4.999646145921665 0.0004269634415628868 0.0002277615529564307)
(4.999164031245735 0.003547792663778457 -0.00179160685054101)
(4.999209965137907 0.005120141175543717 0.0007165654378139957)
(5.007548486643118 -0.01217284924906768 -0.0002239632936640295)
(4.986618554128652 -0.004541641572359722 -0.005623823846953639)
(5.004963267516175 -0.0001639213732110638 -0.002185621425523959)
(4.999774991305459 0.0006632567581101464 0.0002433974998739261)
(4.998901144591899 0.003358418912585866 -0.00201774888403872)
(4.999762188864008 0.003338783255831785 -0.001317651472851676)