/*--------------------------------*- C++ -*----------------------------------*\
| =========                 |                                                 |
| \\      /  F ield         | OpenFOAM: The Open Source CFD Toolbox           |
|  \\    /   O peration     | Version:  v1906                                 |
|   \\  /    A nd           | Web:      www.OpenFOAM.com                      |
|    \\/     M anipulation  |                                                 |
\*---------------------------------------------------------------------------*/
FoamFile
{
    version     2.0;
    format      ascii;
    class       volVectorField;
    location    "1.6";
    object      vorticity;
}
// * * * * * * * * * * * * * * * * * * * * * * * * * * * * * * * * * * * * * //

dimensions      [0 0 -1 0 0 0 0];


internalField   nonuniform List<vector> 
19632
(
(-0.01583634622919971 -0.005180254801628151 0.0002505109000841485)
(0.0009824683960103554 -0.0003631077102191838 3.969035709722527e-05)
(-8.343255967814077e-05 -0.0001874626404392296 -0.0002007463022407471)
(-2.533997446801193 -2.096766635545785 -1.78569596685363)
(0.006685301533206442 -0.02378453095606462 -0.001764885106000578)
(-0.003941542504749583 -0.003304078630394505 0.001952099743674517)
(-0.01287772228931736 -0.004270068446249878 -0.0007422988951846941)
(0.00342426675275877 -8.326915633107002e-05 -0.000431366377638058)
(6.216594132963174e-05 -0.002753784662282349 0.0006806719530129423)
(-0.06418506132900793 0.0570758023659579 -0.0277421056107643)
(0.2249192640175257 0.09088458250335738 0.01206837880445887)
(0.01126511945273229 0.008843933275551667 0.00408274984017989)
(0.0001938167120206667 0.0001851728103796528 0.0001822770673661302)
(0.0004484351070129309 -0.0001470729020394512 0.0001063652279702275)
(0.002068091716885149 0.001274249106300012 0.003509774929102443)
(-0.01437281315556547 -0.008123836579478115 -0.0537082480927803)
(-0.008766525952621521 0.0004307860608449916 -0.00256042735353846)
(-0.04043016444620377 0.03184874037908082 0.008529233658106488)
(0.0004572935277788766 0.0003034667723261481 -0.0001766555644283991)
(-0.0006585514491117641 -0.0001463567762621834 -0.000730864580330766)
(0.1819779709468073 0.01802172950238547 -0.06642853241352988)
(0.8016024040093315 -2.894360512732924 -3.126102434232811)
(-0.3022784712653703 -0.2395731528658052 0.1727741521292371)
(-0.001785658051024273 -0.00203412270769194 -0.002518368249857308)
(0.0007495073723602468 0.0001040675468955808 -0.001391026497381618)
(-0.0004758393930043492 0.001141322920772783 -0.0002749211392695263)
(0.0004371075522641007 -0.0001179438264818124 0.002899860370806789)
(0.0311828588231241 -4.619373231108733 -4.274591805501717)
(-0.01131174878586839 0.06320688264772083 -0.03799947746819722)
(-5.832457324186415e-05 -2.099471003509789e-06 4.433704661616219e-05)
(0.0003023023745278508 0.0009372936182966337 -8.723795338490869e-05)
(-0.001104782350028117 0.0004143951023274511 6.443810538663897e-05)
(0.08906895028890909 -0.04648153801383989 0.001339945450440444)
(-4.484388500650772 1.519538760725602 -5.236323446234501)
(-0.0003961893128746353 -0.0005110844242712889 -0.0006412810510788718)
(-5.397254350487617e-05 0.0001090765143481235 1.205577043691254e-05)
(-0.0003342616378620776 0.002288344777029804 0.00341096036513513)
(0.0005500513273429403 0.0003332274866239264 -0.0004751989111789514)
(-0.001756761516396341 2.891978982111166e-05 -0.0008434411988799532)
(-0.008765719934294111 0.00493366846011626 0.002440939224472072)
(0.00156095400093446 -0.0004756951089001484 -0.000486779602129203)
(0.001662939588685259 0.001347414330562926 -0.0002738564800643742)
(-0.02263387330651678 -0.003599734453679091 0.01038564176354765)
(0.4738298567633442 -0.3091626561063747 -0.08829934173502846)
(0.0008128820389073013 0.0002499300623747593 -0.0002992669568905412)
(-0.0006816552558449157 0.0002670569219332504 -0.0005439950501457376)
(6.595088779403768e-05 8.429977771104728e-05 -0.0002640681384829404)
(3.959280384007374e-05 0.0002071354571070432 6.078529562384461e-06)
(-0.009347781873554312 -0.01422496726816292 -0.01406853296638996)
(-0.01414225465375848 0.003435599117869951 0.006068530288182307)
(0.001475909446881329 0.001657866798338182 0.0001743223819737881)
(0.0009702235325745488 0.002053080392178505 0.0005926290719602224)
(0.01950607251592485 0.01143635395240929 -0.007849671262265826)
(-0.0005275770725422068 -0.0005488999102411726 0.002510132916708457)
(0.0001376813065060419 0.001598044335710622 0.0004305516996291566)
(-2.74817868922429e-05 -0.0003030873110831459 -0.002514321988454533)
(0.003120931029724843 0.001581802096211601 -0.0006409336657547854)
(-0.0006213239665515127 0.0003030373993054503 0.004637155035846649)
(-0.005221827715694425 -0.04044986315468913 -0.02975527195957957)
(-0.01134637354260814 0.0006116193916595805 -0.02563685665843837)
(-0.004027876562800729 0.0002650846544627456 0.00131740873869719)
(-0.0001582844233817222 0.0002993638347753421 -7.636494134919032e-05)
(0.927618348241632 6.316631065393716 -8.430997419464823)
(-2.72624287189126 -1.905355574799529 -12.23639903916003)
(-1.839428949893211e-06 1.928459666887177e-05 2.311208478443244e-05)
(0.8424555430565688 0.9034165630823754 -0.2152725942034741)
(-0.9488062069136608 -1.05964600445054 -1.437186391059189)
(-0.008218359179414401 0.001735703583603617 0.001492859141762058)
(-0.001305684989109242 0.000478250297294668 -6.308959617725853e-06)
(0.002135922639229377 -0.0006393966110289763 0.0005905752023342831)
(0.0002790540464399515 0.01147350974531205 0.001089603162171321)
(-7.631225698016884e-06 4.803924788416126e-05 0.0001855798405861682)
(-0.0007460175721653177 0.000241032131858615 -0.0007832342656131255)
(0.004385441007321618 0.0007729015262344348 0.005844590677965503)
(5.755012727592011e-05 -0.0001071675292707769 -0.000147365017786551)
(-0.0004686094572434129 -0.0002501104338873715 3.880901307984159e-05)
(-4.834004242634449e-05 -7.256084850792852e-05 1.640246202932054e-05)
(-0.1291651727421068 -0.02855227876609949 0.8611181400844714)
(-0.5481666224481498 1.691373322461958 -0.8744109981016632)
(0.03320575219289586 -0.0287393190544367 0.04403941669809757)
(1.141037748750269 -1.845009230941864 -2.684900576537527)
(-1.214910878231078 -0.03942600346794798 -0.2848710651847388)
(0.0002769074994298887 -0.0001834999195400792 -0.0004008489485867443)
(0.0002934884143939105 -8.480825228784469e-05 0.0002366617749117274)
(0.003735469756420231 -0.001043238314220594 -0.001713160206755107)
(-0.001346884962517662 -0.006373253420597441 -0.003988639710858961)
(-0.0003355536656023112 0.001190079707126625 0.001617091169448093)
(0.0007099327859544979 -0.0002632834366280054 -0.0003725959173088193)
(0.0001460976099345707 -0.001048959594016678 -0.0006037436392469344)
(0.0143774921103331 0.01065232880327963 -0.01917250187017362)
(0.04540373751702614 0.0590891624651536 -0.001639984844827601)
(-0.0001839252283698716 -0.001295497413767351 0.003346017546093111)
(-0.00161142382201648 -0.002997006811944793 0.003566852116571591)
(-0.01636941280690007 -0.007828992439159792 -0.006529174717425187)
(0.001556577709453884 -0.0003911078823579816 0.0008897107035706415)
(0.002712850107751573 0.001057900786996831 0.0004752101627319988)
(0.0001996933452163608 -0.0007831404290692848 -0.0004180283645502423)
(-0.0001352698222523049 -4.139784926504567e-06 -5.262802737553759e-05)
(0.001456422123601185 0.001261538251121196 -0.001259389913031128)
(-0.00386093840119363 0.0005165220198427589 0.0002692720827470248)
(1.162893442704292 13.30744270877156 -1.883343612070617)
(-0.00040319925856876 -0.0003964605534341608 0.001000841598617087)
(0.01895190100209744 -0.007150078202437475 0.007432670965823677)
(-0.003004722251312927 -0.0004943344463115909 0.0006068755733192153)
(-0.1873126194865486 0.2566286381253641 0.1396063178421406)
(-0.1347148945547027 -0.04054523338672834 -0.1578991563050831)
(-1.022951527968497 -0.3848241918485807 0.6901150781606351)
(0.03788278349466302 0.05145563302904623 -0.01822497469961649)
(-0.002910333624277966 -7.243065722026249e-05 -0.004480469630967046)
(-0.01389893062295538 0.005353696482639916 0.009090518216141728)
(0.1816940457277869 0.8807156571847659 -0.3360014413538158)
(-0.002197147225523669 -0.0001352445129154422 -0.001460116114795737)
(-0.0001647220100080207 0.0007699136430352792 0.0001571002382102199)
(-0.05771765865193512 -1.0100836561409 0.02120159169226055)
(-0.0004917543676315886 0.0008922216811125619 0.004474658723418723)
(0.2330206902191198 -0.03988043827425491 0.08849029350316948)
(-11.03379441157503 14.69717341321517 -4.526718995688498)
(0.5580227394735292 -0.03213161514495086 -0.4303018200306399)
(0.002478942022860088 0.001742374436486932 -0.004136779759809195)
(0.0003135843819336672 0.001427177389043092 0.0001595715255468116)
(-0.00196454435174969 -0.0006206439168688683 -0.003786676327806401)
(-0.006419607668897533 -0.006030266478791309 0.001994492506703768)
(-0.0002528323830089948 -2.557324390963298e-05 -0.0003723109965672734)
(-0.0002466494583212628 -0.0001995700682090917 -0.0001733233518633069)
(1.906263672748809 1.470267435762954 -0.2460228708079689)
(0.3853649285226982 0.1699518497612938 -0.03198915782588348)
(0.002136337765865134 -0.001672593275549 0.0002660758804183285)
(0.00175338426977087 -0.0006887985310690217 -0.001031291980151085)
(-0.005053887231000337 -0.008148818725379991 0.01596311638072082)
(-0.001002533672001508 0.0002725610830893296 -0.0002316398720024628)
(0.001273996874245501 0.0005838799168089546 0.002795737157585542)
(-0.0001600698374999278 0.001047194719985212 0.0005783830405829244)
(-0.179825625716666 0.1407834090785576 -0.04773107894287795)
(0.0002328441020326486 6.127075096354649e-06 -1.120658177207694e-05)
(0.0160985859931757 0.01206162114615892 -0.01400582686028132)
(-0.06837974007118494 0.00108775758662354 -0.03286293239345039)
(-0.005025963022378194 -0.001796811425916224 0.0003477528904384118)
(-0.001753374578430023 0.00109037022377343 -0.0003114368718124113)
(-0.00128746550744457 -0.001317336790822454 -0.001627309498661242)
(0.00216906005294577 -0.0009154832383025398 0.00258488325081907)
(10.20908962350212 -19.13386723030876 -50.66287717899449)
(-0.3141644101512133 4.238463669343387 -9.95661430851653)
(-5.181138299949799 -8.589016630412791 -1.449374403442701)
(0.7182829231747233 12.41365330131651 -5.726191743839959)
(-4.898675586209887 8.135424612513564 -38.70616251366043)
(2.8775171795351e-05 1.539890460958096e-06 -4.343021822794365e-05)
(-0.0006875139629879927 -0.004249706220382599 0.0006756671370309866)
(-0.4092107845035824 0.5410752683301858 -1.748271885836458)
(0.001879392017009685 -0.003805982823191147 -0.00220356810686075)
(0.001440213128135395 0.0002111091031353404 -0.001144660037127193)
(-0.003531655282920024 -0.0008039363257379326 -0.002626799414100088)
(-0.0007982923202577268 -0.002877182796177729 -0.0007249117305834854)
(-0.002462916739172456 0.0006801028700638776 0.0005747592279646122)
(0.0009000441867691512 0.0004666964518925566 -0.003312175220957285)
(0.006322861648154164 0.04083040583260747 0.02133432764951652)
(-0.0006316202030413461 -0.001377776516147286 -0.001438452027938779)
(5.663403146122775e-05 -0.0003210758653881527 1.762976601153065e-05)
(0.001943517779324181 -0.0003664121559030498 0.005358551407975882)
(0.0003866095286399582 -0.008766871674157302 0.009766049235600247)
(1.772342599943199 8.264021998480775 -3.47948610613611)
(-0.3529549704528609 -3.952998910559716 -3.074430986984148)
(-3.21933699854716 -3.380518490801378 -3.83362716907379)
(4.943619711334712 -1.302017077850564 -7.30689193360775)
(-1.195738259610017 -1.723203812414375 -0.8049242686877578)
(-0.001169757564450975 -0.001080412285976786 0.001710179891436097)
(-0.02470575588197873 -0.003712631751222309 -0.02059694380645938)
(0.0005090569401810957 0.0001490635512180759 0.001019605798886902)
(0.01028996818561833 0.004346391999856934 -0.02181843879299287)
(0.6701924750740617 -0.0964672640273132 -1.163497451692282)
(0.0003319050618724186 -0.0006656116846968861 -0.001408934931313326)
(-0.002888383330303292 -0.001661433131542805 0.002991630953874331)
(0.001021402972376299 -0.000716228667761701 -5.675522278561756e-05)
(0.07666350218438316 -0.04547860806681444 0.03728686465602797)
(0.0001098587140614397 -0.0007176661359110762 -0.0001923581651294445)
(0.00290878435055875 -0.005326984328823612 0.004531174871832274)
(-0.01265083898194571 -0.05644600745955973 0.08253104332165802)
(-0.0012748953437179 -0.0006133312053845405 -0.0004652048371690622)
(-0.001010049835441331 0.003379630974377632 0.0038250274790679)
(0.000721749463915192 0.0001157227562115775 -0.0001387717312295572)
(-0.000407685856863836 0.0002146551549462328 -7.298510877334384e-05)
(-0.001071573457030866 0.001124359348536616 -0.000186933051142199)
(-5.530092088306175e-05 2.164190090103761e-06 8.539983929972952e-05)
(0.0001050658312273975 0.00034117286199044 -0.0003626271198395611)
(-0.003478953613179485 -0.006004532782277222 0.001135582625998939)
(0.0004665981171126553 0.0002200073710285095 0.005548800346074334)
(-4.324257971524884e-06 0.0001115936555445787 5.5028529550848e-06)
(0.005030550804804014 0.006371134124088214 -0.01100468038549728)
(-0.00118825116656858 0.0006333781602545056 1.41335487144157e-05)
(8.221187590326572e-05 -0.001549991290359008 0.0006829358388289246)
(-3.377542779034803e-05 0.000198792915994527 -0.0001175210113316946)
(0.001549499319580536 0.002138734657804417 -0.0009441927229645907)
(0.04283499671835916 -0.02071502717504395 0.005474271877658832)
(0.06176972707254218 -0.001489047182878012 0.1186615618850449)
(-0.003016744277559001 -0.004167402216079601 0.000420472980033799)
(-2.514658026440877e-05 -0.000317058932769878 -0.0002642394011750262)
(5.418324786287066e-05 -0.0001218086738756316 -0.0001755674154715428)
(0.003543052241786446 2.230137596212282e-05 -0.001204616510105615)
(-0.7106136203961229 -0.00892824695191019 -0.8716527489575442)
(-0.000454935659755198 -5.49147695468975e-05 -0.0007162002271426911)
(-0.1002038151082125 -0.03998026958793014 0.04186361395284147)
(-0.001502578662280091 0.000313101097698352 -0.001471992047630579)
(-0.01003849086324241 0.0009532314380221623 0.001799665121810214)
(0.0005129413767827875 -0.0001658423302473793 -0.0001698854403190572)
(0.002901645403885586 0.004549806346041404 0.003070776307991296)
(-0.0969392201899278 0.09828292016823201 -0.09658932319222825)
(0.006850976144168408 0.005274732582060662 -0.0003233850599887666)
(0.002052343656178773 -0.0007161199856591885 8.99079955239645e-05)
(-0.001662246260025775 0.0002392627677703698 -0.001151094668291615)
(-0.000278176745813957 -0.0001081107067766198 -0.001524031552276051)
(8.772014935704142e-05 -6.873703709962132e-05 4.394842486161185e-05)
(0.001371731708563315 -0.003017706592688608 0.003977504933654097)
(0.0004515872437760662 -0.0001156359937011773 0.0004057941060888985)
(7.749395398051713e-07 -0.0001633308170284159 6.158209693034916e-05)
(-0.0006718791687492918 0.0006094389299267331 0.001465040249321993)
(-0.0005375552684873837 -0.0008535706200137538 -0.0001399851607132314)
(0.00282305042883221 0.001989372674695113 -0.0008614438957859048)
(-0.001735799145054057 0.000168355554939871 -0.0002581832148457303)
(-0.002491171896849241 0.0003014275264011632 0.001444716156892286)
(0.001715514757656962 -0.0001090436509536894 -0.0005536475291934793)
(-0.02773903464429624 0.01113943466085754 -0.02260824323518704)
(-0.01351948243497318 -0.02150479800634681 -0.03976805268332602)
(0.004179649659730249 -0.008115484336989224 -0.001840076522274056)
(-0.001870407720957411 -0.0005679127436017607 0.0001520426652639959)
(-0.0001382300516751131 0.0001132435033617127 -0.000277913004706767)
(0.02978916343906176 0.07959720071169124 -0.004097610701314768)
(0.0148595145541971 -0.007787256238245626 -0.01115324679534777)
(-0.004602452439661999 0.01948621222416888 -0.01220485473681387)
(-0.0005758360752681201 -0.004498151118920624 0.002016778703143061)
(0.000904208702605582 -7.829414226301636e-05 0.0001527797090966991)
(-0.0002447236137130266 3.683592219266488e-05 -0.0002245779194186828)
(-0.01813206203499571 0.02685143617160415 0.03691518111670824)
(-0.0001040404521765306 7.542505280441666e-05 -0.0001589091723901134)
(0.002369404326885198 0.003621269361985733 0.002068465296003939)
(5.376903652524708e-05 0.0001137789003799091 3.711705251674965e-05)
(-0.0006795219095940834 5.141861027757534e-05 -0.0003790435970647573)
(0.001624256846758181 0.0005663087049828351 -0.001267887363037236)
(0.0001175032268721274 7.565288886084447e-05 -1.746176694994456e-05)
(0.00289731404422266 -0.002898138892072643 0.05207484740500545)
(-0.005152164719453081 -0.006053441662380045 -0.0004873407269782727)
(0.001103848029122379 -0.002857556302162993 -0.002721033017099809)
(0.000263022899960285 0.001942193757023007 0.00222868639823852)
(-0.1114527312590405 0.223781805167942 -0.2527701481302631)
(0.0245748523216399 -0.004882454027030031 0.0116562687978085)
(-0.01916331001591253 -0.009409632571178109 -0.0314044963901972)
(7.983367928595646e-05 -0.0002239164491109063 -0.0001761786621070386)
(-0.005483607410860871 -0.002291199423969272 0.003022775185529784)
(0.001285702455278235 0.0001183330998090679 -0.005065134252489833)
(-0.005652607191095841 -0.0007533642407537044 0.003210972227414012)
(0.0001143019849285787 -0.0001611123054676995 5.949416740576611e-07)
(8.803161518363816e-05 0.0006792050960014728 -5.111584085615417e-06)
(-0.0001180164304419564 -3.14366048415494e-05 6.467996764913566e-05)
(0.0004979934564159603 -0.0001741682797908299 -0.0009889570726834749)
(-0.008172839446626036 -0.002513783028742885 0.01122352399968074)
(-0.00181190142107483 0.002435529698276871 0.002825027126837082)
(0.002195270508277323 0.0003041439267552552 0.002460148285223234)
(0.001162514950386248 -0.03035026631764985 -0.01861486207647459)
(4.714381725243231e-05 5.782032385647582e-05 -0.001879087068211422)
(0.09754193159713179 -0.02218182890287263 0.01011468825912083)
(-0.07422344917761436 -0.04005639755435397 -0.1211712660547623)
(0.02229231827753695 -0.008950055814430102 0.02269453530240879)
(0.004943556090538475 -0.002747480835233246 0.0109142967745931)
(0.0007051506959548132 0.0002596940079978664 0.0004507137622512)
(-0.00114210397556984 -0.0007036832157309988 -0.001379111752251471)
(3.256625706392336e-05 3.510193403943055e-05 -8.230340934260079e-07)
(0.004582472192277197 0.02777775147109224 0.0167732571615186)
(-7.264556700081202e-05 -3.856827695840844e-05 2.645691485296524e-05)
(-9.593833993194154e-05 3.557920694060322e-05 -4.809069451050627e-05)
(-0.001296390504525607 -0.001111965900108956 0.0003924321215803895)
(-2.11428551466952e-05 -0.0001712907766676 3.236140146306681e-05)
(0.0001731873308263865 0.001079184976498856 -0.0001332132881753571)
(-0.000590810753823464 0.0001782856413425986 -0.0001497338817114364)
(0.001309145716679109 -0.0007578379242256071 0.0001598901082981601)
(0.1566177608463886 0.1032068977232224 -0.09862780068067696)
(0.0002924925960427146 5.843395714518195e-05 -0.0001868123913958277)
(-0.00110685276790828 0.04079425268552966 -0.003068666151167742)
(-0.000690891115974829 0.001167831158171469 0.00260246047263047)
(0.0006506256984265018 -2.885201389078444e-05 -0.0007956940624156426)
(-0.001905249815624201 0.0001824547136147792 -0.002160252822726289)
(0.0001520672853073282 -5.040035886870808e-05 -0.0001330986409162077)
(-0.03664668353930851 -0.107750289767528 0.0209659720170719)
(0.001411079140886391 -0.001623056967381111 0.002073956882563083)
(0.007828521643342395 -0.002523012931751291 -0.004859541089417243)
(0.005028282713522988 0.001819651769216666 0.003809730012859598)
(-4.422167519747501e-05 -6.518552718226279e-05 0.0002283483859345461)
(2.896797650743124 7.291074494291533 9.461250542042949)
(0.06468557983496478 -0.006634512375815079 -0.0003482565010149812)
(-0.0008201267746218624 -0.001312753716593406 0.002730758414962964)
(0.01091929209255543 -0.006951236919868952 -0.001268911247805226)
(0.02283604518569927 0.0232970560521629 -0.00317712362870346)
(0.003425801098498063 0.0005928697906501357 0.001910693272549968)
(0.0001582522562898347 -3.703045197193637e-05 3.556215654214155e-05)
(-0.001955269979881017 -0.002049389531155577 -0.0008613742897919945)
(0.005701115656203814 0.004549999432415056 -0.0006232965919124645)
(-0.003205343845838142 0.001113718317458895 -0.003247610584581276)
(-0.003020444115102616 -0.0005504218144097911 0.0004444404876846996)
(-0.0003345535525312857 -0.00126462338478746 -0.0002257752290756028)
(0.009095894920204947 0.02286909383705047 0.02901391369097197)
(-0.02707528430990103 -0.01090043010740387 0.03018810562639048)
(0.002250435797599015 -0.002978567104625905 0.001531266038788774)
(-0.009591541757138831 0.004617610966550081 0.001844066503509476)
(0.02194187798450361 -0.02655044942171639 -0.02793437320611698)
(-0.008310623464851962 -0.002912529458192726 0.00212313361928327)
(0.001043980244052182 -0.000510850411638652 -0.0007946304738327776)
(-0.0001579347890597455 -6.305090687580484e-05 1.498584988065022e-05)
(-1.370905676936447 -1.918827442891767 -0.5498340347133087)
(0.001341647457081429 0.0003164283602454692 0.002529461146753701)
(0.000519946537880204 -5.896342074977799e-06 0.0001656260669957948)
(2.6310177915817e-05 -4.011571853790256e-05 0.0001497011675007348)
(0.004329761084473509 -0.002412047051657174 0.003361088558797713)
(8.844647710372583e-05 -7.35315087811942e-05 -6.766463144383062e-05)
(3.439343801176858 -60.1988159130831 -5.562056638507728)
(1.318069237169347 -53.49132138964328 -3.909836802999377)
(0.004995098141376473 0.007492994330742762 -0.01751911977760379)
(0.001522021997445834 -0.0001364608117685741 -8.717150359913747e-05)
(3.013598058697863 -4.181105436354793 -6.871651421410991)
(0.5524287407663837 -4.424425907881852 -10.71013508911799)
(2.770644526651895 -56.60788661997167 -7.129258637394368)
(-0.001972409118086658 -0.0008481560730398412 -0.00198054510124336)
(7.409405758578866 -8.870376016400574 -4.437955247476406)
(-0.1401725628125909 -6.902064300432024 -68.36998018385233)
(-0.0007260390102833274 0.0002315936594607606 -0.003030501768617233)
(0.01690496092328134 -0.001761972835144144 0.02618178063651959)
(0.1405640023024327 1.692020629066787 0.1104829240527279)
(-7.865569826884636 -5.350349940219282 -52.76783242429695)
(1.275358545043025e-06 -2.971370342841863e-05 -3.686280162745448e-05)
(0.002403793228333086 0.0008583002392396003 -0.001321917144453321)
(-0.1086930804819864 0.03809552295319058 -0.007552626750577714)
(3.073266015152199 -12.8077071848646 -9.91160612402161)
(-5.900301070869998 6.009359953860034 -10.13407293520425)
(0.008245573725373004 -0.01470437720240836 0.03620858219705081)
(-0.0004132848409201979 0.000321509831137967 -0.0002752422465362393)
(0.000159903064912969 0.0002552775535179699 0.000106235096349374)
(0.0002565473881309096 9.341145179084861e-05 -0.0002170579435250776)
(0.00218362105252609 -0.000221234899765835 -0.001497672169740779)
(0.004791278046961303 -0.0004880450134659711 -0.000204297868440164)
(0.004686975267776569 -0.01479848151715234 -0.002788920304622245)
(0.0007553714068225903 -0.009148513916046885 -0.0200562217897064)
(1.826877245897313 9.829472673192036 -7.424347514260612)
(0.0004616097577041896 -0.02234270973795456 -0.007385318261912007)
(-4.315024166438004 5.326253696214738 -57.72251882598047)
(-0.0006064133346748948 0.0002263786380408323 0.002399287188412823)
(-10.67980010192051 58.74299867524159 0.4332084810811909)
(-7.757461216176218 68.35926834161612 -8.958647903173086)
(0.002572939497987791 0.0008208117733676466 0.001203323495907459)
(1.648957809183005 6.198877922637351 -3.081567169871201)
(0.0006728759873276363 8.214754298764982e-05 0.0003076182919017288)
(-0.1026218613229474 -0.2165855109119225 -0.1215703321451122)
(-0.00476656212978766 0.001390593554595212 0.0001216898216140864)
(-0.3086225479621282 0.3980142476236398 -0.5811319909527803)
(-0.7630000928960932 43.23872688324364 -3.534211493088037)
(-0.00227510036709274 -0.001564115705472306 -0.0008921483938358955)
(-0.0004714431019107253 -0.0001081918685228941 -0.0002970646979684318)
(-0.02731011252380811 -0.01177787143270324 -0.0004956800174512827)
(1.916137668473785 -3.330745419321137 -2.477782425190067)
(-0.007184021943316094 0.01074776063313235 0.0117516974808709)
(-0.002023106022471198 7.685126458603577e-06 -0.0009406255922276399)
(-0.0005546730106728448 -0.0004647114598548242 -0.0002114671053876854)
(0.000626985795406802 0.0006951456205433609 -0.0025927392451063)
(-0.0004293436618186508 3.001519644803063e-05 9.618825057927077e-05)
(0.00496266206867388 0.001870274218797631 0.0003689335947785377)
(0.006287031389500781 0.005508142440733342 0.01341718856524358)
(-0.0003629538658943024 3.577484787746142e-05 0.0001548823430711669)
(0.02042501399608438 -0.01048960911523953 0.002709783766129472)
(-0.0001459153437430493 4.861380590458313e-05 9.024921778651808e-05)
(-0.02842904493532443 0.007587019138218814 -0.006690046310494385)
(0.08255820005167433 0.1826605739848927 -0.1901475918627425)
(-0.001168962274693961 -0.0001832363822988471 -0.0009546125570228257)
(-0.002821923982375008 -0.04610494390123703 0.01855500525777757)
(0.0001849395124772198 -0.008751762608660738 0.003879790363490752)
(0.4372476457514534 0.3972518563481152 -0.2412451984199763)
(0.01138653760030427 -0.004269972794359335 0.003916923693000343)
(0.001830286799063763 -0.005047128648526175 0.0003477793926417535)
(-0.01313383193094431 0.1903489557726214 -0.1634983880802453)
(0.0002105281116196177 -5.277210908208439e-05 0.0001457173277867484)
(0.0004288568117590703 0.0003179279902819095 -0.0005177489870292261)
(0.0001516811146918956 -0.0006138576176573863 0.0003528525604439407)
(4.106380039901696 19.58420016613787 -9.442660724749654)
(-0.0003757036121547698 6.196118486706743e-05 -0.0003150906039002555)
(-0.0009449598401411105 -0.0002044580668995624 0.0003725253373795177)
(0.0006224100028297892 -0.000589417349259095 -0.0006407634415186868)
(0.007794848463797868 0.1082889199900036 0.001393525326077734)
(-4.73744182028271e-05 -2.402521854667385e-05 0.0001586849351945077)
(-0.0004393368749739437 -0.0002680993313411567 -5.67337668916254e-06)
(2.357130957891007e-05 4.21504361527282e-05 -6.545383834696318e-05)
(0.1677782095268391 0.07497720754760159 -0.09811527768918407)
(-0.0001059329185134014 -2.074099902148343e-05 -3.563204209506792e-05)
(-0.0001818490001494571 -5.303016455870808e-05 0.0001155385026798368)
(0.0005695631261780749 -0.001968753641786233 0.003284373162715774)
(-0.1462416714813875 -0.01114287124579753 0.09822265884420231)
(6.584962254853125e-05 4.049327129718077e-05 -0.0001220521987516329)
(-0.0001036078992902451 2.982709138273581e-06 -0.0001256985471355217)
(0.003670252971703909 0.002321188188397205 0.003247916929346849)
(-0.0003635915524570645 -0.000212853166969565 -0.0001936482333314976)
(-0.00058275197913569 0.0004290210484821075 5.619588517977948e-05)
(-9.992693623792061e-05 0.0003170057469374645 -6.428522377138324e-05)
(0.000180537122957595 0.0001291229889896976 0.000399758059127239)
(-0.0001304370033741254 -8.654578702991049e-05 0.0004754141338235756)
(-9.762558276935675e-05 5.341945306494547e-05 -0.0005488865333831625)
(-3.433591359149429e-05 3.505675477207014e-05 -0.0001627203758002381)
(0.0006276461845119482 0.0002795719952365621 -3.074073354987481e-06)
(3.50493647175688e-05 -4.731401628676194e-05 -0.0001949837008619242)
(0.0001442234431040008 -0.000218655931284901 0.0003084460421632826)
(0.01544383056336536 -0.03528076907424669 0.09260801998661894)
(0.0004808863610623731 0.0002139102957360375 0.0002299741458346495)
(0.001010217379774889 3.980875158924907e-05 0.002492612165067672)
(0.0004004299359624947 3.675553050617901e-05 0.0001448536353243555)
(0.0002385739812710181 8.989974335279544e-05 -0.0001291962938413608)
(-0.0007332734712987045 0.009157538833696547 -0.001290797230550599)
(0.7748121153748156 0.7458083400283444 0.3036318820440893)
(-0.003821259156956847 -3.769536644556966e-05 0.0003357387165369221)
(0.1034659492696102 -0.01407511281151687 -0.01464551885447492)
(-1.387307612176542e-05 -0.0001264138981830715 8.453110658039611e-06)
(-0.02345569052881723 0.05591850820503762 0.03105836849729325)
(0.0001761888748602199 -9.553612133745235e-05 0.000316522352482348)
(-0.0002454597835687494 -0.001996065561116234 0.0006571369717017934)
(0.001377248200424069 -0.003200545904333949 0.002156377820919595)
(-0.004385921334566896 -0.001264622227047987 -0.0008246454038475016)
(0.1375787226077689 -0.07512292330930673 -0.1146060043919572)
(-0.0004610956681033953 0.009923621760264885 0.001620817590944937)
(0.00162478261374423 -0.0006800506014490043 0.001009739162145067)
(0.0006178256596167964 0.001008157267607482 0.0002256928470473217)
(1.436077151394658e-05 -0.000202746073853452 0.000223638837468848)
(1.193619222600694e-05 0.0001958774066597024 -0.0001810317970319564)
(0.152727821305412 -0.4218285973945073 -0.1645641168118198)
(-0.001045924040103151 -0.0009139689272664689 0.001190683789331358)
(0.004583106614319455 0.001319459241998179 0.0003166957341045187)
(-0.00012679119234237 5.336013390337885e-05 0.0001104551593154135)
(-0.001582521995541324 -0.0002376547471108118 0.0001470511488856038)
(0.003913367287881043 0.0008122291888668894 -0.006743405802468189)
(-0.3043982740624357 -0.05281393373006135 0.06608156843807786)
(1.00410871551066e-05 0.0001293149544630916 -0.0001346741400106389)
(1.76205930799096e-05 -7.07961479851318e-05 4.692183521139727e-06)
(0.0002055345239148857 -0.0001798857890575631 -0.0003677997923512299)
(5.980645957880386e-07 3.386223419694195e-05 5.128680027144097e-05)
(-0.0003272392943346684 4.393203984012714e-05 7.366744449305872e-05)
(0.0002334637006506531 -0.0001855744521994008 -0.0001026809508334241)
(-1.175045294339537e-05 -1.655674654277558e-05 -6.536147121775298e-05)
(-0.0001068915498844969 -0.0001841091844362711 5.464553722072459e-05)
(0.0001160689761917545 4.934432932452752e-05 -0.000115684788868283)
(-0.0003833780045947239 -0.0001822360850217694 -1.763468911502558e-05)
(-0.001467732714585051 3.450251679035145e-06 -0.001048121787050477)
(-0.02403345740240465 0.03059423682328075 0.01600157856474001)