/*--------------------------------*- C++ -*----------------------------------*\
| =========                 |                                                 |
| \\      /  F ield         | OpenFOAM: The Open Source CFD Toolbox           |
|  \\    /   O peration     | Version:  v1906                                 |
|   \\  /    A nd           | Web:      www.OpenFOAM.com                      |
|    \\/     M anipulation  |                                                 |
\*---------------------------------------------------------------------------*/
FoamFile
{
    version     2.0;
    format      ascii;
    class       volScalarField;
    location    "1.4";
    object      p;
}
// * * * * * * * * * * * * * * * * * * * * * * * * * * * * * * * * * * * * * //

dimensions      [0 2 -2 0 0 0 0];


internalField   nonuniform List<scalar> 
19632
(
0.1085853892042741
0.04946649195573014
0.1012479796879342
-0.5046395376394485
0.094968160055503
0.09611763139310811
0.3718283225663761
0.06970054237285163
0.01029576166927551
0.000855482259651308
-0.1022839377809418
0.2074547947694995
0.06217195817214488
0.08219416480453637
0.07100731314712957
0.05584630738232849
0.2929783391815176
-0.04617745457236631
0.02672243628466153
0.01581769890645783
0.0449772223053282
-2.152109540626753
-0.6065627992161596
0.02253703136120421
0.019664783827867
0.0155105105016127
0.0581653170356316
-1.198225367913746
0.06758074399371045
0.06232474686323062
0.06700714600223215
0.3239355361617882
-0.0764993757509657
-0.5993366661848537
0.204831170489568
0.05237548109545952
0.008733458283671646
0.0642242136317928
0.05863304050766638
0.0965989968013244
0.02448966069400926
-0.08713377082265515
0.03476753057769513
1.134099608496462
0.02540637761180179
0.04929215225263611
0.05272677351484973
0.06153011519391147
0.0391675590371546
0.05022328692234853
0.08535353101102526
-0.005064460230202255
0.0248864602955377
0.2944584558793948
0.09446691628849553
-0.006320332063866961
0.5309075365590367
-0.005576780207134533
0.03576518470699696
-0.1160497719114114
0.05394249121530691
0.03488500478411136
-1.115705402882768
-1.248593986689122
0.0593791364192171
-1.254244485106427
-1.882956987313705
0.07369396239331727
0.1299256070816426
-0.08338017840356107
0.09068464557215915
0.07294774791844047
0.05550066042155088
0.06302775749833947
0.06138411731283774
0.02697319690626723
0.05974215741200597
-0.01125706030223635
0.244699574791319
0.0358259026214096
-6.07665728603921
0.2931630387935408
0.06276027057145632
0.06296389867040243
0.02541167549115933
0.04240330268923385
0.0255451718363546
0.0638380228197004
0.5123115986096816
0.2756643798304552
0.1265338561511468
0.01937057423329972
0.1327206358569182
0.1386364087694441
0.0651289946509031
0.2994119479121539
0.04916019605140731
0.07100113533627302
0.05760965521548603
0.06470544948996079
0.6123285197399529
0.0162227558291985
0.1180169476836839
0.06019988106824325
0.03569231415816695
-0.06387453305021584
-0.7026915535864503
0.007652019563727104
0.05835424434710896
0.001641561633702438
0.4232136830330147
0.01757939600111642
0.2495624274510552
-1.817130959414847
-0.004270252724754437
-0.08813685144878525
-1.455233070899995
-0.0750727900587434
0.08772801027101544
0.05464805998891184
0.01119167189599868
0.1229872502652331
0.05764025014637538
0.07414027403517708
-0.9017951732779959
-0.2581470823534476
0.02530055100788604
0.1208381867478632
0.05658260831953928
0.02390787152959284
0.06986845633423709
0.04259556564030685
-0.03623843700830433
0.05909304978617523
0.03587009431773951
0.1051828207407451
0.1960863674038467
0.3482852303010173
0.02223972440779762
0.1899160752951303
-2.966786143603185
-4.293774912034482
-2.519203535666708
-1.642422845641202
-2.496622089533156
0.06175706109995206
0.06584567687966042
-0.5909454847517467
0.09158168118502043
0.0261093488269545
0.0698495564493623
0.08688333740165187
0.08041500326848444
0.0114739873814509
0.1128057436195136
0.05955843882657471
0.06863673843413567
0.06585028264349257
-0.3266177398998422
-1.606362830454822
-3.278989130812311
-1.812669722798113
-4.188578561856401
-1.130087638481828
0.06450283396098618
0.01891327046929319
0.06418419084082565
-0.02709255346204663
-1.083922789116527
0.2291351491058323
0.05517504565324702
0.09672033127278314
0.07034964553490611
0.04938761977868789
0.0352907573327926
-0.2128344010839244
0.04177659859315846
0.1005007403356969
0.04104675121605599
0.03741581526674449
0.02008282319987625
0.04028485556571555
0.03519388853009331
0.04299425782808124
0.06270935076955192
0.07148581177414275
0.07274563304887022
0.01567759474859301
0.03829523767929874
0.0424521934856843
0.09960086265880881
0.07414741543814336
0.04067786874980113
0.07533316470204447
0.02720163359731177
0.1083373728621723
0.1186061758181986
-0.2450496485501105
0.1155904384351959
0.4346889160631883
0.04751492908834815
0.09547161713469388
0.05457983394451033
0.1365595975379461
0.05000382829642307
0.06177721666045848
0.02577159243088524
0.09963105200475759
0.05815368923917419
0.05373255463355291
0.174221177940895
0.08248630850424989
0.07566376934483068
0.3216087854467404
0.03119932779051957
0.02851702651029022
0.2699328190328539
0.02272973299361173
0.0708245773889041
0.03027884244050357
0.05992470078026048
0.05742834878261281
0.03863033759873257
0.05796594176829821
0.1455115188733888
0.02102416264298647
0.07370505203554618
0.2167550861147949
0.1418666045550735
0.06943125728312551
0.01982244699007526
0.0769099227244191
0.06209642894077818
0.06907693328979188
0.04907421126322564
0.02993527994496789
0.04695989497249175
-0.03303854589866629
0.0869830334659846
0.04053577347393185
0.01022607530113267
0.9828084745494141
0.1159430221740177
0.1448621873075702
0.06944921753558662
0.1046158590490303
0.07179098156566131
0.1188950746745787
0.06042919601681408
0.09502677320584592
0.07006861128290838
0.05463339817529005
0.03719018988391284
0.09378264786848393
0.2079062093672158
0.2783212004759362
0.05621600986925399
0.2099382512790086
0.02012738852136304
0.2515835057709531
0.2133729789205749
0.2681887316190222
0.07709109410665117
0.070772496701864
0.06064657228294387
0.06738823661970977
0.06951295051246442
0.1629207373123318
0.06025585805545777
0.02165961435512112
0.07103722591726309
0.06882926977460777
-0.07029635772796951
0.05934407604710238
0.06244756704230113
0.06886089399256907
0.1998258474470937
0.4418066039121388
0.07618960294934465
-0.02301272977782191
0.05980852056636231
0.2024969679789604
0.05193518795197335
0.08300136313243586
-0.6427098733828461
0.233842087801841
0.3067966825898709
0.1114808414180371
0.4519876754721322
0.05705447766305181
0.07119841819949202
0.2427388848125506
0.03734555360778985
0.02978979267199021
0.0183542329362737
0.01244827839427274
0.01685556546806796
0.6947178139532292
0.06750597979711608
0.04591904116762031
0.03030572447204651
0.03357472730416954
0.05355931620309774
0.03200825032476928
-1.135244233201612
-0.1140284927991401
0.06421618741549416
0.05468840695723511
0.05754944098740097
0.0563126160906821
-1.472911737076368
-1.510980861044433
-0.177940055863967
0.2218661179446465
-1.981990866062815
-2.293708084673326
-1.666464982370296
0.05585782217894547
-1.733985639074895
-4.536686563913371
0.05577851394400458
0.03097565138844243
4.959714763730055
-1.679264253632162
0.04601812412933764
0.1461077012487778
0.2135535239241188
-1.403678893118623
-2.22140419456642
0.07212345926030975
0.1595780197819097
0.06543136197804274
0.08229435201656078
0.3709328611311657
0.05398488952153755
0.01435862147296761
0.02708926086188386
-3.074117370631968
0.06748563302954635
-4.494317509689526
0.1230272946482986
-1.27977981464097
-1.574351674657179
0.1332828740806019
-1.227565185688592
0.09765767041970445
-0.2267291706518238
0.07413837823642697
-1.398954535868275
-1.566916606132414
0.1492568908746123
0.04100763515277941
0.3432892293671354
-1.175447177134095
0.04781540830701698
0.03621178469028603
0.02977998882933024
0.07317876103434426
0.05938130979102575
-0.01631273736648422
0.0982133347870867
0.0243872001729101
0.08316528237324333
0.1421760954608065
0.1264165021290515
-0.8184644462944143
0.153732470475853
0.04753361289412145
0.05974069662236991
-0.5623320458833292
0.08518353220041834
0.02425826741906998
0.3324735074429704
0.1164800882667188
0.110188434838557
0.129243955803979
-1.299093277454337
0.06243930487318733
0.0606454534909685
0.1153967557148385
0.2999720515345546
0.06208977438987349
0.1173511033736983
0.03665784096283518
-0.04319321250002372
0.06054759083645388
0.03153674089768412
0.2139801435257875
0.07371650534035144
0.06194088455243369
0.06308424755102784
0.0669394453793633
0.08325485226132144
0.04457960818554402
0.0766600322550588
0.0794781763516542
0.08169142979026955
0.07717346146731155
0.05872569577860919
0.04720693167475044
0.1324929956291251
0.1115114445271745
0.1060754888011956
0.1352132269598611
0.09447930581977207
0.09868557043454672
0.08615594216848498
0.137607154933306
1.186501076502617
0.03301558090439217
0.06742360795310763
0.0835738611963876
-0.1344010651615084
0.09680906144649944
0.09276800661677638
0.1120589465056569
0.08135429985782197
0.2956697534076868
0.09346700072597834
0.238724117053017
0.08184427997405348
0.08939593210617897
0.05384584892721804
0.1931015585382544
0.06463635327095064
0.02246307980138774
0.05363833901579262
0.06223772886381573
0.05013083697110757
-0.1836134742847018
0.05639393110988584
0.05386392604139316
0.05173750447697731
0.05060179763929609
0.07690248991146829
0.08270823081487479
0.05425912155367877
0.0697656980660239
0.06957046773833689
0.062654896620548
0.2014050574323008
0.6096568384234796
0.1733785265343083
0.2407000139715526
0.07838741357971252
0.2105353625051367
0.006015962452915028
0.2500190862198467
0.07230032406948113
0.07931449128073138
0.198253007574917
0.1276060105383416
0.07425743505498388
0.1365424079372795
0.08278911646910236
0.1334630086862636
0.06062064978661261
0.1659511184780268
0.1743267467759554
0.1189559337343909
0.1637214616553899
0.1047712366958163
0.08484181678701534
0.1872283229260178
0.1562020401647656
0.1233048588296188
0.1235675879736865
0.1320596124656974
0.0101374269041917
-0.03668307345506567
0.05898546783845974
0.1349986314778234
0.1522382469499485
0.05616345029547556
0.03729776120363847
0.2464763185943321
-1.175277947865534
0.03302574651213663
0.2166647913409226
0.1403012885482328
0.1359916994763916
0.3355097372257776
0.06034229412654484
0.3514237595722929
0.3104121932987466
-0.5400722642792811
0.1820254452534651
-0.05174190179334662
0.06354095249209853
0.1667320293358453
0.04015414358426442
0.04118607500256993
0.1461773791973548
0.2107607673810251
0.1913828991120629
0.08707339547335635
0.07369589726582688
0.04176345426670836
0.308417828321124
-23.92405980312476
0.16855582852991
0.1806041708647644
0.1042442356605134
0.05587813767473272
0.1703851227633148
0.2155478169375167
0.2239013660836041
0.1882884948298315
0.2164954533584623
0.04654512376169075
0.1650750012830217
-0.1051935090963007
0.1680223003746826
0.01554086998784622
0.0322125879014953
0.06783580290439924
0.07862407450618202
-0.1492351472808282
0.4727721331061286
0.01053554598055298
0.06999049437064768
0.1108954189743839
0.1095427652316093
-0.7137472768193348
0.2227984400282668
0.2208864736412169
0.1287820640129258
0.1714560099645154
0.0760818182247896
0.09032524677863606
0.1310745173356932
0.07658186977647004
0.08545828286956363
0.1015724014451584
0.1179951551496127
0.2153486627750195
0.1194306319090763
0.2546690061415182
0.4605450186389619
-0.1438668053187497
-0.002011592760521642
0.09006838952511971
0.09513425310888822
0.093075646587002
0.07498622063835736
0.1631158520754813
0.07697033706961275
0.0533925667989325
0.0524294695542511
0.0958025089726699
0.3272101392993367
0.05051778246432399
0.03679885182256237
0.03422035757493677
0.2591044858329721
-0.9965755038429568
0.2176611635926001
0.03660189712350977
0.1381370289184418
0.044338662591794
-0.5314512646772017
0.09617486766910002
0.08929417032757268
0.1297941043401272
0.0673330465069263
0.3407998382330613
-1.090517980555503
0.03953682629204383
0.08354039543688578
0.04719683946746766
-1.365405658959416
0.07772656990830577
0.09852117094755063
0.08601077991864765
0.04217612082102152
-0.1794437376314762
-0.9775744572922856
-0.01537759557198379
-0.443380144840552
0.0528675438765812
0.118457017018741
0.1111151032064242
0.004508166372725899
0.07231239359816109
0.1662823107898979
0.1995520972699208
0.07824464650147805
0.1784524822796413
0.0755427036195605
0.1046659990409208
-0.08363054148549781
0.05910541262670683
0.1088521453790317
-0.1128044494669082
0.03621520475715701
0.3554809545494901
0.07894776975606695
0.05187622199818431
0.065095355836608
0.1184743565037025
0.04502037610700286
0.06339298796283613
0.08722678814455409
0.106851284275284
0.1161161692734578
0.07951036033588889
0.1005994438107471
0.09839779596178184
0.1339504177515068
0.1182093304622661
0.08120011068683403
0.08226922458882265
0.0802485982936955
0.2932723727871599
0.05324810290717067
-0.09969845256315647
0.05193478207530042
0.008105868552595336
0.1596280317302162
0.08164601822403461
0.06423068398580564
0.05172279378042407
0.06709578929529675
0.06202863547245478
0.05991696099338503
-0.1071017077830655
0.06985194167937087
0.06449600868616501
0.08237627472690144
0.08808453071211524
0.06613786070886107
0.06825968797383443
0.1214397001637744
0.1974040174638849
0.07525073458812169
0.0684090576170855
0.0271457966111966
0.05020091078584324
-0.02621576494935103
0.04031316650621019
0.08100953695041554
0.06784363562894301
0.180368113456687
0.01780201019273148
-0.2095979925024152
0.4995584246099208
0.07557400391807052
0.1204383783516655
0.1227628683664059
0.0741520241568783
0.1152350393112822
0.07603243188047869
0.06708419672513244
0.06662581927366606
0.01766128159086007
0.1264227703491932
0.06936788439618168
0.07372459890455806
0.06007314077383687
0.03217774274205051
-0.3546858528199439
0.527015736379064
0.0290703143246869
0.09253131975050533
0.1122193341296325
0.04237600999335581
-0.7096553902020392
0.06209367903674488
0.03106562190152572
0.04591982320891249
0.1279100020780748
0.02790650971486357
0.07593314550602276
0.07325750190267155
0.2524288443763799
-0.5208654341281522
-0.2244952495050114
0.1244086324274348
0.1336002882972685
0.0797174275874145
0.1194361958642387
0.04352740928291506
0.1092064332738557
0.03409147232388593
0.09624392172504834
0.04871460110754162
0.07576404637933383
0.1344491382392791
0.05331599879801534
-0.6142695762967889
0.0509499145614935
0.06510114222811621
0.04921679095800299
0.0492271564310976
0.1199675049878571
0.04676915141251604
-0.8803282192249109
0.1083274349470653
0.1091279803722311
-0.0817886307789739
0.09976965757581058
0.1260712509852188
-0.2495807945031739
-0.3351113606221418
0.3308318658810718
0.06056351799396078
0.05262757709285899
0.1125147328374766
0.11173814831036
0.08923901252140023
0.02579511297662255
0.06517243717633542
0.1072943769390094
0.02291457026552833
0.04160371154556632
0.02303177700908568
-0.09068138491193309
0.1235751326544898
0.00125106179910448
0.303306385717986
0.1140741350790224
0.1687185530327019
0.07675117629985975
0.2993716691502519
0.07661644396808388
0.05163008792309013
0.06823847637739698
0.105477766489165
0.1567544901526998
0.1325243332189168
0.1966050737561295
0.132129548484263
-0.5724075808882384
0.1648538377932368
0.316907434017934
-0.04040206694431138
-0.846663552406853
0.2545067443161486
0.2075216683371889
0.155155205971939
0.04021229781347356
0.1329601965758404
0.2383625938371708
-0.678038211552792
0.3267889751481575
-0.4350328468746164
-0.7156229004354592
0.3466974110893644
0.2514937527053469
0.08155436024350927
-0.7145837530537659
0.2422998768111125
-2.948048574677048
-7.74947464213386
0.1121095511942311
-1.44107490739051
-0.1687674780418501
0.04423743166052349
0.04403702649778916
0.271331106255823
0.04858642954894477
0.04746239384540956
0.02443652330273305
0.02914385818465251
0.02283686748668579
0.08108652966471747
-0.3048790856061152
0.02150270784876952
0.02943929150502235
0.02590150198469366
0.03192256444139067
0.06691689756042302
0.1799884655603478
0.135989208947903
0.1789101269182075
0.06905421599800884
0.07061420660630566
0.0619462415851869
0.0617124184244703
0.06262636877560315
0.1608886368176814
0.06141818483438374
0.104172772073429
0.4063480644686473
0.03237364679756578
0.05861448002922664
0.1073401549006532
0.01887150361745738
-0.07154311283500527
0.04094154105000176
0.03954318078644382
-0.01281340570614977
-0.5703367103065915
0.1597764243790624
0.09091699133325461
0.3229371031204381
0.002117307518130826
0.07191623902289009
0.1116867015687677
-0.1002124378082545
0.1938886761616167
0.0821508917203332
-0.1151230245018998
-0.01979088951249964
0.1867673900615691
-0.3165080150469474
0.6169799020472979
0.05870113702935424
-0.0323669858600584
0.1578629117605468
-0.05032771550141166
0.1153974924310781
0.0934812328629018
0.5686409065596564
0.185215261341731
0.02471040915938066
0.06759866389234441
-0.7671087167031363
0.1039131926685027
0.06731677313879815
0.02932873906324111
0.1283288076105323
0.1009747261203198
0.1102125537425825
0.1094158393476463
0.1126184417061283
0.1137952451878065
0.1353774809065095
-0.1643521001544302
0.08811667885601526
0.03760884465886287
0.09959765376675629
-0.08195349202495185
0.2046072193308195
0.07722253275827295
0.06893329542929963
-0.1333489783399857
-0.2843594379081685
-0.4669929785626948
-0.1575190808909875
0.08624810414589633
-0.4478029351018856
-0.01105699906199519
0.2202767728192584
0.1047915395119029
0.07175947906043031
0.3288474320303691
0.2163379257310365
0.08271310172738061
0.07069847952216865
0.0824013027257401
0.1004520690071069
0.07477458022198563
0.109758623743477
0.1028874020525303
0.04313947437302088
0.07005006389425207
0.07302689040089144
-0.07710042091916278
0.3033897492777815
0.09019525053824697
0.06977290614617035
0.07073085990197518
0.07341048112622174
0.09687178405420394
0.07680139117098769
0.08285668120060793
0.06370966423056797
0.08151070058446878
0.07976872831627739
0.08134091419341502
0.079744404687337
0.2147058678749157
0.08450516821351631
0.08700629764405535
0.1319952805261424
0.02960693419708149
0.08503399626368568
-1.485708546011969
0.8510693193924571
0.7406329616071256
0.08673941420725197
1.136874046653394
1.499549858774164
1.063430715429185
0.8420563408304619
1.515121360350416
0.1256864066435956
0.0317012158164068
0.0719987049830442
0.1383181162020664
-0.7285868119529825
-0.5044179825402364
0.1063566514734418
-0.06129721992702056
0.1858096354319547
0.1013696704383436
0.1091673614863807
0.3274902469262593
0.05080381250635664
0.05240024560029753
0.09908322586590051
0.1020726406977614
-0.05064983176233667
0.4698853195139846
-0.02547001698901496
-0.07446499786840627
0.08771160761610484
0.04940731841471781
0.08276334247008994
0.06815571102654069
0.08168494477389553
0.08757361566061754
0.009027048044756672
-0.8771060091589485
0.1421060418974759
-0.005599089890954055
0.1209238757884435
0.03093096569502462
-0.05522378281445835
-0.0106092307547784
0.1168922445307261
-0.01424708656078413
0.1492581839635219
0.1586558778576123
0.07594789316287008
0.01196984592661913
0.08246223849095446
0.1316333874493971
0.1067345797915099
0.03160775494637152
0.04255950181093156
0.03977212919478999
0.3028955478462599
0.0395897493437823
0.07404980166276934
0.04438396955283144
0.04507828214617893
0.04404996937066201
-0.583132364669123
0.06636330249776216
0.3930003288222383
-0.6876734154953893
0.2207395014602442
0.2882794092750108
0.2444186230356412
0.2173035929925397
0.2770700220293907
0.2910759637359768
0.008919664430394067
0.07616505598911809
0.01349778133641076
0.2399780873876244
-0.8601507269374045
0.03368282640169518
0.4090212755995087
0.07860276663560983
-0.2756401105284622
0.1306418857985575
0.1830290392269478
0.09732547424732971
0.1405676120483125
0.04340076223917574
0.09323522607557147
0.09986584441196994
0.04412338141943664
0.05791490787924011
0.06210402594886687
0.04186499955439669
0.04427849309249933
-0.3966623301595144
0.06769440698380845
0.06074762855575735
0.07090529075974028
0.07114426892964859
-1.346196149099919
0.2961497743655867
0.09478725446851265
0.1015510625548939
0.0959923909271326
0.0903962314621648
0.09204357029278418
0.09567898548552284
0.07166438141696228
0.1972450635545384
0.08142049232374221
0.09755280054000988
0.1202312263564131
0.02992295429176719
-1.064182018317958
0.07371207543849205
0.1055789100226051
0.118340133785514
0.04340552116264719
-0.8044342903009344
0.01782065083831314
0.09442034959562826
0.09025774518521609
0.08263416514936772
0.08806551751163916
0.109366298842088
0.09267671553866005
0.1049637476512627
0.1010743328977274
0.1014702783592853
0.09239868067280957
0.0958572427757297
0.09584143832536068
0.05530095504414741
0.09161837033131022
0.08331785321038537
0.09857426246502018
0.08736835002029311
0.1036978224691923
0.16628410609537
0.0897233228546193
0.1910016109889892
-0.06265574313289556
-0.3974041036246722
-1.005434323966865
3.419564555368148
-0.3198997359616749
-1.631734329414734
-0.02745193107055825
0.0924230283789863
2.009921299165659
0.1668193806847242
0.06476032196232769
0.1756541919239117
0.05874057345997524
0.1056902106947614
-0.2252058408610351
-0.1039398873272585
0.1302485461644272
-0.1617817489324695
0.09836424264963321
-0.09609453588292892
0.07965615064016122
-0.01442434741710339
-0.2481354131452935
0.113086973755249
-0.0003035379908573636
0.08325932768927777
0.1643024698899155
0.3272310888752715
-0.08083688586652693
0.08539338360262291
0.1533770026842033
0.0108662250642845
-0.3052501875122217
0.07853891889277752
-0.6569113501515409
0.01439084091962555
-0.08516578972979025
0.1029801645310274
0.4425223222827513
0.01053787810767048
0.1305159770831193
0.0854298113145557
-0.05547207853396213
-0.08333637268731964
0.07708763153729221
0.05516664937399864
-0.05242605168503268
0.1931685567276425
0.1014570452694454
0.1970922598795053
0.04022785677531291
0.04025496330686591
0.04486741340572591
0.04699115010019125
0.04253240934546756
0.05432124426064922
0.1249699656204628
-0.7001015080152253
0.2197884959431389
0.2513548170814492
-0.09680223643062422
0.06084169073191517
0.1151996090366414
0.161196488303179
0.1436932493402209
0.1772636175178593
-0.1534384947439711
0.05367168252249722
0.08954711513923042
0.09828679135445929
0.1240843240164741
0.1152558740058437
0.05663168951568708
0.06302746913704106
0.1742277154411963
0.1278603902822017
-1.761349107755166
0.05778890787656562
0.2247452857117768
0.07278820322639017
0.1021976077458214
0.05899682996115194
0.03677222402966904
0.06883428073115599
0.03205857377471378
0.6533499274332236
0.1257158645676764
-0.1448746549676662
0.133732551251399
0.1070538168404265
0.06829706159746508
0.09730913271311563
0.04388776655541046
0.1183515150546683
0.07290681049236983
0.127252255554492
0.09304403278544778
0.05325986245102166
0.2704423040371723
0.1025048191789965
0.1567750451596424
0.1195961057046658
0.129779307458568
0.05141775825398472
1.110158182782047
0.1053502919428149
0.07783913622024277
0.1162931039719956
0.1068494277601387
0.101524909458783
0.1403366405384435
-0.05754438157650495
0.07393276176784011
0.07206810343301907
-0.07173592328230964
-0.05133402999529968
0.07521690274594747
-0.1693128037835947
0.02393711801536424
0.05070575828304697
-0.7703385318487171
0.3414920192062528
0.3157931976783384
0.3686225066310989
0.2574577915360579
0.2427153205865718
0.2541247047752884
0.2357655198458468
0.250445088381668
-0.004214666244060731
0.2774897011725283
-1.163055812689988
0.1658092500730055
-0.4603409374744284
0.166446188956916
-0.4889421864035874
0.1721666834321165
-0.2726869599908517
0.1134178922502724
0.118321242939997
0.109833537507808
-1.272911978654609
0.114686826434344
0.0957529659909391
0.07381419156397552
0.07231742844207173
0.06526766187959371
0.05393541242465116
0.06159065172422378
0.06712454900212987
0.06826785945458134
0.06446769124617251
0.06959970211782368
0.08049626489519197
-1.164920679648414
0.08764685560443161
-0.1049047454015987
-0.01112963640277029
1.044051239501138
0.9511634736750781
-0.6524175236604037
0.1178882115921602
-0.04734320330701425
0.008173439980250746
1.741364717419736
0.3294281466987826
0.2090792668245613
0.2331795134424847
0.3755756223198769
0.4274456842160136
-0.04005376193207313
0.3455961083965286
0.3179399669153631
0.4450717740401949
0.07552253361433839
0.1059714641494209
-0.3122314507717573
0.2181066096812037
0.08980734688224748
0.1038507645668468
0.2879382975059306
0.04027029239370141
0.1231769384646958
0.05976209006379474
0.07130741816151147
0.08406783714758757
0.03621576710785216
-0.4781071022333107
0.1179250698481112
0.1407921041848825
0.02231526841003366
0.1141964906365728
0.1170137738711992
0.1265598011296467
0.2403245217968713
0.1588670972419876
0.1167401219908996
0.1583802001381364
0.1055235826199025
0.2505884126248455
0.2423108017017307
0.1674050700898398
0.1419540433795945
0.1817152487224607
0.2698745520145301
0.1534477914237828
0.1480601083624966
0.08552292840779702
0.1200419728280933
-0.3707793559543304
0.1796916968500424
0.3200311812087973
-0.08348826181117225
0.08340409236926216
0.2824150299994205
0.06197548082950233
0.02201556793445605
0.07280038146296948
0.04618289356243929
0.09841277308521253
0.1128316329223246
-0.3206906158040849
-0.5087441585537444
0.1052097050536111
-0.7019142858223649
0.1781147843044159
0.2245507507923429
-0.5424251277095378
0.2319547818794277
0.09130850920739997
0.1110830040679513
0.1007908559647848
0.1122153587556336
-0.01011401420693164
0.04165800837942724
0.3018607051934786
0.1788094674599723
-0.0008601104048635163
0.3592831744860308
0.1237018427629086
0.08722692176402072
0.1339726277136096
0.1253341438528889
0.178496194644802
0.1565051469457759
0.006879201750531198
0.1456510713650271
0.127522706470736
0.1006869196057428
0.09504899301302332
0.1507423866912617
0.2409105920336806
0.3410655516402069
-0.1211547158674917
0.1202422373846836
-0.05279612512849041
-0.2045932168300775
-0.20913084560404
-0.3473639036261047
0.003608035791030768
-0.5808005789858568
-0.5212051279099561
0.0900956896052441
0.1183884533905531
0.1342441469081065
-0.2171370622288661
-0.1669486870933584
-0.2893936280996847
-1.560361555480086
-1.233068324156092
0.1473214196599414
-0.2754429596027332
0.1129289704624053
0.06041069675197833
0.4161292217762756
-0.07760719769722582
-0.1890476005200003
-0.05190627798239424
0.1001455788681288
-0.5004094210878265
0.09377094610781206
0.06427693538514836
-0.851218189440146
0.06934133376227856
0.05333720912206606
0.04103686620948101
0.06654025294771898
0.08095284989970754
0.07412363427167419
0.06231015547253126
0.1292249331767518
0.2599115973040724
-0.03555887695397438
0.09626110412023833
0.08590646040577041
0.01652946209681473
0.1607542271681214
-0.0865341198687806
0.2503546694692672
0.2310217843854595
0.2825176675978741
0.06655527963866689
0.07352984726548627
0.9294347945972297
0.2053060606441259
-0.5253652140553196
0.09204761076421297
0.3590202523016955
-0.6361521818866007
0.07216836356092762
0.2083871440369203
0.09638894060589319
0.06781752406935013
0.1586654004152695
0.06861924358006211
0.2433755030636405
0.1134684370689588
0.04959294841238303
0.07062743200556811
0.1550428749016151
0.05625258063360156
0.06868274362924927
-0.1170960332370577
0.03435880903052717
-0.3303943281449241
-0.5062144071348359
0.1348635376874704
-0.09286907535647602
0.08022271797787352
0.02408746890342172
0.06881090779993419
0.0999075711881271
0.06945999964506662
0.06959212935941199
-0.05179909187005401
0.06322697763394776
-0.2893591134631717
0.4569869470298062
-1.349886717517246
-0.2905421034761392
-0.4744573824369614
0.001020505613658412
0.1080231326380109
0.09293965268966704
0.08794210913870674
-0.3821721401438076
-0.07590242333959174
0.1228757298115753
-0.1450431497637749
0.1478483950539727
-0.4444419087407527
0.1747340867288171
0.1665897985967644
-0.139614782283518
-1.087574841998558
0.29181475432554
0.07113756705773286
-0.0309038289501851
0.4429927110192464
-0.2511322697137058
0.05792562499989452
-0.2982865757250623
-0.1546133116707151
-0.4702982797154808
-0.408098368512667
-0.1021979754129442
-0.01437231401098994
0.1067857954825266
0.03286948071649141
0.100534512978403
0.221471140335502
-0.06978722014630481
0.03173837530934204
0.0332949557024281
0.09304313103395351
0.02207776204818277
0.06870029486249338
0.131862703026727
0.0583588792560998
0.009137317893209792
-0.0573859509201077
0.09247705453861958
0.06087016467457277
0.07033120048537769
0.1449139631954299
-0.1538744050989612
0.1899914772440134
0.1498013651717254
0.05599515662174685
0.0932659514993797
-0.01213432780920844
0.05389338969551449
0.1057644851141873
0.212965450549609
-0.4051393444651157
0.0829965679677505
0.1026234329363361
0.07523147335166862
0.08685553797211319
0.1447377086216254
0.09125099490624695
0.07366694822839905
0.08444687202744795
0.08599839580153505
0.0818062728955152
0.07299733077271268
0.5046733112306058
-0.8346646960966801
-0.06668271119358628
-0.09595404669583085
0.02342791480761905
0.08473184759402497
0.07467282356344869
0.08121666620371611
-0.7902288328211172
0.03677785390420271
-0.1160602052004688
-0.194504000392733
0.0463982233187022
-0.3261518717649501
0.1871792299482447
-0.03939904505415699
0.09817476559825625
-0.7188524634173198
-0.4651561031999592
0.1479056597429564
0.05764091142550271
0.1346825118662979
-0.0504415999501043
-0.2512958320363846
0.03572560426546446
0.1624403165422419
0.1166659943398761
-0.4917321704854791
-1.459829376131331
-0.4481004254310703
-0.03583191450056415
-0.001193219885760458
-0.08665985186518593
-0.06641225420947192
-0.1258858799126486
0.5239569405583896
-0.6060182314961162
0.2044762936836245
0.106872393199146
0.1930038460011257
-0.3197448198821708
-0.6297552038853638
0.07441065830309584
-0.886966389800681
-0.1451807044670598
-0.280228917987723
-0.02199616892094854
-0.07639275058361115
-1.275339306623524
-0.0191685209118172
0.165831182266193
0.02177700110591959
0.5455271960085886
0.1710865548468179
0.145540447112048
0.3397377221067696
0.08174014161156429
0.04226391637385386
0.3817538613940104
-0.1425059797666238
0.1115155999163971
-0.1646192745989671
0.1859033036628696
0.1333357082056947
0.1353667767848638