/*--------------------------------*- C++ -*----------------------------------*\
| =========                 |                                                 |
| \\      /  F ield         | OpenFOAM: The Open Source CFD Toolbox           |
|  \\    /   O peration     | Version:  v1906                                 |
|   \\  /    A nd           | Web:      www.OpenFOAM.com                      |
|    \\/     M anipulation  |                                                 |
\*---------------------------------------------------------------------------*/
FoamFile
{
    version     2.0;
    format      ascii;
    class       volScalarField;
    location    "1";
    object      p;
}
// * * * * * * * * * * * * * * * * * * * * * * * * * * * * * * * * * * * * * //

dimensions      [0 2 -2 0 0 0 0];


internalField   nonuniform List<scalar> 
19632
(
-0.06032273071768533
-0.0192215102751384
0.01339849400310242
-1.085736098716768
0.002296639556800159
0.005723124312886511
-0.01185086998775452
0.003774487032234966
-0.03779222871815064
0.9806940921781887
-1.003793482436437
0.06929527672936064
-0.01043388226657241
-0.01209750311117554
-0.1149538171506569
-0.002404706162330066
-0.009399536129230902
0.02881532432453334
-0.003708367568153103
-0.01744090755870994
-0.2189875886925305
-1.626342001639319
-0.08915555911303594
-0.01080946956364486
-0.009260809505979423
-0.005591459042242145
-0.007500313596207018
-1.445408491701952
0.02251527513079233
-0.01080815931279061
-0.0006209712944151355
0.01550789975738705
-0.2702228266760495
-0.9629721162690665
0.03831191193102138
-0.01089645108755848
-0.01233730276531761
-0.004214995436208766
-0.0004352748243038659
0.02343067916225266
-0.005518852974199429
-0.03918517436800331
-0.01496803110645664
0.01731094241232861
-0.001817159026058855
0.001335296807650169
0.001027858066837967
-8.199853953509231e-06
-0.009616636210127748
-0.02960196943767507
-0.01210860765896398
-0.03792374238654807
0.0004168499668512847
0.09780220909724689
0.01899988525206486
-0.03573484049225745
0.06895785644417388
-0.02669833141809866
-0.00262065873956829
0.1139156536247041
-0.002039976344483993
-0.007359083405555785
-1.232177935337746
-1.979556426632574
0.0002030285200251767
-1.267148895201037
-1.58451338888928
-0.004773899672463318
0.02544950063240817
-0.04579884947258055
-0.06173427556056227
0.0001240999370898871
-0.001505070170901781
-0.001900959336196191
-0.0001459107150471031
-0.006011721429616236
0.003372922010464884
-0.03033363810116234
0.01892905914554384
-0.04270802978462026
0.3406497977279301
0.04737190169779165
-0.01000861160489881
-0.008752266247379058
-0.0008810403191352283
0.106000562452214
-0.003797805680139178
-0.004206891988878417
0.08344013502925195
0.102688756858677
-0.1451021739200009
-0.00848349974683431
-0.02038332954275753
0.004014322925698192
-0.008442743340408142
0.05217205704592649
-0.02210044572489662
-0.008151756215008167
0.001532301359308278
-0.005919740961607168
0.7145390690313217
-0.006603873221961337
-0.01833693617870607
0.002593817900601549
-0.108782371568706
-0.3605898806640837
-0.1095564974075327
-0.2089153970111307
0.002209440341309082
-0.01705368721467427
0.2136977874522198
-0.009228031094514566
0.04907689458617512
-1.554757246117419
-0.02583379157636606
-0.2626921369855535
-2.024796178945147
-0.2296115539223866
-0.01931037397625597
0.002978853582962255
-0.01618509679479932
-0.001809763032973116
-0.007712188552374227
0.003499898677602643
-1.272987909788355
-0.2499977890404676
-0.001799696261123846
-0.01811660447136015
0.01042634755873221
-0.002387732930018199
-0.01328228727082349
-0.009786510366002796
-0.2223718826016139
0.002444710108390667
-0.02390830995821597
-0.1282824615470603
0.01876143581276571
0.09563345043579695
-0.008701411507390403
-0.009982838054826103
-2.678620652045384
-3.848914543461921
-2.02248844279507
-1.884389371179271
-2.743235716673702
0.003609076714286296
-0.0007562129339530701
0.05524121833135213
-0.06374161658912805
-0.002551181022032914
-0.02086309149542693
-0.01999901191042913
-0.01526878531413355
-0.01481435907158344
0.02303514100908613
-0.01993180708369611
0.006153850689258192
-0.00943925129977569
-0.06586115415373289
-1.342193452400654
-2.847012463570856
-1.965566721567118
-3.179373607544745
-1.156324075749749
-0.007348210425300376
-0.005914411447734331
-0.008712266531759877
0.09568973941243156
-1.369445706665744
0.0616685539151454
-0.006585106761874902
-0.06104458659270214
0.0002556129354474731
-0.009868167729188861
-0.01206117105093628
-0.05309382402459861
-0.004913794985363051
-0.07063954557492812
-0.004322565287026257
-0.005887293678228342
-0.00209961955073622
-0.00507272799897582
-0.006113960128942573
-0.01636205665560669
-0.008772006678665711
0.002198163105881075
0.00559419169372211
-0.009610926232076659
-0.00525019124898498
-0.004249712615461977
0.01118887648770335
-0.1260260256439305
-0.1647127117781038
-0.04730021698917283
-0.007197500618325102
0.01777121430190893
-0.02326063642693636
-0.311286722129863
-0.01548032592828817
0.2311818386752694
-0.01390042477614495
-0.06633320217938084
-0.001695438925462708
-0.02587953811364009
-0.005639000103110094
-0.04454612828985446
-0.003781653443639314
-0.02515291284755556
-0.0003996725027786432
-0.004187249576341609
-0.006000241604378091
0.008608684900376121
0.002091450607249838
0.07341457255982434
-0.01973416224678641
-0.003410943673199095
0.03270195681499257
-0.005625129107952725
-0.0008635125229707091
-0.00626293963821615
0.003553754722617558
0.001109839088936222
-0.006884813931819206
0.001167823959446703
0.01048585952738705
-0.003633551471715444
-0.002310098486151328
-0.01655738802920555
0.0104345343904296
-0.00969872689861143
-0.003443508878051819
-0.006588578553217104
-0.001495311499017448
-0.008028630582502111
-0.03158844910596768
0.001645008793075514
-0.006410752231898082
-0.02393912088195231
-0.1006654895456568
-0.01210263713685093
-0.01158198691037124
0.216739661989005
-0.02452010035429198
0.007414949385336394
-0.002420152767843736
0.01337688753507558
-0.00797427791752856
-0.009630683906623715
-0.0001933916591480878
0.006189708229351723
0.004633136538196437
-0.005388198925430149
-0.006443963635753916
-0.06293820079994571
-0.0006520776975404707
0.006337725369331111
0.002476381583439811
0.05842767571930577
-0.1729660551173201
-0.01692783294393259
-0.0008429161312136611
0.02472568311487714
-0.002856732815264168
-0.006240499778863353
-0.02108383238132144
-0.005236831483300632
-0.007565268901387284
0.05457434423078125
-0.007707781170108003
-0.005157091428473264
-0.006832251250428377
0.0008075271902058115
-0.03082131860528712
-0.005503156283741368
0.01315319658552334
-0.01429848886307686
0.006123059641492647
0.08500951392796777
0.005399249098330915
0.2663218046489192
-0.004214237601469294
0.04612782886267214
-0.02064349876286732
0.0004632012459858663
-0.57782972938703
0.023688069602688
0.0233089807661516
-0.0409163578553435
-0.008668981566610268
-0.02815275406673768
-0.0007028045132904048
-0.007906645286359973
-0.0105069690611382
-0.002882335803435536
-0.002451499182698437
-0.005992219703954292
-0.005606872169461644
0.02574202195688896
0.00256729161534254
-0.003943293543733139
-0.1789817926351908
-0.005459424886123443
-0.006802683357456317
-0.006415194006060579
-1.294417384393251
-0.04885379417083408
-0.009073457903624606
0.001558519389409693
-0.0004085597174268768
0.001804241075651686
-1.383061267835961
-1.185545430589518
-3.919176489904371
-0.004961892433430377
-1.610730571280335
-1.908247619222108
-1.245886752466094
0.003897912567226723
-1.523700795878072
-4.317073516564824
0.008611844162578319
-0.0005814986003051002
0.176810448539455
-1.09736059734743
-0.006702007698968689
-0.01234322724901173
0.003075974140207679
-0.8624183196511943
-2.512189552195331
-0.0005940173194700215
0.04014023200328747
0.001230351563110003
0.0009748739412937809
0.02559370986336482
-0.01204121650086371
0.04747927724021874
-0.0383324487498964
-2.626536559475718
-0.005869764931576736
-3.904321568431067
-0.01738181251711303
-2.179139243895104
-2.157252767814874
-0.01120615343178948
-1.75987328232338
-0.02111888012692256
-0.08971761092220026
-0.04515203819466772
0.1988000394286796
-1.976261821613022
-0.01950438447483407
-0.01047415136564027
0.04528192224218909
-1.216984050018726
-0.01113970377888597
-0.004060454342814247
-0.001856832695070398
0.005646167704130289
-0.01032184460443335
-0.03310595829066652
-0.1066043317034912
-0.002469886523472449
-0.1346247818955603
0.008476426628923374
0.06306164782572314
-0.09686256040521508
-0.0151251926547379
-0.1518291375154218
-0.01491158657734039
-0.0179997214707662
-0.09287201983969572
-0.01924700732292792
0.0101643406499193
-0.0161162642279776
-0.01720077069573071
-0.01233395624794353
-1.5615460730591
0.001203841918028637
0.002064492147981083
-0.01776954629916784
0.1098992415451182
-0.006193183648279628
0.001670887655122599
-0.005146090566255829
-0.2028826064408473
-0.005644421342284592
-0.003867584070448724
-0.01341398133701049
-0.1722684567008206
-0.006242465524853865
-0.004150945513281127
-0.02760717124281946
-0.01593449593676444
-0.005981161452005604
-0.01232967200417263
-0.0126565484490661
-0.0133347488533724
-0.01340535258625732
0.003529249044663312
-0.01267446624188353
0.006376775016477949
-0.0008244553654070483
-0.002397333242909694
0.004604825912766567
-0.04244718090638835
-0.002528299201462776
0.00699893253000889
0.01620610187129752
-0.1333303711267965
-0.006117686987656084
-0.1299532161000165
0.002315087709487962
-0.1334813489535022
0.00704780220423688
-0.01938491640766618
-0.01285997445077302
-0.008450232825399771
0.09580912131979243
-0.01200915703360205
0.003696249900087601
-0.008251473334984116
-0.0126811511737311
0.0001635361004680771
0.02095792274552306
-0.01035630772223965
-0.003140690930035067
-0.007732766258162826
-0.00433059359599988
0.000679525732197263
-0.2209235047166372
-0.007953534314878238
-0.008356897745544134
-0.01110481246432224
-0.008826841440844177
0.001563505524615768
0.003904511816352908
-0.009175744109013543
-0.01075356266741105
-0.01027953586892431
-0.01041465363121921
-0.01544977968318454
0.1104019761562394
-0.01986894646983883
0.007089480859114928
-0.008886048740697497
-0.0118085676640749
-0.007780426995106938
-0.01007834511195535
-0.01000104980874146
-0.01068446953200361
-0.01085477071019373
-0.01365920709405606
0.002834531612675665
-0.0145322562766086
-0.01083038047253041
-0.004621101795892034
0.00149500268273357
0.04483796853144778
0.05157208420414706
-0.05996421756001066
-0.01415525774375185
-0.008374118906677282
-0.01743479836916366
0.05526545849195957
0.04066117659493827
0.02423593945142934
0.02523370434716852
-0.02814027128533619
-0.005506723839551537
-0.006895799729766722
-0.001523494245910296
-0.1663577182253006
0.009764292556357643
-0.002197746301624416
-0.006563836002223254
-0.007409205411779338
-1.680128953398407
-0.004631622722652491
0.04964833545881911
-0.009579765649494148
0.006801786387541552
-0.01465984473204681
-0.001010695672733153
0.09016872695261922
0.09331216791471415
-1.068707850782444
0.06725495988735482
0.03623861314400937
-0.001030317355881094
0.06601342364898137
-0.004846699967709202
0.02547858869627649
0.003214442120169963
0.06741042363454017
0.06942527708461492
0.01159435499767479
-0.005606873064322159
0.005893176080670619
0.02070418553940232
7.058248557332741
0.02338807162099644
0.02934932148976067
0.01532098804439173
-0.01469519340938094
0.03074747368029703
0.03187342363066529
0.03314825946024841
0.02647105496038002
0.03880640472493394
-0.02731049705823132
0.02763328248280651
-0.06752034995188898
-0.003539631764648902
-0.08296907459136253
-0.03950499568601771
-0.0004679722219307715
-0.0002024178153564276
0.5115578979064067
0.05062066186703758
-0.4767369525376575
0.005914401613697756
0.02127915497695164
0.01862871148061861
-0.9797103499240092
0.09127583125756158
0.08136742619056171
0.04998460416013357
0.09282813660655126
-0.003371639699631111
-0.0274289859846583
0.02887016035786342
0.0008860088778605835
0.003969268664326946
0.01311320365931505
-0.03587383446773011
0.01268693326232228
-0.008796550036346896
-0.02652880368828485
0.04874211939912158
-0.06643644814648093
-0.04446531431935397
0.007244924107405157
0.008880148146147715
0.008274788964230071
0.001300756776802307
0.03692185241537098
-0.1132916168142724
-0.006585993812610613
-0.008978506474080463
-0.0003332890334489204
0.00989546766191437
-0.004600322672766526
-0.004087358159820277
-0.003921977643811878
0.01455470106473575
-1.178931278962722
0.03615802506169616
-0.003165140553295177
0.02920953976930454
-0.003646602618243833
-0.2786156756620976
-0.05782432225755614
-0.08815832637425697
-0.00911640503277822
-0.02421032207489997
0.1210904666311898
-1.124932812791599
-0.006222779028627566
0.003876958008042684
-0.002936478097893333
-1.073146167546491
0.002067777516496715
-0.05645177739172192
-0.01882211435198532
-0.002797733204728437
-0.2354991507184448
-1.462027623798857
-0.05335729699209808
-0.06914325013118106
-0.007135201970122004
0.02086887518283297
-0.05915988462393983
-0.3328377411897374
-0.006605355219739571
0.01966147895712528
0.0893165455319533
-0.004401005925787939
0.02443474428898608
-0.004936151875123631
0.001464886346107823
-0.1965265319135222
-0.007057707659365644
0.002459354965640464
0.01483307045134727
-0.005108994954881254
0.06897123762634846
-0.005858238101127863
-0.004570085039289008
0.0008328681771015506
-0.01702097796032781
-0.03459921071864056
-0.009487676207509205
0.005512452649459051
-0.009094460112735561
-0.01522508240628273
0.005384496245794532
-0.04356848249446479
-0.01497326608728235
-0.005357626783757666
-0.018421223206244
0.005811677218900421
0.006273512132424557
0.00569908305817613
0.036818143546689
-0.006891627692283576
-0.09180408783071546
-0.006396585615908635
-0.03980669378874387
-0.7825515325423547
0.00647490618990424
0.0005545552031196877
-0.007409064957919344
-0.0005483634843169253
1.689842812654982e-05
-0.0004857852674978615
-0.2113520516946119
-0.0003238279882703123
-0.001619945562644641
0.00420694293949858
0.00980589512652544
-0.001121248676647923
0.005050549361924043
-0.01855334050675564
-0.04067873349572728
0.005051305073170686
-0.001031946023203024
-0.02644347942236888
-0.005305530025769831
-0.05078716411010225
0.0008751018735982197
0.004686171129311404
-0.0008645556362831308
-0.01486008231493767
0.01511514394253231
-0.1444828781776957
0.09940407182677499
0.003415737924114115
0.02659135941752865
0.02274353575442549
0.003455857911522395
-0.0101588829176764
0.004148198602252162
0.001738046115981119
0.001564263784268676
-0.1770488983994931
-0.02423679911444529
0.001803246327482741
0.003056072177025619
-0.00796253541633698
-0.007734090688957876
-0.4783393446056999
0.07759188103386791
-0.007411663910464883
-0.01413182143276508
-0.01370660184520046
-0.002707387040323612
-0.622094437651957
-0.00349288112080636
-0.01726512630227658
-0.007047180413011916
-0.01463971583460152
-0.01003850358195583
-0.05224244503306334
-0.03019920424728511
-0.03181444957531304
-0.6873831782786234
-0.430824267500835
-0.0137752367884434
0.0007372082767172465
-0.01107698392048977
-0.0280317048016709
-0.003765502998845894
-0.01550780343962371
-0.008085617685514371
-0.05287913889468994
-0.003972954638128742
-0.01578433307122929
-0.008931619156754975
-0.001884117186360885
-0.5979001841487935
-0.001647820457577071
-0.002548421195434599
-0.003379503265655828
-0.002776615762064014
0.007196954333323796
0.01310097156239754
-1.386326694045255
0.007127294337912736
0.005910545310332198
0.02361944833572714
-0.02440923982686908
0.01134734551559204
-1.157452351117117
-1.473414731687223
-0.008056388948460537
0.006608186606810445
-0.02986005001091865
0.007153541181644842
-0.03491023068398057
-0.02307588840295072
-0.004297739999712101
-0.02685489663120283
-0.03935645816432303
-0.003825279006354921
-0.01152614247583761
-0.004587851816856166
0.5329062823038497
-0.01863104013105948
-0.1179591474025118
0.009842908393515287
-0.02913922982915209
-0.003725812125294563
-0.01109938465854571
0.006490960898038926
-0.01550301327587815
-0.04747374122112092
-0.00188460958575801
-0.02051244350769838
-0.01084770977380401
0.01270609468591329
0.002224519998724648
0.04502556632385193
-0.7279837784026423
-0.003163338008614776
0.03387075198997767
-0.2835063039916289
-0.9254637389452263
0.03539645192834515
0.06653672963755185
0.01393574363923038
-0.05696842410525111
0.001319308723845502
0.04757461760932689
-0.7801810358299215
0.03014347333245701
-0.6116028899291689
0.1630281656257101
0.04155673463697281
0.03489813655247091
-0.05995255931477488
0.1674811068341162
0.0364310332999091
0.3660263145178849
0.264676727920696
-0.02063107233473605
0.242716903920545
0.1365799530010722
-0.002553280147705998
-0.004126091219242785
0.03814771345111555
-0.003703226365824104
-0.002241389729990011
-0.004107843816709313
5.53286172162521e-05
-0.001414258942385699
-0.09207852353308421
-0.3182382892691353
-0.0008210823954088145
-0.001645807251884066
-0.004740817107042251
-0.006105772168264886
0.00326757459400702
0.03451936632322283
0.001929157445607734
0.01036746928713945
0.003867421231207265
0.003213676262682763
-0.000841923338433475
-0.001066740548059069
-0.0007144523636571935
0.008069237989697222
-0.0009628791147965564
-0.0618499742862663
0.07003714087538142
-0.004136369458908556
0.003825932826811428
0.01597508429350114
-0.1228990259051388
0.251716034882347
-0.005537709207817762
-0.005214797856958506
-0.03881374546602488
-1.968604502905481
-0.01170726870546127
-0.01739870540698615
0.05854755224534004
-0.03002579993187726
-0.01861163461484224
-0.07110603120415096
-0.04837567956663871
-0.01370484123633099
-0.005464094077869883
-0.2662884792504782
-0.02265526597520587
-0.03087828769522687
-1.66279865025974
-0.154629302619833
-0.02608906117193764
-0.09911729394392969
0.008740607637310788
-0.04654609821179308
-0.02222703591995016
-0.1253393707421266
0.08613923172585128
-0.1515441373809207
-0.04126653864272851
-0.03202161113760364
-0.2192030531373126
-0.04292760035974529
0.000873340659593248
-0.004147666125423483
-0.03343380723283482
0.009067190821267068
0.008371487710444291
0.007118440529894826
0.01125076813328453
0.01029985015381262
-0.003183310557887443
-0.02064869088531682
-0.02105733413641449
-0.04746711013770418
0.006923273645966624
-0.05384260681996696
-0.001723990978146433
-0.002019778359652651
0.02572019956090734
0.09201023925160781
-0.08820365951129087
-0.1362729172753048
0.07568432816396861
0.0003438249313078844
-1.270047703211062
-0.0691450277033742
0.06380897579556472
0.007789705732196205
-0.0004755463809498788
0.06727570788466281
0.0005121811332799309
-0.0004877240318134728
-0.0007427430215210427
-0.000523813087821542
0.01515397893245916
-0.02307526158893928
-0.002620395104166217
-0.01314595347013252
0.01908760724983866
-0.02544710254923476
-0.02301329497576916
-0.2446206737708185
0.109221868836284
0.002420700022709502
-0.02498631811902281
-0.02149736770618104
-0.02035713925668649
-0.01319845388203006
-0.023795792449415
-0.02112136734739384
-0.02683618053842842
-0.0184986773164953
-0.01440261714694647
-0.01051399605621396
-0.009704846273780649
0.03086031660008389
-0.007139730260203327
-0.01905068350781405
-0.01255346710687607
-0.005424305566913381
-0.01515917962366891
-1.752566598114157
0.1130879975964888
0.1024318476834573
-0.01207321454080298
0.1338551741870405
0.1715757239423344
0.1150534381641371
0.1403005372576295
0.1606423826040159
-0.01000507892058599
-0.1080442898775737
-0.01863713993509028
0.02372453090015624
0.07827230094072871
-1.002601547573856
-0.00120538031400811
-1.194326911320345
-0.02822424728003184
-0.08432602170003356
-0.06127690959812596
0.06467424503992826
-0.008659361650881063
-0.01742283056766851
-0.06141459888159174
-0.03149944531448462
-0.04593912735718166
0.07082351322392556
-0.2417981043502466
-0.04616259569997473
-0.02589907071376072
-0.002122638179013099
-0.01182233355860478
-0.0007423087628160887
0.0080472623181903
-0.009985283466367635
-0.007297897437283665
-0.7875675460880981
-0.09073187367216769
-0.03423217739449198
-0.01716752025477564
-0.01073217328572327
-0.05147611729053033
-0.03969027451267411
0.02565428294844309
-0.04309131694875733
-0.01233281063689607
-0.03533722436300608
-0.007044241982716014
-0.1838594872043808
-0.08180820309351397
-0.01430927429428005
-0.01816786718761164
-0.003211429088011487
-0.005984552285445471
-0.003460580782426788
0.2351039831896302
-0.004644747057842668
-0.007081149182119014
-0.005470732209239254
-0.004980637255289432
-0.003901469597315415
-0.7663540231544816
-0.006228411498302252
0.03537389533474668
-1.146306660240797
0.03160558932926656
0.04519936522815189
0.02456196635995093
0.01567522669719678
0.03839497597207543
0.007562302752889305
-0.0269250457558309
-0.02218193205189392
-0.1107775034801013
-0.001182700606653588
-0.04769215515728639
-0.003509866833698505
0.03072132732718571
-0.01829484137762137
0.6130615287602804
-0.01386739666464529
-0.00663386934485679
-0.02189111195260035
-0.01386715830015601
-0.03012114915562032
0.001315643684985368
0.002366195932397761
-0.002902330555131497
-0.02905570619269401
-0.01987619434561018
-0.0001201093604531875
-0.001364325129132998
-0.5328431475487195
-0.004412505711160534
-0.02251832148337669
-0.003423803678993225
0.006718311822525609
-0.9640079511889937
0.01490237398450798
0.007650443813515165
-0.001882344932401968
0.009082369239103135
0.007545419374108814
0.00707196863190181
0.007918515093170394
0.006129754562451058
-0.3083275811400628
0.0083945274207839
0.008200294080556281
0.009839294749871712
0.03319035737631695
-1.024883171522821
0.006875393833942808
0.01221875181455828
0.01524729663144702
-0.006645748064700086
-0.982483554361679
0.04640166520308348
-0.02179471877999032
0.008630297249122933
-0.005512745134379744
-0.09655308282594391
0.01342550975726011
0.008388450564369225
0.014619230388462
0.01736026103107859
0.01720713407189039
0.01136893746215247
0.004628436654156668
0.01277047810302526
-0.1417519925624562
0.01039363315927796
-0.07512188747430497
0.01557279403240568
0.01353107205772612
0.002242754224985152
0.004030810433017036
-0.01162057881211973
0.05383233122416448
-0.2221121648461108
-0.4725191653990726
-0.8221256012467371
0.2361520536874765
-0.7813719943843813
-0.7655003275688999
-0.05802301529444975
-0.009259906290184833
0.1350810112110111
0.01522412771738311
-0.1649371244537935
-0.05407826813246364
-0.02067112506099844
-0.06555117296862963
-0.3255120590783247
-0.04497088494393547
-0.5548537875249272
0.3720636199137224
0.1033403996480471
0.1870448487091098
-0.01822790962949692
-0.123931115273729
-0.4240476410782629
-0.04991174273046208
-0.1466054803772602
-0.06204541676103335
-0.01654572756074763
0.05428917771018241
-0.1069351130600066
-0.008385190119566703
-0.009279587119562829
-0.07688183360553236
0.8386564930827964
-0.06738334614510635
-1.583590486338139
-0.1873315062589597
-0.1965824134138942
-0.05769670839422812
0.2962638307966113
-0.009322839939265465
-0.003190342760004156
-0.1072965936941669
-0.2534533944970875
-0.2470959213206512
-0.04279000651360886
-0.1417727830278378
-0.2213346988637875
0.135788347867212
-0.155121325524596
0.008851202117867522
-0.00280072046762976
-0.003441750183401169
-0.002608392994547355
-0.002386808381542668
-0.002539943707349777
-0.04814354248782649
-0.03374381812392468
-0.7370933310742308
-0.2048790818874818
0.01905718814064376
-0.1631811965910634
-0.04650888525503685
-0.04767708882998568
-0.008407010628338882
0.01153904161596087
0.02388694446183322
-2.864554378355869
-0.01293197288018565
0.009354249525064808
-0.0606189801377043
-0.02168665372073387
-0.01777862723521221
-0.005669808472925753
-0.005139671085890605
0.01307486004029087
-0.01339574508940022
-3.185797785734996
-0.005025861354656945
-0.003182014851056682
-0.02834301459783771
-0.03809236786516725
-0.002004260099914443
-0.005562898729845606
-0.003139758089725193
-0.005088914847699092
-0.08596297265283734
0.0207748982755635
-0.06978251458551867
-0.0114503258856833
-0.04227027165759119
-0.002000054238641023
-0.04517902509836974
-0.05354469221779092
-0.02929599232177094
-0.03315147184783032
-0.01994226532013755
-0.02959675221494175
-0.1310537911982312
-0.1036920898717305
-0.02687116626636222
0.005519967735106332
-0.04708844125190541
0.0002778205691645396
0.01252871902581006
0.06099536969270841
-0.04468154536090167
-0.0912885869757529
-0.05015790831080186
-0.1734062015606356
-0.007069534297565642
-0.02099844791218435
-0.04539212240351564
-0.01026137579683254
-0.01392936423328043
-0.04609825349319428
0.2083215826757224
-0.01357409171634265
-0.2751436514452583
-0.1720708882997592
0.0004163556452037838
0.1091225278145876
0.04609570873629563
0.04655860344920484
0.0559509387557366
0.04602858427154174
0.04038862847597213
0.0430607886131825
0.03417255090773106
0.04389789094741068
0.08008715892983219
0.04127932838668517
-1.312647745260211
0.02153830891426149
-0.6004149837648818
0.02294596309381481
-0.5858514324606566
0.02756117576735307
-0.02019877450341329
0.01175307715839588
0.01330664043466587
0.01084276271826233
-1.454404768917799
0.01404676265947568
0.007206415918556642
-0.0238001504761612
-0.02459456601748616
-0.02601676683805679
-0.02885542993468905
-0.005984347550702974
-0.004900535677518456
-0.009264333984502608
-0.01324346803292361
-0.00897546525940922
-0.01862023257633642
-1.136591032886053
-0.01737377646286055
-0.09776896594779343
-0.03991942862844444
0.1492712389843542
0.131110135030443
-0.0930905476297496
-0.02877005546666385
-0.1765910926650208
-0.2044110398370822
0.1676097733258747
0.04020427733275445
-0.001102338162556042
0.005646413177374882
0.04275526224910039
0.04959276831975206
-0.05540003900960736
0.03561972050188325
0.0397549876466313
0.04972191842673836
-0.04306009883949867
-0.01257495749548874
-1.414847364717402
-9.753628349623411e-06
-0.007805119306207886
-0.004026413645610786
0.04314023851543609
-0.004135627434189095
-0.007845047882727557
0.002501389304339957
-0.01102611154522603
-0.08508709804341834
-0.004002297135780222
-0.5905771094142166
-0.02389967191261503
0.02351300748101567
-0.05725442008719873
-0.04210262850703567
0.01641499727282973
0.0229124652879166
1.579113619939938
0.005074142514013251
0.02025255463324857
-0.03668109375100533
-0.02304887272567357
0.04334532289859389
0.04166298247324273
0.03590608320394714
0.03035296513423835
0.03877419129678966
0.007989139148385782
0.02926297779385281
-0.01194176362908835
-0.09716561047930658
-0.03745279849109584
-0.461060903906894
-0.009842276559289367
0.01754039990437349
-0.03801653806582364
-0.005005663057261712
-0.02023204340646451
-0.009971871026932696
-0.00216536748812101
-0.01010650178490014
-0.007785006686515562
0.004551143066169821
-0.01611413919132208
-0.3743650389713419
-0.5409742632373826
-0.03009913224912871
-0.7539794657174496
0.01731933970543045
-0.002807263621417722
-0.7179343314180483
0.01593625812439971
0.009717473142852234
0.01671554920451608
0.01160891857257755
-0.01867960333133226
0.03794615594670477
-0.001915625384570306
0.07883978738480722
0.02025952316477458
-0.1212375872454534
-0.01163686740511336
0.01081146009280872
0.005265998660120754
-0.001723377479456788
0.01027971291117199
-0.004532127019352061
-0.04181438125842202
0.1462863423411369
-0.09529644983513125
0.0007475829786986749
-0.02731971752958762
-0.07286003240699783
-0.02934440207925531
-0.1411823148051425
0.469507606356087
-0.3931435974666975
-0.02694524898332816
-0.4673455794435882
-0.05497479442052332
-0.6588622355984923
-0.3888425608915276
-0.04765113868186784
0.2390083488689818
-0.5618697398339229
0.02770257637500724
-0.02611917691886352
-0.09456110520928822
0.2599612787961766
-0.1583691377897912
-0.4909578425692188
-1.591603969521191
-0.9507858828696151
-0.001835251490294014
-1.747269651960835
0.002088017454198429
-0.01935783451298359
0.07826795256132148
-0.178424836172964
-0.832581982130388
-0.5243173100765455
-0.02782120444794355
-0.6123837059244864
-0.008978884636354774
-0.0002599583613860284
-0.9355064229252954
0.0007233015523811992
-0.001152283220616225
-0.03062290576250499
-0.03412169956957142
-0.001285238580318276
-0.009244362908243299
-3.999223636027829e-05
-0.04165451870359841
0.004603638658491145
2.700938457829256
-0.04866974362664649
-0.05744508380585596
-0.06640580038347879
-0.0009294285936432117
-0.04596572356847689
0.07048029929082768
0.06509781484911548
0.04735627267191337
-0.02705092758425061
-0.03090752944840786
0.9586192954243778
0.1357742318811127
-0.1352151191774223
-0.02621109114432755
0.06575067788142488
-1.84961787507504
-0.1239297675628455
0.0463257942507786
0.2429876867860665
0.00246859102651136
-0.01749751085579673
0.002646500755887423
0.01798214595081615
-0.03458953786313278
-0.01041379457029179
0.0005855435739656526
-0.01798969968081462
-0.07557312610765825
-4.68081128832033e-05
-0.1318281933026701
0.1800440170860295
-0.3016168020743075
-0.3979770636420343
-0.08497472955389211
-0.2248840835882612
-0.01322580321723711
-0.03526942949845412
-0.01306316410688149
-0.06587449617191796
-0.1158092180334466
-0.1158340525383863
-0.2008511472315488
-0.1160968526751456
-0.2471660882777248
0.2992636021254422
-1.398271691970379
-0.4962014146852758
-0.7128710160390089
-0.1400401671820488
0.001505750250690954
-0.04885807493807166
0.009622467745741865
-0.5128314485577026
-0.2925904830807425
-0.02077780058915028
-0.1375444351906729
-0.006278197553195825
-1.187982777542305
-0.1341316925545023
-0.09403124985974932
-0.2591481998550207
-1.34853763443204
0.2719033185576146
-0.01824644997725539
-0.2134633938050881
0.02572757056895691
-1.844944542525828
-0.02183937364492253
-0.352105329939388
-0.3269290161223573
-0.5883677807842103
-0.5610460749926169
-0.3046062260826066
-0.04123465292696599
-0.004077011915978772
-0.08063461124118822
-0.03861551668483303
0.05403491891740626
-0.222577653663956
-0.01275920004837746
-0.005316399599000233
-0.0185470715167967
0.002897965263205155
-0.002010548542421986
0.01129490513943616
-0.01175712599135155
-0.2145725671736172
-0.1605171424801698
-0.0858672368603213
-0.002393546733042124
-0.003616389139245921
-0.01223627235261755
-0.2184876803466884
-0.006117706554889985
-0.1066181067542583
-0.003093231811309822