/*--------------------------------*- C++ -*----------------------------------*\
| =========                 |                                                 |
| \\      /  F ield         | OpenFOAM: The Open Source CFD Toolbox           |
|  \\    /   O peration     | Version:  v1906                                 |
|   \\  /    A nd           | Web:      www.OpenFOAM.com                      |
|    \\/     M anipulation  |                                                 |
\*---------------------------------------------------------------------------*/
FoamFile
{
    version     2.0;
    format      ascii;
    class       surfaceScalarField;
    location    "1";
    object      phi;
}
// * * * * * * * * * * * * * * * * * * * * * * * * * * * * * * * * * * * * * //

dimensions      [0 3 -1 0 0 0 0];
oriented        oriented;


internalField   nonuniform List<scalar> 
37377
(
0.0157225187272649
-0.8077749598612979
-1.449846723421827
2.241899164544032
20.6194870516195
-4.648252134973234
-15.97084080451449
-16.56143396429234
8.221426948919145
-13.29078499542429
21.6307920107993
0.2219165238050186
-0.006305956063999266
-0.03703121720799319
-0.1785793505204746
-13.91290759661575
-12.07898024357712
25.99183860480442
-15.08043192512189
-30.35227594405252
29.13055511689751
16.30215275227395
-8.943495480971844
-24.34343416396872
21.26058861470868
12.02634103020041
22.75619252468025
-22.15955724892209
0.5019454495696293
-1.098580725335902
-11.27333354528396
-5.809366540179064
17.0842712572474
0.1770452343901786
-0.4803140106311249
0.357160816636052
-0.05389204035005248
-0.6152767227883137
0.5139153551725993
-0.6629805506427445
0.7643419183035542
26.58943245060441
-24.13999784122738
9.192068043910066
-11.64150265333399
1.511525656806063
-14.6229202219206
-14.31332474314178
27.42471930823903
-10.10303829623635
3.662633019908256
-11.81866787725822
18.25907315355973
-1.432373636825769
-0.6502082725800653
2.210882238267387
-4.876638453199837
-9.485034067237022
-3.430057915719791
-17.14124918403093
14.55476462668978
-25.46322314029858
28.04970769762401
-14.9007145849288
29.47758626838338
-14.57741331241676
5.336862877373686
-18.78051628040406
-5.077432662160558
18.52108606518404
-19.60298519673217
18.71986392421904
0.8834890840955404
-0.8208850315625975
0.3084196416450573
1.123352182111109
-0.6108867921559508
-0.2363563226770883
0.1644372467071032
0.2113673411414606
-0.1394482651591762
-14.08247041668696
17.90344861234832
-2.549746474313072
-1.271231721416734
-21.67696340516839
-14.97651711900041
17.05049532743578
-4.709488450724443
15.79242946331767
-23.8893524518864
12.80641143929109
14.84958725571918
-11.62372131734161
-0.3796797627575296
-2.846186175621093
-17.09456424916679
-9.023547043798429
14.70431237896226
11.4137989139997
-0.03268450842095547
0.01824470955094676
9.721542907664846
-20.2580707359077
-8.172669665762173
-8.444383874726443
32.55824374441872
-27.41791504263751
3.304055172938437
39.66747393886558
-16.63545114907803
0.7779552848222682
-23.80997807461383
23.5318708705678
-16.2879641639249
4.244929011869048
-11.48883571852071
0.1602286088941091
-0.2636738788974557
-0.4853260228468498
0.5887712928864776
-0.1205699800276612
0.09898156025089042
0.02171802279990483
-0.0001296030123498196
-10.20418915743304
3.516565735328212
-11.99574626724498
18.68336968921916
-30.54197560300294
25.67576216688547
1.530636307680149
3.335577128423934
16.61383848262486
-19.01157819895598
-17.95704947922363
20.35478919555451
-26.56076801950971
-1.131496421067517
4.120569238984637
23.57169520159104
-3.482896854083244
4.90710945844714
18.21484055216121
-19.63905315652846
-0.942124432535694
-1.520968378823899
1.35262740271354
1.110465408645579
-11.21939407364256
2.015450845128541
24.95085347113241
-15.74691024261837
14.27439966719844
7.286449674203867
-5.891605643093106
-15.66924369839277
7.328845561720251
19.98021299840444
-43.19451239616239
15.88545383603558
3.051192917150583
-19.40573563251604
-4.034965342551128
-12.71852719015325
-10.77110381689584
-15.57473749591375
39.06436850296286
-18.93697036902256
28.59552628496956
-5.702501655647017
-3.956054260304795
27.32179223048765
-27.16857750227375
-3.800154639365314
3.646939911147598
-21.59108494207079
-16.49674645339101
10.12503444123122
27.96279695423681
18.59404456008103
14.13754322064442
3.004271824066382
-35.73585960479579
-20.22677289704043
-6.320806341437851
28.0814082309745
-1.533828992564309
11.48756305524224
-20.38135528114315
9.050904144214295
-0.1571119183121399
14.58141227772218
-17.49616442773248
2.915734225705159
-23.26472420703227
11.40090180380667
10.94376789449126
0.9200545087336804
21.61067474870983
5.186699452379764
-2.023560636748928
-24.77381356431952
31.04027079099527
-9.158100144262997
-0.9236677675276023
-20.95850287922191
-2.966142990837924
17.54852781359912
11.35390537536796
6.685497442629316
-18.9077773906407
0.8683745725553306
-17.5133845616909
-3.566884580312011
21.08084747096441
10.32098672536331
-4.164428429230789
6.501983647353033
-12.65854194349006
-0.5088273755686782
0.05850446641433139
-0.8837364024922816
1.334059311695161
-14.69376142318955
-2.096727720321109
16.79055512613446
36.66892099470248
-9.097922666761978
-16.74879056014302
-10.82220776780094
0.02924654774636214
-0.09733745661727886
-0.052479071151089
0.06247593250999633
0.1126732214323589
-0.07616759368227062
29.21890468084331
-20.03701586482284
18.46666515950254
-27.64855397551491
0.136093334918449
-0.119052601738469
0.004677289628795872
0.2139845633015444
-0.08799105084386415
0.03844373425516327
-19.97817470194714
0.002930305481875874
19.97536007215933
-23.79764412579878
23.96542629289161
5.818529382222787
-5.986311549308366
-1.556393655791753
26.58120317908315
-10.70313724319022
-14.32167228021127
2.288072331382391
-2.215285687163005
-3.680774160946538
3.607987516786041
-0.1432348591599347
-17.28616716448303
2.527220081887047
14.90218194177228
5.843545823226925
-27.41764024895069
-2.277305589638013
23.85140001536006
0.01975179211169868
-19.99787985027395
35.21795961694274
-9.092601230039994
-46.46871887411663
20.34336048720861
-7.246085334933103
-4.339867825362528
32.3638954986285
-20.77794233833295
-23.05801479054668
14.84841953656076
6.140577273495676
2.069017980492882
-14.35091835134414
0.9672555943510349
-5.765649499792787
-18.48948228448063
-8.606994674073697
13.90290458891449
13.19357236958368
0.8090278000835486
-0.5490306094341318
0.2059027622946649
-0.4658999529336607
-9.68720733994191
-20.30316480511156
9.347839767001288
0.07427095351110632
-0.1175409561357621
0.02704009672245499
0.01622990591663519
5.39659811255394
23.76890898691163
-7.652262630125682
0.05070064318348202
-28.53267698782793
25.79175826902469
2.690218075603651
2.398043802658338
-0.3936153133393299
12.56924659472287
-14.57367508404248
24.21211318393238
-0.2501593680008041
-5.28044031206022
-18.68151350389542
-15.87340037833467
-0.17500234674958
-5.628560680086935
16.45594819205793
-18.38683606913928
-24.62988014242941
11.78996122113675
1.860405791895485
-15.06796610958641
1.417599096511857
-25.42568893537096
-0.5677800212865859
0.6581837621283969
25.33528519452724
0.8957729866992976
-0.9472978836157049
-0.3266476272428295
0.3781725241803127
-13.11828669550156
0.2216743040405323
12.89681812857673
-18.25071884256899
17.08770455457103
-17.07216345144603
18.23517773935817
-1.725810748733468
0.2460481944197674
1.45664851026192
0.02311404403612165
-6.396885483337417
22.85310492778859
13.00545500639709
-24.87280218333143
25.29975962446568
-13.43241244742438
15.69988949393289
-19.44567835760741
11.04330397109126
-7.297515107420016
27.80553673492781
-13.26415729418875
3.666416983165383
-18.20779642395678
17.65566693084239
21.89959523789699
-22.27473013195869
-17.28053203678612
16.75519300418955
0.9006360314144942
0.1490813261530641
-0.004477456842679947
-0.08928278637543841
-0.05532108292125808
1.843978626181435
14.08496609618146
-10.87076205214686
-5.058182670216995
2.797531916013892
1.388043710083789
-1.424289527688915
-2.761286098323913
-11.65883105532453
-5.959356850684967
-2.599563473828087
20.21775137983153
0.008466159415112995
-0.123044529177267
0.03260103322979824
0.08197733654151061
0.3491865941640869
0.0749093927477788
-0.4171221592369929
-0.006973827658611392
0.01869654378072152
0.5808821718641187
-0.6067672242907426
0.007188508660925876
-0.7656771697917898
0.6944181457052254
-0.6005006427136887
0.6717596668697099
-26.03597039775154
14.37934443356935
28.41181896836667
-13.88249232556627
-3.613108990008216
-0.02920737100053653
0.1546808740956457
-0.1254832162435376
9.713159708751059e-06
24.20572381778013
-23.65162363065846
-3.520243177960704
8.00615926258258
-13.58351342134355
23.77022210180421
-18.19286794318149
0.02117509492539466
-0.04238604290641958
0.2351955112904331
4.272536405028958
-21.78523712212458
-0.3109146662112933
-0.2455016360893605
0.4131682033701023
0.1432480989559924
0.02557178941491906
0.1729974780185037
0.08380366286550073
-0.128484497359898
0.0519867372006899
-0.007305902688305479
-17.79413288772433
17.2849082392732
4.54944669040841
-4.040222041948764
-15.7952062151802
23.34209091034801
-3.565882392238064
-19.77589862323178
4.776169995890149
-19.93644011366685
1.994806702745362
13.16546341521932
-27.28702388395225
-0.6997399550620244
31.60147701083811
-3.614713171834194
-6.580554078920564
-23.89844136094123
23.80671608566184
6.672279354191554
0.1074485977504911
-0.0811064675435855
0.003047000487247251
-0.0293891306806619
0.5063379921371283
-0.7275649302733788
-0.007849660397315454
0.2290765985685188
14.92621264119777
-0.1701817569722906
7.202763553799826
-21.95879443802735
-0.4495385681185389
1.085499667260174
-9.377940927971373
8.741979828799572
-9.639476332856093
-16.78078219239837
19.61599561390053
6.804262911339804
15.56329080776898
0.1021734075769813
-15.55036585151823
-0.115098363828626
19.76608921013437
-24.19730286017381
-8.451978845230949
12.88319249527259
13.16306887292625
18.19381017645524
-7.825122018022006
-23.53175703136084
-0.2129875098973276
-0.5413500038651969
0.3503440140540104
0.4039934997213775
-7.315150385304794
11.12064657996412
11.60273273666832
0.5170425746552272
22.0751133098892
-16.02765449993484
-6.564501384607047
-0.0971765596397576
1.431243773548538
-1.32873406213297
2.417040741323372
6.054983294769605
-9.722779129820333
1.250755093764586
-24.95172597480919
14.38585547003818
32.17654525352678
19.07103583491971
-8.146992955702538
4.002169761979236
-6.807959451593503
-1.399942747168261
9.521594733629779
-1.313692534791272
0.1039693304391045
-0.1215840609693341
0.01761473053822127
0.07428670088031368
-0.1473944560427465
0.09052901317565352
-0.01742125800534479
0.09145032498543641
0.101491438557329
-0.1317967465857622
-0.0611450169487745
-0.07443966866995137
0.1172713982653056
-0.01358518184141288
0.1295411198566442
2.905123757968505
30.42967896987085
-25.1701916197
-8.164611108137574
-5.755935559131384
2.593490704865092
-19.38905960218844
17.02962353923224
-10.06231046302778
-8.30593622918904
1.338623152978202
-1.75653318823917
1.886430641956591
4.44621509630808
-4.576112549880934
16.01468025356872
14.20059038547133
-17.08705566085358
-13.12821497818936
23.88807636142597
-8.357328318542953
-1.224982094319355
-14.30576594860668
14.40071778278655
9.383017257607058
0.1043413209977322
-14.87631092478421
3.040205941656501
-4.514827397546472
16.35093238062463
-16.93627443536249
20.59418179589342
-16.37643455068492
1.807700938272231
-10.52686642732085
-9.380818571028403
15.47076143972909
-18.29140234504377
12.20145947631214
2.773961763042062
23.12112867600568
1.169916521604691
-20.46846616572521
-2.4293423625887
22.89805028545678
-16.96093027095165
-13.58360463398319
5.843404648411065
24.70113025644465
0.01012432499111527
-0.1131391522746886
-0.01603777444813515
-0.1390697231713344
-0.003620596065182078
0.163865414168632
-0.1408529820231917
0.07606995973508829
-0.0753396801995946
0.01939554914824712
-0.2468415439185938
0.01799751105527478
-14.49252907749892
21.85635465542198
2.969136721172008
-10.33296229912025
10.48647894868855
9.269849009609102
-8.607336447862838
-11.1489915104353
-12.72474107477313
15.29972658180402
-19.07031127610839
16.49532576907588
22.35147564478386
-22.36812746381709
-0.2293956396253005
0.2460474586425551
-0.1384531012656564
-0.006897004092019155
-27.10110948006528
16.42842355301045
1.945662629203634
8.727023297800711
2.344880149474269
-26.29573986455249
3.137853062240576
20.81300665283698
6.162229612031615
-0.9966726969379596
0.3502493124077189
-5.515806227381709
13.83480131121274
18.07010955113907
-17.33033744492737
-14.57457341742487
35.42170275742146
-13.28957369373891
3.241280889687001
-25.37340995337781
2.39216477694018
19.64234163307264
3.503179209616076
-25.53768561963721
-15.13262959608618
-2.791500980684406
-1.958903514822107
5.731248641419333
-3.112750274982591
24.15252202598237
0.5061486666152755
2.398267726700036
0.2284742865068463
-3.132890679709374
-20.70151969739802
23.99898644879676
2.433781890018637
-0.9902510546372845
-20.04318070234743
-0.1372759424373126
21.17070769942361
2.425212604890918
-13.06680019835678
6.666164402686583
3.975423190776658
-28.48866323306785
28.52756686069871
-1.029154682265254
2.504879437626186
-30.36015129750712
7.812091157534604
-16.62382695083069
1.0976747817641
15.52657139396985
-2.323206834510432
-19.28644114162469
21.60987674814262
8.102863727069915
-7.836229321483933
22.04010313689353
-22.3067375424846
6.134941092518469
-12.11930840678989
-17.21148569286536
-11.56751943730668
12.07814498898291
-5.427786620552603
4.917161068874302
15.58007954938183
25.16820916504583
-44.83930333943493
4.091014624998847
-21.63084808109919
22.70333936421189
-29.56115451617503
-5.536332368174833
5.511477085401489
32.48201609544852
-32.45716081268456
-0.7083251507970265
-1.12945335208245
0.02124425115942041
1.816534251748805
0.3800543136406744
0.5834803170445904
-0.7188684909333657
-11.82475815445967
-11.07533363442516
22.90163467236923
-2.734912278230498
8.185409390540302
6.685045508517091
-17.07521352560188
10.62639780077788
28.41979212957008
-21.9709764047311
0.5695589437902924
6.670514173987964
-7.689611685998238
-0.2686634860043297
-0.1578855034059807
0.197328474982194
0.2292205144526812
15.23343277124773
-8.467324007266768
-14.80461139845421
8.038502634465226
18.80885910306795
-26.915299108092
-19.18421052053117
27.2906505255291
-4.196431953124986
18.68320584002576
-14.48636982324479
-1.88560459147575
1.668425497760297
-1.298226016670394
1.515405110433753
0.4987061697761649
-20.26125915305606
1.31016327347223
18.45238970980287
-3.990930848536182
-20.295519991314
24.05731123975804
0.229139600095251
8.229002292885767
13.83600170906852
-10.05362574759664
-12.01137825435811
-22.8753911846148
11.05208170510565
6.780014590360422
-21.17978225162486
14.22958590429116
1.702821022328333
21.99867539498532
2.462861514779507
-26.16435793209874
13.05440173763358
-33.608559483768
18.08644115120881
2.467716594923265
-34.73156179927787
-2.037157061253812
22.58577197916064
14.18294688138216
13.45062855992532
-12.67206302207841
5.296391077978249
-6.074956615706607
23.74339923409786
-20.54281018025109
-7.214807724413987
4.014218670554759
30.259970469258
3.415315995439353
-8.734369019410037
-24.94091744529261
-35.15006225344376
24.90195664317124
18.42943575298751
-8.181330142650467
-16.18525163188004
24.55278219894763
-8.36675053830704
20.76957315367866
5.94803055635801
-19.51484015623754
1.161943596104695
-7.145508312091126
-4.778384441495244
10.76194915767512
14.72494539139821
3.201318008505196
-15.52861312039341
-2.39765027951235
26.10768677503124
-3.603321707428324
-29.08068762970312
6.57632256209764
-28.81234287811733
20.10671632330155
3.838604721347302
4.86702183343463
-3.224937108436687
-20.37485887718641
3.212555312402676
12.53007299573657
-8.399989180737789
9.753723538399312
-13.88380735340508
-12.19758741966084
12.15698596711252
1.543503191332752
-1.502901738795557
21.44915875325157
-4.274916067204218
-18.39302398810125
1.218781302051313
-0.5450390378634566
-2.612815224149301
-16.29284947870853
15.07929402480894
4.73352161684373
1.345630741842097
-21.15844638349697
-17.55291351469179
11.35727246361722
6.663014590188006
-0.4673735391128336
15.12070585380929
-21.10064967770702
-10.66645350385855
16.64639732773732
29.37353801865612
-8.923981981838326
1.359536234771976
-21.80909227165844
-22.12089643138911
-15.08913642541126
10.77761917825212
26.4324136785269
20.2528624198783
-5.443339465573304
0.269771070502771
7.584631350661872
16.43150680098121
-30.27802415427479
5.926654183485804
13.8738480116488
10.47752195913802
-11.13982220824619
26.51322512332626
-0.4817540981466937
-14.89164881698778
12.59946445986443
0.7307249381650462
-17.77561734031543
4.445427942433647
30.73946588818671
-7.240550233593769
-21.05495875972428
-2.443956894869425
12.687534820643
8.436264220121592
-0.5635072463822172
-20.56029179438131
-2.969129934058453
-1.172012572337445
-17.05663411337995
0.8229519271352176
-5.157107488772999
-1.443970642313589
5.778126204186394
-1.281987020233832
-22.12577870001936
22.89618727474279
0.5115784454959091
-21.64675461025303
-3.42685016449837
3.684424969698278
21.38917980505133
0.4205582264510382
-2.184727953645232
-17.43232645550109
-2.442300154615801
0.04672916616269768
0.03493755424645582
2.360633434404494
-15.5218556769485
12.03896255354929
-11.72010940209479
15.20300252549048
20.11627692797004
-18.43133878688369
22.66213027630291
-24.34706841740804
32.61337014081305
-12.8491222928895
11.2760229430625
0.01355901828391591
17.56274148530452
-17.5760990974372
1.92369237534008
1.719124415440902
-1.804086580135509
-1.838730210544472
4.267035203324231
-3.539818549700938
26.01740620619644
-26.74462285982572
22.59303274368355
-23.33196885241009
-4.795556917459374
5.534493026179262
20.59843348980517
5.66878071068148
-7.041897273887924
-19.22531692660719
-14.01254991400778
9.121875225824533
14.10703068400032
-9.216355995818839
18.66508991897915
-10.99177174309972
15.03556271276419
-22.70888088864709
4.266376611890694
1.235862087841288
0.6599909124355503
6.539567372770837
4.681572348726843
6.182329291630676
-17.40346901311925
-2.199443314245146
-10.25144284346468
-6.630164630294639
-20.46880442231695
-15.30297566138986
50.15112451727159
0.0210456572192361
0.278624307232759
0.3034256135246315
-0.603095577920254
0.6262707885133981
-1.349092117315828
0.4449910400745108
0.2778302887616875
22.53168737973081
-28.6483712861621
-8.852950725000097
14.96963463142063
6.67633335415013
-4.856485230288914
2.507265154142529
-4.327113278065016
12.74081066470617
4.637620399549808
6.557731557936099
-23.93616262217543
15.02126050016854
15.67551252009519
-15.76618484186394
-12.94872203081631
12.2675152645484
12.80050581895446
-12.11929905268679
-22.90722057189794
10.67502827337272
12.23275476363586
-21.95995489265716
10.01712326011182
-1.005890398269294
-8.971025866221906
-2.581888485248423
23.8204296160024
-23.6635613416199
-0.4350071302330163
-0.5687466215877214
24.66731509338788
24.44328972416883
-5.40330967996166
6.991634112050892
-26.03161415626334
5.882818420001406
15.2555694069765
-21.29819885081908
0.1598110238378209
-11.28583879652553
13.19122537560258
-19.95089872734098
18.04551214826097
15.72615835744237
29.44387028936257
-46.36839537590921
1.198366729101328
20.48640232050198
19.45611846178377
-32.613675220567
-16.73295961325843
-0.3260211491054237
21.32601596568445
-11.16627235596591
-21.08110129563211
25.65307905823195
6.594294593347856
19.95243870429261
-1.351742350515367
-18.60022751635336
15.76202447358705
-0.6525360835715857
1.616208674136373
-16.72569706406963
-6.109866168398946
32.37637103664368
-22.51694401659591
26.46204906757489
-15.5749252218386
4.614304440031286
-15.50142828577852
30.10598768826451
10.80130859259607
-38.81734036088212
-2.089955920046979
6.044645163943128
9.473735182479391
8.446111745637836
-23.96449209206328
22.62209312542585
-20.83779778612308
-1.785329184303698
14.84756313764533
8.899291564258132
-10.34895156107068
-13.39790314085907
20.44383694719608
1.922336768293419
-22.31890311504071
-0.0472706004463261
-0.03051832918631636
0.07063287101721516
0.1285556129426063
-0.1686701547560325
-15.85462506784962
10.32109891290475
5.532991422144101
26.74279788284985
-10.63059826356007
-2.097620271122409
-14.01457934816753
-9.602047854274703
-9.92785739151242
19.53135930230441
1.60075445217816
12.20880365042256
-16.93312009047363
3.123561987856224
-23.33921921868022
19.72422628034806
-14.87850160578494
18.493494544043
-0.2528689479434992
-31.54716514379002
7.777444495400624
24.0225895963148
-16.26876509399566
-12.82738374217554
-8.137012823510744
37.23316165968698
-9.151943263575017
-32.40584677647414
10.63054536324391
30.92724467680176
-2.928998448167348
19.6019515725663
-17.64358242080236
0.9706292964045937
11.99633525510796
-13.85975553334104
12.40387560649143
-10.54045532826004
19.60681512677233
0.1942836646828192
-19.8009597525143
6.015253251316233
-6.238110670765112
-4.634637911488071
4.857495330935885
-4.071583171372951
-19.47033236102675
4.532905113739049
-8.494547923816901
10.46520896530882
17.41388642537004
-19.38454746685736
-1.725977019501192
19.57087381783784
-28.32037154722269
10.47547474888546
0.06297274485813933
0.85523958760973
-0.2919415439204991
8.110101642247757
-7.707688902611171
-12.21359822909366
11.8111854894568
17.82929975785841
-5.81554381553313
16.94192907909298
-28.95568502141724
-1.653885616144974
14.42340261814645
6.663159960136601
-19.43267696214352
-0.01604674203297725
-0.1550908676483469
-17.68538133787963
30.4033873492959
-8.796334930353419
-21.79300333125317
12.20292481913783
18.38641344245528
-26.87080134640602
-2.855808472981569
12.99365020612665
5.701008854081501
5.80657128106818
-20.47204058342184
8.964460448270767
-24.20077534204052
-12.81286486804535
10.1428388636764
0.09064549407170591
-0.07240078451751161
0.09795753383411124
-0.007312039758535167
-0.06715579396900503
-0.125098002769654
0.1796187017865994
0.012635094985657
-7.164847015628555
6.516095546809661
-0.08351528629908435
0.7322667552176453
-0.02496539197951127
0.1939466902212967
-0.094894566119216
-0.01656516985464164
0.07299214185599341
-21.61993688140525
-16.43100625991039
42.17990274729962
-4.128959605985418
0.1385436310782542
-0.100411498469608
-0.02051740206332387
0.08690841711485157
-11.44383962799387
15.47015540485122
13.40905155929287
-17.43536733615414
10.07607751334211
-10.31389399483526
11.80097222245686
-11.56315574096466
0.8836642442031463
-3.882261810548538
0.003400920336792621
-0.07874060052902805
25.00114858962124
-22.57852214789977
-6.239305574542074
3.816679132817069
15.58883533606832
-13.20736187615334
-5.666591844846169
3.285118385146522
9.641803605897922
15.53958148464701
-40.70324076749594
-0.1444425682787266
0.02350992749473467
-0.02167822467582513
-0.09916915942814344
-5.581004156769874
0.9296996463287204
-15.57747288722641
4.554054978675357
-16.80407427500277
12.71010130088296
-0.4600820045408519
-8.671840483679873
1.511485148714559
-10.38025636021928
17.54061169518448
-8.241747542244854
-12.75858017993136
-16.45991420825665
37.46024193042685
3.545925993119508
-6.675925123897826
16.47585873832667
-13.34585960747861
-22.58498095551123
29.81466916780554
-7.229423454175853
-11.13059897180689
14.21735452547155
31.41167222354338
-34.49842777724206
24.13256934844136
-17.51687942705918
-9.784789514132566
3.169099592737388
0.007986149004364427
-0.09761537377931385
-11.96710153938888
-5.305061668794789
-5.185283117353798
-14.20613684662065
24.20366220380508
-17.38730735224608
7.389781995082477
-0.0420222461531209
-0.03241742251218563
-0.06370047082634782
-6.056901469692995
-0.07887180021095107
5.403339617010423
0.7324336529107204
0.02137832232607217
-0.04821410328566951
0.1395090024000217
8.47629114459399
-12.85187807148253
7.850346549415179
-3.474759622508524
-1.062694057238104
-14.67624547701984
-3.656665743830233
10.67114522549596
-4.279790913820491
-13.62107297809312
7.229718666498599
2.65626323208427
-2.712064980387654
20.81757865418609
-20.76177690588816
0.04110380458821682
1.110347524425921
25.56329729376112
-22.14131213130681
-4.532332686957093
-24.54793788588056
6.480214540568284
0.2303044660547445
17.83741887925396
0.7164987947816072
24.03617935885741
-24.75424662442214
0.1080629504390336
0.1600218005015542
-8.413964635644176
11.52966619077717
20.226389355214
-0.6537907401122063
13.26981682428564
-24.57106302141964
11.9550369372411
10.32795941587711
-0.7414147527509983
-2.04691154090926
-7.539633122219104
-20.45557668382504
7.65780197238234
4.303226787630747
-2.735628796055452
-0.9983189532151123
20.99345040652222
-17.25950265726782
11.78795797792487
6.342555572021096
-18.12928622213064
-0.4692206891780058
0.005160635607253406
0.5141498276222736
-0.05008977402049711
15.22711593017277
-9.334681555695328
9.670856433290677
0.9794301013707147
0.139003649166206
-0.003238187121327751
-1.115195563200734
1.228559776954924
27.40794944057799
0.7370288010432788
4.217685385846153
-1.255766584646256
9.350295670830301
-12.31221447205673
-3.942545288542817
-8.953514139773231
-0.4473565312121472
0.8895327471111202
5.198561556787879
14.21599915465659
-20.30409345856579
-0.4318842491912723
1.455241259609042
0.939866804323661
-1.963223814632086
17.58588337900572
4.739209768872739
7.567436393254072
15.6150118445043
-19.75779625362655
-3.424651984130179
-3.690657745785538
-0.3732643507219959
3.312268013232596
0.7516540832811374
-1.375266880308285
-15.06866663978926
16.44445417916451
1.076187678138185
-11.07941831016647
-7.192675873113544
-0.5849949059869993
-7.864200293405765
12.50692515571289
-4.05772995633456
14.48361199698193
-9.866804258450131
-5.201802644529694
4.984855951858683
0.1907404011109923
-7.488309661450567
2.312713308499541
-0.06738367912719112
-0.00532147395526034
0.0260955791815129
0.04660957390862849
-15.88289828011288
-3.027549972866209
18.1773966643513
0.7330515886222624
21.17391727078804
-22.2420805890373
2.320450534458906
-1.25228721621707
10.95407346813869
-6.637346798798723
10.16688532764221
-0.4735486121304698
0.3735580988847902
0.09602569533013523
0.003964817996195442
24.16546630557894
-5.665577112878789
-0.9872250034818767
-17.51266418922924
5.022563769567865
19.15296723217164
-1.003624761596765
-23.17190624019965
21.93141911194017
-12.225500283284
-0.9453511403984584
-8.76056768826812
1.25284729499418
-0.2012490334515873
-0.9813660562452271
-0.07023220525890349
20.96032071930075
-13.36170206901446
4.15616227860074
-11.75478092889982
22.85329368491077
4.232599014465841
-9.352052522066808
-17.73384017731468
-16.93404686184362
-15.48056596750361
30.71282688415247
1.701785945212522
0.3255083879966513
-1.010146150304625
0.5490900859786395
0.1355476763777404
13.69652907749609
31.42925794737634
21.79681906237219
-3.365762235437391
-12.99818883176687
-5.432867995180596
0.3706796675385659
16.55158229123615
-18.41773078629698
1.495468827479682
-31.34679436367028
15.49148841588551
8.198047148195048
7.657258799553696
-20.22967697546991
-25.09623899894267
25.91508069973337
19.41083527467978
-2.354539305634835
-8.121083749374851
19.45648234457786
-8.980859289569407
25.16961486978271
-12.39091027265711
-15.13324390276814
17.53699802691441
-0.5824107203686874
8.215027563226977
-2.617272563800558
6.622209085587483
13.532061505113
30.49386268468442
-39.18634058120086
-14.36553689402813
-26.32138004135586
-7.583174273538274
29.69635960021797
4.208194714667309
-13.49274724536503
16.64141920830301
21.48257717173366
-24.63124913471745
29.01692407353218
-34.68569858371144
20.27614160724752
-14.60736709710802
-18.52535455114041
-8.34450917744409
22.99784341859257
3.872020309857068
11.48961003128982
-29.63612091284464
4.653763636089985
6.453817273647828
-10.85751374844477
7.001542507996408
-2.597846032995926
32.9620298136723
9.611798291495294
-1.658649091348259
36.35422219563853
-13.24484189161197
-21.45073121269659
23.2081941908523
-11.89549240817567
-11.31307045552751
-16.20345614368922
19.11696138910206
-3.060207358656204
-16.05657952157603
-1.064234527449863
0.5623462280563312
-0.2612605944842458
0.76314889385277
-10.94921395276221
-18.67709921386085
6.139671742684576
23.48664142396852
0.1628006829141645
-0.1797776312590746
26.0765237619396
-8.891976974201416
-3.896435960078851
-13.28811082764714
12.45635216851875
9.725229109500901
-10.6940182227764
-11.28979207059357
15.81092284012115
-21.38239026679362
16.86125949718802
5.43651953786914
2.842604829904314
19.02365148433523
-27.30277585212558
0.2917312885010221
-0.4067234669173314
0.3173766266254412
-0.2023844481499242
22.19620678067366
8.885174572202796
-25.64486181506709
22.41570692955874
-18.15382447460371
12.00008526777859
-16.26196772274008
32.32870140860536
1.083828309362541
-9.541232187906596
-23.87129753004406
2.441007636414013
-27.78292047937218
26.5104330267154
-1.168520183787133
-12.24412708618963
24.39998569764749
-18.88038275036595
6.724524138914663
-17.17485990560304
11.92556984233038
-4.813020399777216
12.70638530875603
-30.63890891762666
22.50149535529123
-4.56897174641411
4.40674607208407
-5.170836212094964
-21.19470429801745
-32.78389569750998
26.65108258541393
-3.60991636668473
9.742729478773661
-4.559971971127752
-22.27230924842015
13.57372832773031
13.25855289181573
14.21096519156954
-11.91999455187503
-5.804835595536189
3.513864955840476
-0.3033593528928214
-0.7171720198120016
0.5707573534226013
-23.79921190006215
26.12496861906269
-35.10965241652119
21.71154255348757
-2.200868742968624
7.140408774888922
-2.900832623111269
27.99521337430594
-2.612567620890097
-22.48181313031372
-21.95796812212967
24.56593616886326
5.383164516047517
-7.991132562793618
17.11093807672981
22.30233303371566
-28.95942962726214
-10.45384148317118
32.3308780662665
-30.13718137699844
3.543935254472842
-5.737631943722916
24.29269083919645
-14.49133997781512
-13.99214051528025
4.190789653890924
-34.39259136589327
12.18757307119168
32.90961211722328
-10.70459382254291
-24.23277099489826
12.35124718846866
-22.51106755947945
26.85974477026884
-13.16064604227786
0.3026569060977347
20.13458864625603
1.616837251943368
-22.05408280429498
-5.890061135308973
-19.80206509925539