/*--------------------------------*- C++ -*----------------------------------*\
| =========                 |                                                 |
| \\      /  F ield         | OpenFOAM: The Open Source CFD Toolbox           |
|  \\    /   O peration     | Version:  v1906                                 |
|   \\  /    A nd           | Web:      www.OpenFOAM.com                      |
|    \\/     M anipulation  |                                                 |
\*---------------------------------------------------------------------------*/
FoamFile
{
    version     2.0;
    format      ascii;
    class       volVectorField;
    location    "1";
    object      U;
}
// * * * * * * * * * * * * * * * * * * * * * * * * * * * * * * * * * * * * * //

dimensions      [0 1 -1 0 0 0 0];


internalField   nonuniform List<vector> 
19632
(
(5.021249299407426 0.005661656040433757 -0.01061034904227191)
(5.000032242196943 -0.005851137531200459 0.0001922233461139427)
(5.000747083772942 -0.0002771705255945049 -0.0003641780172144096)
(5.083444841189809 0.03295562443481871 -0.2116641941844586)
(5.000655924031364 -0.0002940499908165205 -0.003070600698264246)
(5.000736208822265 0.0001676756541122099 2.310719626971403e-05)
(5.001743087094437 -0.002776724722758081 0.003528111143095923)
(5.000226085183984 0.0005587000620096524 0.0004446463980983052)
(4.999935875160788 -0.002698556729300889 0.02427156971124908)
(5.018719819900241 0.02903971377945636 -0.09012945524250127)
(4.796435173344614 -0.5595650178198052 0.3768261314750605)
(5.002484032522275 0.001998604862418056 -0.0003196638769107341)
(5.000468740614239 -0.0009955168198628732 0.0004296763077972222)
(5.001583093085419 -0.0009651357689615457 0.0001259338818424504)
(5.014971349836878 -0.01937908397692275 0.01762211154608015)
(4.988157688924656 0.0002366857005748348 -0.001025307142326376)
(4.999979613918716 -0.0009241183033318109 9.916680522208646e-05)
(5.005289234685145 0.0008108919747594033 -0.01322310397333776)
(5.000128556376297 -0.0002093604020877746 0.0001514896020627567)
(5.001010386196704 -0.005649786809242539 -0.0003025048980324177)
(5.017406638884036 -0.02024007932447657 -0.00391217710697764)
(5.19870677683936 0.1964078157575007 -0.1156387302918131)
(4.990397318741787 0.009133008417485849 -0.02255175619638383)
(5.001221093568236 -0.003755903519158455 -8.12283642504571e-05)
(5.000341295098095 -0.003368504248979273 0.0001860593476967676)
(5.000075012649424 0.0006112593416547055 0.0001221054393748144)
(5.000645577744803 0.0005008868831724957 -5.33059905961748e-05)
(5.044175969960753 0.08156379787237887 -0.4587271223879759)
(5.014155707167667 -0.0152803042314806 -0.006738413049297732)
(5.00047106675037 -0.001324137531785605 -7.360279631668351e-05)
(5.000318881920493 -0.000264842752435779 0.0001369231396735814)
(4.999718318315744 -0.004456518017490677 -0.005442101152357201)
(5.072649325285189 -0.01066977706701632 -0.04617100663466811)
(5.150615792249274 0.1878132790069526 -0.3113930326200464)
(5.002210326532434 -0.0001805538517953716 -0.001828212047127766)
(5.000521368799584 -0.0007259590441703834 9.544723569775387e-05)
(5.001109662572025 0.003045098806772482 -0.002682302605594975)
(5.00055157386995 0.001633625462304007 -3.687945798361655e-05)
(4.999877794012137 -0.0004504825687050366 4.627619882529399e-05)
(5.02313083655424 -0.006144419899284114 -0.000491818540124896)
(4.999992656803239 -6.519843710679795e-05 0.0007711620328026835)
(5.000708498769677 -0.002776036863858525 0.003282410027813655)
(5.000582715804145 -0.001135875700659268 0.001373509998305949)
(5.020302937389769 -0.1147715216729649 -0.02806320945873934)
(4.998980462548785 -0.0006914479574338201 -0.0007615670822591239)
(5.000126011369881 0.0001250871977950374 -0.0001044604199831004)
(5.000259113987751 -0.0004094438229283237 -0.0001723278828133784)
(5.000534511434152 -0.000296455953439322 -0.0001304173229081694)
(4.99804908979549 -0.002030281943320587 0.001704202898614337)
(5.002069747100943 -0.003296764922034869 0.001960534050428023)
(5.000375309078475 -0.002095347629005942 -0.00434620022126277)
(5.002554097511212 -0.01587571003204381 0.002310522064308907)
(4.999348808449398 -0.0005808018087757261 0.0003819279201830637)
(5.003887458268765 0.002240037035269894 -0.001696270373013337)
(4.999485949665328 -0.002698055696602175 -3.938416239873487e-05)
(4.999540685511778 -0.01858529460923805 6.309763091251778e-07)
(5.002048731652462 -0.001639268920432735 -0.004360641809729003)
(5.001418658987916 -0.007160666209462481 -0.0008485671788774073)
(5.001455787754541 -0.0008890679378490266 0.0005557218731233303)
(5.046182705054834 0.03245058046956183 -0.06763620466684324)
(5.000228128033388 -0.01022696213069842 1.641799538916791e-05)
(5.0002395172599 -0.0003419646665306686 0.0002970348134652894)
(4.979235427656695 0.1004964274050054 -0.09349070102446408)
(4.386808403709484 0.4171156314138582 -0.1476313113347887)
(5.000633068565713 -0.000109105272119317 -4.541987435208061e-05)
(5.11629657709442 0.1174842685913975 -0.7826256941272887)
(5.241361445761187 0.055030202446436 -0.06691900947424897)
(5.001166069949426 -0.003032252442451813 0.0002558105757004977)
(5.001125195317269 -0.000154097624057428 -0.0006620743093372024)
(5.001764889388353 -0.003150334653232087 0.002235079497600622)
(5.010929168054562 -0.003109999379424421 -0.0005164233795188883)
(5.000730799567639 -0.0003560117934844052 -0.0001367604803702413)
(5.000677082798946 -0.0002935087301351602 -0.0001145027352057663)
(5.000665457876984 0.0004105105115736544 -0.001742335614435459)
(5.000315425884806 -0.0001874592202874616 -7.442677629067123e-05)
(5.000081940642934 -0.0005274978837300883 0.000123188254918692)
(5.000276311269193 -6.572126965731685e-05 -6.611443050667843e-05)
(4.786886797132927 0.08054010681119866 -0.00548689362866557)
(5.061800001437217 0.002379770046401131 -0.03194416294555726)
(5.0321528834506 -0.001743602964914178 0.02186530465125095)
(5.089526177376755 0.05636024004370472 0.04280310176984629)
(4.979495524032972 0.3357157484977453 0.2686810336609577)
(5.001843220186942 -0.000406366027632776 -4.326020233501066e-05)
(5.0005158723527 -0.000748894200035666 0.0004238928868779641)
(4.999262100950912 0.0007856485096251748 0.0006903270627512981)
(5.0015773431629 0.0004144638326326035 -0.001348262708984952)
(5.001031165637066 0.003765499061032834 0.0002146161294150303)
(5.000449314993672 0.001138212990328799 -2.725141282612062e-05)
(5.002037573634832 0.0002670248811682189 -0.002224790330896155)
(5.003423818657754 0.0005227703922116108 -0.001329758141705206)
(5.034097907742001 0.008704578721715711 -0.02544931266263757)
(4.999838001923847 -0.007403636221236601 0.0004544797073296747)
(4.998722310617237 -0.004036713150067141 -0.001222971448367666)
(5.023239242171488 0.01194968531901409 0.02438316865346592)
(5.00052703422834 -0.004923436497187128 -0.0003115416926081357)
(5.004022110773122 -9.856159478514303e-05 -0.005044472396208578)
(5.002121295303923 -0.0005330418619042482 0.002344176149550771)
(5.000964139056979 -0.0007009146974899498 0.000127460997708619)
(5.000272147505859 -0.0007363547986512308 -0.001411644521672204)
(5.000106229942524 -0.006391088255537646 0.00138632594899358)
(4.558654908365837 0.33798731550001 0.3684983734875009)
(5.000141095867543 -0.0006492533820052837 -0.000610984648464238)
(5.011883866998927 -0.01064136176349822 -0.004596600885552879)
(5.000270449820069 0.001548922086967118 -0.0009341304779795937)
(4.99199187879136 0.0698595813932146 0.2002620163361289)
(5.07545676221058 0.0634653964000137 -0.07489712197911105)
(4.94424563323262 -0.008534442741297886 -0.06162831017703469)
(5.024708634985899 -0.03281224907214557 0.01119237949527135)
(4.999857677441549 -0.003804074932775861 0.000863978886512489)
(5.001682388520455 -0.000275670607438185 -0.003196704192845221)
(4.930545517412257 0.3153824483898188 0.3805660121715021)
(4.998285758599072 0.001463804665989029 0.0002127927892134285)
(5.002335156663223 3.476256765462616e-05 -0.001561440378969406)
(5.162067574308373 0.02433476880257513 0.2250970750661141)
(5.000398889333473 -0.004203425702429642 0.000197372961680365)
(5.07913707010159 -0.03967832576364561 0.01217951045736217)
(5.064176430609972 0.1240579563132421 -0.8225558405156257)
(5.092305087288206 0.2039818505176562 -0.05961566914684661)
(5.000419493868157 -0.002007447910080071 0.0009302187721999203)
(4.999897157292669 0.005225909148449551 -0.001747360749597502)
(4.9997736671049 -0.004841610440365199 7.929028563628422e-05)
(5.003481223595643 -0.0006603455878913595 -0.0005959160556536376)
(5.000311982837255 -0.00100645062475191 0.0005676666085461765)
(5.000447646228478 -0.0003558980258355554 -8.377515157028659e-05)
(5.249805751457714 -0.129586213817199 -0.01756190116934597)
(5.055564178787739 -0.0110093158450918 -0.02466943230100203)
(5.000662865815575 -3.133158957894375e-05 -0.000413665554379494)
(5.006694788201579 -0.001294950928326421 0.0002954616926261128)
(5.002197432756367 -0.0008924663828884607 -5.612640020638808e-05)
(5.000076632612877 0.0005527985405010735 0.0004051809768040917)
(5.000294333001848 -0.001179429593975517 0.0003165885052638128)
(5.000151105563766 -0.0006806513461136592 0.0004591720595380134)
(5.042009091851233 -0.02852642108969812 0.02002854815916963)
(5.000444569822098 4.0023965795227e-05 -8.654029708910846e-05)
(5.009858861004327 -0.0009146218458174829 0.0003832142608605968)
(5.018825787133236 -0.004870745530716859 -0.002793629541265569)
(5.006316637427801 -0.002420497176129827 -0.002474807543375811)
(5.003633708862647 0.002616995682925664 -0.001668529256232664)
(5.000626741883359 -0.0007588595475687667 -0.0003940365978427462)
(5.003378989561819 -0.008611934305005672 -0.005792795773144824)
(4.418768525443355 -0.1206227744113366 0.2929861323485966)
(4.961169699109859 0.6981069456666931 -0.2180697332884622)
(5.459020422013917 0.2961815960918152 -0.1195343528442443)
(4.228575854128378 0.1544253328857157 -0.1768462497347983)
(3.051706495663011 -0.7761821439715304 -0.8021566543229985)
(5.000347985027931 -0.0001121311551278764 -8.033711134274825e-06)
(4.995091379497158 -0.001352612389103262 -0.001588535894222249)
(4.997353014425926 -0.008945104739797949 0.001733502892383592)
(5.015413293297261 0.003859207236547963 -0.003020378824799257)
(4.999759066631537 -0.0001067401884946581 -0.0001656014921420765)
(5.001735526720766 -0.001698885669671254 0.001637619413527386)
(5.001734520061476 -0.002089017569731943 0.002648328970448126)
(5.001876779413502 -0.0009883659339715752 0.00163224210084776)
(5.000764449302843 -0.003234461884817317 -0.0005403149365538239)
(4.966950306598842 -0.007900568906212066 0.002432395656356474)
(5.002157642502163 -0.00173572159939655 0.002155706205324964)
(5.000405780103649 -7.259988312925039e-05 -0.0001660107709664443)
(5.00066548578547 -0.003587163283195121 0.0005782884297792355)
(5.003088666307681 -0.005961937007764196 -0.0004563654977246874)
(5.066861763824277 0.1339231751900053 -0.4853630422157635)
(5.075476049980296 0.2803951206878298 0.2413991795053655)
(5.025721187138244 0.2650835437515044 0.07605058536618022)
(4.790379440469796 0.5237154820993043 0.4523258953773477)
(5.239145731302878 0.2841206572727373 -0.02261622547465506)
(5.001356475261866 -0.0004426933695943801 0.00367440665798913)
(5.001047037807229 -0.001319578349534 0.0008783302447539273)
(4.999711091910629 -0.001099803243639426 -0.0008061962538169787)
(5.004497536686094 0.008855146249724079 -0.004458256730084333)
(5.191378810808588 0.2461140913421566 -0.09629413367029507)
(5.002581390064856 0.0003837119245194665 -0.001935235279527853)
(4.999478144510552 -0.0006468789004384299 -0.003400685145424794)
(5.010977553730891 -0.004982810795006509 -0.003164802474492957)
(5.00231451761053 0.003849205996743653 0.002040686522282754)
(5.000267378028195 -0.0007332316167662104 -9.367843340581846e-05)
(4.999880623020288 -6.331909217830004e-05 -0.0002293694986430864)
(4.926085615061885 -0.01561948001084786 -0.002221748350803144)
(5.000803437239661 1.180745522986384e-05 -0.0001021765766065266)
(5.01292254872843 -0.0007896786417252052 0.001658957524670137)
(5.000789759430122 -0.0001547459822214283 -1.291547248005482e-05)
(5.00054681866175 -0.0004312148281690538 -0.0003533080378185014)
(4.999880647161453 -4.873948037344387e-05 0.0003660104959812873)
(5.000609786475274 -0.0001805451989575995 -0.0001216568254428907)
(5.000641814951063 -0.0003496145406271593 -0.0001919310297919987)
(5.00010335923332 -0.0007189839581921729 -0.002078055502941053)
(5.00082758403792 -0.00434759263877726 -0.0001673301513283728)
(5.000359599477642 -0.0002047171253212467 -0.0001645634339915194)
(4.999339126652657 -0.00161343931946803 -0.0001507676606239265)
(5.000259595627217 -0.0003556717324131601 -0.00102464937346631)
(4.999775834640205 -0.0004121817629682559 5.286864427031104e-05)
(5.000668018484235 -0.0001460699192748696 -2.139488721387078e-05)
(4.999561309626745 -2.654671795385776e-05 -0.0004512736733420292)
(5.017800844014638 -0.01061048053543397 0.003944279987006188)
(5.028632115035174 -0.03378076516622958 0.01095878923229066)
(5.001643423939131 -0.00196538160797917 0.0268283519750398)
(5.000509460909393 0.001179461959407836 0.0004177549955360313)
(5.000906870397136 -0.0001981718309976432 -0.0001186603587003898)
(5.008509660217702 0.0004627585082819567 -0.0004879641054120538)
(5.033281617295812 -0.007509351699699716 0.1720786462041972)
(5.001861625644784 -0.0008076360500166538 0.0004931932517874331)
(4.997773093865264 0.001261471721035538 -0.006699824182470132)
(5.000609846067928 -0.009762132226799071 0.0007748673464177309)
(5.007481217022119 -0.001083490310119842 0.001150822623961086)
(5.000233986165692 -0.0006176077914941745 0.0002340610453318457)
(5.000982832048594 8.074552379300272e-05 -0.001797140213135095)
(5.000708655824192 -0.00253728767025254 -0.001292398752229423)
(5.002293709326769 -0.004095700576556916 0.01954919541304781)
(5.000009395804567 -0.000569731435504446 0.0004640472926035555)
(5.001774874916554 -0.002535221695098758 -0.003045006252563432)
(4.999911491352916 -0.0004350657972424414 0.0002615226117765095)
(5.000634789123421 -0.0004232027303660101 5.827206596812914e-05)
(4.996476894291448 -0.00733985382195522 -0.002282612929056153)
(5.000603011600339 2.800243495856066e-05 -3.733986522336318e-05)
(5.000139319511141 -0.0002217972724223628 -0.0001060905445135071)
(5.002602708727637 0.001003588434095145 -0.003647195492416959)
(5.000298859199527 0.0009913605123685392 0.009212588105950062)
(4.998771712579955 8.224689001480028e-06 0.001644408718929331)
(5.003719021147191 -0.002717883039171409 -0.003380882272588431)
(4.999839886287226 0.004972042318992171 0.000626778044771775)
(4.999991313510321 1.806092687719847e-06 0.0001756416020874136)
(5.001763016051036 -0.005480646715377009 -0.004948027455520199)
(4.999682824171227 0.005118124812491564 -0.004088474893476658)
(4.998636261955924 0.002066510700945452 8.898296441880402e-05)
(5.000264620369011 -0.0007846044163454645 0.000498171811618309)
(5.000320031588761 -0.0002654954023406723 -9.237028982225682e-05)
(4.987800032138496 -0.002849535949591927 -0.002944112542845712)
(4.999319255760041 0.001533033020027242 7.976296482717276e-05)
(5.000912317634837 -0.001766394011874674 -0.001318132469218484)
(4.999169480347974 -0.001831793313997475 -0.001054311144109115)
(5.002264873879521 -0.001094707664373779 -0.0009642452505706114)
(5.001579286367894 -0.0005895602198327923 0.0001828271757890934)
(4.999065059303574 -0.001432975008460684 -0.0001941200333532826)
(5.002000299623557 -0.0003216029968522872 -0.0002013425268790887)
(4.999444618014965 -0.0002565892721982994 -0.000423418849723013)
(5.001656877202034 -0.0002406879760545664 -9.839018009353493e-05)
(4.999410153108669 -0.006063576284975962 0.002646566992193927)
(4.998718875136273 -0.0004645335878268108 0.0005855325631797232)
(5.000320229129233 -0.0005651360666995538 -0.0001124151743436782)
(4.966882995012306 -0.006154419905422383 0.005564122346104413)
(5.015565054619456 -0.00570174265492681 0.002363662691857802)
(5.000574283795782 -0.0002872450778579621 -0.002906254965860894)
(5.000457203789705 0.0002101475460271632 0.00084780331506376)
(4.995617340692004 -0.02196602262325717 0.009123570629277227)
(5.017935687711241 -0.01224360797068207 -0.009289356224597858)
(5.000371246177258 0.0006350750428840983 0.0009011261215208804)
(5.000836001142336 -0.0006392192353335396 -6.348827087724899e-05)
(5.000146574610691 -0.001532872541894063 0.003076948808602529)
(5.000777933677285 -0.006591592828647318 -0.0002614749843300721)
(5.021852007106755 -0.005073843104639398 0.003451610023501566)
(5.000394170648203 1.466804176557273e-05 -0.0003313293672516774)
(4.999716422519412 -0.0005080120830756361 5.973214842212478e-05)
(5.000530270630019 -5.250538316812159e-05 -6.433155871294218e-05)
(5.000222367903819 -0.0003979207224690589 -2.816772507226114e-05)
(4.999218068884315 -0.0005449389192548899 -0.001017711930783167)
(5.009366828400854 -0.005017465369992378 -0.001069121890192511)
(5.000111840906392 -0.004310931610933794 -0.0001056061182572266)
(4.982388401537114 -0.008592070797229694 0.001890675951977465)
(5.00009812568448 -0.001700591713214168 0.0002553392267668565)
(5.010832249637279 0.03116322923211937 0.02306585661975617)
(5.033164252364823 -0.01444218735390969 0.00330347652233543)
(4.999412650998395 -0.00204611548299049 0.0001273732456013378)
(4.988859925603625 -0.008141254257790241 -0.004879445576862604)
(5.001264185871145 -0.002783548420344068 -0.002458446718972081)
(5.001246411176503 -0.0009007739075885926 0.001198572130537828)
(5.001096526513889 -0.0005525639976422252 0.0001207025033645995)
(4.999035705023041 -0.0008440780424873488 0.01751692421123473)
(5.001044306010074 -0.0004592986474867511 2.374918429405254e-05)
(5.001122504335234 -0.0006492645622583212 7.254162493190066e-05)
(5.001055878097365 -0.0002065044527822148 -0.001387761591277675)
(5.000822855067129 -0.0006033543909683358 0.0001405362744495113)
(5.000072090751665 -0.0003057827102222728 -0.0002811484238502069)
(5.00129577320088 -0.0004100243614312708 5.115416026346459e-05)
(5.000093742026313 0.0001931387897801045 0.0005023770712337261)
(5.000108614900099 -0.001608243359129832 -0.004055384479050308)
(5.000355492847224 8.041959736001469e-05 -0.0001779964916619325)
(5.001563116759216 -0.0006960524208255091 -0.001851037834622334)
(4.99933515477889 -0.0004905276645785284 0.000888227128758251)
(5.003730807881976 -0.004191923262168879 -0.002835970303588117)
(5.003119874851216 0.001893946590209726 -0.003625358357490005)
(5.000422606030549 -0.000210560774649342 -6.224219794718705e-05)
(5.003718854527943 0.0004241159997790423 -0.004147654045790987)
(5.000723171244839 0.0009143534718466245 0.000866096972619867)
(5.001302855164873 0.001468569203830458 0.001429682635385654)
(5.000718394619211 -0.002699615422365614 0.001422311817618607)
(5.00079992532923 -0.0007453918249920899 -0.0001994618219356284)
(4.861477511630887 1.563475482110321 0.01359917807362223)
(5.002685524883922 -0.001056920735251737 -0.008828950233294275)
(5.001202934345682 -0.003151384185156144 -0.002871746946130051)
(5.000186400132078 -0.00688706498897266 0.03787781625466442)
(5.002050738049316 4.193163073735559e-05 0.004135844008026762)
(5.000437718098163 -0.004090630881868398 0.0006507891677327206)
(5.000893018720791 -0.0003303385941902267 -0.0001225287625938782)
(5.00034165297309 4.471130816732842e-05 0.002325226696892081)
(5.000152209359376 -0.000291952830335631 0.0002098652457461236)
(4.999583581570535 -0.0004573887560698861 9.975685365571956e-05)
(5.000256483333784 -0.0008897200277650695 -0.002593531312123907)
(5.000258023332584 -0.0001864491385382875 0.005076079992842588)
(5.000361698938939 -0.00100823532424151 0.001134877050711881)
(4.986807863939415 -0.00286932897843137 0.001134920130528638)
(4.999782055083367 -0.0007273093054136048 0.0003051661296528379)
(4.999231622599495 -0.0007408421250567322 -2.528140032788594e-05)
(5.027053729657137 -0.03832703167689029 0.003209961859066514)
(5.001036564130999 -0.001146221364800427 0.0006280797672428118)
(4.999783105405953 -0.001091637250724274 0.0004854011518341075)
(5.000320049429257 -0.0002936574109313138 -7.198522936537856e-05)
(5.058711965030464 0.2007334839482957 -0.3402040494192039)
(5.001096475326941 -0.003131115641778384 0.003150947060112245)
(5.000734892728781 -0.0004440964791980543 -0.0004843725328108355)
(5.000589406694162 0.0002254351015499426 9.799801281891632e-05)
(4.999822004411461 -8.02358407337218e-05 -8.776134934647754e-05)
(5.000591908626349 -7.812399521255315e-05 -0.0001343726257132096)
(4.45128439736581 0.09693136406500158 -0.2894450688373943)
(4.006025659281603 0.1038011184080437 -0.248766306538093)
(3.281056947200146 -1.141266904418864 -0.008040760904125276)
(4.997604070068286 -0.008240670005061823 -0.00488443468185355)
(5.122850598351874 0.1712841078688179 0.1023390876419633)
(4.096575878356194 -0.2225408735931541 -0.2764745283624913)
(4.029776167374404 0.04227549530563006 -0.06288800551463408)
(4.999936700117569 -0.0004080412233109454 0.0003148851447929281)
(5.199981892971192 -0.01563071004749807 0.6512002858084491)
(4.964046210551349 -0.06364377754143638 0.4453777368899598)
(5.000166937242297 0.00743906197326216 0.001338999209652429)
(5.000593116869063 0.001099362758566146 0.001144419032110689)
(4.93814825151732 0.01090843286066175 -0.07165390711975671)
(3.113927343078698 0.8491589668098412 -0.6821668214004192)
(5.000368669180379 -0.0005787089188933786 8.245045814241041e-05)
(5.001390114424757 -0.007026288551622294 -0.001086784938366125)
(5.000771965831322 0.002637046394588778 0.004217486347015713)
(4.986913505015072 0.4444143044700067 -0.532473168956617)
(4.961744066940745 0.2111476921096195 -0.0668427148467677)
(4.963744521799027 -0.008953751731100025 -0.001861361979690637)
(5.001498812370595 0.0004101114107611822 -0.0001981802922385983)
(5.000225710730112 -6.104684879062279e-05 -0.0001800783841518488)
(5.000051222920293 -0.0007453847790941165 -0.0004142327290787455)
(4.999394329939871 -0.004791152872947931 -0.006391802272716459)
(5.001008516205039 -0.0006857074063067125 -0.004121262936012724)
(5.001661707745118 0.0001823139505440103 0.002266962764064995)
(4.998325709752027 -0.002376594637084351 0.001499391772704021)
(5.220165011247515 0.0695645157507587 -0.486479016396552)
(4.982708482176095 -0.002303210477799118 3.897467998385842e-05)
(3.880000653476528 1.255122100994001 -0.5495703007986534)
(5.000439583306966 -0.001918928222844364 0.0009449508082268352)
(2.905874260924618 0.2590412134071408 0.2475880307603325)
(4.272404130487303 -0.07417475286367685 0.3613831897957153)
(5.005528807465095 -0.002757870990401113 -0.001072202216774719)
(4.298902196825065 1.321178737587596 -0.02124698405443855)
(5.004437544625915 -0.001947244796768211 0.0003035703663922915)
(4.838411315134894 0.00229887000540106 -0.03680641665561062)
(5.002241245743712 -0.009543407524149918 0.005108731792435241)
(5.029514884333659 0.0007400859275955266 -0.00255378491270296)
(3.478111134292063 0.329873172000254 -0.003709317563082801)
(5.000985563132261 -0.00333965188141101 0.0008232311333893301)
(5.000196268266024 -0.0009217183238131691 0.0001546621247466523)
(5.004079204705358 -0.0004716539694651106 -0.004947954951592058)
(4.155336848694836 -0.4517347746081414 0.04433508026303858)
(4.998531972695238 -0.003383283648003531 -0.0001702469645840398)
(5.000356924596014 -5.453921347515995e-05 0.0001939113066618188)
(5.000342619205905 -0.0004890715502776577 0.0003294371994697661)
(5.000288699891178 -0.001774639559326669 -0.0001653050383618668)
(5.001301049314198 -0.0003184034253687841 -4.798673462217673e-05)
(5.000222683720426 -0.004137537439225182 0.01385316516857445)
(5.031772392192095 0.04966328441407293 0.01046999635230149)
(5.000172918558673 0.0001169706234109849 0.0002076808707975785)
(5.022520318649862 -0.01996368884209082 0.01257956050547434)
(5.002167736354166 -0.001395400542757368 -0.0009969433158933359)
(5.019917400626274 0.002345024177089263 0.001328119069628009)
(4.82683550565379 0.01128625229232502 -0.005910015207675853)
(5.000604747577059 -0.00106633970649158 0.0003201557809762885)
(5.027526953482794 -0.02012422566806601 0.004532388368561509)
(4.999432592346568 8.36652646660529e-06 -0.00128712486565803)
(5.021736740861814 -0.006609767461148219 0.004564437271687309)
(5.012654261865161 -0.009554104626105281 -0.0004272650835565084)
(5.000402345826869 -0.001988866865378498 0.01074719352692346)
(4.920051783929925 -0.008763444262481532 -0.002897844437384365)
(5.000853860620031 -0.001644712232866492 0.0005277109037888787)
(5.000796018763281 -0.002132243812514171 0.0006026995611977141)
(5.006341659491256 -0.002022114867506996 -0.000532285489983076)
(4.237902875865066 0.0857526190953449 0.2319668273635615)
(5.000354815775659 -6.400539930771266e-05 -5.60220331334985e-05)
(5.000231551137769 5.466319479812522e-05 8.475897661990684e-05)
(5.000710979819023 -0.001817462296359062 0.0007594372985215729)
(5.005620790480572 0.05283903031316664 -0.04585335270307229)
(5.000700535204129 -0.0005789162770268391 0.0001811960913466135)
(5.001085284464583 -0.001718364815935177 -0.001139374399553839)
(5.000330151049586 -0.0003041749752629446 -5.776820625396401e-05)
(5.029759017460132 -0.00852007741139898 0.003501087936917566)
(5.000692060456921 -0.0006782124211462044 2.338028245662584e-05)
(5.000248362033759 -0.0004676119685867954 0.0002895756449400376)
(5.000507920448034 -0.001471409725351433 0.001565513585948032)
(5.035458901633723 -0.00851816715956975 -0.0181124794836654)
(5.000695393764305 -0.0006231287553409444 -3.555450050945436e-05)
(5.000780374978548 -0.0005774199251520157 -2.065177297411836e-05)
(5.001804247779495 -0.002852540899623411 -0.0002994333650759654)
(5.001079800550425 -0.002217602564941728 0.0001939037196680093)
(4.999939759499979 -0.0004657477270784811 0.0003597536773692308)
(5.000665418691737 -0.001394124724354602 0.0003142037077244022)
(5.000858041974235 -0.001418980436972216 0.000332077691154384)
(5.000792584014017 -0.001264537176938177 0.0003758303618512986)
(5.000637188690587 -0.001535311373032989 0.0002614550246101554)
(5.000235007306075 -1.834390688862507e-05 -4.024100936776101e-05)
(5.000179970649667 -0.0008647585972675716 0.0002609509309788746)
(5.001323575020551 -0.001671521048647331 -0.001323061688041848)
(5.001151363255586 -0.00178319991228728 -0.0003402547721621373)
(4.984109667211091 0.004401531658936567 0.0005485847038273187)
(5.001244712840988 -0.00126686720271156 -0.001794293051731542)
(5.008404323096857 -0.001273167461440124 -0.000710264330386008)
(5.002748300844767 0.0006913750657105901 -0.0006943490121479725)
(5.00070808214423 -0.0002425017595891932 -0.0001531439298740316)
(4.999334823525969 -0.001290378763589094 -0.006182802694907538)
(4.62089187338838 -0.02254202288079971 0.09279353599565121)
(5.000594636122647 -3.916661809093089e-05 0.007244720142168571)
(5.028154201737153 -0.001446641637443575 -0.01295789063358743)
(5.000705482798849 -0.0007617195330766703 -0.0003362898540810567)
(5.040315536373329 -0.05311670822611501 0.03879327131659602)
(5.000787561577864 -0.000867717449734157 -0.0004545032993538719)
(4.999159454233495 -0.003890299933513727 0.006975017483486861)
(5.000496025805406 -0.002013121621142464 -0.0001792706464600232)
(5.00105376768762 -0.001868689633591272 -0.0007893571867732186)
(4.998824770832674 0.02850221230375508 -0.04241590279691773)
(5.000943959396161 -0.002397772408512013 -0.0003323146781630451)
(4.999897377832197 0.0006025199570336528 0.0024339627662892)
(5.001136348083945 -0.002029923619730032 -0.0006441995810951344)
(5.000781617394025 -0.0009738964880270713 0.0006155429686513029)
(5.000437666068073 -0.0002352029813595537 -0.0002850824132558442)
(4.999673335983028 0.001023873690714165 -0.001842741583311923)
(5.000102410267672 -0.001042461906932589 0.0009430845180000188)
(5.000331899869042 0.0004372221847709456 -0.0007708422105657345)
(5.000310449843287 -0.0006768062494022212 0.0001379275461129816)
(4.999692042353761 -0.0003825119653505241 -8.779674351483616e-05)
(4.998329464678805 0.001821825819643845 -0.0008200264388804811)
(5.023183791069042 -0.1457148821490139 0.09984943986203922)
(5.000380011269353 -0.000655796351930111 9.97293153420234e-05)
(5.000318527569823 -0.0006198652185347029 0.0001560267632608148)
(5.00038606411796 -0.0009280006716520832 0.000412207776594817)
(5.0003316605923 -0.0007652475447285468 0.0002314842442214044)
(5.000608026236486 -0.0004510921415177162 -0.0002199751788529128)
(5.000640015226459 -0.0005561460259963545 -0.0001215470551062083)
(5.000303500809694 -0.0007875658246253188 0.0001310875167664067)
(5.000509075862812 -0.0009258474004830018 0.0004754782113171464)
(5.000557557750747 -0.001004434260656799 0.0005595609429377107)
(5.000446380740811 -0.0009732782987852234 0.0005141045811650067)
(4.999784408855493 0.0001104604564013852 -0.006522150250113963)
(5.004012612861004 0.003260673886174986 -0.004727807755579538)
(5.000472659308968 -0.0004449926857705287 -0.0006981392084910355)
(4.997281830695719 -0.001374699057379428 0.00408693378317358)
(5.002826677843254 -0.00153604612364924 -0.001446245015680583)
(4.99992477573094 -0.0005874050200191567 6.186762006402768e-05)
(5.000390498273832 -0.0004055426247562126 -0.0002862030123881529)
(5.000536473521081 -0.0009649427075046536 0.0009407257537026242)
(5.000780893235712 -0.0009224289788064505 0.0003532489504892243)
(5.000761757520588 -0.001024726390062698 0.0004858296474646064)
(5.000378754256379 -0.001310404947011187 0.001107407633327176)
(5.000466613623441 -0.001117240845204984 0.000541627003995595)
(5.000626901140063 -0.000332180120786083 -0.0001390820569851014)
(5.000660759920076 -0.001394703872065013 0.000358370810997966)
(5.000915399444271 -0.0008649811386640653 0.0004879775467183156)
(5.002305719263567 -0.003394956605222791 -0.0009263393434500716)
(5.000318405890053 -0.0002203462049460531 -0.0001985415893344041)
(5.001084160913559 0.0006749990512667762 -0.0007024558181474831)
(5.001460715624667 0.001663806692234056 -0.0002283769773136191)
(5.010404271361692 -0.007416065468596069 0.0008371103941077047)