/*--------------------------------*- C++ -*----------------------------------*\
| =========                 |                                                 |
| \\      /  F ield         | OpenFOAM: The Open Source CFD Toolbox           |
|  \\    /   O peration     | Version:  v1906                                 |
|   \\  /    A nd           | Web:      www.OpenFOAM.com                      |
|    \\/     M anipulation  |                                                 |
\*---------------------------------------------------------------------------*/
FoamFile
{
    version     2.0;
    format      ascii;
    class       volScalarField;
    location    "2";
    object      p;
}
// * * * * * * * * * * * * * * * * * * * * * * * * * * * * * * * * * * * * * //

dimensions      [0 2 -2 0 0 0 0];


internalField   nonuniform List<scalar> 
19631
(
2.161994231327619
-2.187705334352128
0.07009711363429642
0.4530599036567909
1.348441062042104
0.6714403559553286
0.9490408701995146
2.872689590943845
5.400862246174839
1.161747681679238
1.519198950837127
0.8627292707288654
-0.09427810452262933
0.8490898026128076
0.8663485759056427
0.7573082454854849
0.1970519877178744
0.8564612559223244
1.457671035100516
6.596158902804629
6.843142214369394
1.890730577792431
2.441229039288101
-0.0600812216675824
0.8043340596883518
0.8919504617969075
0.7766254502978924
1.800724591935771
0.2334063977649574
1.055540140485535
1.859457846630849
0.3927209818842265
-22.39643396579623
0.8464937224799619
0.537119876945093
0.859022958545486
0.6754320372410255
4.145085134126401
0.7944414556800795
0.8794862838141915
0.1370793332606351
0.06910762955493088
0.7676665209838842
0.4255951731715723
0.8490382026794018
0.3384301558760051
0.3572447628978527
0.3212057050807081
0.8555570887507299
0.9156780458874442
2.047751137331463
0.7481920875551766
0.8114681711999576
0.7378180371491111
1.560481828628042
0.7468851224789781
0.5918555838206085
0.7932817127437924
0.909828525621155
0.1324914055494806
0.5048914587714179
0.5668123819188219
0.7439830516077995
0.8783253314595207
0.3057221824419343
0.7555696013011912
0.7945038702931707
3.622880932143767
0.6535645843260591
1.460537024134966
0.278941024715095
0.8664751967620358
0.6086092588147201
1.391288519214535
0.6376482256710235
0.8989512394705529
1.146601686700099
0.6032635209207705
-0.0449429928313413
0.7691132027939155
-0.2006199558454521
1.937497905423143
0.8957752523612087
0.549720332705444
0.8518291211715859
0.472640825871401
0.7645674846198535
0.3753652594491046
0.8072708055719175
0.16930439129627
0.4268546166878449
1.901911577748741
0.473080605400971
0.5374945931677885
0.4383870643015192
0.5625029831880257
0.2524989190454441
1.062113926283381
0.6823522641632347
0.6514660906645735
0.8344919452661015
-0.1307407395983813
0.8031677094274509
-0.1516642155891633
0.7750465952136693
0.4284996432510654
0.7885552373663619
0.6569508414206701
1.204700635069639
1.440559405081245
0.1440580767330855
-0.14888641203735
1.213157992057905
0.3736911626927522
2.450608720595318
0.2810724713063947
0.5546274083006034
0.7770702648177291
-0.2661751226883717
2.97593618200521
2.974447175031276
0.8743498387207433
0.9216073184667744
1.481046209143013
58.236752982167
0.8557418395304638
2.215473885441142
0.8385836156781871
0.8276585774631758
0.7700798624013563
2.575477879383903
0.006753267619590594
0.5619669556100312
0.3163700281537385
0.8597839776681085
0.7538025282904144
0.694813463135753
1.522827186015379
0.8187568024364036
0.7408138962338507
1.477689281558901
-6.161784877138935
1.615202878848479
0.2966983662261853
0.6802382558813217
0.9332233572189229
0.9472607231818914
0.8287469594125556
-0.05199323910213398
0.6811915687448519
0.9466909800901014
0.7702347182869095
0.7390011181664579
0.8335131901446226
0.990442640116751
0.7705525381530861
2.070282294785321
0.6993407141565271
0.6993813041618698
0.8431221017597748
1.627709146379948
0.88404812767971
0.1654854214204121
3.892472589247392
0.7823223321461598
0.8125301968649437
0.832234166136293
0.8518738486868066
4.646657419059707
0.2722041065103213
0.02684761154263161
-0.3664688337073423
-0.6390056116341347
9.569180677038313
0.5692498815563745
-0.8017324444390242
1.657856950860498
-0.1180696814549154
1.001168340896028
-1.192936371658445
0.5348030586156529
1.476955580523693
1.615216777993953
1.05682929845136
0.7532535985733356
0.8093994284706234
0.6707930134240498
1.535199984496846
1.311555649273728
1.108227200806912
0.644190559388102
0.3489217860608965
1.258552917053342
1.034466399184371
0.1701738403855598
0.3813160652875407
1.462413294940444
0.461896364020596
1.096551052779698
0.584134581487698
-30.20069093266514
1.11167633200356
0.5768604253346988
0.7635194686740904
1.179823563329882
1.011757605395705
1.845441106803646
0.3252959538286455
5.871902048432911
1.070927766087638
0.6767427308619277
1.572942401768374
0.6256091792579594
2.096554987035248
0.7536789764412929
0.2690297551947781
1.093538959753063
0.3663575842607495
1.20646831012062
0.9305257307615606
1.671298565288972
0.413556864877048
0.6555535600159079
1.251334385057894
2.315991371186514
-0.6226775140774755
0.9445751886337282
0.7979043938495014
0.07500382202548082
0.5407877539349997
0.4149673118980526
0.7234616524017354
0.3968548210050911
0.258907405690964
2.167944518340846
0.793180152522585
0.6411641506991158
0.7296990811334368
-0.06692170488594336
0.6240865396656332
1.101185626601077
0.5860842110626653
20.75154658577608
1.055372769251259
1.494415298688912
0.1908510729472319
1.511469081674902
0.6103552265740844
0.2122154807239499
-0.311101714964464
0.4358633200091661
0.9168020132565301
0.5860637613482994
0.5988276251761073
0.3779105996475244
0.4509840012618336
0.7675034799457939
0.7681162823104116
-0.2489199256150312
0.5082305716216611
0.7890413699020402
0.2208675569343369
0.6046436706575503
-4.030716129927415
1.016682083865843
0.3357435578493925
0.9587203428766949
0.6823554131533838
-0.2504475952116281
0.6143541504494751
-0.416927657366671
1.315669947645372
0.4102004469938437
1.491897785083451
1.417012077272017
0.6134669371383817
0.5559652504117882
-0.2685788461518472
0.7944287523002492
1.169422586981246
0.6221490030150433
0.2677577364639496
0.670848727430973
0.5779976177514773
0.2872945507096659
0.2588857509176681
1.400475063059094
0.6287445917533573
0.575379457058119
1.209416916366304
0.6742304036236556
0.5028250796235273
0.999343451031902
0.7894708805035467
0.8908774127268497
0.5241645718346386
0.6242277888377957
0.04845178947964088
0.52712067444344
0.1849483338664092
0.2518321084721312
1.529851279486823
1.660477077693732
-0.01551899642795128
0.2926253576553879
0.8252965225831663
-1.022209737687488
2.833821722662471
2.766620152156964
0.6635383342484032
1.200111732511522
0.3517751886733211
0.3986819592031935
0.5789033828406224
0.766069734339921
1.405183689834464
1.616508972951689
1.483188176012076
1.256866690295537
2.586090614898704
0.4827151992189062
-0.3009082741185508
0.5467873935628179
1.693724335152986
0.3986524415785077
0.6985510661737274
1.336692430172851
0.2844043139916136
0.660436599280308
-0.6992250215593599
1.287035252203742
0.9182390468556147
0.929326403288712
0.9225903733704643
0.8953920313568792
1.186453126075318
-0.2213735229073129
0.3226897900968538
1.809526859759196
0.5901718726764985
0.8274371467352901
0.2224904436254667
0.7649540115876736
0.585606380927567
1.140234927503083
0.2469320341080432
7.57151364459765
1.084025152878909
0.6868164202577888
0.5337809523455133
0.60107973304406
0.7272823773582724
0.6676405159707616
0.2560841903477752
0.7162683711695554
-0.01161746675259311
0.7209115361253483
0.1428790438553142
0.7281571495919733
0.2726157275249539
0.5478367414508424
-0.1494399685636437
1.061116155487422
0.8926571595297438
1.274910372614898
0.7240430933775311
-0.5978749608365752
1.354933600876225
1.04952121595914
0.005049099964667759
11.10980828282874
13.540830949425
0.2793051027113175
0.958380159249535
0.6629388982743535
1.217220170217317
22.32212324598017
0.8017648576094032
0.5233565410331793
1.175167342373987
0.4196894957956146
0.8270361722082156
1.60056443307536
1.341795954200554
0.1230325434356467
0.04148384391211234
8.698346776673102
12.85444203120661
9.503863372807265
0.5697826227772474
0.4197192503735887
1.33612600632
0.1376879591700405
0.4563524298914761
0.7213005008419847
1.003259759789017
0.9418130681608795
0.2099464589659255
1.655224655292007
0.7150682673191255
0.5469574758090456
0.6504740730736751
0.9404971903005375
0.04685659529294131
0.09227257381924443
-0.1414424171798546
0.6982890667196805
0.4826076329141378
0.09125981064229796
0.03506096868066021
-0.1465507020009319
0.4172758493187209
1.113468799577282
0.6355855750933526
0.4030687464988275
0.514343447542434
0.4558513669493511
0.714309391547296
-0.5629276948504469
0.3357289384634097
1.062469707483781
1.320332143070141
1.305663786909715
-1.318925662513517
1.137015127314378
0.8371679838372765
0.5631186679330181
0.6813089292517414
0.8599003051453747
0.8354929971962696
1.507641806516006
-1.319735261634543
0.3595286997225938
0.7038806389408725
1.137817551578909
0.9623325341291034
2.41711818779341
-0.1952855459052644
0.5866987008340918
0.3654530288040158
2.189507645731162
0.8800621542409068
1.580381240591308
0.4391397899053883
1.692071362080838
0.1265001299212981
2.205633588748892
0.1190547240090609
0.112116489358037
0.9837467194633689
0.6138217513548936
0.381612071276401
0.1964161734161335
-0.3485829930821329
1.729111147812625
1.959731008621515
1.395356077210044
0.2794057200183078
0.6280534991880596
4.327260386107384
1.576370022550063
3.736230298505844
11.98364032409038
1.253199219952364
2.371031855029944
0.7142904608606518
0.2816962274529544
0.3748936939092725
2.205772803058485
1.446143690872665
0.2991190028014923
0.6729126469332875
1.560878598202338
0.8473628300072183
0.6864225251766973
0.3893320067374789
1.139640562812487
0.4302968418197846
0.245566983180443
0.5951349426483571
0.1711365046070744
0.5162614869011415
1.524055977337593
0.2504292734170425
0.2991576788751369
0.8119484714509957
0.4638703522332389
0.7236403554553
1.011185975685138
0.7994606483821273
1.38123329716658
0.5049842700736416
1.502806871329526
1.689767398443116
0.4552389003770148
2.025467676419037
0.5789506210132027
0.1842177725218243
0.2557269191341771
0.1148052688866708
0.7835712728430528
1.540266292156919
0.2617741839668673
1.317613418063274
0.9285991828360298
5.222148821817568
1.473131460263584
1.44718067304671
1.203689826140743
1.90689554696631
-0.00168849818172791
1.207008493196806
0.3507735430334104
1.012234747753462
2.000090526039834
1.926011458808226
0.8868045626365579
5.335662173565757
0.3564212223527393
-0.0110420780816776
0.8485795769401985
0.4011376207273728
0.6551510234985938
0.686078101297861
1.341240376835036
0.8380987989220353
-0.03022307171945278
-0.002636094235265985
0.4725291578408963
1.839416256384342
2.881838027146417
2.850386682339725
2.504727547170323
2.40779764458003
1.299619151132223
3.022140827095972
0.634109295055136
0.4079415132936697
0.7357666217512642
0.6853985316174626
0.2923491710129891
0.5317591587322575
0.7717633176131355
0.2815818023695429
0.7466667749192366
0.08426314173076327
1.392548493928289
-0.4980846889171688
0.9200569304350037
1.371785374109113
0.5599528471797427
0.7546953025396836
0.5921729980088136
0.2974919188891511
0.2492596826563874
4.207736730531137
0.3199794073812921
0.6600468745288379
0.823471593923774
0.9867087791305952
0.4580798082098476
0.7626644925392215
0.529344274610096
0.5299492344699231
0.8974293721873529
1.127775205348615
0.3898470104516593
0.01523733553761828
0.9986059861925355
0.5516004466491947
0.3306427374280529
3.175792592545768
0.9964932921367838
0.7993391978126606
0.4976143681149362
1.391610536951591
0.3628308574931105
2.815437649228471
0.1403284079521054
0.4580297051229134
1.063083001276238
-0.08924887208975503
1.24207557184173
0.1524213901973089
0.6185500165119688
0.4322345456631128
0.6010752021562952
0.9242895901566537
0.9345688404776453
0.5281300446989347
0.7538565307355188
0.732895620884237
0.7112302877373814
0.7765004856316874
0.3774266700241651
1.111197660387186
0.930936293670398
0.5350205473135341
0.8693632961685939
1.097659408990536
0.2354125033039247
0.8122383792395341
-0.1427152146564053
0.3556706421302199
1.131753814199596
0.5778802726594239
0.9412137706550374
0.7598682476211234
1.461932639595065
1.185447735701451
-1.186540219590901
0.4731004793078079
0.5557420296811681
0.8040062644603955
0.251473251540945
0.5033175716755094
0.6009614974191552
0.8676747050848254
0.1380865739742648
0.4062820392131501
0.7887648416597215
0.3631911786537031
0.4810578839455604
0.7967698748227844
-0.05619944063128204
1.147586716911475
0.9692251781099973
0.845862954555114
0.9804922158512226
1.486977229268055
0.4560479971262584
0.1613539169897409
2.09728591611439
-0.1711105883930303
0.8304600833168572
0.2925629705404199
0.822615116082653
0.3849231787260338
0.8025077256501506
0.6285329726212177
0.7527309291578453
0.2018931688185803
0.2767020304383235
-0.1355418523565062
0.09844259665116314
-0.2241456737990753
0.4435055441190636
0.3173863920340296
0.245420719715556
0.2710126037285578
0.4782178116115325
0.2690784788160193
0.5457721574594122
1.214214957273466
0.3366958643269261
0.2665317806392785
0.2791116606551439
0.5140532851388627
0.5785572702069299
0.6226940719388939
1.165657614403714
1.551188048536407
0.7599721350579374
0.453246203411357
0.1994886279947621
0.6015521510202927
0.1580380543553821
0.2599458036793172
1.274558250777068
-0.4207966899078779
0.7823162231305103
-0.01880907222565838
0.3892352172876676
0.4618763976430876
0.7154876293674881
0.8438257317560669
0.281575999406867
0.5973608224196421
0.02246072980524388
0.07780076808294287
0.1356096350370865
-0.07061648303473794
0.4839970770833858
0.5305256893014489
0.01730527505923406
0.2930513025006881
1.22707733150746
0.2158013475152354
-0.3590378762926
0.4434361598436373
0.1768816115211969
0.3789744527270374
0.496923943487599
0.8342644495626004
0.6098416779835765
0.5028166013005136
0.2041102983900973
0.7704934101926864
0.7491447994863565
-3.068877023026974
0.6138983167393683
0.3074222897722945
1.102320095748438
0.1394286664693998
0.3853693029261412
-0.03312521997662583
0.02028800625570676
0.3072120955319135
0.1444582559876782
1.024137565975525
0.1785154259028658
1.666329953522569
0.1264625626498423
0.5613737383974053
0.2469638155417942
0.4723813186357331
0.8110507434105028
0.01012383572279973
0.5646854075307062
0.3956754501099942
0.1676585787387672
0.5037714806533197
0.6984623230682696
0.5627096790035345
0.5171270182637649
0.01214189206347197
0.3996314760086793
0.2757385182962812
0.416792508417754
1.843257809426961
0.5999860970650447
1.257397341914877
0.4981438593276133
0.1504685483567659
0.5950336804187264
0.247749392514146
0.257610864605737
0.5625988238930985
0.5963431718968017
0.403251508813065
0.9549457231640656
-0.1065437466162228
-0.2816852013639082
0.8230354884451383
0.733685096296232
0.4278563200115966
0.7145638154923645
0.372092950024871
0.4913748535082633
0.2464570767542693
0.4003081298496968
0.1449637858915837
0.1933001735275986
1.463527955581132
0.115176219444942
0.8501364262444625
0.482899964201199
0.5106603814628092
0.2899807503343331
0.7693327534604235
0.1620795794736214
-0.07733204755841155
0.02675362269302528
0.5106836819722241
0.06397180668448658
0.7224361066042845
0.5280253818560594
0.0505978103120034
0.6605640525448154
0.7866227822016405
0.1431078133164456
24.45735601078199
1.650571860171628
0.3892425130483966
0.9521398038558261
1.245482315746676
-0.002763804126258903
2.021349765225727
0.4530833650641398
1.609741911590108
0.1460228639200228
0.9430002584167352
0.06436395119932924
-0.5123973240734014
0.683531670712819
0.8834329344306012
0.6828357770118243
-1.130853514624963
0.934521218652659
0.698702930092621
0.9601912643098099
0.8999173044637755
1.658825682570928
0.9405070681298838
-0.3535879760634223
-1.52596923478584
0.3530605869452607
0.5274481025193379
1.137498897324696
0.6680216605195614
0.7108752242932806
0.3201367778571196
0.6278970791343812
-0.2687551819399106
0.348934548001
0.2520589467292491
0.3448383101362343
0.5297500930759971
0.006425071562636855
0.3278046295713911
1.539303467158459
0.6641593755398812
1.176578043733019
0.8685842060864538
-1.629316448868127
0.6697350404895092
0.1500388261879327
0.2352882483726645
0.653252603531588
1.171034913459903
0.5533392408080938
0.5360296465710296
-0.09876794489799104
0.3298423562895349
0.5402132064503575
0.09414976573191436
1.232128431832701
0.8184022898664879
-0.4845674139164958
0.3413427250542478
-0.5311589043271591
0.7257550920850555
0.9358244270012589
0.2824372244796377
-0.3982265434022801
0.9711908136592641
0.8969726948789416
0.7057779778322215
1.636183154307951
1.704084243046953
1.521748934522309
0.3817897411954507
0.4469132801320708
0.6343546081362262
0.4439652834765091
1.070587991188577
0.2068850838833013
0.05569196881804336
1.406731484566922
1.163783110323762
0.1321242561489443
0.7964905165181884
0.9231720342476085
0.6293271297570528
0.6930886422181038
1.664174976832568
0.6088670336320813
0.5981288770604323
0.953925113758706
0.4549939180122281
0.1469560605757899
0.8073080672681362
0.4898239823375324
0.4088791624182496
0.3501832569121712
0.7514858165375152
0.2408395299840036
1.115990829494662
0.2978071082804616
0.2425291120510787
0.2459963952209187
0.7782924478872154
-0.3894293605854838
0.6091862399862156
0.8491327309347967
0.6877648481607623
1.551914452097811
0.5471230423107352
0.5698266829493419
0.4568323974854039
0.7928492546832112
0.06799104274506305
1.637136849792453
0.6017031054603615
3.796223436384702
1.104713657158633
0.1122025138570163
1.326752787989351
1.003619351843762
0.5419797764607394
-0.2569790658663269
0.9104432703916028
1.11118701585595
0.7745391048357874
0.2903296940953558
0.3255555147035686
0.2360276909104496
0.7166437065162087
0.12132748848781
0.3499895530100715
0.7107791741310847
0.4495835396354308
0.02109946880799846
0.8996691612631617
0.8705644702633494
0.4929031891141819
0.649828716675553
0.8899179419365504
0.4879688596892843
0.5443419544403326
0.677443193006723
0.6860647226833644
0.4777433091276641
-0.1521048626512951
0.1971324161978475
0.498577137959261
0.3174396598139742
0.6533072643484543
-2.422619250849838
5.358611363173097
0.3243991243094489
0.5142283670857085
1.090651069556056
0.2044521392688635
0.381199698855172
0.2227175495988503
1.012195560870995
0.606670846397807
0.4765594237393548
-0.01657810463291871
1.146696294428416
0.007907711611372532
0.4057553446114006
0.8465389021278715
0.731930497087025
0.2370303783805005
0.348425699974052
1.035499740868381
0.5784419685250265
0.1345403392282449
0.2981052179015704
2.361662487172522
0.7350838943496014
0.09647131315427718
0.7039692788362366
0.4712704864324446
0.1453447596663717
0.7063771323644544
0.1281295918547241
-0.4551556676348412
0.6873997069178389
2.150742995090984
1.609918982558427
1.130316870259815
1.571182490236328
0.4346968521007393
0.091049994164945
0.1517837967398714
-0.2768028048094732
0.6606954355399568
15.86391942852292
0.8664074544953457
0.4524300314006868
1.71279587592376
0.3201700929380676
0.2845899837718393
1.446763128257739
0.7262174922495983
0.1975153043431119
-0.1627882448187843
-0.3772389754057465
-0.1456463589914391
0.7137253476342805
0.3532668948226587
-0.4304191420915791
1.573221859784567
0.3192662119889024
2.825744788344041
0.8412101128029883
0.9260261665021295
0.8213467750176929
0.8363551977151198
0.4213223696989847
0.2436833611482764
1.464117337978617
0.4319546453180759
1.651792347345967
0.619845285396403
0.3882429149654937
1.978884738553288
0.5959898876507083
1.012613677534357
0.5571795674974924
0.9037137365672024
0.8107411172091389
0.6019198337265608
0.716130625649357
0.5833555040024854
0.632687269369726
-0.9067815115893542
0.58844516998485
0.7603697231711281
0.8952509556027812
1.700716446427735
0.5206566849007102
0.3986609555849858
1.652974622860322
1.348142318425011
-0.4601779614453588
0.4500316142847286
8.144574352983181
1.701707148742626
1.571917057356729
1.208935564079786
0.7629013636937982
1.052809424477767
0.9189725563388155
-1.381102713018874
1.566211406371379
0.9136248436709928
1.285203572381803
1.536068122292548
1.993122094366033
0.9466520297283867
1.490664712129815
0.4058929737126612
-0.04228241191680395
2.608412640699042
0.833746901370195
1.895379753395577
1.639782952615645
0.3761317416778537
2.838664083420154
1.517854317621062
0.4827089385987202
0.8918484249447265
1.497481122318072
0.8235379410236449
0.2983423054612049
0.4377327751600271
-1.47054472230334
0.8640743887663411
0.8713388288499688
0.5652956182295985
1.164416844265554
1.083360319859278
1.454328051992136
0.9638426868869461
-0.2974018754724564
1.304604145957567
0.3248027326551435
0.7094628670881672
0.6148158350777033
0.4949381594038458
1.315461685997075
1.556506393875567
1.120843986389601
0.3292756542475682
0.3667206814456864
0.8387260405554604
0.764022332792052
0.8834052894883474
1.061897108871029
-0.9398262914107766
-0.08140602465866145
1.076043837632777
0.8060016327596409
1.572407366345933
0.254983614039814
0.8636317011197975
0.5001677795936865
0.07826933008295341
0.3393007125302343
0.1642175974603673
1.179767101579484
0.9078206600326213
0.6902919356878932
0.1273862734675665
0.4830077498459839
0.9582986669610211
-0.1520633308214168
-0.1074172391067166
0.8928166710610468
0.692273746773182
0.5084234030212528
0.3137760270998898
0.4949826340237426
0.2231814902857677
0.9044617225529956
1.403299862371766
0.6923132570968505
0.9993178879662066
1.343360303008158
0.8859148749903122
0.5514305094870183
1.406199554746143
0.09740133417390502
1.001668324561469
1.004716651704604
1.000968902562532
-0.1131234327066483
0.4708574189561024
0.2949948004244726
-0.0547111266137446
0.4896121759697954
0.7381013500291651
0.3933367817626315
0.2463021470084461
-0.5299819569443264
0.9954066206833281
0.8329062807070412
0.8184103939321234
0.5970743061933942
0.5590596570093549
0.3378060018698508
0.7855125673741793
0.5434953130245032
-0.1566558381174292
0.8119121680949705
0.2796518449253054
0.4409229200190274
0.4960238391898042
-0.8989836657623976
1.790583352089417
1.19638206006142
-0.07264890951223836
0.5724625270252273
1.060331455835271
-0.3888207140376884
1.272594146749621
-0.2800210905981014
-0.07027734467976469
0.8727225342281181
1.410417051335678
0.3468955854490423
-1.501445946999399
1.507590346486179
0.6367797071372775
0.1249063423706776
0.7332820582777779
0.7464494296919811
0.7311164900565048
-0.01280362864559779
0.3609370737732756
-0.2640364897685707
0.629877578968431
0.3173956056006326
0.3264922034070157
0.3613193072578602
0.4672054293401678
1.447111631814996
-0.7077458833509095
9.443027290696939
0.3359141603326069
1.410320341561218
1.843002819138547
1.769597681331835
1.722662143989347
-0.4805996263595021
1.573149691704589
1.478135776396584
0.2290353505598021
1.416801332435349
-0.06355909792987495
1.225070243790311
0.1563305566085006
2.413668337323135
0.741912036092754
1.573653532081128
0.7485551040205881
1.267938236058044
-0.3655329091197813
0.3888308643274897
0.6862099348013648
0.7940339784206604
1.375231967472839
0.5647918852658399
0.654264438910622
1.440058239616003
0.4968350157431138
0.8727457604509937
0.6466466326044965
0.08180445960606311
0.3831705177875688
0.1743096471666081
1.393634192861132
-0.1131935103453141
-0.02455445715988124
1.075772434355119
1.379939606324709
1.181865808808242
-0.1992315176087119
-0.3994394209607722
-0.1634508046893645
0.5575802038698026
1.332389045369959
1.718441147160374
1.351900746056309
1.197241220737612
0.8822563501630795
1.484521255246179
0.7892250765870833
1.158228131159734
1.601550304670562
0.4890927432902021
1.735534996434249
0.2047611440346706
-0.3970608382724572
0.4859432688618954
0.8560619243767762
1.016257074549088
0.3559986751497849
0.903325686150135
1.094691770028458
-0.5804129302394029
0.6625701943539128
-0.1191112811850289
0.7099091468051674
0.1142018158322531
4.603812688685643
-0.157969908798791
1.002881610344065
1.822526755386058
1.070066182241906
1.026325883936786
-3.006351318686618
1.040553051879467
1.547644539044759
0.8570503323569504
0.9059832110372029
0.6862952051080141
1.713342015444774
-0.2076855743599551
1.466342326867789
1.199843196298015
1.10208349609802
1.523477216541697
1.190911385604284
-0.5860017077240923
1.344243067452051
0.2202498794826553
0.02109279520274646
-0.5991431223055355
0.6189606590070533
0.8925468849225505
-0.07488958963997434
1.053057919710347
0.8162885152213373
1.181776284923905
1.200593092630041
1.531821068472609
0.585205420403889
0.699173655226491
-0.9877369137582939
0.6695814495006148
-0.4597931620953815
-0.4705707359245361
-0.5064789876669453
0.3111045645018979
0.3049722653063576
1.113416701172203
1.631666569621047
0.6871574025379352
2.514275093593092
-0.1198311484452473
0.06319682897809498
0.7068165423572197
0.4011589417473367
0.4635926144154172
0.4758048391063921
0.4381034559684727
0.7826405057551068
1.263149956038332
4.765518940179958
-0.07749744771798911
1.428118615834208
1.100313066188088
-0.1552058293656792
0.441583146216764
-0.2869382361885687
0.4039606936865621
2.133753343370446
0.8039109938257784
0.4433038174559588
1.174828681500266
2.235744418640777
0.7709539059409742
1.042257046510196
1.136676346527622
1.216923645875448
1.380336582977717
0.8946654223154059
0.9174621004805368
0.723299594482031
0.767353308531272
0.3718269173529288
0.3889504314262741
1.140372229143258
0.9710421179313772
0.3548847405081311
0.6691153310514496
0.09936050993621394
0.5881112474001557
0.1852444649186892
0.2269066312463597
0.06335381876369726
0.7092960527372864
-0.4946316172959769
0.1560767052474586
1.069327060611792
1.37173400317117
1.075352860230438
1.634530561777657
0.9191247065380406
0.6631667905278509
1.106408111579973
2.012486820634376
-0.1246841488897247
1.055624984333198
0.9852477488381216
0.1241477596162216
1.227668869094528
1.88135636169426
1.237117674085881
1.115854291688677
0.468940842703317
0.8849075906938667
0.5128818248287487
-0.1347036830787227
1.834197758659454
1.032012717314354
1.618357174038546
0.9312247380642701
-0.6068662141600604
-0.5609671324580495
0.8249657611211015
1.212963704663505
1.312917562921945
0.7972271862101689
0.5239326436932378
1.224991097868986
-1.585897282410984
0.8005853925451472
0.7062595810117379
0.3044410313617328
0.3475146219174338
1.083865495151143
-0.4338373462017693
1.173862606368037
-0.4986853246635705
0.6363283044577498
-7.136971303411145
0.7824521677554358
1.483654394749313
-0.3006412685262532
1.721047086224528
-0.7074389866506644
0.8875494673727879
0.3429856600092285
0.1955095076630968
0.6918354526789118
0.8266591880187117
1.720880256600172
2.513565649120513
-2.696087611297511
1.512198919190963
-13.66186205270037
-0.2798134187276496
1.583681824857504
1.449190926205941
1.465092240785274
0.2699262761212745
0.4165323779754623
1.614819997874604
1.092524721258798
-25.05777710965743
0.2020172890989534
-7.227595274764146
2.394106525276108
1.317230084779097
0.903974904091135
1.487234408883171
1.125702147857149
0.9396277072151729
1.167000946156009
1.706815720541962
1.086239354017954
0.7594474124708221
1.199634997321081
1.154184707387618
0.8798653849728416
4.632259978085283
0.2042740541595589
-0.1088519638154557
0.3876884636527781
1.254747589688833
0.6254590357852582
1.305716456807732
1.355793664214743
0.4119827125524501
0.3177042653524582
-0.1432286218249307
0.8485974049324555
15.94333148468656
0.7272117879000015
1.64375379140549
2.622984719281099
1.528711514200654
1.676507904170935
0.2583355630746121
1.068788953906008
0.8013944863935162
0.9158541340626688
1.807000590392726
0.7534742793396245
1.075082152778797
1.370309723785977
0.7446121243190972
0.3466435100123479
1.612206908072435
0.8885209273071264
1.480127842740136
1.007734488643686
0.3022117965041808
0.2518405079874283
6.056516788154608
1.195259559551416
1.310236796126879
1.886149458988821
0.4231521067803888
-0.4178463310079789
0.2493349472257051
1.31009444997525
-0.5057725015066421
0.4409514527553368
0.314606031012361
1.279735689970756
-0.1991866479987123
0.874353982717671
0.6866520342165282
0.4885411729604207
1.335721567928077
0.1340265654706912
2.286885227597738
0.6292179046577766
3.314524473426904
0.2517846282045934
-1.870030331386457
0.6815575909232907
1.110370310067804
1.441233663656281
1.532049709458814
1.247621193369717
0.5960028966483758
-0.1524857234392216
0.1051219727658172
2.355349393126811
0.557421344216679
0.5487105449218429
0.4809463945805478
0.7186200025436916
1.384421726300108
-0.08731180673221127
0.75726591635455
-0.1376437679884505
1.279854612269487
0.6543369383118267
1.103837521843
0.8820073108702073
0.6118699771679308
-0.3915220304931286
1.501368009661279
0.2673864604202638
0.1149757829930451
1.08655095873833
0.3470935160454034
-0.2358935687489365
0.07983818635924124
0.2893146978767024
0.7051834526951763
-0.7852487952211125
1.526159777532075
1.496980490491312
1.628632860991398
1.003267553197929
1.522183725221474
1.363472988891824
1.445328582158845
1.541377226622279
0.7795078688694579
0.818122908730561
1.813889690975879
1.262802190383038
1.063836780555042
-0.09966364627224833
1.367852759584019
1.269419615061334
1.205127749114853
1.270156301300374
0.6658913317289581
1.216236456166475
-0.3506577048190828
-0.5054331649342561
0.05454722013877595
0.5276578028337587
0.8206075852675628
1.103981971584889
1.425494030323567
1.062134517553148
0.6272575143118729
-0.3171380699756281
0.8992762557557161
1.296005422095498
-0.2157816892151729
0.6539070873395367
1.45513771431243
-0.4058436189270946
0.3573898877788962
3.367709572925419
0.711882024001909
1.64133509133947
1.396225108870741
1.086278805371613
4.641707938067809
-0.07225111019754676
1.10173991630186
1.524248862522758
1.463777322138551
1.414947093704471
1.103459779788738
1.315781588387056
1.178700390295706
1.328864816200001
1.604257899808923
1.36424574441321
1.470355757925123
2.602005750197455
-0.1108553001089197
1.551488374632161
1.502404197400917
1.150069274792813
1.529035549440796
-0.08622982301828229
-5.0042895384158
0.6249634323331033
1.101342530248403
1.415044985797805
1.118193939131979
1.162607941097955
-0.1903360579483279
0.6160899254577941
1.134714765437127
1.196185677647592
1.327442777941376
1.590889342994218