/*--------------------------------*- C++ -*----------------------------------*\
| =========                 |                                                 |
| \\      /  F ield         | OpenFOAM: The Open Source CFD Toolbox           |
|  \\    /   O peration     | Version:  v1906                                 |
|   \\  /    A nd           | Web:      www.OpenFOAM.com                      |
|    \\/     M anipulation  |                                                 |
\*---------------------------------------------------------------------------*/
FoamFile
{
    version     2.0;
    format      ascii;
    class       surfaceScalarField;
    location    "2";
    object      phi;
}
// * * * * * * * * * * * * * * * * * * * * * * * * * * * * * * * * * * * * * //

dimensions      [0 3 -1 0 0 0 0];
oriented        oriented;


internalField   nonuniform List<scalar> 
37503
(
-7.361592619148856
-10.93038737999323
26.00325560124296
-7.711275601456302
-36.08285879370941
11.61549973379284
31.12319089253744
-0.02491666759924531
-0.5121513268875852
0.8331239392626072
-0.2960559443070972
-0.08565440580742981
0.1063554874793758
0.004465551635883022
-0.02516663324236443
12.39326546125107
7.147112849082152
0.6043035698041255
-0.02314182699400208
-0.08579127494715985
-0.4953704678304037
0.09047427056513253
-1.628628939950945
1.572651779298581
-0.03449711109816175
-0.5121073575366041
13.87826682381503
-13.36615946610985
-7.946149787367311
-5.465803152756406
-7.757454367506079
21.16940730806983
1.786192850032699
-3.149173636810075
1.479328676364415
-0.1163478900585064
1.478932207758451
0.1679350609312964
0.4178822616112991
-2.064749530470722
1.684715753979716
2.148375744651958
-2.708701664361716
-1.124389834631363
-0.01788711008972178
-0.001379012667013308
-0.01955986144616183
0.03882598431498953
1.134180667602862
-3.622760701541368
-0.9956215095138603
3.484201542586296
-0.9120156416172175
1.985611554865684
-2.771248858794004
1.697652945186199
4.453593094348093
10.51546969068548
4.467026548058609
-0.01035472421803176
-0.1520774734768251
0.1269134722354386
0.03551872554764391
2.092454855543609
-4.642980105596864
-1.998089675110615
4.548614924353823
-0.2480517845841576
-1.349314445403115
-22.78875473182906
11.51371132993581
25.16423557291277
-6.398636441433678
13.51783560116258
-8.066847696520433
5.034466743831064
-7.638738781758517
10.67111973462359
19.61963050976622
-25.13450792552181
11.61599026862498
-0.05175918324399867
0.4634813808897381
0.03675229651818462
-0.4484744940731444
-0.4458501344796977
-2.177564346292276
3.757595148011353
1.388032206114939
-2.679649990388624
0.3796021424466534
-1.450934244680331
1.937726623208765
2.21446150719438
-2.701253886708961
-10.18894857450763
-9.099181035287753
0.2458527707108932
-0.2835053124259515
-0.0561089623971146
0.09376150434713754
-2.250080885550207
0.3120359376063218
13.40166048039294
-16.24064480944937
-23.91245383890614
26.75143816710963
-0.1409911954754686
0.1237262457050576
0.07177461806715831
-0.05450966828793951
20.59163741214052
15.58088257781947
-12.95404248107808
-1.543555469477088
-1.008405207559941
2.106110542018771
0.223050658214844
-0.02025900478498263
0.2098891812826419
-0.4126808346324393
1.358843604382799
-1.141598295128669
0.4906988778129725
-2.078823312747626
2.729722728892393
21.64724809522124
3.499095031696951
-3.774302920156302
-21.37204020641754
0.05085214498437466
-0.3117651337216348
0.1199005761795865
0.1410124124677093
0.2955519737268114
-0.6037255194808897
-2.152193538455912
2.460367084085169
-0.04122433459384163
-0.2055696087302524
0.368125134509579
-0.1213311908929234
-0.05417303168913083
-0.03732580723454718
-0.005444761908844126
0.09694360094790858
-0.5003054509096327
0.4503770050352129
0.299710335062822
-0.2497818892034064
-0.05117912047963276
-0.3102671590701753
0.480095319988704
-0.1186490402952265
3.626529934160318
-2.340060243477719
2.23833493218314
-3.524804623611044
-0.1058508477698222
0.02470844928504634
0.01501628296768022
0.06612611557788214
-0.03436225956213654
-0.07650516196772185
0.02580833693693729
0.08505908475203428
-0.02522669213694305
0.1167116307401969
-0.1434021313386698
0.05191719268407933
1.971842423700274
-0.9830184646443861
-0.2497486804686428
-0.7390752789754711
-0.6625087446972706
0.1790351567146284
0.3275167040152918
0.1559568839958694
8.585804990929846
20.89951641352861
-26.97745471567024
-2.507866689177727
-1.246081474853192
-0.06125083005102919
-1.401369359812657
0.3903369783291858
-0.1165810515407757
0.07992292203258881
-0.3536788487496517
0.8440834167937019
-2.167690658365032
-0.9264736443925202
-0.1934128811831281
1.509534938948016
-2.084951434913983
0.768829377157059
-0.1540255832129819
0.2083968586967879
0.003430252123899101
-0.0578015275193749
-0.2313045701082186
0.1167844634515635
0.173568285532365
-0.05904817895139303
-0.8876080662527173
-0.5353362857941008
3.165798623092473
-0.04514252843265473
0.3249113449819479
-0.3147696285637869
0.03500081205354206
-0.002711592319002505
-0.09131255313790428
-0.01370199345089599
0.1077261390954185
-0.002714722284539529
0.04496373384838644
-0.06625508751572817
0.02400607607151201
0.006885769232718761
-0.1335268220978765
0.1184138513066425
0.008227201629414399
-0.07357616392250346
0.0741761398066987
-0.03164253572516257
0.0310425599686394
-0.2337530291402323
-0.2325389478279877
0.458703130882792
0.00758884634266737
-0.1020661232893814
0.04855460745809576
0.04353724083896714
0.009974274868272166
-0.1092450640955383
-0.003979462515616839
0.09481731391142806
0.01840721258255692
-1.93789892223648
-1.153081145430109
0.04776176808191838
3.043218297952879
-19.83231119377615
18.60315228204971
1.22915891183136
-0.1425678680131361
0.04171445020955678
0.07367710008846892
0.02717631784718647
17.93832236805845
-14.83892103336427
-15.23282749053255
12.13342615396495
0.07621184068185356
0.02423677113948724
-0.07537798787677534
-0.02507062394295816
-0.1519519125567366
-0.492974430893266
0.4410451981352788
0.2038811456125432
0.1221088931028737
-0.5846227843552404
0.4902154457496515
-0.02770155400008978
0.1264340884598915
-0.06000902642462424
-0.1010968175650366
0.0346717557114576
0.1946725397444593
-0.2177127694740707
-0.1557170308224202
0.1787572606217915
-0.0415449315415474
0.1358019427907932
0.1629470412276159
-0.2572040525364089
0.8335289169955872
0.6201197954774603
-2.23117102571419
0.7775223132130024
-0.02074768807505923
0.1266489468781775
-0.04283512489097232
-0.06306613376116159
0.03974994446896861
0.001879652332990007
-0.02863380263257728
-0.01299579407622012
0.8333904245854342
0.8425136598322873
-0.04103205333403322
0.01217100282774932
0.02886105056258048
2.851154786640873
-1.527096049295212
0.6193845053562254
-1.943443242153591
0.2249362789426447
-0.09264333221137425
-0.1092667982554441
-0.02302614831101135
0.07523008147768223
-0.0157119882575437
-0.04093174827114927
-0.01858634480053464
-0.08861129248990932
0.4539278681222091
0.4059122685729176
-0.7712288438555216
0.2577161576965162
-0.1860237035522546
0.1589827962880059
-0.2306752505103448
0.1183533786390673
-0.1709468097615539
-0.2478072345006602
0.3004006658883185
0.04668035200426023
-0.1008602402857273
-0.01806956143010159
0.07224944977483672
-0.08651584450304438
-0.009079196459362837
0.0099406352159217
-0.06620388816005331
-0.1026573225948664
0.07999713726241746
0.08886407347319732
0.1869620178652401
-0.1097673670228412
0.01964349642402586
-0.09683814721217671
0.8106247784221965
-0.5344517633732635
-0.2885896278032356
0.0124166130733275
0.03756875572817013
-0.3369007299316529
0.3180705078497285
-0.01873853347854218
0.2506674852819212
-0.03522942960114047
0.01857422837067968
-0.2340122839322471
-0.06677761239010456
-0.2349049158874408
-0.1894107714199837
0.4910932997171252
-0.0322786182536488
-0.1905791571662279
0.4078780941875251
-0.1850203187732859
-0.1020511194090837
-0.2674726893224915
0.0952767322326195
0.2742470764874078
0.02845732432600643
0.1472184112375582
-0.1952273733024069
0.0195516376750795
-0.09850416252782065
-0.08647808931048791
-0.2554292331316966
0.4404114849686881
-0.2009900231421068
-0.2853664445236194
0.3462757149643511
0.1400807527891807
4.824290196939751
-1.479835037900721
0.05163646288686037
-0.04827110632979498
-0.003365356474049711
1.014060050945039
-2.237846032047758
-1.455864009533751
0.02742918342440952
-0.02036128030700186
-0.007067903072054388
-0.1799406455495426
0.05235096163474363
0.02210213228149689
0.105487551741694
-0.0018858625429729
-0.0558694053313026
0.1494154317903328
-0.09166016378861414
-2.33276524948089
-0.8304496152885179
2.619403116234023
0.5438117479334381
-0.02740986813207657
-0.08625546669581771
0.1320702260423924
-0.01840489118343766
-0.4263405838485723
-1.176080831904045
-0.8884734824381932
2.490894897367041
21.00468151626629
-0.02618659920590308
-0.3115866167017347
2.870712755576982
-3.700724435244632
0.06764129611420512
-0.1036144056322048
-0.0306018161297693
0.06657492559067592
-3.084039593639685
4.843816921773359
-0.09599660799494435
-1.66378072123154
0.09455334857551433
-0.04854998492718295
-0.2403850395961767
-0.2178077746301928
0.3041945946784561
0.1539982196302994
0.178568117570115
-0.09991741119156355
-0.01887285929954247
-0.05977784697636788
-0.07497346622166898
0.2440215420292476
-0.2176859733678231
0.04863789757680319
0.1769599589993555
-0.2837193655913014
0.3047094512056311
-0.1979500446215473
0.02494002989059615
-0.01897727411670676
-0.03303691113336561
0.02707415542204216
20.02701235567998
-18.57281285897064
0.01026077406616847
27.10976822675472
-27.63213635805149
-3.383492157654968
0.2187165814726789
3.86210600727163
-0.6973304315285509
-2.045314807617321
0.3425262589760039
0.913075977103193
0.7897125711059492
-8.046036145218398
-4.462107347786285
6.621128141165965
5.887015352216681
-39.22604736637125
-26.05812743364596
63.7969766304259
0.7698235396715314
1.591134912069439
1.396636695865798
18.18788759803507
-10.82819846243196
-7.359689135865032
1.197921566392869
-2.3618748936194
-0.05868500813288603
-1.698503799984493
1.144055416306959
2.335258949876449
-31.75401060717855
-1.865051687955025
3.098719756415947
30.52034253950255
0.09006760353250776
0.00652858831328824
-0.1120401941361881
0.01544400236589189
-0.1408122975631495
0.02897855314122304
0.1118337445023076
-0.08031576809882468
0.03166909498310472
0.08787724856007376
-0.03923057532952209
0.5349291706914614
1.438992189025203
0.5329272180638895
-2.506848578518803
-0.6091489955891849
0.2141103692501137
-1.786362458433485
3.121144752559009
1.835853152336388
0.6924200449209877
-3.287656803783884
0.7593836065787705
-1.925907322839127
1.895527124484283
-3.101803682903826
3.132183879471417
-0.4023505667326321
0.1838967608717655
-1.907600149443377
1.627567167314956
-14.38573652719889
-4.176654560514617
-0.0543391928340382
-0.1489019403754711
0.1138547949573486
0.08938633824301317
0.1169084630457062
-0.3414930923713675
-0.3578814844916897
0.5824661139658615
-0.5197404861657089
0.3631475972064147
0.1199303350441132
0.03666255390652407
0.456727602879682
0.2138039674468955
-0.8229390631625315
0.1524074929617159
-0.3568258474746371
0.4829000698976567
2.210621578898361
-0.1430531548084291
0.04718449248662392
0.01427994829544304
0.08158871410668697
0.008351373008460169
0.02026261146303701
-0.1153406729623686
0.08672668868541807
3.127733302185165
-1.094761642432535
-2.571258474024718
-1.155041445834657
0.5502174854608979
4.746691660144759
5.616962318096758
-10.91387146441203
0.1996159200196223
-0.872781926360728
0.538323340860912
0.3344585858069881
0.07915953258821164
-0.2792542862455512
-0.2093827650163106
0.409477518667979
-0.6424947633121424
0.2500661827808495
0.553594589942945
-0.1611660094552758
1.81061382846331
-26.08539224407341
1.599042694066604
2.871572623162891
21.61477692685431
-13.86529563535313
7.673608945372639
6.741904174763068
0.1657908649304214
-0.05284136850032657
-0.1215741441490727
0.008624647735620248
4.698118571778581
4.426363539711081
-27.05173019304016
17.9272480821013
1.653369225539704
-0.7739742854481229
0.2917962750289019
2.674073756326738
-1.767948465396556
4.081904075689133
-1.737517411913343
-2.964147702118679
29.12548450953253
-14.12588198728083
-14.99960252183138
-0.08196191452912843
-0.004118263351989278
0.09123632312832158
-0.005156145229102339
2.392790474013585
-3.630850735908942
2.068842892900427
-1.825547234546294
2.627417096026432
2.113128008437693
2.026465159915801
-1.74680269549167
-19.24959515227679
10.25961995763328
-10.25953480339149
4.492020379013939
-2.066856433455112
4.095308052486488
12.60305616574294
-7.549084412525144
-4.376948092671796
-0.6770236618422084
-0.01012697609924003
0.07907120918678721
0.002753541107675164
-0.07169777416044872
-1.291026200257414
-0.7336185469710245
-0.4653666577604074
2.490011404624185
0.2999073804441674
-0.1470365888695447
0.1089683026048228
-0.2618390940394076
0.04229737482330705
-0.06581400857710812
-0.2077879363126093
-8.059181224553017
9.083350579548599
5.207552972546036
-6.231722328028101
2.582858940822419
-1.949425116161412
0.7107029467785317
-1.344136771519946
-0.1765644319515894
-9.256341870762075
-1.713884500103587
11.14679080134878
0.2079818619248775
-0.1434962655730574
-0.06448559641323708
0.07498193108216177
-0.1510375364717288
0.07605560534633368
-0.04442487866628204
0.2675207419653101
-0.05392527700480664
-0.1691705861137174
3.693871048794374
-21.54664988411832
-4.150403902972408
22.00318273895124
-0.1397854732473599
0.1517834196897229
0.1582362624477966
-0.1702342087020533
2.63811929586124
-1.26269885250929
-1.801761027769151
0.173374694270475
-0.09839276319440098
-0.1461494315280503
-0.0537858306269597
0.2300453660172898
-0.03011010371830608
2.857946568825208
-3.372112192064108
-0.04682722903561785
0.5609928521562847
0.3633709463207231
-0.01610989625597734
-0.0178675514199024
-0.329393498645709
-0.01139334522531425
0.009376800335214073
0.09212377925501848
-0.09010723432397233
-0.4320142805341187
-0.1150381537258046
0.2668123042177765
0.2802401300367061
-2.282817188835692
-2.124296376291628
-1.456568798749956
5.863682363584428
-0.08898232509604589
-0.1545738127509421
0.1070727076791974
0.1364834302013248
0.0365148733595157
-0.1550244840342608
0.1185096104183559
0.06954112481345863
-0.0184872486456243
-0.09210179627123735
0.04104792011492371
-14.95442915946239
-0.1343945348766394
0.006981767901840312
-0.01574064451318282
0.1431534115838204
0.02277829425451522
0.04380586532883351
-0.06658415962264186
0.02297286884425646
0.05874176826834088
-0.1061573766026078
0.02444273948380503
5.899387941581012
-4.126022212818696
-5.276558116612632
3.503192386679484
1.977482950968068
6.096843847850827
-2.393565049094041
-5.68076175069795
10.32996556468849
-6.582480747230286
-20.70327259372817
16.95578777668095
-0.07649247806599224
0.05891712291105212
-0.08089773556364228
0.0984730905284926
-28.68619943590891
9.939391569628192
-4.04194686545936
0.7275535908760966
-0.3627932860912927
0.6949392017224232
-1.05969950668583
0.7270622314646239
0.1484734989373089
-0.7214905644276702
-0.1540451660757227
7.146142761024836
-0.7975677363791873
2.136010391775702
-8.484585416790337
0.1014900042508327
-0.1214622369693732
-0.3343864681881149
0.3543587009184675
16.5696601445363
-13.45211867107055
15.07034612449557
-0.6378989004801424
0.1896457085419049
-0.06287168272704668
0.09166003858976153
-0.02878835584932168
0.05635319643539997
0.1116060581142506
-0.1527161696633828
-0.01524308479876674
0.109838504678777
0.02836027225306561
0.02206868157793834
-0.1602674585256693
-27.11089646740792
13.24005253777141
1.827864518228365
12.04297941198681
0.2959330130600766
0.4425226296616063
-0.3486214594098753
-0.3898341831860644
-12.76449725629315
16.44006033884375
0.0977462452878184
-0.3761360396026249
-0.1175846858477756
0.3959744802071806
-32.48007285384379
10.0584217717418
7.142166515787446
15.27948456652834
-0.1640785766771848
0.03762504055004644
0.05949602759498687
0.06695750858670783
13.7910790475129
0.02012277228278637
-0.05878573344755115
0.001498013052384851
0.03716494821070826
0.446315939934105
0.06234039095634822
-0.5497450721235582
0.0410887410389173
1.436355227311665
0.1520843312072303
-1.021556048463462
-0.566883510457782
-0.001810704926944521
0.3891444715287869
-0.1145287056409905
0.06069004520789821
0.1936176206441662
-0.1397789602128886
-0.07584765030457209
-0.1238555360257423
0.0146627627225096
0.1850404237857508
-0.2100954452494809
0.02870026443628236
-0.01186309097254679
0.1932582718001634
0.1173273109984471
-0.02078578253109039
-0.09654152840590477
0.01836803272461091
0.03788537327718213
-0.05625340596670079
9.681296863224969
-14.09958207528437
4.418285211881915
-0.06270903454836618
0.07996060561757995
0.1814578901905501
0.2137435986398227
-0.1389332895905825
-0.002477447067408798
-0.07233286191802206
-0.1011128783781604
-0.3026658617128959
0.8354491831607901
-0.4316704430954457
-0.1262145366233216
-0.3534246756024888
0.199688463361596
0.279950748831216
0.2058832577146681
-0.3956252045491063
-0.3665036076684714
0.5562455543928275
13.9819503959045
-26.54511664816992
-14.54773021469802
0.9140244380078379
0.4655397603600565
1.746460312674382
-3.12602451174738
21.32296267162274
-25.92365026145101
12.16839531918744
-7.567707729053385
-13.2014857521657
-16.11173278870374
10.14725582761674
19.16596271319273
0.1124301175383332
-0.02721282547604928
-0.08521729229119371
-0.01872944799678848
-0.002383850455500333
-0.08564857852055938
0.1067618770894855
-1.256546585695525
-4.780709904408778
-1.042015939444377
7.079272429484083
0.3984041183055563
0.0938164049320995
-0.5763299237370304
0.08410940037320756
-0.04311417008134771
0.1374705339276737
-0.0128124599935838
-0.08154390386640716
0.04401574807009435
-0.02499880593205029
-0.07759749332687139
-0.02864417945917017
0.05226756326154227
0.07732875924311247
-0.1009521429911798
-0.04789918480743696
0.1091759520956844
-0.06127676726139374
-0.04311034134076238
0.043245198205866
-0.1269332576901412
-0.05760364208535983
0.1921525985775493
-0.007615698639963154
-0.06062529054744926
-0.0376271724393553
0.09825246316324535
-0.4459090882993671
-0.04910033465532533
0.4058789906356807
0.08913043244542723
0.1992574777421945
0.1784670741945345
-0.3268724070487804
-0.1409773384420497
0.08753755145277949
0.07268570390586275
-0.01924591686222907
-25.82434620320878
25.07181964442242
-3.459357871978341
4.211884431664841
-0.439101919643184
0.1005618661762345
0.2765113076866161
0.06202874575826904
-0.3940563321815006
0.1626264935830842
0.484489862751728
-0.2530600240508366
-0.169286283827963
-0.01316727058528685
0.1066348617772325
0.07581869285687148
-0.06683054817789429
0.2791402073209451
-0.2457261020053314
0.03341644295876898
0.07313758224178167
-0.2412255245761518
0.1264774550735682
0.04161048740447726
12.49654127398396
2.370467580339946
-1.542074497168895
-13.32493435698988
0.1134543040669236
0.02043653050639241
-0.09517536051648057
-0.03871547399992561
-0.08194460888654891
0.2140107017518428
-0.046451583136898
-0.08561450953353375
0.1204598819770182
-0.1130869092846292
-0.1584105091524033
-0.04934736597355598
0.04417374893116605
-0.04481356658576439
0.04998718375283861
-0.06452768823609444
0.4344038975001782
-0.3192764443488301
-0.05059976482517805
0.0102682142575808
-0.2033949690940714
0.1785557466342982
0.01457100840413237
0.101676333506294
-0.01804157237866136
-2.276045830714024
2.192411070023736
0.1203405021738721
-0.01355846920881026
0.03021546745008688
-0.1369975003667134
-1.31896357334403
2.042362135623329
-0.284352499182414
-0.4390460632766708
-26.91059803813118
1.328730624209274
27.30634380293301
-1.72447638865448
0.07654120129849046
-0.3231918062358046
0.3332576607622154
-0.08660705563331973
0.09468878270473455
0.02376413862287537
0.06737370840550952
-0.1858266296929414
-0.05659164572833124
-0.01747977844842286
0.05751148142802837
0.01655994282592926
-0.5224105004831615
-0.6059385264185722
0.5881420449449092
0.5402069820387175
0.05727949388315196
-0.2610821044819053
0.207823598968798
-0.004020988533690695
-0.1750494534722865
0.03559459879593713
0.1871274547003736
-0.04767260001910611
0.01867143777188535
-0.08446983776649274
-0.01102171843724295
0.07682011845176402
-0.3749002884762369
0.3698949128919182
-0.6624089720345865
0.6674143479277184
0.2544271273587368
-0.002753107616110949
-0.6473165013086557
0.395642481973819
-0.05255880238562833
0.1334935776739667
-0.05774768334730143
-0.02318709185742212
0.130245798849766
0.2853266558105769
0.01008167740945418
-0.4256541320611137
39.15997504694278
-25.15840318564662
-18.12540871030828
4.123836848405616
0.3479112021001662
0.1028686210275
-0.1600324613310913
-0.2907473617455356
0.009622607057012128
0.009516127632581089
0.200538620173616
-0.219677354724572
-0.6579713701600299
0.1329693929543964
-0.09535350656723142
0.6203554839501922
0.08924283679875995
0.03925953937205737
0.04566851785417723
-0.1741708938389906
-0.05505648073974118
-0.05199239717688494
0.02273135808658398
0.08431751985032764
0.04761602944875377
-0.4101916522515848
1.723729728540203
-0.8447900426545905
1.273624150372185
-2.152563836739063
15.54497884642115
-10.97093470803373
-0.04198169920245723
-0.1348942967779765
0.1325129453997197
0.04436305060187209
-0.0008893015784006747
-0.1265006346580419
0.02379810126271148
0.1035918349924509
-0.1317891447019884
0.1213477429788772
0.04619740208350199
-0.03575600034073599
-0.2472150809092257
0.1182533170885082
0.3149594783688238
-0.1859977144827169
-0.06974495679745731
0.02789352940164942
0.01570874472446325
0.02614268280923698
0.07708178515875705
0.02636171165506953
-0.006694623471368724
-0.09674887333497187
-0.07196283488083698
0.05624714648793077
0.09766181908833399
-0.08194613066405408
0.564413994126714
0.7212360679590148
-15.16895962167309
13.8833095600991
0.1634131129940588
-0.1651677360655221
0.008218029775581902
-0.006463406547284403
-0.1550557967050783
0.0515075982237618
0.02444883200977958
0.07909936656118323
-0.1911869232265496
0.3423801299448029
0.1335762743794782
-0.2847694811155699
-0.03300915672960325
0.04237882048202395
-0.009369663588217645
27.65863634972215
-28.40881425491036
-8.252415411243371
9.002593316009625
21.50079895639612
-2.448636911263647
-21.7645124541815
2.712350408860014
1.988448422555454
-2.185146556114679
0.3114682844479874
-0.1147701511226093
1.833289406134992
13.15646697178738
-8.375095369521663
-6.614661008810247
0.1317500537707522
-0.03457109722075278
-0.09717895656793696
0.002053066310989691
0.01153758089890011
0.08333977050043188
-0.09693041762834313
0.2812099520722242
-0.1232053254775031
0.4401341001231349
-0.5981387268519943
1.828358709085887
-0.1351492000844551
0.2907551594228575
1.25770641268248
-0.4777660386722904
-2.083833349289148
1.303892975298535
-7.370726487361644
-0.2945215828048607
-2.397670796436625
10.06291886611578
7.577471734699652
0.926801176873943
-8.194202414651034
-0.31007049719572
-0.2771183607034441
0.1226701223392379
0.112903306771621
-28.61163506606766
22.0857998302033
4.641959918869481
-0.1048517343929293
-0.1522262374710977
0.2247993536459623
-0.0005853693550965924
-0.01963726563500198
0.02022263504334814
0.09727329712430419
-0.04814443525855594
-0.1448830281880951
0.09575416640425397
3.324396552265406
-1.637150471598162
-19.61546053815087
17.92821445792976
0.5196393666852314
0.06205947721190114
-0.7108088571162887
0.1291100130404143
0.05091653494906278
-0.04040979229577487
0.1252952000615654
0.3571341210050872
-0.02862183518245367
-0.492154265939632
0.1636419800695783
0.1357712080503577
0.04642293476958243
-0.0795485518306359
-0.1026455909367631
-0.09698953171588998
-0.4146356233590542
0.201724393474986
0.3099007615519995
0.2599066996527098
0.02796596088342999
-0.2616541648580212
-0.02621849548098887
0.03502729275594685
-0.1934629695501274
0.02731726049508507
0.1311184164347962
-0.03723703007187111
0.4694439017782598
0.2572222431873444
-0.6894291152545887
0.2014731871260494
-0.2538860230508002
-0.2700013372635398
0.3224141731780566
-0.06531214104531813
-0.2865226864687461
0.3039099728693557
0.04792485474392583
-0.03226447244941204
-0.1433746868096542
0.1756391591720947
-17.07715250397867
15.43067298883056
-2.581488095374569
4.227967608326959
0.08543434421767661
-0.1176988166823916
0.1036924112382734
0.07526787105460157
-0.06505209198079336
-0.1139081901554918
-6.509702675303885
20.75144830830526
7.405502462541204
0.7198026960470741
0.01647001141782917
-0.4550627555116254
-0.7993126915284616
-0.3204985754965595
0.6610509880782345
0.4587602788369522
-0.03237670077561146
0.1110540975493945
-0.07710443632751057
-0.00157296046239399
-1.064377036801526
-0.4092334124872259
1.362028554050488
0.1115818950975266
-0.009800798570348193
-0.005544525975714651
0.04028535448307533
0.1194118238724063
0.05363134806074864
-0.2067648938066389
0.03372172184192587
0.06259128953796404
0.1422548785362267
39.01835720057949
11.89985656046893
-37.34025877447421
-13.57795498602726
0.04378331079949239
-0.08846585018283727
-0.003155340214908151
0.287788216508349
-0.4856228994623636
-0.3487203905519168
0.05774609713307933
0.3484281245351124
-0.05745383087733481
-0.2759723593743245
-0.2758722265299691
-0.1695260802279324
0.7213706662923459
-0.1346452450867535
0.1710770330830875
-0.07533141123760564
0.03889962327369295
-0.4970683379048078
0.4148637939339345
0.0002418099501591365
0.08196273409775423
0.06705476202861672
-0.002361254817361434
-0.01572162363079693
-0.04897188339943367
-0.6540411975318889
-0.1032957722337077
-0.1503855973880391
0.9077225675053768
0.1007697866404066
-0.008715845232049527
-0.02735074893833147
-0.06470319238757556
-0.36315463396899
-0.1075489478539344
-0.04903690430146417
0.2596114318281994
-0.1716238012588499
-0.08798763052405141
-0.03489615447751044
0.01967224467999114
-0.1169065645155453
0.1321304742827124
0.03312862903597202
-0.1126553642197602
0.09887016273674556
-0.01934342750620217
0.5422918375203561
-0.7386564984282223
-0.1252031534548637
0.3215678143789549
-0.07139840262701336
0.073163721952284
-0.05557769888060716
0.05381237968815919
0.1408559405209088
0.06620897253220648
0.0007093279157071909
-0.2077742410313698
0.596974018199826
-0.4026960194576004
0.03192132171659952
-0.1533408409723642
0.1110477402531158
0.01037177909347266
0.04224575871204697
0.001643234942441554
0.3376733095899603
-0.3815623033632208
-0.08498073833622254
0.01172605893107322
0.01666303371938157
-14.12184837621633
-5.464109972848303
-2.72968088773327
22.31563923688883
0.4617587797850825
0.08033565907440271
0.001717973920914835
-0.5438124129832065
-0.06558455300852954
-0.1752489421154925
0.1800624015098676
0.06077109372857207
-14.37753060686831
5.210435074908736
12.59063115603859
0.9790509053636838
-27.94721266821238
-0.1321673448627055
-0.03577691992166854
0.02179483330582176
-0.05227659369222335
-0.09369052153770414
0.1856391645144605
-0.03967204921988499
-0.3088944405509301
2.184023014624748
-4.312431194459982
2.437302618953249
-5.653928794930067
15.81701057541032
-8.329792374630014
8.55435441304494
-12.50986983208623
10.42962450239071
-6.474109083201924
3.247774940282919
0.03992482424606441
-0.6719732221886393
0.7716448862800039
-0.1395964884086408
0.1006646531199299
11.02977125559915
-4.694315000501604
-6.436120909754026
-0.1012810873026995
-0.001279320060684243
-0.07706180300719982
0.1796222101281978
-0.6418826312508923
4.068035647175426
-5.16367042930963
-7.743655019483814
3.267843261256431
-1.193678695585006
5.669490453150484
-6.581355282813226
3.855247152266443
-6.832226629851904
9.558334758683303
0.003082066806711711
-0.1515012963992595
0.03133943745303255
0.1170797922877398
-0.04119997424466162
-0.3590839139884559
0.3718323722323374
0.02845151629671334
16.42847237715532
16.60020840353533
-12.7998575612977
-20.2288232191033
5.510244571486114
10.9182278058721
25.39647027190222
-5.861644448091173
-2.934617420025286
-0.04813172757582246
0.1624581316598807
-0.04729943952299569
-0.06702696445405501
0.1307643489086563
-0.08297503475847812
-0.0959210416021858
29.54721939051986
-40.45769484135341
3.280747368371264
7.629728082543205
-0.04671739949361035
0.04362110835536061
0.004053596604305215
-0.0009573053382423064
-0.02609316601814527
0.06501318756067209
-0.03892002147458
0.1379179234184553
-0.1767812564352726
0.3291462325778201
-0.2902828996078717
25.64398943484201
25.88672343529498
-0.0896719358170487
-0.01496837497791148
0.1247768949283545
-0.02013658410569041
-14.05357466475335
13.98867927168939
0.1236207761971071
0.02411600113998733
0.02243987754470589
-0.1701766548788173
-0.02654233241134263
0.01132318427214238
0.01521914827209091
0.1602268997844045
-0.01890037758008624
-0.1703726728397487
0.02904615070404251
-4.2830668218489
4.813986958781411
4.527866133656989
-5.058786271790364
-0.009705835722796374
-0.04109442942093475
0.01121003070584568
0.03959023450114281
-0.05625307702438458
-0.03402847382587814
-0.02838578876656003
0.01867995306422121
0.01960862252446748
0.05994834788139395
0.007722411402052593
-0.087279381705829
0.06696459190324196
0.1107857348716996
-0.008104271305835886
-0.02028151742861568
0.07258486295978114
-0.1188157371063011
-0.1044189778889603
0.150649852059821
0.04083590204954488
-0.01594177779678527
-0.02489412414328263
0.01682927446752665
-0.07973232272474509
-0.08477298961468795
0.1476760382089345
-0.3048764927313984
0.1261333819780663
0.3205654119611425
-0.1418223010552698
-0.7351014069383373
0.06271507987367723
0.5015941594472845
0.1707921676565638
-0.1038215560501778
-0.2068457078759748
0.4280179782594423
-0.117350714240197
0.3065714406913662
-0.03304789322611473
-0.5054772922765212
0.2319537446684736
0.07569393105940833
0.01944922881377744
-0.01297464250669708
-0.1394670376082856
0.3281949004573881
0.0962037175524756
-0.2849315802196101
0.0681818502191773
0.05822807552270699
-0.1264099257435988
0.08995676103018575
-0.1044068255499148
0.06013740821266211
-0.04568734361182131
0.8013145399401919
0.01921591498771408
-0.4786076429676281
-1.26791090086105
-1.298501574063228
0.9353659579863165
1.631046516623752
-0.1085581349981611
0.02988812114083357
0.1105913355977517
0.0719292612601472
-0.03930721701086903
-0.1379220920716238
0.102310507497104
-0.01707011037554056
0.05268169507416193
-1.183939420675948