/*--------------------------------*- C++ -*----------------------------------*\
| =========                 |                                                 |
| \\      /  F ield         | OpenFOAM: The Open Source CFD Toolbox           |
|  \\    /   O peration     | Version:  v1906                                 |
|   \\  /    A nd           | Web:      www.OpenFOAM.com                      |
|    \\/     M anipulation  |                                                 |
\*---------------------------------------------------------------------------*/
FoamFile
{
    version     2.0;
    format      ascii;
    class       volVectorField;
    location    "2";
    object      U;
}
// * * * * * * * * * * * * * * * * * * * * * * * * * * * * * * * * * * * * * //

dimensions      [0 1 -1 0 0 0 0];


internalField   nonuniform List<vector> 
19631
(
(4.976280814242267 0.02759355444562346 -0.0169878601125592)
(9.460042490389098 4.429265241510383 7.906206678470937)
(4.666995699522036 -0.607735485983649 -0.0611549399586919)
(3.345720400817898 -0.02830253899184733 0.2003269127127079)
(4.972430106308963 0.0008529547966066866 0.01277899938952804)
(5.100155624874647 -0.0732255726729856 -0.04522510633636593)
(5.040678222863671 0.01807821071736206 -0.01990337972295287)
(4.699417952005635 -0.0254784109725763 -0.2607693968158057)
(4.974206890488157 0.1556336890559589 -0.04927330365872675)
(5.038623096919908 -0.03594681609557631 -0.03110013299500525)
(4.934049821588772 -0.04527994674616259 -0.04822498487868661)
(5.037198311442981 0.05536078000384027 0.02825028706795077)
(1.861300152310736 -0.07928461275977433 -0.01447592430096769)
(5.062272806237348 0.05905481886318291 -0.04487046868155834)
(5.026353029915192 -0.01922309227805497 0.02070185994632402)
(5.033195815376963 -0.008519944436182514 -0.02681847783638105)
(4.848359402706017 -0.1565278600635096 0.01965013289136457)
(5.029147807838869 -0.01000516414246762 0.004207086170011884)
(4.967189439000812 -0.04195226074913495 0.00213927480205165)
(6.34973426429293 1.654398883462713 0.4215159856877003)
(4.905303713345027 -0.003555850200934799 0.1146219550754523)
(5.296432594454815 -0.03943113452344923 0.220214852342092)
(4.834096455846697 -0.03534631821195623 0.04801484104273716)
(4.960392617897279 -0.2021237431279337 0.2492081635260559)
(5.058892480964301 0.0104668770083591 -0.01418604252114624)
(5.027460384395316 0.01419279217622394 0.02278901150070339)
(5.068255624251628 -0.01125602231759336 -0.001235723495194502)
(6.426753433841718 0.9358756876546243 -0.2452107028658747)
(4.123519027925023 0.3791807503099182 -0.06511304831029278)
(5.001150485510422 0.04744420645720092 -0.02806480252039937)
(5.017747211363636 -0.02353924368087428 0.00918714568221681)
(4.880991075894229 -0.1994991275784382 0.09587491356328627)
(1.444824594570228 -0.9200420510836378 -2.370476582500539)
(5.035889349660633 -0.001371042239519985 -0.009977781048482251)
(4.989015277024383 -0.1729716527058841 -0.06732063801566349)
(5.046871085815244 0.03330800892259766 0.03254587505198836)
(5.02658669399594 -0.08900966168273333 0.006685547622086519)
(4.949620643710986 -0.1288734326374307 0.06033862202317485)
(5.045558391037248 -0.03606364390405352 0.1029485992625727)
(5.04650937319458 -0.08829747646143941 -0.09565659646347253)
(4.786132125311078 -0.315649794575502 -0.1435169166639319)
(4.005034841806393 0.03419837794478016 0.006997681855278106)
(5.086637390596145 -0.04312579434808236 -0.005637971156599688)
(3.575647031337096 -0.1163564086457354 0.00238211131550757)
(4.758539810564269 0.04106841236821022 0.2348731223609472)
(3.247264006391481 0.1885244956113845 -0.1680303026811914)
(4.400187271624394 -0.2199132790915904 -0.02737053737706541)
(5.033265990335249 0.2798294914464169 -0.621999994090325)
(5.081742803578526 -0.0337325570956884 0.0282405589774184)
(5.028055123342976 0.03357882559665832 0.06975569099634457)
(4.93170464465903 -0.009622570329457064 -0.0156972540142023)
(5.038146347339448 0.04821193773668227 -0.04112580735398829)
(3.941961422079262 -0.02130880824500834 -0.08639025603577782)
(4.981840771215134 -0.05628682134014886 -0.0856135035129625)
(4.969328977152891 -0.08115060537286332 0.06028422487576936)
(4.911736214030045 -0.07412216250042718 -0.0959670581428346)
(5.049586268882943 -0.2521776964030191 0.1612349030422347)
(5.037289523502444 0.01496499869745434 0.02318823059722655)
(4.95934666816927 -0.01760523446432077 -0.1443815592642463)
(3.520559635258987 0.176741305561624 0.08758275401406947)
(3.726545205473305 -0.2526234611141497 -0.01103684403235393)
(5.117704560582581 -0.1825930889000177 0.2457210528062665)
(4.912654726734134 -0.0630198358780092 -0.07205865414446334)
(5.096388306060241 -0.05591023453805038 -0.03791863805659204)
(3.764093077813018 0.1254388151661801 0.656431032644607)
(4.988521868835711 0.04111310025379226 -0.6232126077932006)
(5.043954872892473 0.03558048036578006 -0.01939307657936168)
(4.906757871652336 -0.01272008842657653 0.01932230354020862)
(3.33118622670569 0.03684738214147051 0.03808320023955068)
(5.0036414225364 0.04219042364480608 -0.01803347723940077)
(3.58465471305781 0.08808602693600598 0.05937546832720199)
(5.109257582857516 -0.06751600361140574 -0.06138062332574993)
(5.106785387997624 -0.07773804273980767 -0.03513656607512639)
(4.687270175877353 0.3779480332547078 0.02698093445354404)
(5.031637947226564 -0.02092662869943537 -0.138546264346774)
(3.663635833840455 0.05400183692344889 0.06011500685430965)
(5.087104712678243 -0.1008848641845539 0.03874405271755982)
(4.617551937128495 -0.414466468434955 0.2907822368997524)
(2.116377623459748 -0.5368863712911903 0.1360859551161485)
(5.057377378747783 0.02859565033108563 0.009125701308794351)
(1.904671287753069 -0.2974580614282274 -0.04531438105284594)
(4.592064595499381 1.640210600584247 -0.2166122653817643)
(4.313022704119924 0.04199204098062911 -0.0501446366359648)
(2.95650106521611 0.1611711373266371 -0.1494269532642858)
(5.067629056950793 -0.002690464949341222 -0.1179376764609093)
(5.130018303926134 -0.0780092761168984 -0.005185118942905632)
(5.100136545397867 -0.1165633272411362 -0.0333450137277916)
(3.260258107836212 0.1932215233314163 -0.01246800624664977)
(3.386636179104701 -0.06698731764034772 0.2706583189889777)
(4.252634486634473 0.05205928739020799 -0.1165351105950182)
(4.959008141141076 -0.1008277570520888 -0.1192983509034888)
(3.956145803180346 0.007559894109350302 0.06589195001844349)
(5.302259867290084 -0.3953539660498592 0.5548575658778775)
(4.989623531683018 -0.06035253554079664 0.1734189276494454)
(5.053236039322919 -0.07154143553574301 -0.02547224811338427)
(5.06114474862976 -0.006953981690210826 -0.01328482074449053)
(3.808643372329401 0.05253963304149364 0.1081199583862457)
(4.970418176228469 -0.02582927441435292 -0.2285905497800364)
(5.110942935652804 -0.1118501485419695 0.04705859740120375)
(5.093420363492472 -0.06930150020404983 0.04646377720692395)
(5.037366930569259 -0.04860156547804436 0.02309858943742448)
(3.139513425427595 0.2690243324325892 0.1450563429882864)
(5.050435242367625 0.02075226448777849 0.03883128148292267)
(1.563265813333184 -0.09676610946633918 -0.08302395754975479)
(4.652312972601578 -0.05151582495190153 0.1061342817985211)
(4.791872659021875 -0.04204845022358201 -0.2202700700155898)
(5.05932738401876 0.01403644539084384 0.004644086137489725)
(4.03559898070625 0.08206117462861065 -0.1461468023004064)
(5.040335176712655 -0.02484696831977648 0.01633395510841491)
(4.94481071877349 -0.03471006708796182 -0.006527210684466475)
(4.952934766468807 0.001033009643619631 -0.004442486248844852)
(4.324274992320991 -0.006630245881547411 0.1576012768788944)
(5.011426933638191 0.0007901321234392999 -0.02400138261304452)
(2.519466049642316 -0.1002014479248268 0.07631952747009894)
(2.914661813880143 0.231889461929617 -0.1189146238768936)
(4.946998401454725 0.09830093857607998 -0.2093102985445546)
(4.600147871648065 -0.07352653027358473 -0.07729327785209417)
(5.017543932883481 -0.0191678009394884 -0.1103369254269438)
(2.441976874182118 0.1505183762168282 -0.3469292094780089)
(4.961143324926934 0.05194851274040727 -0.009636101024745436)
(5.109721522715434 -0.2759688331674621 0.2890544884774561)
(5.031934600040027 -0.05379068797342174 0.02496021432338449)
(5.029805705521606 -0.01739253949249423 0.006146833465156648)
(4.869497483364443 -0.09069736625917164 -0.06130860116145666)
(15.92172025805225 3.762288159021345 11.81475136012175)
(5.049685312627583 -0.00580490884997543 -0.0005597014063839801)
(4.296215015498064 -0.1298569295626969 0.3043995659705583)
(5.024831836349341 -0.004871011586084758 0.005035618691601259)
(5.024450120455434 -0.02662408546392616 0.0245734310998767)
(5.045404470544933 0.01614991737635298 0.02870726254862416)
(5.438484412341019 -0.7144970069066858 0.699480755952962)
(4.098086900301435 0.009384673777889102 -0.2206788115729599)
(2.980405760050174 -0.0240768331393637 0.1688327144240492)
(2.904478206773681 -0.1376351651737298 0.5971626681975746)
(5.041681806151069 -0.006466323907251078 -0.04401065334791181)
(5.063620202881076 0.00453055339051487 0.004815436399779683)
(5.051427184994012 -0.04133980680158471 -0.04172265783927164)
(4.41178370965502 0.07832451501047626 0.1158555056129882)
(5.021617785100499 -0.1721488836948739 -0.1060342168582326)
(5.065238138626036 -0.007919368812372403 0.006069768640506804)
(4.809615080502241 -0.05274249796226132 0.01555406408829445)
(22.12459943224885 11.98562466889159 1.077920996043748)
(4.932127055644736 0.00212598535143775 -0.3443811643680812)
(5.119958230724946 -0.0898827685350722 -0.01401620671608333)
(5.07794063890548 -0.01885765592960585 0.08352546672127374)
(5.049665654639307 0.0003690775766564691 -0.07127027487402464)
(5.030827641067453 -0.0005474012142242526 -0.05815448322164928)
(5.042074759725002 -0.04917248877355374 0.01833915921096422)
(4.896987147880081 0.1139156724219624 -0.3992132492690892)
(4.444604139095417 0.03252791617308363 0.1389159484047625)
(5.009977430721594 0.01240473093040283 -0.000700285298903336)
(5.054074307806962 -0.05024942628329818 -0.005547762853297705)
(5.054288668726886 0.004624800049430212 0.02948710353754425)
(5.056881995294421 -0.01818938295579894 -0.006662673322646473)
(5.008307072812811 -0.00754157629845554 0.01728189411347216)
(5.055697756351601 -0.003340465100288298 -0.03406654868477865)
(3.071482245218207 -0.2071057091482564 -0.1447066442186541)
(5.059027708261368 0.009161300025074275 -0.06726173042563846)
(5.087022228830857 -0.07531580957635445 -0.06298514305079138)
(5.058549818338462 -0.009402125652873038 -0.005392879773379385)
(5.014428279387666 -0.007525594194547707 -0.02351476257744993)
(4.966467284639796 0.09510477850421666 -0.030494511105132)
(4.14810372849471 -0.1385244894774172 -0.05704046119755394)
(4.888845779929747 -0.1860611570583012 -0.7207446871786671)
(5.043264447915688 -0.001268931772830035 -0.002478706456877127)
(5.03221271684213 -0.005389779966621877 0.008259682118648137)
(5.033037647044094 -0.01077877380016819 0.004800078627827224)
(5.029460887880515 -0.005386109976048763 0.001156943984779869)
(5.253670831385309 -0.1042574293262517 0.07980985106494776)
(4.31233507525757 -0.3507409062626108 -0.01153228471826447)
(4.977108269917847 0.005639062373476008 0.009142626137884325)
(4.822052639155042 -0.1036674161840641 -0.009012627211282492)
(4.944163639220461 -0.2237841237885879 -0.2107424328048249)
(5.29842072750739 -0.02637245147975642 -0.8898655413201422)
(4.926129058383967 0.1648638077346273 -0.477359584166292)
(4.513004251990668 0.8870823791215353 0.1986192657234473)
(5.014847370855368 -0.06909437794673422 0.09406180083839966)
(3.575884879761583 0.08825697149530787 -0.1112861314675889)
(5.0483475905444 -0.03047487438601954 -0.02114196266492784)
(3.934970530904391 0.1097438724571508 -0.08858833993986602)
(5.037048076414687 -0.244847153111204 0.1308581275297395)
(4.982631462320144 -0.03671525825552167 -0.04427994991938774)
(4.762546938606957 -0.02146992206213913 0.06600786750646581)
(5.101710002828391 -0.03858145965496296 0.1731223281854493)
(3.368007208177735 -0.03767421617419474 -0.2303756710118406)
(1.939613126103399 -0.2178682034798984 0.08762434446208191)
(3.92211539357405 0.1630075551427753 -0.1958488447194795)
(4.981939171982755 0.006057053990549796 -0.01986344385932564)
(4.678799168842109 0.1608654949591913 0.3542015137158457)
(5.037145722631045 -0.02449375682292791 0.01643598768140965)
(2.466463282673407 -0.08301702647141383 -0.01102698053225465)
(4.994966045914689 -0.03229064247702567 -0.04929397139738265)
(4.783621110696441 -0.08446735312219772 -0.07645273758337923)
(5.029542498632768 -0.01152529418157001 -0.1267243834691476)
(3.61993181677092 0.134948239835271 0.01105165942829279)
(5.100414360788903 -0.1448732961460726 -0.1351641176933212)
(4.998654109727078 -0.05641302666062536 0.0243926590565652)
(4.70392203792105 0.02021444219915295 0.1242873454304084)
(2.541772076475743 1.083030391471854 0.399858750190773)
(5.040285817210612 -0.2518492695967565 0.3379578302004488)
(-0.7762976854155628 0.2702770048801237 6.076634815114718)
(5.045244466562171 0.07561501482578875 0.1691791699695533)
(2.400665033012095 0.02456052334162946 0.2940714011130612)
(4.181425857353422 -0.05076645157520484 0.2137618050167077)
(5.03439073501693 0.1230459153867498 0.02276886957485278)
(5.008490274387304 -0.01286828225532758 -0.003444059590269897)
(4.92787698061658 0.01164309831060253 0.00614544899841237)
(3.307633964957006 -0.09939868251113129 0.0782149964385475)
(4.791194531064993 -0.6152584908523537 -0.1796284663545837)
(5.040998752973679 -0.03353208884210045 0.05515376196430944)
(5.072733097306656 -0.0458187822719275 0.05726601341760339)
(4.90950022414495 0.09557440449260572 0.01821611025346799)
(5.00460695499136 -0.02081978421058309 -0.05306994336552042)
(4.94840431676931 -0.02116430122210209 0.02304473248227433)
(5.056783629985693 -0.09781645926899586 0.02363542457964289)
(4.056379757424578 0.2643247274655366 -0.2721489849663513)
(4.183192029762864 -0.1307641202825172 -0.1677127267207149)
(4.796826086801784 -0.1172252523691146 -0.1005404051212783)
(5.145912875657342 0.1160019461755519 0.1825780117057073)
(4.817081781633678 -0.4175799968447022 -0.1703326264090689)
(5.005529614346512 -0.005486121881797152 -0.01451742412637672)
(4.890495158895955 -0.08347671111244599 -0.002246382701926367)
(5.1282363659157 0.4300281477903453 -0.06139295382864989)
(4.994793904379074 0.09316870796025196 0.3109853221377168)
(4.762502386506454 -0.1185578733962244 0.1700095932882911)
(2.636860671955389 -0.02507337857710188 0.1942857618937605)
(5.060716170036317 -0.06371547410937205 -0.005844578734445501)
(5.089173611972824 -0.019550840481552 -0.02781607542904653)
(4.627991588805691 -0.1116399015174245 -0.001729513074365934)
(4.627564476742169 -0.1165811794282775 -0.01423586762559178)
(4.701406468669604 -0.02699187805794662 0.09062341095939874)
(4.721747029760937 0.08798947084100942 0.3276534176513485)
(2.37669423257585 -0.02207726716397496 0.05526459752911251)
(1.821289659413426 -0.1554970206054316 0.06409649677913923)
(4.907809622931205 0.006868404980860116 0.02811955780869526)
(5.051993885013695 -0.01163681437598873 0.0821988727279072)
(5.05251958026053 -0.02786745940168894 0.1808889444675783)
(5.104534949957586 -0.1097066923201769 -0.04344984899743982)
(3.865983715177558 0.8651143859068768 -0.8671250257384787)
(5.123453667320526 -0.05343254628307099 0.07430683230557486)
(5.067259422970539 -0.004032877821669255 0.09464701142148718)
(5.122702397903356 0.001481820325648252 -0.002606846072622976)
(5.78234470460469 -0.1156250861280032 -0.7287401889261372)
(5.003937996323584 -0.00310058294919127 -0.006282178843133276)
(2.463252520047413 0.0346467735952958 0.03941735760482861)
(2.490437440172295 -0.07745449815290031 0.0284071584680728)
(4.987481410113035 -0.06325991697138304 -0.04074318111360449)
(5.123430659560949 -0.05074273514781686 -0.04132913191379423)
(4.048899745379313 0.180113533262558 -0.1466088837269276)
(4.398899215881761 1.401725743168635 1.39495599965555)
(2.331886212700692 0.1295557856513576 -0.07789083797505653)
(2.713808228071247 0.1649023119513294 -0.1037001761401532)
(5.125652554113819 -0.04389237362043558 0.2396700597895812)
(4.825115081312398 -0.1949788736688799 -0.01693414022316494)
(2.052955089869117 0.0162592265892557 -0.01246769148579899)
(4.906219982300833 -0.09257129835522621 -0.1712722620223836)
(5.053393617512034 -0.02902442573463425 0.08240990998616241)
(4.226332668025524 0.04077568131026713 -0.1364949713321401)
(5.146191402974083 0.1039306870356235 0.1261830690412031)
(3.887664334057122 0.02544338894414427 -0.2079144199584541)
(3.890773386246575 0.07583435699198159 -0.07509445085784471)
(5.161154031384184 0.01419236307996117 -0.1623165266481478)
(5.094036085157892 -0.07447480841251838 0.1344501940226378)
(5.830362426656298 1.01412500898536 -0.7316272235343446)
(5.325878498024434 0.195461847223514 0.3141446111816176)
(3.992580590112695 0.05147721793660868 -0.08562454326915367)
(4.387843951169051 0.007330574913477104 0.4505663074161447)
(2.737691723735031 -0.2549761849977264 0.07583537404954864)
(3.81025257424612 0.02045929682098767 0.09352333669830941)
(5.120887669830158 -0.1738387496131218 0.01089039391046464)
(3.684697591478259 -0.7017480204204875 0.899965082993845)
(4.808070284740742 -0.0993616781971812 -0.06615457291222196)
(3.455391547866307 -0.06729795618211239 0.0409127584424757)
(4.838641536454856 -0.1146007558936317 -0.0358391264708405)
(5.124748816648097 -0.1028548432709583 0.07191253022764035)
(5.140419317576442 -0.06524580341526601 0.003567846981613273)
(3.747739991853455 -0.134216564849918 -0.1044027054338636)
(3.14460766266244 -0.4681198753001111 -0.1539713833169644)
(5.05026770279647 -0.07266438867826547 0.09026060989688103)
(4.984615236014445 0.141399155997867 -0.05345290541486233)
(4.286163947496727 0.06409019232687263 -0.01031831450622349)
(2.728253996869753 0.02102398775492471 0.133436758248527)
(5.037218518652807 -0.03133307274117601 0.007925661907955845)
(5.01886186979739 -0.03565118779401499 -0.02087073851846287)
(4.530281308163405 0.0755427048947024 0.2492431455242003)
(5.055882440035047 -0.109880825301669 0.05640239987662368)
(5.00727723379307 -0.001409031345435554 -0.02598285936019796)
(5.122098109052635 0.01582138407010814 -0.02974838664383613)
(4.675712837384418 -0.2441362881282551 -0.1762267671942379)
(5.044376589588872 -0.02627867039980912 -0.1087191097597985)
(4.785440096721279 0.05734041574960885 -0.2176659873968309)
(4.574528604674352 0.07793732020821632 0.1982964858555738)
(5.007707333821712 0.08872960469598666 0.06393662682514129)
(5.042590931730367 0.004240260318946373 0.01344620432973128)
(5.00661932134117 -0.007082414667218185 -0.001162698277482641)
(5.255464293124312 0.04046013086022082 0.4706138938977573)
(4.721096376368013 -0.2189735763223149 0.08867310891614313)
(4.13144709456679 0.0216961973312952 0.0872161734987391)
(4.638340421625997 -0.08248532867795304 -0.2828892804672274)
(2.724669516058648 -0.3325667252493342 0.09177693658718408)
(3.681514884853723 -0.2625847394980944 0.05722715167178022)
(4.860363842032664 0.4706330085090193 0.2054373680812201)
(4.917403292230313 0.02256929670106327 -0.007070003763580178)
(4.897731284098033 -0.1727189748045222 0.08720807013547081)
(4.315997571165299 -0.3172950145758699 -0.1729123150257193)
(5.054432817784278 -0.02133265865597371 0.04581750157581277)
(2.073601846235715 -0.5223435867080777 0.1443806501908255)
(4.999607623564437 0.01021235574096296 -0.04832714018872497)
(4.95967256742477 -0.03007900601949746 -0.06358025260912431)
(5.035749398584475 0.02993720287275154 -0.04053432131291275)
(5.034132096799842 0.006031802384429109 -0.004956565533361794)
(2.352743539302502 -0.1324853323350446 -0.06761651994338491)
(4.677664421197481 0.3379616167419759 -0.6643510051554566)
(5.086122812483551 -0.03806932749509533 0.05631696340952188)
(5.049363952689828 0.02477321192480882 0.01926328921487052)
(5.045359469530413 -0.08657036749735363 0.003377459413194249)
(4.976902580453141 -0.004537396098101805 -0.00554534555495912)
(4.980413433918426 -0.0131402938903425 -0.0007079880164471998)
(3.686306333325156 -0.01564789179295729 -0.1122195655365966)
(4.988664987139732 -0.01008652158281937 0.04056109481186164)
(4.823800054496814 -0.09232432582845178 -0.04990455935132383)
(1.176618626332562 -0.1707021266891141 -0.02223258474073112)
(5.002484312819812 -0.1101450487825731 -0.1351258534362592)
(4.517958994230029 0.1581915183637873 -0.02899672479178089)
(3.728992610656423 0.03488006372536708 -0.3040087002881415)
(3.69814382045353 -0.2656162675011973 0.1237702210888827)
(4.89122263834777 -0.1756654076524253 0.07638102421196892)
(4.226022338441445 -0.2680141599566426 0.168628486950482)
(5.142666438206579 -0.1176165280363111 -0.05443154407209694)
(4.92720486531819 0.03031920694887659 -0.287118028843297)
(4.983393085070959 0.1065195584644422 0.05714907944198958)
(5.026424937929482 -0.01283680677058539 -0.06598498995371739)
(5.020183382218669 0.0600243469256341 0.1131007596584327)
(5.00363001196293 0.07111693799334773 0.1220113207664819)
(3.757914151083928 0.1071372599519346 -0.05032571541393462)
(5.00891031193217 -0.001726113363739195 -0.1000440354026193)
(3.343851584708194 0.1607609444185947 -0.07872808140748941)
(3.998314290918431 -0.09705806370122538 -0.09933916203512089)
(4.958450810938332 -0.04515996058684229 -0.09481481079855288)
(5.079997111172955 -0.04006834605442196 0.0383534755833814)
(5.046454490295774 0.003927748976767562 0.03195234922572106)
(4.652198250676776 -0.0768019123012432 -0.1847922489117862)
(5.073778435247666 -0.04843879493867344 -0.02479433787809415)
(2.663922982027132 0.1832537791507267 -0.5565266413770562)
(4.650231889364997 0.1037200821395956 -0.0627681747571613)
(4.075030109631867 0.2167204999840754 -0.357768923382845)
(4.913922953820077 -0.03164242634373451 0.1222629062780264)
(4.983493527349295 0.2011899045158341 0.212111130712632)
(5.08182065435469 -0.05847706728245155 0.04283388379696308)
(5.098683534900581 -0.2114951193057148 -0.09314002132297723)
(5.110726726794228 -0.01501028622268702 -0.03160017196430893)
(4.811467251734025 -0.1530750050720458 0.2236106822858076)
(3.171250477869566 -0.06195110552915942 -0.2080407643430911)
(3.365242145262445 -0.1122025927229776 0.04699514035114732)
(5.055052246408112 -0.0370096126499352 0.04944594543423254)
(3.544979781833637 -0.2628674170150898 -0.009721890430987043)
(5.067528482611023 -0.007442305910753276 0.08255112437770412)
(4.250535862968482 -0.1162254626795717 0.08867721417682602)
(5.085687147029087 -0.2711864654570099 0.2056091788449131)
(4.833730840068371 0.06204034763220571 -0.01431452946286907)
(5.095169334767056 -0.03688053132106793 0.01696708538865841)
(2.601323205460937 -0.5434893113371887 0.5864637278438509)
(5.00624266212779 0.1497731945267419 -0.246210928992148)
(5.158474405263719 0.1782520794986247 0.06884773018010652)
(4.948388727500094 0.2609406717031291 0.04614330464294773)
(5.068065154539257 -0.02411090135679354 0.03561238535950276)
(2.968708833853876 -0.3927848102789576 0.06492943759806902)
(4.853067320996652 -0.1990766279995834 -0.2875244416625015)
(5.054582316240825 -0.04999531939886376 0.0008053604202023362)
(4.86935800256738 0.05643272255674502 -0.1290679252522692)
(4.939531598130319 0.2002244736031543 0.2163444152011433)
(4.773365031893243 0.1109997442063916 0.2924483166848742)
(5.001547588312492 -0.04256241864957439 0.04654392051358561)
(5.009253877206429 0.02909747017883919 0.1415796053357188)
(5.082622267015058 -0.02662552455953175 0.02414516916370279)
(5.006049210787212 0.00615166250503775 0.003913170411599062)
(5.40229986542698 2.142564685490996 -1.077578120747926)
(5.030342620933319 0.00975167189934118 0.01597383337660363)
(5.07788390261572 -0.02446665532903801 0.02036712408575654)
(5.036163433115897 -0.05051199239508456 0.00110524449827754)
(3.448817745001427 0.114083019806379 0.01544043360437341)
(5.029856841382144 0.01429729977644378 0.01084521073866893)
(5.006101683576687 -0.04255062256615231 0.04774188761424842)
(5.003258436505036 -0.0537956145736203 0.02060092369795614)
(4.654031267968387 -0.08623692985913792 -0.0234378491848752)
(5.271803098717467 -0.5055773680121814 -0.08335983015512449)
(4.853081301820583 0.01357544812603452 0.1555955254667305)
(5.002255977203744 -0.05994950136666143 -0.07974665328554657)
(4.93089005557671 0.07920195259583498 0.1436283185600687)
(4.431647897927403 0.02318017036823119 -0.04218218667057317)
(4.543532010951947 -0.002944840003133779 0.08180749333828591)
(4.980024218462153 -0.05854410573009222 0.02245085179464394)
(2.142842507138498 -0.2147717025826171 0.01933069249262083)
(2.295688935239619 -0.129731158448472 -0.05173276801924497)
(5.059008132529446 -0.06987981041707646 0.107013103806387)
(5.009712517411734 -0.002907013715185447 -0.0115988753332288)
(4.995102517544806 0.01078087440738396 -0.0002268609215554135)
(4.568729104501293 -0.3555373214758905 0.07159456725303037)
(4.490583780501755 0.5012949575272028 1.364537634129383)
(5.042002853309174 -0.1678344189899979 0.1989896738772596)
(1.691730484007966 -0.10555902499713 -0.1254214094012385)
(4.852476014839024 0.2498888979323438 -0.2625484579704012)
(5.1392248292066 -0.2129322263041125 0.09850884693779209)
(1.985284161381822 -0.291768378392695 0.02100845596084195)
(3.805824936483678 0.2670916388432322 -0.1989621571010792)
(1.359803553506431 -0.3130209111072497 -0.1657367043266073)
(4.164062646245523 -0.3851677793537239 0.1152249439065743)
(4.755485412928691 -0.2701968519517065 0.188324919926833)
(2.096138058641846 -0.2516825192786483 -0.2884927163236693)
(5.122507043565864 -0.2560649464746321 -0.2418196333817042)
(1.702184687399882 0.2139595520709802 -0.1479283561480918)
(4.397365280867598 -0.01536237907768175 0.02989099477687808)
(5.020436925157691 0.0656114473913844 0.004778783768198002)
(5.031911187742673 -0.2445961563388902 -0.108980235011733)
(5.1279773660783 -0.01849444312807174 -0.005717928892271495)
(5.084713100114177 -0.1248350967988339 0.06269702990515284)
(4.085706691084331 -0.1580546975803402 -0.183314160360731)
(5.068389124319856 -0.04351669311707336 0.1244630549802147)
(3.650725857659381 -0.4610303280449151 0.4367957636674169)
(4.000812170980604 -0.1733156940309095 0.006897537432215738)
(5.101258804455233 0.01981280298763802 0.01807305837983304)
(5.019749741233674 -0.007212666372373369 0.01233330662189196)
(4.892023328837361 0.1783939677985304 0.03059889253960049)
(4.682213134123538 0.007015717038532506 0.4959142128239017)
(4.991612296178088 0.09848480345721053 0.04217397090369908)
(5.098722403820645 -0.03119102013973979 -0.04994537007332293)
(5.107863173687298 -0.05342448698872616 0.08689209425672227)
(4.720945604851307 -0.09267184149989488 0.0488341716499541)
(4.97577240220633 -0.04687069300724776 -0.1457380909731627)
(5.063603523784223 -0.01887956815177769 -0.001308113855329868)
(4.953765830923667 -0.05323053779184023 0.09398816880402372)
(3.439548282995299 0.0959793202766662 0.3550792725019072)
(3.538057163697351 -0.07035299985989897 -0.1550972405630469)
(5.00886817841024 0.03838033084212103 -0.03843786455790312)
(5.054573776907135 -0.1850359320340082 -0.2059049440171944)
(2.126289301098784 0.2750401069239807 -0.5625426095571548)
(4.993838909639777 -0.002356390116759315 0.02254975042826208)
(2.528128881845496 0.2541499433045945 0.3682174472486672)
(3.579963208608276 -0.007497745092779022 0.1911921561622942)
(3.043589717723141 0.02386317461690793 -0.4957293112480498)
(4.999569823272305 0.01639312268046353 0.01125038412568275)
(5.070243500230244 -0.1808827837953456 -0.1869037148206505)
(4.635634296606366 -0.08738146543923436 -0.1279053766545937)
(5.120635898771237 -0.1368059131341229 0.1691295471187423)
(5.008750116526812 0.01162592652497826 0.0006674293438564202)
(2.526084015079999 0.1802258168522775 0.07242154976910332)
(4.961053590518087 0.005500239711479167 0.02096445010962502)
(2.127978603443298 -0.03704899288942756 -0.2336531449750961)
(2.104521001427245 0.1201249686374536 -0.09560998416356249)
(5.071167625455018 -0.04540212503851463 0.03691423103986487)
(5.010465383237384 -0.1749784276770478 0.2158775822776029)
(4.847864067222841 -0.2171743279573324 0.07863795261577303)
(2.093638247581021 -0.145043980449803 -0.02259367066962745)
(2.797288710717512 -0.08751883663369218 0.0365162953236257)
(4.977690530011786 -0.009088269789387295 0.008992430856139178)
(4.982789604195475 -0.00651015299963242 0.005409145823910928)
(5.027736049936508 -0.02727232747404727 0.01156977927754033)
(4.935118828631964 -0.1107766019592527 0.1024636614468505)
(5.047181303282144 -0.1665049795337372 0.07898462064272123)
(5.430253442492618 -0.3511959772153917 0.3014492324337376)
(4.712543689329486 0.01275568476300419 0.1386174796232238)
(4.87952222688096 -0.009344353220894249 0.1861525638405911)
(4.103381188209968 -0.7851024704776808 -1.790160653453104)
(5.030982219095964 -0.05239569615759375 -0.03318611869411614)
(4.374779645718593 0.7573093819943132 -0.3946647027151226)
(5.070943864946528 -0.02460185326116884 0.005067944331264863)
(4.509929235864509 0.05488375688621346 -0.3513306217405872)
(4.464964913277554 0.2442840401210083 -0.281846188391521)
(4.899696972337031 -0.02233143883099037 -0.02899973867018417)
(3.525114198428089 0.1279497384719984 0.01963598180312397)
(3.730482824395096 0.2417649997753022 0.2616876326477878)
(4.915198232137655 0.08294463859898793 -0.2660136860555317)
(4.997993277406505 -0.05092723787484425 0.03886049616592563)
(5.014501332643996 0.004831931878502909 0.003248972253287078)
(3.016607269431927 -0.2390092814491543 -0.1859193779686951)
(5.091449723120158 -0.02773832441794166 -0.02630172621081693)
(5.067760287072833 -0.1043219553587951 -0.05903040223042418)
(3.806018962290266 -0.1592557470600349 0.04556928767889513)
(3.003270915217036 -0.05760808072910646 -0.01578598523646173)
(4.600591069500906 -0.1091141812333364 0.3707213764544072)
(4.501200476466917 -0.07703290316732118 -0.1361402024105513)
(4.403066582666692 -0.003725246474203718 -0.2452004465699685)
(5.000913862460318 -0.00834975468638407 0.02476825819999325)