/*--------------------------------*- C++ -*----------------------------------*\
| =========                 |                                                 |
| \\      /  F ield         | OpenFOAM: The Open Source CFD Toolbox           |
|  \\    /   O peration     | Version:  v1906                                 |
|   \\  /    A nd           | Web:      www.OpenFOAM.com                      |
|    \\/     M anipulation  |                                                 |
\*---------------------------------------------------------------------------*/
FoamFile
{
    version     2.0;
    format      ascii;
    class       volVectorField;
    location    "2";
    object      vorticity;
}
// * * * * * * * * * * * * * * * * * * * * * * * * * * * * * * * * * * * * * //

dimensions      [0 0 -1 0 0 0 0];


internalField   nonuniform List<vector> 
19631
(
(0.009356632207733357 -0.004448539171269974 -0.003707210671686044)
(-4.866414144224709 11.33521512831869 2.559179078746572)
(4.196127184344466 -0.09674491948809444 0.6868421569814701)
(2.473828584682939 -9.609459378232984 1.138649215335675)
(0.03279939808081488 -0.04155170045420892 -0.01844018705923493)
(-0.07297180596042761 -0.02929699773253352 0.02849329180085079)
(-0.00273234280833946 -0.006089257937568348 -0.02074591207557262)
(-0.3959676544741291 -0.5384247690783852 -5.597156293067918)
(-0.01518456760221411 0.0106201708852321 0.03243498714725269)
(-0.1169066534949983 0.001696828723132517 -0.02921629541675367)
(0.1163854954956385 0.105894350562987 -0.097296979647244)
(-0.01317920206362451 0.01270100172869339 -0.05393275109575688)
(3.27712569198011 13.39781401679739 4.29876922147125)
(-0.02333051502505228 -0.02434074671764624 -0.09533641733147055)
(0.03126104805759455 0.0110162220683821 -0.01193577409104684)
(-0.0611971240431654 0.05470073970483887 -0.05352703508978877)
(-0.1573263254432427 -0.1341946149186491 -1.051420343365582)
(-0.0009483937136696499 -0.006274995794747036 0.005224766627607806)
(-0.04996685138603865 0.01339212455084004 0.03344947786797722)
(-2.247589142192552 -1.508543310530025 -2.113363354013962)
(0.02261899064851713 -0.04359293408862245 0.03414943176594536)
(-0.5230654288693987 1.792993994819637 1.293081067522915)
(-0.03342536093200774 0.06437479613275912 0.1055913933973348)
(0.3769447171057368 0.8105721483806004 -3.200403633685752)
(0.08264354563333455 0.006163714755653874 -0.02813856929887563)
(-0.008074725472248486 0.02366602285987865 0.006002225371813358)
(-0.05274814781240198 -0.02385562616056715 0.002808620051371499)
(0.2779101517682404 -0.7601001806764274 -7.354081071996954)
(-2.018068834566877 7.024469215771497 -3.069168202177052)
(0.450858522006509 0.1021808455135813 -0.03903787483365648)
(0.02174849504627378 0.007094089566537897 -0.03310930495109746)
(-0.7186119023964953 -0.9478068673851345 0.08125483147946874)
(-6.666056483822223 0.5632094755109303 3.571460567080038)
(-0.004348452563445739 -0.01121726397876223 0.05448094713821006)
(0.5181502376056586 -2.71026689191573 0.6151495567838658)
(0.09723824667926978 0.009392776660206676 -0.04025159481489243)
(0.02987365922073017 0.07646939648192884 -0.2044977350232444)
(0.757464900593976 0.2452785539092879 0.03728168552200242)
(0.16274463042037 0.09226612997325333 0.08351625298287674)
(0.1651394090723794 0.1168371489654648 -0.2430830086303988)
(-1.551921063241172 2.337403329616898 2.003147970600473)
(-3.740282014379704 7.201520169424378 2.623416634637089)
(0.0006991981409750769 -0.01862054503928667 -0.006176961028777961)
(-0.8051165509690132 2.49580344453495 -6.32941211047042)
(0.5438834928995907 -0.2625213197981414 -1.178131053604874)
(-0.6452255698675697 1.438921168602826 2.250944732670203)
(-1.355979878636703 -4.71228318603476 0.2256761125723851)
(-5.107349741992832 -0.6224817301793784 -1.427747911502489)
(-0.03025316830176648 0.04293185441215801 -0.007240668997109172)
(0.03783485556170203 -0.003414114117473461 0.02615776149456053)
(-0.01283291499115888 -0.003261631091110579 -0.07799125597631679)
(-0.1493225705328676 -0.02955712507177009 0.0496235443665977)
(3.092244980764769 3.202564087425411 0.1060484891843979)
(-0.1034385489116998 0.02495431451684387 -0.01999350917444445)
(-0.07511170856597929 -0.489171860615346 0.119020732170509)
(0.8519697029654039 1.099768416082118 -0.09454298171345005)
(-0.2618743651927155 0.8874415687968042 0.04069162051300435)
(0.003536601064623394 0.007918412056468382 -0.005722522808027947)
(-0.936550236079871 0.5579429811381391 0.6372812134589104)
(-3.823433652753151 -5.068193083971742 1.661452854477592)
(-0.01225542343907549 -6.733298285742578 -2.558883359467362)
(-0.9814499841784246 1.052827573450017 0.8281425034091119)
(-1.160579719154104 -2.228285602136632 0.5080766584289889)
(0.05922567576804892 -0.112915890767576 -0.007004770214516336)
(5.172956366410794 1.46415332103336 -6.478937915067922)
(-0.1915513967048132 0.4683742848762551 0.1455822652765118)
(0.1059883229263029 0.005627664586629896 -0.05371259259512421)
(-0.10908222089113 0.2262698346994484 -4.70275178658799)
(-4.704018885426201 2.00539717270283 4.559695974246438)
(-0.02625060171499864 -0.231561807149151 -0.1106970709311599)
(-1.697976456593311 10.03607205449939 0.1749410176893682)
(-0.9328790215465586 0.1156199748613288 0.1557569150372563)
(-0.02791753556082273 0.01222734329121473 0.02526389810399153)
(-1.738848132868028 4.961269133465248 -0.9854523359750236)
(-0.1949549795644508 -0.3759544593263792 -0.3906747012108313)
(-0.4786951046909046 0.7165280516477438 -1.578884717687998)
(-0.03863883996931899 -0.08349087213991495 0.02476799698755883)
(1.925741940949338 -2.805089688190392 1.630938157591438)
(-0.6410108486382047 -11.95270021360189 -9.205192185224085)
(0.02354335716807485 -0.07214433774512002 0.003113208295507527)
(-2.961394608127173 -29.13482095432306 -5.27210988356309)
(0.1908114499979343 -0.1379892001712597 -0.7517884406048011)
(-0.2403561657157132 11.99219287686186 -2.840016066975)
(3.51015599191731 1.742344952989142 0.8797014706083226)
(-0.02436774128204631 -0.1772115338052895 0.1674122987378624)
(0.6025670603321647 0.1726034961843198 0.08539631955827226)
(0.7170761539761394 -0.3344012200601122 0.08119909404691586)
(-1.721687701153432 -0.3753789627788073 3.148305378071799)
(3.072462452811681 -2.770609290728367 -0.6504922397912911)
(-1.206762274725865 -1.696550307549899 -6.028773359958622)
(-0.4805389029680534 0.8687418770869738 -0.2502125671036173)
(-0.9611508279593864 2.220577491707664 -0.9223768815331072)
(0.6349420433664075 -1.276903865722515 -0.7941913367342668)
(-0.9415280337713153 -0.7724416800429745 -1.649890125357195)
(-0.6147507319793932 0.5372889215803448 0.03132064451257988)
(-0.3414557306078239 1.726416872615669 -0.2124978312443375)
(-5.913542984355908 0.8011169132083438 0.9290898448972087)
(-0.1972437371334334 0.003340906865333906 0.137293120009539)
(-0.2721382040658779 0.09054169387494121 0.01814964813702318)
(0.07928813272638241 0.03376046176193097 0.06080335644423362)
(0.1458878899358195 -0.01680774439854023 -0.02887133782619852)
(-5.215183893004093 59.98217913915732 9.182523635693492)
(0.001534548787189716 -0.03990140720473948 0.02199278383505896)
(1.526925287629062 37.31694025464604 -8.924842870820697)
(-0.3747380045230375 -1.162642799994777 0.2321128050419994)
(-1.420149261611486 -0.179229447538136 -0.2483399855273229)
(-0.005865223491067208 0.02804749049998223 -0.00266784092078886)
(0.2633816319433194 -5.240031961996467 3.803174202984382)
(-0.1992558016098716 0.07352123131504038 -0.01052616740985973)
(0.0710961426931332 -0.05437516105711006 -4.545091726341902)
(0.01435883300595978 0.1618624277823879 -0.4072971173511843)
(-0.3854943455446221 11.65015678314297 3.378900712357603)
(0.1012693720359559 -0.006486041515116905 0.01424792086102983)
(0.8270416834001119 30.16383253543268 2.9668337585467)
(0.3444652919226797 2.312489636079176 -3.035977857856615)
(2.727495824592878 1.992954912521814 -1.089389826780171)
(0.1816786175270003 2.102776530170892 -0.9196812952395845)
(0.1227220561833783 -0.1790658469437716 0.3206757900023136)
(-1.906735464370288 20.22864462575247 1.729551128599911)
(-0.006514062598492763 -0.00208378585143095 -0.01857563684725952)
(0.3811216457610662 -0.02429218325184807 -0.1222183600485417)
(0.2444529549488473 0.02049966451818662 0.0349504490210218)
(0.02309208980556021 0.01280562597211956 0.01318878403379244)
(0.3679135034783196 0.396294835798965 -0.5121100489091117)
(2.96364371761021 0.1680044981484641 -3.47111590712915)
(0.1105658186105338 -0.03256760442210237 -0.02055940669538387)
(0.1890948433504417 -0.02786804372784019 -5.242676188108361)
(-0.01061150719341781 0.0286944507325717 -0.02837796899189398)
(-0.002471896854083479 -0.0114477803154446 -0.01562107452360583)
(0.01082296633613215 0.03752215647075892 0.004926282403608737)
(0.5464184704391812 0.6040087081609933 0.2245576686830751)
(1.154188459041417 2.657876212027716 0.4392982160240571)
(-1.813369616412841 -30.27187283231931 3.489198149263548)
(-5.257532597085122 -5.090768051064662 7.029096309113135)
(-0.02151466925312065 -0.004214940470544342 0.0005166676810727695)
(0.03525806983025865 -0.03068097549471265 0.06807370088578968)
(-0.007330169846868774 -0.03345314803935213 -0.04604753838312405)
(-0.006217873026139215 -0.6343425974105048 0.2361579394503544)
(-0.242874024913327 -0.01998226045586857 0.08965002014608586)
(0.02543354088311885 0.06295467322429667 -0.04377790693174163)
(-0.0630850558978112 -0.5365449851070114 -0.4312745206414703)
(2.361783090335956 -0.1877408799328752 -22.82820793172712)
(-0.6084277753751102 -0.3609051874445859 0.9810141684727808)
(-0.6864156836309815 0.2634273589672985 0.0468914626752559)
(0.004528933668168131 -0.02025851473646821 -0.06313212668685514)
(0.03892074499541092 -0.003030459197305362 -0.08936921000785517)
(-0.01108983894507734 -0.003889221669303242 -0.07966085662540266)
(0.06285265244649407 -0.01974674283080347 0.02473264044635426)
(-0.3075090858773163 -2.163214870628838 -0.8109232924412808)
(2.360281934796426 -3.950739985763942 0.9152043075869452)
(-0.008168083429373516 0.002068123821736819 -0.00470305344988891)
(-0.01840940170305015 0.105123373667891 -0.005364644709760949)
(0.08997013757278213 0.02686513616047261 -0.007568811325854331)
(0.07533511427342646 0.04192038213406724 -0.003976696309586209)
(0.04235121021202164 0.01580311008547509 -0.03008278422092015)
(-0.1419622261433804 0.0951972326094746 -0.1027810276428407)
(-3.272452057489985 -2.21186353833028 -22.97668446160153)
(0.1142506033211378 0.1693665349463835 0.023670127777496)
(0.08439878192153064 -0.1416784247434066 -0.07069387472676328)
(0.03534682714545531 -0.01311779357746864 -0.02517922698221977)
(0.02966140056872728 -0.01482395508579067 -0.001684025372382242)
(-0.1515593478390866 -0.03137007173744424 -0.1669215894260621)
(2.124167081638728 10.68588898917773 3.57736572252423)
(0.180860190289137 -0.9710359140681237 0.1566017060850552)
(-0.04503383240800418 0.007948054823877806 0.02295049339659416)
(0.02010895960269534 -0.002278965009417176 -0.01856073391403883)
(-0.0127526316823912 0.01165254820092791 -0.007395785504168799)
(-0.004491991929521776 0.0007922398758892653 -0.01538271882276596)
(0.1296469735685869 -0.2035937133042641 -4.13726047032453)
(-0.2073038711848045 -2.692578829104043 4.087535617343958)
(0.2653093133422319 0.1149253206513046 -0.1995133548986216)
(-0.561059862354208 0.1221067628418041 -0.6706609770613827)
(0.0172823235513897 0.6083615911609229 0.1729484466426982)
(-1.349826045872369 -0.8641373774657921 1.047617459163305)
(-0.4069914046922575 -0.2448436732073968 -0.2364477501722053)
(0.1719956543708333 0.1160917675146927 -12.73261088591423)
(-0.06842289676318453 0.02266792384150876 0.02397349113810378)
(1.50493760135188 -1.720268117723571 -4.548682347985341)
(0.1003318380663384 -0.006594191602461857 0.04737698456514661)
(-2.219462433400722 16.23605178964979 -6.218491835857422)
(-0.05199604353256188 1.442393679901233 -1.488502290913418)
(0.009672689773720947 -0.0325225809105117 0.0002935207137634462)
(-0.1563989436366597 -0.7684328569802175 0.02826057052069668)
(-0.06372858177505807 0.3406796405134532 -0.04012461285347994)
(-0.3084352503924807 -32.57373250400411 1.60779951768555)
(-2.307770788415093 -21.78915317659201 3.074634538889442)
(0.4834343705339218 3.05025157324871 0.2294167294090491)
(-0.006611872491278001 -0.03194447303870877 -0.005564264986617798)
(1.066215077542094 -1.890708941425748 -1.461876086010178)
(-0.01508090365600975 -0.02059423233281541 0.01173535001221292)
(-1.687809449164587 -21.24073956386093 -4.443368448730775)
(0.2386896693778419 0.6593938634302483 -0.1993294994322291)
(0.3687583715832978 0.1873452073934296 0.04225007593522895)
(0.07857321500533188 0.04704116140003972 -0.2001768654162999)
(-0.9559850691373053 -9.682985314905881 -3.179844532352709)
(-0.3359523924289154 -0.2366582368209408 -0.0261513025427379)
(0.01649426115549946 -0.02152880748208754 0.03805198993027369)
(-0.1591332959494405 -2.194591544981664 0.5541130073454412)
(-8.963382635471051 24.95519430478123 -0.8158500446019632)
(2.548145512686365 3.556992043743362 -1.818839104646475)
(2.370037464065549 0.7650909308600229 2.034102813997173)
(0.7831723280499454 0.7374826045629506 -1.153917154479192)
(1.032893174832029 45.63108563374151 1.957359731545)
(-1.407633878270699 6.661958143201283 -0.1467378514056406)
(-0.1203434312198752 0.04217862461972398 -0.1021225307522275)
(-0.03808919221230465 0.009838087758900611 -0.004345250802863031)
(-0.02480309365905578 -0.005432260148903052 -0.02891712667608401)
(2.859223568244284 9.566497662072312 -3.154478625378191)
(-0.3873023460595136 -0.110262498209972 0.5113548105071701)
(-0.07363925218373266 0.08898383352442785 0.02537885874337855)
(0.1543450561319885 -0.03077511944594578 0.03179944775491275)
(-0.3234021153345402 -0.06264591872761469 0.3406313986522821)
(0.06762092053682134 -0.4852867406069147 0.1005136291904828)
(-0.05669168798148317 0.1979145277659542 -0.1031214033263405)
(0.2675327252793251 0.09653684830802901 0.5071075478158868)
(6.322155400028164 -62.54428665408341 -6.076364384302412)
(1.648877612133583 -1.196370300125919 0.1857962072194163)
(-1.605195539157105 -3.729312702721035 -0.6651600134094255)
(-0.1881691335066159 0.2830620170276306 0.004826885823372616)
(2.13230802834169 -0.7614332737217926 -0.7418468821773725)
(-0.01500135312668302 -0.001919064480581348 0.001383145956517134)
(0.5134150665909428 -1.046567912057664 0.3177982657752541)
(0.3334853114641962 0.1185597786839033 -0.1416667762199986)
(-2.396458226446847 -0.3017537028332117 0.6359485362165411)
(0.06027651333187538 -0.04303958230383842 -5.415318936011256)
(-1.54849469145077 3.957654335587007 7.8042334472717)
(-0.05371570987284827 -0.002804741977199224 0.03374208144744508)
(0.007131472650117363 -0.02881515172806996 -0.0244238527989369)
(-0.4439489360278909 6.012987661887106 -2.094936182985345)
(1.819031647005737 1.32078200638235 -0.4052876933755107)
(0.4504601757932216 -4.329698843730541 0.3421757712602326)
(0.8051825125039678 -4.889994907218438 1.166762206049572)
(0.1200319695365172 -25.57026708216878 -3.423183868249033)
(3.201278342835674 45.54064452515836 0.495270524534215)
(0.01717179816889739 0.133945498962986 -5.890877525386188)
(0.1987785429430344 -0.3089837462593658 -0.3155370666433598)
(0.4470535475622016 -0.1890025513753414 0.1505215144427733)
(-0.05944246128381327 0.02511593326877178 -0.1143268014546871)
(3.942627709818556 -0.07939772518370103 -4.497133706748603)
(-0.1685527077801263 0.03556961257935587 0.1047250505617854)
(0.0701492466497315 -0.06911695915116736 0.04620245608649961)
(-0.1278777407526901 0.03535976438814109 -0.1347668133311531)
(-1.789671536754725 0.1335626691312013 1.775757440168413)
(-0.008620734276081836 -0.009822418672757391 -0.006577310359152222)
(-2.183297821313663 30.58108608543795 -4.229230013983442)
(-0.3634074340306678 6.093202803544395 0.5137064618804863)
(0.02026652864536237 -0.03739887052465691 0.02328155126684308)
(0.1460054755623692 0.082288460683071 -0.02334482600316024)
(-0.9806284065203972 -9.036855460880247 -0.6057783215217272)
(14.67081061367845 18.52523477744449 -4.602569593097084)
(4.336159833540359 13.47936813753958 0.08081973441267454)
(2.815551073527606 -35.84656034040155 -4.772362073450891)
(1.405248372587572 1.290559093020523 -0.6152163707458604)
(1.267859803600026 -1.12794210430742 -0.1261496405758104)
(-0.4961737255886431 28.05825249212808 4.515383486364113)
(-0.2647618481294234 3.694971938630748 0.07933370390691241)
(-0.04500826871144098 0.03427005536255637 0.1115392594615713)
(-0.2044027043978565 -8.441238843466731 -1.961978112924542)
(-0.2294240018474302 0.185694851030251 0.06014209693105101)
(1.360332223363049 0.8723375399706711 -2.353317667185694)
(0.5192817400278389 3.008205197861712 -0.4472065736327248)
(0.627852361615535 0.7490184998010425 -0.5029071375928813)
(-0.1030670312826607 -0.03893783349812628 0.07699961750871381)
(-3.950679964238279 -0.8611084910409734 2.279008453420712)
(0.07638697266204367 -0.2687273113492267 -0.4339509066018471)
(-2.054302806807068 -1.275608872773197 -4.491252235785584)
(-1.360863160508174 -1.620178787473946 0.7881257373877459)
(0.315180796897759 -11.31137265853813 -1.628335298613083)
(-2.347084623245577 15.33124257336805 -4.2375140909857)
(0.114500743110326 -0.1534731702220541 0.04185713629594085)
(6.934546180821572 4.511106495104098 -0.728966515310973)
(0.2472321128846711 0.08465780743488577 -0.3052043394590276)
(-1.019010161132551 -5.483706207853529 2.689341949971038)
(-0.142728656777143 0.903182372541677 -1.295171147424044)
(0.1428254135513195 -0.000115108078403578 0.07484694696594975)
(-0.1619863736490268 0.06070254998519006 0.3907878106449176)
(0.4144780300052945 -3.160686480710857 1.590144302733335)
(4.780754592813969 -15.39596204880452 -5.620008999016687)
(0.01116130958712462 -0.05421173539011663 -0.07502716380687169)
(0.04051806028840454 0.4903255364283796 -0.5156067478881704)
(2.698442474708239 -5.494818861253053 -1.102143523727642)
(-3.75878497313773 -10.32300001617838 7.676098172265399)
(-0.05648147117094419 -0.1297797572002602 -0.2656132246469876)
(0.4251629280940969 -0.08201733464555364 -0.2700253973285002)
(0.3926104846509652 -3.528245293193094 -0.3240799544247621)
(-0.113860984875666 0.5358707565561028 -0.5354940367354732)
(0.005263834860356248 0.01259849870174109 -0.0119769624054377)
(0.2396467914529919 0.020526307105314 -0.1211309099796063)
(0.5600143817479417 1.114753243338261 0.246254661735958)
(-0.2493916469644633 0.1095283278567432 0.1309587684061388)
(1.636095302688072 1.422220860513738 1.713395879802247)
(-0.725340313549574 6.096461086146596 -4.041697356812769)
(-0.1365259215821279 -0.1110524379458 -0.2576648078241683)
(-7.246832206293102e-05 0.01787765171107809 -0.006936882107184274)
(-0.0001304996579526547 -0.006453749327138996 0.001436945694985421)
(6.564816355215178 6.6477265107527 -9.505902580733018)
(1.170214783453738 -1.208366544581971 0.5103502719296048)
(0.6522195915047946 -0.2080097479569674 0.1178406274854256)
(-0.5703896907336435 -0.9686545007960847 0.5328538031227111)
(-0.7708544826292376 5.74733384813522 4.782109233683222)
(0.7947849125746633 8.79857413430171 1.282850837834729)
(-1.433750704442569 0.2285448927221415 -0.03878203132569646)
(0.001437300960230155 0.04405113613681548 0.01040767580141679)
(1.890939488529769 1.001921916867278 -0.1917198254493095)
(-0.4961784060356907 4.062343539858353 -0.9485898472641849)
(0.07739179022743482 0.006044341209521485 0.03268079059098789)
(7.713257737853928 42.64123467745212 2.799835292355905)
(-0.0276745200046467 -0.1044810358239527 -0.06061309514104299)
(-0.02227053507421471 -0.02059693357728866 -0.07116988833633486)
(-0.1733629421734639 0.07827657237616105 0.1061524526574616)
(0.03735979980890268 -0.1396976216606462 -0.0007426012911662489)
(1.02326649465234 29.16791015045539 -2.791202377607418)
(1.23788156464346 -8.82215593441177 -6.766262640523552)
(0.0360374319656048 -0.03775702059667382 0.04089957493107779)
(-0.0423549257433239 0.02398912258405669 -0.02716221098635994)
(-0.001416587946783454 -0.2066747108973754 0.002180983508406759)
(0.04143526127235148 0.06392947019905128 -0.05018859950973019)
(0.01204961342203767 -0.03776422417658051 -0.0206286568422185)
(-0.8943722477818056 -2.622043300400011 -1.521507031880975)
(-0.004469616040548814 0.006012964396306001 0.00169480670074258)
(-0.5465414258017383 1.13624442551083 0.4457519840785061)
(4.04122647185206 34.19836922132035 0.1418623692797393)
(0.10527278783317 0.7770412940442273 -0.1843689036286169)
(0.01516361508759262 0.2137156424814587 0.729534750020409)
(0.5459413427888711 0.5167780566197249 -4.584812772131595)
(2.721164009184955 -1.521804723991055 -0.662385746873287)
(0.7614196712301682 0.6726369570128017 0.3184997001278472)
(-1.321002237137386 0.7891580452723446 4.37074376398881)
(0.1888917080568318 -0.0167387185816822 0.2767915785541547)
(0.6038114292470591 0.4972278975897913 0.4941825211124323)
(-0.3934906330211253 0.2745360471542347 0.1311266675492717)
(0.193168222314912 -0.009645764567699677 0.09972875328262223)
(-0.01452232686842032 0.02360061962452049 0.1334864973917812)
(-0.09273002624270341 -0.1633833592191856 0.1219246083646375)
(1.136233407560039 -44.15089414707096 6.698782597370115)
(-0.07667701849313383 -0.1169154248881171 0.1045885133450432)
(0.6073839137158876 -43.06312822968199 -0.5146729660448441)
(0.3249607579610197 4.467053161403461 2.25768097355851)
(0.2489116065660298 0.154915819682703 0.05121425316252574)
(-0.1498700822182129 -0.02232400554072932 0.0005819655819553661)
(0.02536407455929177 0.04976316796017533 -0.03253095927803781)
(0.9710782164735089 4.450997037246074 0.07467818876213467)
(0.09008044271932671 -0.03777976043240183 -0.03537040752992877)
(2.364221850461635 16.72498864397542 -2.044526739981309)
(-2.08909964458828 -3.561922744515917 -1.795349269989328)
(3.432156233170989 -6.297801894246827 -10.47352147178952)
(0.001128638050035803 0.01210864585408847 0.05744763330385132)
(0.214750209243194 -0.03060503700017997 -0.697563242120832)
(0.02417202982884316 -0.04099164515947187 -0.0230487110062909)
(0.04137599175915607 0.02582907952102811 -0.5281691720017716)
(-0.01887858616389596 -0.1089975371300497 -0.1434682538613301)
(0.5945541130719708 -1.655796283054216 -1.414323488166918)
(-0.1143687589497719 1.914086017285412 -4.786188953284795)
(2.683487216685155 8.718382756533426 -4.976992408932043)
(-0.08027285195391475 -0.07629339382988572 -0.3456161168354609)
(3.493757026029741 8.198484858204743 1.003792668922786)
(-0.2165612277671974 -0.03113892860181774 -0.09268771790569771)
(1.299801857465005 33.79044880817539 0.251086837669475)
(-0.7501772015157637 0.0834450642350146 0.1805757769386101)
(0.9124121313945919 1.446846377161559 -0.8249801972073855)
(-0.08858458176698855 0.05991828470670071 0.03744942043214523)
(2.675340415070003 11.80871171412608 2.825989420153258)
(0.3073594318047579 0.1887120890540738 0.2622181907172912)
(-0.01830010271668704 0.4880191111937106 -0.3662767388498062)
(-0.3321573245119321 0.3825087031488174 0.06499313942638946)
(-0.01631652457621702 0.03101919514295409 -0.03937624155371264)
(3.773036843977529 -5.601118152416182 -6.193806492616686)
(0.3136573383300367 0.5944228234434528 -0.0437189375094601)
(0.0548140524477382 0.002656375358396919 0.0170711931582892)
(1.478965888905472 -1.352333555116066 -4.148448259341665)
(-0.1188068888576464 0.06330409678399906 -0.04080928467070258)
(0.1251127114327358 0.1016513617576148 -1.700530574964831e-05)
(-0.7485053666621093 0.3352024789871289 -0.3116715978952606)
(-0.2795476926945856 -0.08098232525993902 0.211293982085875)
(1.227231872317397 0.3369351338030768 0.2301407401807044)
(-0.007174397328961075 0.0004099906089354509 0.02054133824107341)
(-0.4148166909414097 0.8436594957263341 -1.817424347923292)
(-0.01436107057549575 0.009332297615064558 0.01508133931737558)
(-0.031076252277242 0.01047205698773876 -0.02452676077919632)
(0.008896386763550135 0.0001002577818565269 0.008708908462477301)
(-0.1055266608883045 10.89071363291872 -0.4702029711466981)
(-0.006677025789782175 0.00761401661851493 -0.008541249520704165)
(0.03237310582441268 -0.01082991768251041 -0.02769883426230575)
(0.08992875490356625 0.03493284017732919 -0.01003699792366026)
(-1.702254667361938 2.184625392952296 -1.951408788570448)
(-0.6515474411110039 0.4781957956037751 0.1637915274009623)
(0.03301304712824046 -0.08913141690820031 0.1096567144159969)
(0.182473481601089 0.1608971692081208 -6.458000650103257)
(0.01455876718650875 0.1570210452168176 -0.07517555578221527)
(-0.0238080361462835 -9.942779710674458 1.265574711691132)
(1.689624508262142 -0.8412052066505149 0.1413205086449362)
(0.1516046080380372 0.04199850028514508 0.0560080870917096)
(0.8714401014389206 -5.993793455468988 -8.83378688943866)
(-2.251637634970264 -30.96595168561551 -0.3496097646133699)
(-0.3179861035137821 0.2119212899650079 0.12677628520833)
(0.05229574051784285 -0.04889289893419 -0.005000686345090079)
(0.01080508245519418 0.002812464101539545 0.003180161490353953)
(3.006734279590383 0.9196973639511086 -2.817597217075294)
(0.8875773813036015 1.108911012724941 -5.096846114966678)
(-0.7976942877767935 -1.329521534357708 -0.3729450726479506)
(-3.312708629894456 -43.0672633808653 -9.46254521324977)
(0.1885319642105487 2.367027621320016 1.262532043774387)
(-0.7920329368490168 -0.4497402267064949 -0.2917973841119569)
(-2.223325086491434 -13.24726646119745 -2.143357719760465)
(-2.739675763008691 -2.426772734921957 -6.697011066671597)
(-5.827328408357512 -37.16127679368031 3.17389810896685)
(4.238389749012648 -2.534144117323821 -4.36648576566964)
(3.625596426022449 2.895089532915484 -1.575157112691929)
(-6.959379965790674 -42.17566928164537 -7.330846611289501)
(-0.091406390832798 -1.971837571197601 1.683776795824841)
(1.862022013379101 -32.94460577384798 -2.255463124628744)
(-3.619864067358296 -2.478819523079657 1.739928957678393)
(-0.1026575403198515 -0.1057663440484746 0.1180918068284635)
(-0.2320113446307124 -0.03756578568939445 0.188381474584956)
(-0.1576867164227148 0.1356321240163097 -0.07516658272531029)
(-0.2098654567550268 0.1850002965307538 -0.1490796103710443)
(1.652934776126362 2.117244738585347 5.44693340636992)
(0.1265433953572111 0.008662081915776165 -0.0719622197524348)
(-0.437059854303854 -62.93446782267992 4.503984534653367)
(0.6626613063452755 4.218431870778285 -1.516405741555664)
(0.6052076124703532 0.5985675396373453 -0.2547392945356779)
(0.07926287009365424 0.008365686684527807 -0.01081389350458426)
(2.513735786035864 0.5325349459888279 -0.189488810102088)
(8.320786076584314 91.23300188940394 -3.957639893283942)
(0.7001650353264722 -0.3478710329647166 0.2086895485423772)
(-0.02684492915827711 -0.004149640242705442 0.06127934887266814)
(-0.367909217081394 0.06849826559590905 -0.06983183685076735)
(1.275124071127183 1.189915259032793 1.297478080114947)
(0.8723123633253285 -0.5981640875161713 -0.3250551832262284)
(-0.008459392850849359 0.05155125578975996 0.001818923657180272)
(-0.04850830597540343 -0.2933105016787164 0.1447349699193778)
(-0.6171984736403007 81.93077798387777 -2.974727604595023)
(3.645236703321142 -3.555408346308375 -3.289107860991173)
(0.009284834629822726 0.02512503986451779 0.06696483646569878)
(-1.157257068328532 -3.021955855493907 0.4650110057317852)
(1.2369303891424 11.65277826978142 2.441476880727207)
(-0.006689323837926112 -0.00218737369935631 -0.007009241107916148)
(-10.32814618388577 -17.73528230831626 -1.32212482720886)
(-1.421906313598388 -4.178489657819894 -0.1895934792206834)
(0.6446113602147783 3.12936835332025 -4.477105752127021)
(-0.01113977550624296 -0.00745884595620369 -0.007797489549154693)
(0.7265132169911062 0.395085705011142 -0.03395290601589313)
(-0.7624231179342447 -5.606855215796807 1.621309870538855)
(-0.3068571440439887 1.08998650263452 -0.5992987872749236)
(-0.009751774728618021 0.007360151119097913 0.008831792389844311)
(1.330226375389546 -6.209861356716532 1.29288048057203)
(-0.008358083322940978 -0.002464098827284398 0.006575035550777379)
(3.397515319608882 2.125134300272276 5.166775688594136)
(0.1262790280357745 2.985406271957382 -30.56015480799296)
(-0.0001100012531782693 -0.04061560403008963 -0.05331644267988805)
(-1.327299860550481 -0.3652241910020972 -0.498278332562239)
(0.3350018762140954 1.567295635984227 -0.9557072332051646)
(-0.5345462956050635 10.19116693540033 0.6024888961377526)
(-0.4675239807056203 -6.392170854451872 0.9352846464859679)
(-0.006057544354013726 0.005115444255314886 0.01068347233165958)
(-0.002290460714841088 -0.004934079033609347 -0.004216585326350336)
(-0.01397803042879038 0.03048178130055467 0.0373742356986829)
(0.3131085184706587 1.243568238906918 0.3512355392907117)
(0.2706336879431228 0.4400917172284084 0.0462600747825157)
(1.411657682588369 -1.770923670827063 -2.119486143122429)
(-0.1775355757825707 -0.7823354755848373 -0.09466870852880664)
(0.02204127724938349 -0.1125629601528349 -0.007413938345415517)
(-1.426567963510236 -1.162367155273754 1.460789168813888)
(0.003341217858923288 -0.0006920050201849447 -0.03397686959919544)
(-3.949632265825304 3.360388668944298 0.3814378303889938)
(0.01221967356861511 0.01841207007575466 -0.04816919857465463)
(-1.970877882820827 2.139334725033044 -3.199144048516936)
(-0.634521643521275 -5.368749156451915 -2.881998881819172)
(-0.1834834928333292 -0.1134727588925236 -5.870540751186998)
(-0.678801345899439 -2.581299998785442 0.2054563962207984)
(-2.953340459255583 55.12030183391478 5.095806993079252)
(-1.650490264779628 3.132952924390365 -0.3844679134123767)
(-0.01188340397976887 0.01759383305985441 -0.01189877645828333)
(0.02086644136124147 -0.008188673929648478 -0.00408793691234597)
(-3.120040926836779 -52.9851885090402 7.808946234499435)
(-0.08521962374041689 -0.08887231208781204 -0.1573731187814249)
(-0.1292848321458888 -0.02246091357958009 -0.1796341108058184)
(-0.5900682655614073 11.49723102699288 -1.479200427147242)
(0.3543461449884653 4.010258620696074 -3.057242468145257)
(0.3702441039085697 0.2134627767506157 -1.505911759357622)
(0.9383062393853147 -0.1269111369962248 -0.5537203739616361)