/*--------------------------------*- C++ -*----------------------------------*\
| =========                 |                                                 |
| \\      /  F ield         | OpenFOAM: The Open Source CFD Toolbox           |
|  \\    /   O peration     | Version:  v1906                                 |
|   \\  /    A nd           | Web:      www.OpenFOAM.com                      |
|    \\/     M anipulation  |                                                 |
\*---------------------------------------------------------------------------*/
FoamFile
{
    version     2.0;
    format      ascii;
    class       volScalarField;
    location    "1.8";
    object      p;
}
// * * * * * * * * * * * * * * * * * * * * * * * * * * * * * * * * * * * * * //

dimensions      [0 2 -2 0 0 0 0];


internalField   nonuniform List<scalar> 
19631
(
1.201514189158494
-9.738118660613649
-0.6036199245955362
-0.6183389199045536
0.2867017028212293
-0.1196995452900208
0.1161433493959157
2.394233671957194
0.4327487954630612
0.08089477231265098
0.2957133929917204
0.08647086894515481
-1.177559619650238
0.2667498062116136
0.2924530384205068
0.2046520593036514
-0.5427722418990956
0.2662826139107601
1.010571014080608
3.54666826510924
0.740604889271896
-0.3031355508198336
0.6155753855576197
-0.1095930294279033
0.2600764410826279
0.2986690607995296
0.06506535726956057
0.8739367304884529
-0.6013928453879016
0.0985503014208641
-0.123359458099663
-0.2941441036037352
24.22607611515467
0.1862155433958581
-0.09330249671322718
0.2645763257068681
-0.01778221592855376
0.8744394306327499
0.06364466590895348
0.04906639872666097
-0.6187081232443815
-0.5677762381087642
-0.08823824535240717
-0.537946506373258
-0.2621046511187661
-0.3475410186558325
-0.5671011048459134
0.03216467000649542
-0.03163821535231628
0.1958612413565181
0.9675197903844448
0.1971560650091675
-0.09489794520716244
0.04103222672862919
0.2669731952126376
-0.4899048904690059
-0.2361943303195712
0.1733375133772232
0.1239799089043262
-0.6055257232446069
-0.630158098886643
-0.006553686764486823
-0.8075264081128927
-0.137962759809095
-0.8407069536759231
0.1030334048296421
0.1982478457577186
0.02658845405743516
-0.381085113029181
0.3013203830541317
-0.4031903775423809
-0.3398376786500364
-0.1308291555610559
-0.3011777776528374
0.04941320149908398
-0.1043822372302999
0.1006777612644938
-0.68043856888404
-0.9345151242981306
0.0766618798787333
-0.5037368267729236
0.214069940186441
0.4874641388348723
-0.2427960179379812
-0.2820634143249922
-0.254426370069888
-0.215660013920294
-0.3243528281779928
-0.3508589971372769
-0.315234196514444
-0.5181104584317663
-0.06836937903587997
-0.7143383600520387
-0.239807765548562
-0.3548965106431615
-0.2737152295110306
-0.265950485572245
0.2441899254617847
-0.1041515253815965
-0.05653044969474377
0.3196201806799002
-0.8015885707543744
0.1986282890312557
-1.10475442003957
-0.1903893208175323
-0.8136072010989651
0.1154519531772483
-0.2382743540736421
0.1612105679980547
0.2484730843221127
-0.3597204692029605
-0.7815941735534389
0.2724595406924154
-0.4281830142381749
0.889409180973762
-0.6673450563884658
-0.4856591954813436
0.06034035886972176
-0.6040628174544336
0.2914047683423222
2.474073225942569
0.4263131940588556
0.1983700515855735
-0.07088799945864124
-49.76515811275215
0.3434092712064505
-0.2648118959685092
0.2304681136193746
0.3368654868856336
0.08550236702721502
1.587489802036028
-0.4450041048157323
-3.154090624911932
-0.4118394453400022
0.1621564831157725
0.1299642860987021
0.04762107147339778
0.2623197190177291
0.3092493244144969
0.01498126798894767
0.2676923890031125
0.3435859257471434
0.1781136781482212
-0.2624005403749052
-0.08145807377450058
0.04775418977797168
0.1198138186755372
0.3727542023014957
-1.196654383478379
-0.3232996933708311
0.332801206731325
0.1220830172657422
0.08822984134277408
0.08018554025180379
0.3618835524363999
0.1332687622919183
-0.3333709481574679
-0.007152707508521279
-0.07499493972771745
0.1429096230690809
0.8247143895740754
0.3454785553082546
-0.8129305123008813
0.8398027968340707
0.125443722916493
0.2163487730860771
0.278099772260446
0.2649612634367275
-1.639881674371255
-0.6976917993645345
-0.2624113460795081
-0.5650012942619103
-0.4058193186136825
7.68875792238211
0.08816579472075642
-0.5829978627241728
-0.1581621511107481
-0.2820000872381995
0.05398798492879946
1.255688355251762
-0.220259814125697
0.5421120872491012
0.335999349168121
-0.1662468249377469
-0.5163205888692206
-0.4921797582803366
-0.4412580454250249
0.1640525241837878
0.486176759403229
0.1515341212751732
-0.6334621508493786
-0.4173130046214485
0.4974870034062704
0.202065911608678
-0.3605871859796541
-0.03268149897797826
0.1070329432660529
-0.4062914250999873
0.4871905538056339
0.09008574672146713
-23.37237297087824
0.2689984477951255
-0.2786622013466258
-0.4461928774940981
0.1099792720218392
0.3795774597368491
0.2932675963417339
-0.4280049797576087
3.414825150189442
0.03515682506373104
-0.01570239459646823
0.5672104473593863
-0.1943350122639088
-0.5673809024535805
0.2133181214795944
-0.5242089000405348
-0.06432817851773601
-0.2686862888317543
0.2464034326066301
0.04751936371135613
0.644372483512431
-0.2454488032069013
0.1025579868461282
0.5975592766053133
1.948793532849455
-0.2818207108282649
-0.008114550031812046
-0.05367408968850407
-0.6861646250102432
-0.2344750322259808
-0.2711640481254264
-0.1088807706742748
-0.2319854533508852
-0.4567110730258652
1.145605772170017
-0.08906654771553112
0.008877017290401482
-0.145238945172522
-0.1579606261456223
-0.225339745185976
0.3395671842758083
-0.3847116579490511
-8.444970502679004
0.4495081638154519
0.6214866524710347
-0.5988395101077566
0.3579561320916969
-0.211310719338737
-0.459464146109773
0.6068124225845418
-0.426938724812038
0.04305665058877248
-0.4223356179134778
-0.4995878538537954
-0.6024646343856667
0.6917491537162347
-0.01437372873229567
-0.1485864926584343
-0.01511251000088235
-0.1701512651279939
0.08895234306190987
-1.154062131546672
-0.2590177505586522
0.5962739383020003
-0.09230230465452054
-0.2814673375159431
0.3516966924776615
-0.5821865682290687
-0.8051510584728311
-0.1657749061222493
-1.392011803114328
-0.1623802626326109
-0.2264303821135988
0.312952651342418
1.197981195355545
-0.1703993198016597
-0.2968256146439947
-0.8170825069775415
-0.103097469795062
0.4525688188609714
-1.171139627894316
-0.7179977712811092
-0.2339796935051031
-0.2213870648772046
-0.7737425295140511
-0.3623934039061462
0.6468007336294066
-0.01708710630255746
-0.4540322475959426
-0.3319907597027217
-0.7143244018057966
-0.6208755181918996
0.3895816848198185
0.1563927488826409
0.3769083525347731
-0.7206458108129419
-0.7101980458441753
-0.685798307085054
-0.3221585328098795
-0.5203585954348341
-0.3573126145277858
0.8077161591463061
0.1900571378145231
0.1703215429964074
-0.3619648320282468
0.07925698382784103
-2.037394540884932
1.427591308746935
1.130454925416382
0.2400332963315099
0.5782280200978159
-0.3513600838571896
-0.6008846986365697
-0.09494735578276897
0.141683054423515
0.360299102001414
0.4061065148845727
0.1799624300567714
0.2138312939601756
0.1729757006803209
-0.1803034308228534
-0.9471089980600229
-0.3267087913103963
0.7307079369580666
-0.2479090260209256
-0.1104404741344811
0.2868459152039657
-1.171381755458055
-0.08202671039508078
0.8546927421084947
0.5144604577118583
0.04203019546320109
0.2953752357487926
0.3964999377663013
-0.07961088805558467
0.5785564258649355
-0.4312225500669878
-0.6944007206888119
0.1126975005986625
-0.08717612311597073
0.1217617033632521
-0.5054263557118851
0.04633973290606962
-0.8643037594703558
0.04569869538808161
-0.08186819435148288
-0.4913931950626485
0.6264333925888034
-0.05353102277620141
-0.2120510410136654
-0.1115097710463719
-0.3296702556157595
-0.4633651108195732
-0.5968455651669116
-0.1621735412371677
-0.8202091497493597
-0.06288863870582735
-0.8028504956563904
-0.332244131330853
-0.5963211921387073
-0.1601663156448651
-0.7418464895096067
0.2531855979925853
0.3161411403019265
0.6052851756425458
-0.003014640882348642
-0.6732214485039846
-1.177448713613146
0.02284890377401654
-0.3903044923279479
1.36853746603095
1.399645029008456
-0.3658177333989725
0.2806169061901692
-0.002236466047046943
0.547151225619063
7.927343072524381
0.1835149329197642
-0.1179764574118156
0.1898050483921802
-0.3766866396398739
0.209128337954148
0.1415934121476458
0.2296260473823107
-0.8546716765904928
-0.9979321153066433
0.5085168432798933
-0.1120877690928428
0.2685638590151936
-0.240270908513814
-0.2309579208545573
0.419526591431481
-0.2464178445117206
-0.2526020295343825
-0.06555637472121374
0.4085315339068892
0.4388771560742821
-0.7467484347995986
1.559749861385197
-0.2203564098842542
-0.7041419760926838
-0.4840271556402854
0.2771972741739274
-0.8250957215024703
-0.2395706202681145
-1.019648209424391
-0.551195953755334
-0.3778644074245651
-0.7092525887775718
-0.1805578916018427
-0.5278688916831848
-0.8147269097377939
0.3230545520669428
-0.3130237304332096
-0.3242914480423139
-0.2049363783633785
-0.150185132163544
-0.06898029839884964
1.239554595249645
-0.7093621481972233
0.3592647432852098
0.0881832067955739
0.6704299024320812
-2.218476722916219
0.4920811785022105
0.007652952329241649
-0.291735398849545
-0.1110652487630204
0.08879160025839697
0.03663851410899318
0.2862230828069321
-1.857909435345081
-0.6206888252849265
0.2201064086424822
0.5113797432145931
0.5110187634642153
0.1533416989351299
-1.315694422562265
-0.2002392241850286
-0.2962806902211899
0.09562114859475597
-0.1299981881336932
0.5052857542410427
-0.003516872183424382
0.1722852152605578
-0.5181133745440712
0.2306187872921948
-0.8438783811905186
-0.8706083360790173
0.02077091537671838
-0.14697256048684
-0.5030391692819645
-0.5970442758623983
-0.5891348390406999
0.2067765393153732
0.2223375053658812
0.2013942485705046
-0.1393584597012683
-0.2658057503935264
-0.5844427754255125
0.3259906483606314
-0.6886111463981848
3.127877513214744
0.3474932327760367
-0.05054768540217299
-0.007396548466891892
-0.3889030051568187
-0.3340406807129123
1.232812794612204
0.3438638223850976
-0.6045192397059771
-0.6526663505323974
0.2375616705724446
0.2978173724176238
-0.2276024259932906
-0.257054596091516
-0.1296459342286395
-0.4732057245513314
-0.4965690199027032
0.07626087691573046
-0.3607563047738725
-0.2312322046863917
0.1700566506416697
0.4985789775264971
-0.4920354116811342
-0.333620091774779
0.03452539894681644
0.02302648581521067
0.7314060290622757
-4.023893362906
0.9185601084126407
-0.4639295125013942
0.2248896056105789
0.2017280596781996
-0.4482049524519163
0.330746996342702
-0.3704538129016223
-0.6442308287380724
-0.5535166278274414
-0.3749369153713654
0.1403759299958739
0.09831274262963031
-0.3208536504172227
0.09640701098783365
0.0709240673430571
-0.4504409348127639
0.6854712659533387
0.1165979532666069
0.06084812172621637
0.08764990857704028
-0.3095156919768984
0.4413941041953669
-0.483084587700188
0.1183297814915303
-0.055698090601027
0.01201748191363773
0.1858035769390017
0.1233366974458476
-0.31079026903762
-0.6718614271241401
-0.03189032166225073
-0.4400997916764554
-0.2339652734559467
-0.07568145486961002
0.9618126214918125
0.1332711661059232
-0.4447430110214539
-0.8255923931782039
0.002563187863522587
0.06457907016656492
0.04534732475526874
-0.07736295456206951
-0.01898298903442663
-0.00890350600016356
0.705797829423948
0.008442956551782075
-0.146575024641958
-0.6837393257015298
-0.4443420695413634
-0.1601094150646432
-0.4032511522625938
-0.1656393529151275
-0.02247111346487415
-0.3348353955678142
0.02936432550962696
-1.214467516850256
0.2188117201317291
-0.8472828211424642
-0.0143683320416651
0.082102401851151
-0.04335260116840785
-0.02997877683849264
-0.0903926552165565
-0.3084806281921109
-0.403661494386111
0.09015476837519662
-0.4284536408500418
-0.3120927253102936
0.03210295223796987
-0.5006605886162983
-0.3122026256559352
0.03267007207202637
-0.3432310718915187
-0.6620564563337736
-0.1414104088802123
0.08623020941701513
-0.4704140828284282
-0.631447668582332
-0.1144576701251118
-0.2715796875303462
-0.713759362407634
-2.018916163919031
0.07598835107100421
-0.1708301267017937
-0.2772802869089715
0.39465685208309
-0.2850024793318093
0.3089709792254806
-0.8003487842567113
-0.7490667028572889
0.3651085397121495
-0.7103067768335185
0.2756256660729198
-0.6113357052250741
-0.2898026602675142
-0.3192076166565065
-0.6578411640297356
0.05833643960752115
-0.281668861704082
-0.2121631554597084
0.1272161997995614
0.05369169619780257
-0.7711381371034571
-0.4293611157611164
-0.4621810310113642
0.08917579055160155
-0.2580268643074503
-0.4598555739541417
-0.03427345806942339
-0.3425757887784707
-1.473791960131507
0.1713237878947116
-0.6288147517705723
-0.2957515956985969
0.201500852642605
-0.2698989401159806
-1.106851948321401
-0.03397274053593319
0.3544151730861098
-0.4396334194819413
-1.542452364473176
-0.2084132094769092
-0.4099981531441914
0.1327398510367535
-0.05468520991371779
-0.2598138680806927
0.03548242847861866
0.1275350137241032
-0.6599291793750118
-0.5087025121523894
-0.4544627669868383
-0.1165184783335188
-0.8318507593156015
0.1360140040879539
-0.8780881306615758
0.03436881667544508
-0.942266198603216
0.4373054019703889
0.3008665488281274
0.4014835275719426
-0.1689682671470917
-0.5689641126960174
0.8187054180851469
-1.300297988604815
-0.02973807889898856
-0.62435052223362
-0.2854572355906244
-0.4751430007063412
0.02979537736434297
-0.1697234501890471
-0.03218830695216823
-0.7845067168211983
-0.6746357948334707
-1.181684918639627
-0.2816918184951319
0.0627773062432059
-0.6692884694280365
-0.5063458011283344
-0.4970966097342037
-0.4083297130677558
-0.449028503737338
-0.4011024805478975
-0.639541574119889
0.3658716831031966
-0.3263704308425732
-0.3247915545562866
-0.2700501752551611
-0.203796508956352
-0.4705299404507713
-0.0755462745168643
0.09485486363666266
0.2141790923465169
-0.7967213709024945
-0.5327700318351923
-0.4495592054948711
0.04701066023464005
-0.3031823947728665
-0.6597877393284947
0.1138260157846588
-0.7913850703945019
0.09073445334594817
-0.6745747217066549
-0.6477070913830185
-0.9630726505239079
0.008219856624992548
-0.5986202272533433
-0.2328998053144945
-0.07726237317799027
-0.6664745717818096
-0.6018548024233755
-0.8714344716643471
0.1419408122987839
-0.9263560364077699
-0.4366437333174283
-0.8657139814272529
-0.5153525923185209
0.1525918027699203
-0.5824557102996081
-0.6282402213026445
-0.4103889205287629
-0.5473874804026614
-0.1008613959523831
-0.6036521596614497
0.03670049367623351
-0.7413184875604609
-0.3883596420750135
-0.565457655727355
-0.5599631491712522
-0.3184096385037562
-1.387227127316721
0.1210982484320413
-0.8257941253125686
0.1153197345745273
-0.4442069929312943
-0.2010426495858299
-0.9741724471625417
-0.5689377294937379
-0.06157887118647223
-0.3561406762251978
0.05604700098883134
-0.598359956372281
0.977233252684207
-0.6386793669912193
-0.3208528750250446
-0.4212258982631942
-0.1101558008669486
-0.3667807578650906
-0.4640273217843515
0.7740496882587524
-0.6126295729018369
-0.7262441458798439
-0.1762960507357404
-0.2870949413613593
-0.2913068855219064
-0.7099254710173976
-0.3937736713948742
-0.5972144053473473
-0.6640790648083417
-0.4934427966062087
0.251334453452449
-0.04558037292752772
0.5931262466254609
-0.2004195137527559
-1.229645224703658
-0.1337458850872007
-0.3842357294183604
-0.1379180782629734
-0.01290806013881519
-0.2895632055947204
-0.380022551419503
0.3264586861334909
0.4549047240641595
-0.6690662319198102
-0.03325510555785467
-0.05669967412501409
-0.632143421656607
-0.1143216413903142
-0.6119694667250679
-0.3273041901899748
-0.285094333510012
-0.5305862973001508
-0.6156957494347531
-0.7261479955706173
0.3582129007682381
-0.3377980689042567
-0.3647936563954616
-0.6759818549476855
-0.3613841977044457
-0.3297056052101258
-0.3346598716145579
-0.3536530817991261
-1.007773116555839
-0.7033654795692154
-0.2339897773286235
-0.240221132894275
-0.1174235832573413
0.006933160784668771
-0.5119127296863618
-0.3356352241450435
0.03747319667885562
-0.5652878915708776
14.95996143483962
0.3225436424603024
-0.5498401003997377
0.4129360965733178
0.2450299281656542
-0.05269743447658057
0.3204632917256333
-0.4831625162480782
0.1780115071689859
-0.4134538805153358
-0.2987493221017418
-0.9340680892065737
-1.61622196493858
0.7561608152877746
0.251485200891843
-0.3037487018621551
-1.543629393057822
0.07873812562145804
-0.7985375628239136
-0.02942565743065576
-0.08607684090882116
-0.1154675911460693
-0.05282356152789465
-1.203197854703433
-0.8468564933015647
-0.523435684835249
-0.3332479351465766
0.1461533548926326
-0.2029226704294013
-0.2338845808807929
0.1730499846123143
-0.3268283018369864
-1.267387332412081
-0.4316561388226484
-0.287409435645922
-0.6428992573447321
-0.5731135601518907
-0.5075939338431481
-0.5659110121367897
0.2920419038480286
-0.0692610825251741
0.3111323731322553
0.2058508278368335
-4.139461626099714
-0.3376061491189383
-1.070326145684217
-0.3251799554638389
-0.4375580755306459
-0.3473488214636478
-0.3741102834161965
-0.4414796542705094
-0.3637474620205115
-0.5373493420175907
-0.1737350950863454
-0.6898747562440027
0.6827482033739734
0.1185085008939452
-1.006725148847537
-0.712522483424301
-1.215856624068602
-0.1399448217712496
-0.5129421997786565
-0.6058129804470035
0.3856736658642834
0.1707542876668118
-0.02310613701883303
-0.2562027022513953
0.2328857833237821
0.3550139234499188
0.2607646169922979
-0.221845243166356
-0.6048892002578985
-0.07215738666922394
-0.1507656833517231
0.3739601985562129
-0.6432493923013137
-0.1810165102675993
0.106613128653773
0.1104288976175201
-0.6873071145757323
-0.7578211038266702
0.1057338590465486
-0.106729004937662
-0.6980969791554762
0.5810648679202803
-0.03023123898401981
-0.111883839504658
-0.02741794921569595
0.02083462872351669
0.0266713995325936
-0.1069034429291968
-0.6963919663473866
-0.1670038546331564
-0.4238804075673572
-0.3527209351227489
0.08372161692308039
0.4373162763560997
-1.162400030839218
-0.3699170221742313
-0.7075484032303589
-0.1415045480928734
-0.6098337893321464
-0.2708140587422189
-0.1687426454903747
-0.503230711724399
0.05290814165409451
-0.903219904143341
0.1792460037722044
-0.4533638833920918
-0.6777162010850808
-0.989406975997709
0.1253207783767874
-0.2984663517291951
0.5938645500806392
0.626261502709322
-0.5320697065413916
0.09149175643709771
0.2224101501362561
-0.5275959987142247
-5.792575255339333
-0.1187068274942256
-0.06775169947477881
0.1202911070121307
-0.3204854093772387
-1.616688789499056
-0.5454654804725209
-0.008125844501789414
-1.044868117766175
-0.7702689579191943
-0.5634324778418416
-0.4151355221381799
-0.2945277942804202
-0.531187894218434
-0.112268647916543
-0.2793444468955177
-0.2941558391393558
-0.1084948854673384
-0.339085933222971
-0.4308288386248194
-0.4646634475761983
-0.3484709079775757
-0.3196841251257794
-0.4364522523403598
-0.8762084235201828
-0.2673160780090882
-0.5783585971838208
-0.326030951446823
1.660340086471482
0.4067850607451427
-0.2498561117366997
-0.583273709850336
0.1173050437347081
-0.4141855791218425
-0.5869153171595963
-0.6652506380690186
0.03567552761473214
-0.2816752171543023
-0.7040448287353054
-0.8345293813264939
0.1208396001654914
-0.836454265745727
-0.4554564237397881
-0.5149360134915126
-0.145844178832676
-0.5304561507203496
-3.614943198439672
0.410165888694827
0.5740302729217108
-0.6602507087325831
-0.535162554324635
-0.582129948769835
-0.1134040616613125
0.1676132274767437
-0.3992526275520367
-0.4208375753257552
-0.5948796792998757
-0.3632880089093752
-0.4814554097649089
-0.949150789764431
-0.3240018260538558
0.94380053156705
0.1326961593550076
-0.2522306198867733
0.1735578394212914
-0.2227934314066182
-0.8896359687541239
-0.6661747969436543
-0.689542341943932
-0.6012835454793319
6.969912907211457
0.002371880598980786
-0.3284598478955774
-3.575464673772652
-0.5594994198964661
-0.3630801651365982
-0.4459002002810817
-0.3481533292828367
-0.7135900377765524
-0.5615389375114006
-1.521272084426943
0.07943418298252514
-0.2482435566043214
-0.4724718035153909
-1.173386851169184
0.4416247462691504
-0.2814631691832468
-1.803991764151294
0.04331533905190636
0.3244788297810331
0.05044659919991549
0.1515734127028606
-0.8590521963251004
-0.09085361275896617
-0.506591995783056
-0.6611597796535748
-0.8569383236548024
-0.2010442645360597
-0.7022877378284681
-0.5290611405078323
-0.5266681236095662
0.08444633431222208
-0.3016729083236156
-0.130365376183029
-0.4204194019244665
-0.711287972243233
-0.1612763133219497
-0.166115237200407
-0.08281576691572605
-1.727719773655192
0.1781132740102305
-0.3359839911239785
-0.1369619483219693
0.7511452304414865
-0.1148845179739214
-0.3505904983547823
0.126958515342635
-0.01677807233505788
-0.7819197081086342
-0.3302281049028033
0.2183423936785865
-0.03440007825170797
0.1971022784297707
0.1091820541103021
-0.2807568777325543
0.1056062870558667
0.2047153755912111
-0.4234630908702827
0.2460808653436085
-0.1540779827175913
0.6989779949969378
0.293326327251036
0.1756540390788085
-1.338052638115038
-0.1120678800163561
-0.4487555230706444
-0.4971488946679572
-0.4443522940420008
-0.1124737862325696
0.1697844433916252
0.4376568778468058
-0.2466074592469938
0.1193147140620979
0.1617316859902516
0.1195245064539294
0.2797125846719939
0.3456754779606874
0.09992216690558146
-0.6575210978696311
-0.5451753049489515
-3.187596935963112
0.3071557211966831
-0.3916158446318504
-0.1866512822707127
0.3856171890852252
0.1106550663057075
0.3071126084413266
0.02367205053703131
-2.464480935449868
0.09195350856711364
-0.9433264980782312
-0.4495424481956201
-0.8326619974432363
0.1699169823288034
0.1089481002553277
0.3133564768955854
-0.07947318136518065
-0.8681882460550489
-0.3131012371099384
-0.2492363240911991
-0.03513953762856719
-0.1222059645278216
0.1816720029179872
0.07734627491124735
-0.7653063308576853
-0.1491895304912896
-0.1253648873467813
0.3494477764532493
-0.1319273539337257
-0.5101404492289634
-0.6096040188656994
-1.717782945237377
-0.8301577757536343
-0.3870890861646997
0.1178600178815047
-0.5440890484588272
-0.1269975670570087
-0.2899452829888555
-0.6961535428392186
0.06995673878092636
-1.804239839972657
-1.214317158150992
0.2992500651100806
-0.7805837812173279
-0.6526800015672621
-0.3143265914788576
-0.4685401920354958
-1.378605297883089
0.137853811520332
0.903551052618063
0.05081108560213633
0.1855976241488909
0.2193228471501366
0.002120066038741809
-0.02480344630168832
0.05923147853222234
-0.249026566877825
-0.3788989416528392
-0.05363913606079265
0.06239002818096835
-0.8623048059218554
-0.2544002267959548
-0.3559367388290966
-1.110299216032987
-0.4870907450355718
-0.4484391911378988
-0.6861275324429442
-0.9354711947057421
-0.4263667056286876
0.3085158984727224
0.7850669237970372
0.06185125358310609
-0.4916658427165942
-0.2564532457870792
-0.5663329725541341
0.1115264148390766
-0.3667405999217865
-0.9846238789026714
0.1343537481073456
-1.025412497233709
-0.4416673312185833
0.09215920969079407
1.023276060514178
6.282864289522256
-0.08573885308034247
-0.7197768372481226
0.009813811087485962
0.3260684098314742
-0.8162760685400003
0.1275200490875968
-0.3062851232795691
-1.379164476789266
-0.050454061685553
0.08037423284227463
-0.2492044693142417
-0.2699588221744214
0.381717707062629
-0.128065369547801
-0.6397606006376468
-0.4315339816287724
-0.2925268594366692
0.06676876152525274
-1.099332595492685
-0.6594137396657449
-1.561087786382766
-0.5694119367061543
-0.5511704481474999
-0.4472513578499496
-0.3279725574799573
-0.4606959261944463
0.4043627404544495
-0.6300930585498824
3.942519740606182
-0.3148098148231711
0.3577755430400359
0.02606005322731832
-0.252233904965609
0.6841355576078927
-0.862663071340121
0.3312729815251973
0.1956202365624877
-0.8392547437659899
0.3862249455539807
-0.7568899206907657
0.352662000990577
0.211335405508444
1.22657711794531
0.1121170961919166
0.236417739751097
-1.287776980284191
0.5045829536483671
-1.903039212017135
-0.01467932784437823
-0.05329070556132412
0.09372277810414824
0.6699452187644356
-0.3374335719955326
-0.04273843276452646
-0.3826290700574389
-0.6670844130657245
-0.9429929391378667
0.0449522946519316
-0.7515201832006047
-0.663964631695827
-0.5368496908666843
0.2265145619318989
-1.618351131003115
-0.3283498234265735
0.06539702030128275
0.5474275653320513
-0.394874303126411
-1.077828262693296
-1.2066482253188
-1.118419311830246
0.1692892324244588
0.206117724090683
0.572292410978435
0.5834142468909413
0.1344268430227342
-0.09453657431811308
0.2814224171270984
-0.4375433045684942
0.08044461612391279
0.4573409194136788
-0.7628521489885313
0.3868023898902102
-1.612678385636642
-0.7837559757668717
-0.08578740518464358
0.1180422661113595
0.06900018817778941
-0.3547265976366172
0.1696183006526039
0.1236155618962359
-1.910104121120061
-0.3928358859387702
-0.7025538635498236
-0.2181227495019126
0.08697562805122076
-2.010186467818163
-0.7514167666283461
-0.0690300347751331
0.5548252189285989
0.4853884936983393
0.183422982343221
-2.627190829485087
0.2698791574865585
0.5314111365298355
-0.08737768460386293
-0.2521126990036385
-0.6528700896479891
0.5288719683436457
-1.255951190255663
0.2314567487268869
-0.2462630957075705
-0.0368525243479202
-0.08468133463457984
0.01181574946430887
-3.952284980910995
0.06000615844282351
-0.6451262648734616
-0.8094241418446027
-1.866932704337657
-0.6029646264576899
-0.03329958810741582
-0.4733603710863918
0.06279833703008289
1.653252445268134
0.1519265744884674
0.3486240317239372
0.1914900204564809
-0.5359348546328485
1.145533860176514
0.2921420701185211
-0.9991272264855411
0.2395985655069589
-6.484697224717308
-1.1550490150837
-0.8627995652611017
-0.7943268156176435
-0.4692830225647386
-0.7523520807930045
-0.1853913067080261
0.1526148378332534
-0.3222778297233004
-0.5332927230405368
0.6755447240664511
-0.7412605560274188
-0.5898923818445161
0.3568607748749382
-0.9327082113763635
-0.2954962183341403
0.3186579680179199
-2.681789448774131
-0.5501722680792392
0.3159932217595675
-0.7413087611282622
-0.7981023913532559
-0.7200275137715685
-0.9747163306838336
-0.353990550647315
4.135191986211062
-0.6442161194432738
-0.5902408955613326
0.3063329618619273
0.5215892815366742
-0.130672006245309
0.03515431010835014
0.06599882215151827
-0.0133680560115538
0.0890097536877333
-0.6572326852919871
-0.1591985662740692
-0.1337922387340607
0.02050985970611723
-1.439947487787685
-0.7483593075760178
0.07020076172379983
-0.09515568099728
-1.527823082292548
-0.3477810577798752
-0.9431710785433804
0.210444464166255
-0.7580582739422539
-0.339178436065663
-0.02535610334080136
-0.1116415696580586
-0.335788733688973
-1.184422515054083
0.09978465766330012
0.6349503341535407
0.04575786303860826
0.4227095284146776
0.04097000797753541
-0.001253075316731561
-1.316998557743669
0.7195354311699029
-1.576375248055929
0.1032775311513668
0.08151169965230819
0.2099129645722752
-0.06649120743077945
0.4159828812831876
0.439584505855889
0.6491684994612026
0.6102055037095828
0.1432636041861951
-0.7127403077205881
-1.185204353199997
0.1706852734969253
0.3402458214926246
-0.3832280789144572
-0.1029060185208267
0.3021707215751889
-0.7832338564773882
0.4322215495458431
0.4828124665085709
0.1623657953717727
-0.02940917330640798
0.2435999073182739
1.723703657986175
0.1370594519510038
-0.1026983211773309
-0.5771034374960029
-1.947429118755923
-1.204208251447456
0.1625352425749301
-4.189416924278289
0.01389751439584108
-0.105309376674521
0.01174596399940355
0.6149565545801755
-1.488249254937568
0.3704166521806622
-1.714030579494117
0.7138191097748493
-0.6642338011118506
-0.1949704041429041
-0.6697375527085306
-0.4653755544764417
-0.01790665182427115
0.4151053296052673
0.480097241429871
0.3452143100285562
-2.216143428975771
0.6705536580040279
-3.31506245618395
-0.2556702458683645
0.4654125003830459
0.4193355132523159
0.4340827377327289
0.1445355564945334
-0.5008235138956622
0.2861086813661442
-0.06839361026551531
-5.720974404753901
-2.482919560965998
1.505309789905139
0.7562452401490983
0.0593006834353974
0.1614097327128671
0.217956921719596
0.09604112141436887
0.2841983053844799
0.0921045104321755
0.5270635555915604
-0.354733687876181
0.0424627563563158
0.3528522037557937
0.6580513351250414
-0.005330125194640337
0.07597949179319842
-0.6322757124891154
-0.5462418557749774
-1.008562508764689
0.3589230388566971
-0.3950397691458454
0.704514845528018
0.2298616778950162
-0.06854233601985975
-0.6028048209835661
-0.8641531245023455
-0.04722962080474385
1.28335527543793
-0.1993414045852496
0.1417407398856865
-4.179078968064293
0.1656283350750069
0.1551291648277277
-0.3644185245282262
0.5842289922454894
-0.2243731415230727
0.1043518136220191
0.4381812989671333
0.005323419677979059
0.05993276013851126
0.9835412880070922
-0.6112902553400943
-1.422754549601468
0.3897097367690409
0.2165522163653072
0.3805568676828225
-0.1322832852549068
-0.450511414352891
-0.7759566008574668
-1.257794023681566
-0.1084318296472572
0.1245875605267735
0.5297437119820886
-0.823912417615413
-1.477339801100411
-0.7302765530158373
-0.02719692266277292
0.2251679638385783
-0.7940908224215217
-0.8115180509376734
0.1319046075586383
-0.6938788023111881
0.5878213579905732
-0.366224628865456
-0.2589351034161902
0.6908921723692896
-0.8608854147703724
1.032252934898734
-0.901952990753533
0.7091052753914575
-0.8070415909237925
0.07921202503931106
-0.3864856174954836
0.3372072772355588
0.2679447163482215
0.3379494162329415
0.1546946263344073
-0.1469105208728731
-0.3267231491584391
-0.6553564897383828
2.065823429241914
-0.2187221312739251
-0.5369969846138786
-0.168778260791544
-0.7126836069778698
0.881172089273515
-0.7108641029691529
-0.455388496758263
-1.256047631693132
0.208280787300044
-0.5551625712686057
0.5318891642470632
0.2795111791588618
-0.3017386607381591
-0.9962330170503891
0.3115193413827804
-0.6763649947825833
-0.295865360211314
0.05256997834878196
-0.3404866701521252
-0.4091560812532483
-0.0343420201338446
-0.4428546682205345
-0.07492951510717979
0.2877427932012735
0.2896890746118106
0.1908930334211215
0.3704126637962222
-0.3121096819864141
0.2708017897409325
0.208338290298622
0.3018258009532265