/*--------------------------------*- C++ -*----------------------------------*\
| =========                 |                                                 |
| \\      /  F ield         | OpenFOAM: The Open Source CFD Toolbox           |
|  \\    /   O peration     | Version:  v1906                                 |
|   \\  /    A nd           | Web:      www.OpenFOAM.com                      |
|    \\/     M anipulation  |                                                 |
\*---------------------------------------------------------------------------*/
FoamFile
{
    version     2.0;
    format      ascii;
    class       surfaceScalarField;
    location    "1.8";
    object      phi;
}
// * * * * * * * * * * * * * * * * * * * * * * * * * * * * * * * * * * * * * //

dimensions      [0 3 -1 0 0 0 0];
oriented        oriented;


internalField   nonuniform List<scalar> 
37503
(
-7.348811774009442
-10.91691641089419
25.96692605302422
-7.701197867328276
-24.28088764870189
4.203645942155695
28.01308335478579
-0.0004022701109435767
-0.5647722463695612
0.7787682218990221
-0.2135937055472741
-0.08958365647774094
0.1141131532082914
-0.002281882161109703
-0.02224761463678662
12.39673801437836
7.189553028254276
0.6037718324918403
-0.02210528637894058
-0.08497982361741967
-0.496686722662136
0.08744166566613154
-1.622212863426159
1.576788990492932
-0.04201779296764199
-0.8811582068032723
14.70857496689727
-13.82741675991632
-8.15472579660093
-5.61260464954726
-7.608788024565746
21.3761184713321
1.789928824782434
-3.144013021852102
1.477792820828449
-0.1237086239258056
1.493737766490643
0.1726061576861805
0.4066288834800806
-2.07297280753063
1.715239120639527
2.117409738590327
-2.735288101083508
-1.097360757865041
-0.02084897779164182
0.00186084038943081
-0.02008102300608459
0.03906916032516564
1.095721102437359
-3.574885781330412
-0.9882819622047393
3.467446641717663
-0.890640277679676
1.974633878315084
-2.786130738609396
1.702137138354223
4.422044552356606
10.55654163278533
4.480204980523285
-0.0134594668838646
-0.152642751115082
0.1325682440829769
0.03353397381948575
2.080712207757903
-4.625327418721644
-1.995421078086132
4.540036289716066
-0.3791498800042606
-1.283739162520486
-19.19091668338609
10.42853047527844
21.7814876340539
-6.396956254972627
14.07671483539564
-7.952767825436938
6.718523429201649
-7.636854830912116
8.871099227435712
20.06576119776675
-25.47210086321804
12.01680536713813
-0.04309438908902064
0.4247036070721961
0.03941453879943958
-0.4210237569303756
-0.4475808082455122
-2.185497216844757
3.728799127877662
1.409141413367526
-2.680423237157068
0.3806415463579931
-1.449217340348331
1.937813567353932
2.211351446032555
-2.699947672497684
-10.26296919422895
-8.995011957077145
0.2375782589672815
-0.270879808372282
-0.05204200443739617
0.08534355356766639
-2.300142134721626
0.4404954741944226
13.28671719677508
-16.2588484308251
-23.81763902546846
26.78977025888032
-0.1631353487127225
0.1187038803424811
0.08745577861052863
-0.0430243103370653
21.9277277741588
11.96739308840424
-16.7179131331546
-1.546798898753827
-1.006278373464834
2.105496464495432
0.2275539159018909
-0.01882139071396003
0.2051674662105019
-0.4138999915722519
1.341053935203466
-1.140175288670933
0.4658014895097338
-2.044623884136892
2.718997683707462
21.58637277775884
4.482474615705883
-4.270209631661476
-21.79863776105978
0.05205287293159339
-0.3120041874166407
0.120497032385458
0.1394542819934893
0.3114742438945741
-0.6035872400154811
-2.177308183167185
2.469421179027834
-0.04727143329224591
-0.2229916510493735
0.3768070140919504
-0.1065439299678555
-0.05168874417793796
-0.04427147862956345
-0.005798306523493693
0.1017585292823604
-0.4989300872665531
0.4514697721786774
0.3004799054445298
-0.2530195905244464
-0.05211452254547538
-0.3165034411283044
0.500117704800345
-0.1314997413394895
3.63808964292445
-2.41147428905758
2.329129338599796
-3.555744692391195
-0.1099281934787376
0.03211931473583051
0.01353857183722683
0.06427030684341407
-0.03938043063083056
-0.07795719294934192
0.02889932986101952
0.08843829366174562
-0.02347819510593498
0.1163354916683112
-0.1422564061713909
0.04939910952588987
1.968023029393724
-0.9890014668049664
-0.245339743126649
-0.7336818195278154
-0.6642793337939001
0.1828632372787692
0.325280109478336
0.1561359866189657
8.601738658126349
20.94425596200372
-27.05759465922938
-2.488399960810284
-1.258238384176311
-0.08196774706527465
-1.39508196977637
0.41146674539128
-0.134099431154899
0.0870474903168285
-0.3644148046119949
0.8322458921674394
-2.173665912094001
-0.9587221145905791
-0.1990994023656617
1.511596657019142
-2.087765391918439
0.7752681369288877
-0.1544175862747346
0.2113315739122537
0.004988846596071945
-0.06190283431859291
-0.2354777605291557
0.1241399449927306
0.1694048002671309
-0.05806698483987908
-0.8917740225620396
-0.534001747846532
3.166401433007135
-0.04636959253348501
0.323782384581092
-0.3197764167005431
0.04236362446306417
-0.007868545143148312
-0.09514325423901261
-0.0190614161275496
0.1220732154251067
-0.009195112257785687
0.05231820393385856
-0.07214023357707802
0.02901714182784157
0.007763757562566444
-0.1359298195019214
0.1192424261202433
0.00892363567716996
-0.07364170633904554
0.07090623318650278
-0.03314507461149611
0.0358805476683595
-0.2349380434887533
-0.2345763253002283
0.4604404594931932
0.009073908981104788
-0.09808963913265167
0.06157466170798916
0.03927387896935913
-0.002758901655974316
-0.106915968380516
-0.007300896732238822
0.09916371700290781
0.01505314802137407
-1.933241575572832
-1.15990697943853
0.04695486363018462
3.046193692199138
-19.97038333635889
19.02753390503558
0.9428494314307226
-0.1376944159024711
0.03948676777813961
0.07418480751314072
0.02402284051029226
17.98058944195057
-15.0034599779077
-15.10270866491697
12.1255792018273
0.07527328676293181
0.02894787670483805
-0.08040942193382226
-0.02381174162330879
-0.1524902438427213
-0.4900031011262823
0.4412232428920104
0.2012701018538552
0.1265780616879988
-0.5899034092394286
0.4906992061964098
-0.02737385899331167
0.1266770319746108
-0.07442990204735017
-0.09232670979349895
0.04007957965801937
0.1951603844528679
-0.2204629916582228
-0.155803567307846
0.1811061743625737
-0.05202044060659528
0.1281639167390785
0.1634348913156793
-0.2395783675534826
0.8533916196519054
0.6086994339323827
-2.216198556914137
0.7541075031413234
-0.009415627898697937
0.1180859838032833
-0.04279867630061739
-0.0658716797518288
0.04604973965928553
0.004998499078648303
-0.03001720612812121
-0.02103103270138657
0.82679269164625
0.8379300378598051
-0.0393922050665472
0.006514055653047215
0.03287814937546456
2.702147950242317
-1.585870209341945
0.9311602219538659
-2.047437963162356
0.2124096408576367
-0.08859341166212206
-0.1038895451599758
-0.01992668425118367
0.08389545627033931
-0.0221646927120325
-0.04490018593408887
-0.01683057767695716
-0.08496723593961332
0.4603656338461302
0.4023705914689376
-0.7777689896331428
0.2530610666272418
-0.1848602753166018
0.1618105822121527
-0.2300113736112365
0.1129766673438447
-0.1713471990185859
-0.2434381516897522
0.3018086831295395
0.04899443212902169
-0.10231656160739
-0.02189166487113121
0.07521379428203603
-0.08616130977774847
-0.01032774814627938
0.006905401393803096
-0.06672345274343668
-0.1072716175396344
0.08904531848347315
0.08494975170160077
0.190946654212081
-0.1090568332889363
0.01914319525963797
-0.1010330162305353
0.8445266091903489
-0.5346416805666993
-0.3186996265800417
0.008814697569901142
0.05134556883028858
-0.3131318051361916
0.3249974854493281
-0.06321124939638879
0.2535942002707979
-0.03918402293965604
0.01995710665791686
-0.2343672841111897
-0.06781804986859725
-0.2283177318306013
-0.1957010503637441
0.4918368319941304
-0.03477385051731811
-0.195439276616895
0.4097554481982196
-0.1795423211681669
-0.1080414224333578
-0.2764922971856326
0.1004314140586587
0.2841023054305729
0.02692781155057843
0.1454735822585467
-0.1951674504169472
0.02276605649332173
-0.1031541952119403
-0.08634639925283213
-0.2511296564947686
0.4406302508706171
-0.1998560531651748
-0.2847513676001955
0.3446305539761616
0.1399768666517452
4.790256359379829
-1.474568545716977
0.05043827559169913
-0.04099641727997479
-0.009441858412817316
1.002756410983026
-2.226125379095589
-1.457054268842612
0.02909629405227016
-0.02084064803273652
-0.008255646051887552
-0.1800970712287565
0.05454276053812224
0.02748276285152146
0.09807154775031528
0.004244504713530689
-0.067153346573817
0.1547415522881545
-0.09183271051517314
-2.335132418307013
-0.8104844963355553
2.607349664910015
0.5382672501289885
-0.03889747888380186
-0.09023603274075698
0.1325518773094478
-0.003418365776327412
-0.4414131713002466
-1.181556810472817
-0.8670526126554645
2.490022594589343
21.05953207025312
-0.03481895265281874
-0.3398549605708822
2.90423856880627
-3.704558896823597
0.06231935635717317
-0.1003748477110626
-0.03054895111097673
0.06860444238220138
-3.093787285140712
4.873909945981846
-0.1110887904629949
-1.669033870983046
0.09300907514464861
-0.04373481090357236
-0.2424148078612731
-0.2576106332719255
0.3564370939194715
0.1435883470382431
0.1893824390880185
-0.09549869127942343
-0.02654850028242722
-0.06733524766461897
-0.08905037744291433
0.2402399219339627
-0.2114723014625007
0.06028275683476954
0.1810210129633991
-0.2868340819413489
0.3061729636998374
-0.2003598949052386
0.02796919827122237
-0.01355826305016378
-0.03936366902987719
0.02495273376751057
20.18349346652056
-18.67268197039239
-0.3262339563486424
26.62401811790207
-27.17894236803457
-3.337366294751559
0.1407565883242295
3.87946437039683
-0.682854663587997
-2.047575706207495
0.342342327078774
0.9171998871980356
0.7880334920094086
-8.038437722945995
-4.547008370492783
6.767852903075667
5.817593188802225
-23.27273544729925
-20.26584236359158
44.76848752972062
0.7696097699211717
1.566289677276246
1.392899681014221
18.37197737957763
-10.76519099535831
-7.606786384289557
1.194384625793944
-2.360541977999047
-0.07583477491127733
-1.707539552711994
1.151772110510135
2.324937873940492
-31.43245931048009
-1.16680541080131
2.231838140548082
30.36742658147196
0.0871492993423742
0.006274855793874068
-0.1125353722329114
0.01911121700407907
-0.1494456712529519
0.0002002438904164
0.1492454272593304
-0.07903212424088037
0.02834023612542939
0.08898456144754019
-0.03829267344037018
0.5373261954133235
1.436022261897085
0.5340046955713051
-2.507353152198274
-0.610443995652202
0.2131251446542464
-1.787347565336016
3.085394947333535
1.864367464716628
0.7268284931283867
-3.344036567497567
0.752840609340651
-1.888854129684372
1.900081883811161
-3.120091676680327
3.108863923367405
-0.3864806156494823
0.1798967493253354
-1.910976351879712
1.635260070504518
-10.36029329124101
-8.387069171083741
-0.05612678134908072
-0.1514604841682278
0.1143315995201101
0.09325566590549379
0.1158511520992424
-0.3426008806379508
-0.3561385794595653
0.5828883077596392
-0.5211419308406191
0.3594351454688725
0.1231569012476577
0.03854988375804736
0.4571919203209914
0.2142199948865757
-0.8244022885227228
0.1529903730885875
-0.3585752271815419
0.484547046767341
2.22249983459071
-0.1494757045046924
0.05478151976407903
0.01070383410937556
0.0839903505716475
0.008570663676190847
0.02289013358431381
-0.1155062428070124
0.08404544549205233
3.130574669196301
-1.083641693686279
-2.593974258594849
-1.156321015647054
0.5599308686293429
4.737691185312375
5.606142106961535
-10.90376416063808
0.2082588555879269
-0.7590680984433325
0.454462839827324
0.3046052585184617
0.07850940307834091
-0.2793704104364901
-0.2127800322571507
0.4136410394181272
-0.6435967886535462
0.2515432862451673
0.5500303029913582
-0.1579768007456977
1.809330147207123
-26.1381607514465
1.63601755806542
2.865732141846303
21.63641105174815
-13.83369047537047
7.700157729157269
6.693463615457503
0.1769597412407833
-0.05826271783846418
-0.1200002721562325
0.001303248709548406
4.67688092313985
5.855603770723731
-27.89228415210891
17.35979945923378
1.64711637697486
-0.7792327718116372
0.2895166677064862
2.673656937877362
-1.768788979420065
4.072366013872545
-1.74378232881228
-2.957379864638591
28.43875458429273
-14.04168275864225
-14.39707182509579
-0.08385972623012117
0.002552710522038051
0.09057307969981385
-0.009266064067616884
2.321738662704015
-3.620315737882191
2.096242653932291
-1.857150848628646
2.66514676383561
2.313841502678574
2.049063540773837
-2.041166380451458
-17.67463987794383
8.255481704023124
-9.772600206049825
4.327555000414756
-1.573218023296907
4.145306194880104
12.91318614687272
-7.937075531142528
-4.351923208151753
-0.6241874080057617
-0.007678600238561943
0.0783810307921879
0.01012328686862164
-0.08082571754826834
-1.296723457750259
-0.7353832876094026
-0.4655610490674579
2.49766779402053
0.3799793132942709
-0.2233283664719537
0.1048635196717164
-0.2615144666811752
0.04471224804259762
-0.06413106781346621
-0.2160589408608938
-8.076279761867088
9.076036809396312
5.198852406515677
-6.198609453872308
2.608205808348757
-1.966470989695354
0.6981136183535902
-1.339848437606759
-0.07187406875412651
-9.08957855350806
-1.808884101293401
10.97033672194267
0.2121090331458334
-0.1489182237446286
-0.06319080948896651
0.08914060890832338
-0.1559539975691397
0.06681338857679715
-0.05144376479005652
0.271410390959035
-0.05334847797571348
-0.1666181482967486
3.679849023742785
-21.7095550181274
-4.106964459269583
22.13667045415398
-0.1431717845849458
0.107219056792489
0.1967804240524992
-0.1608276964838617
2.639303805277024
-1.273185745414293
-1.807531230997039
0.1759180249421144
-0.08677741609425363
-0.1466330960216288
-0.05462700790381011
0.2344679646696342
-0.03320786087276618
2.900999799736489
-3.524519474093728
0.02637528018713976
0.5971443935302783
0.3635636352544071
-0.0226744926315062
-0.02120291651770713
-0.3196862265038283
-0.006428299926290233
0.006035329652180594
0.0921067070352089
-0.09171373684956365
-0.4368360081218775
-0.1125444171080403
0.26553111005601
0.2838493149586497
-2.285976606040172
-2.146739500873092
-1.454353526087123
5.887069633257143
-0.08742022387694791
-0.1486422112849836
0.1007193376061648
0.1353430974840451
0.05481857280032591
-0.160546384124933
0.1057278111954054
0.06823042913287325
-0.02349650173177418
-0.08525565241076369
0.04052172490191802
-10.71378151158514
-0.1331843216817691
0.005998608086423531
-0.01934938061661054
0.1465350940928015
0.02366201977458168
0.04521837993401058
-0.06888039980863407
0.03203905320005103
0.05638393149438231
-0.1095811812207998
0.02115819643170562
5.976526084459915
-4.087196411695977
-5.354818523798897
3.465488850300962
1.980192554112302
6.115873444139796
-2.431049126710491
-5.665016871760282
10.26407217396254
-6.596155816842622
-20.77149782479363
17.10358146823341
-0.07709480241852534
0.05235181536850821
-0.07807096507169023
0.1028139519688416
-28.98785134864847
11.11062852433212
-1.313693858974107
0.7203226498898987
-0.3683703101391939
0.7105799372901002
-1.062532276942946
0.7276139354584227
0.1514053429587543
-0.721888280045631
-0.1571309985759428
7.226391056731471
-0.9292959970756662
2.230318791978102
-8.527413851909502
0.09916557684678555
-0.1193371412263225
-0.3362316683400015
0.3564032325837139
16.76528632942028
-13.54453241312987
15.1512234632458
-0.6389111445107705
0.1888290536106651
-0.06310054082550852
0.09623833693078719
-0.03313779616088795
0.04165775415107642
0.1366412767587966
-0.1757249601757901
-0.002574070826508393
0.1043964174535917
0.03339549570573843
0.02212235914016261
-0.1599142724493754
-27.27198356418382
14.36486617387459
1.223184876371837
11.68393251498388
0.3221171137660605
0.4241050324608987
-0.371129597555179
-0.3750925488827664
-12.78765994292054
16.40075452332984
0.09218596186087794
-0.3626355422581989
-0.1195710892673016
0.3900206695199323
-32.29689570111261
9.549875421442314
7.338980452299348
15.40803982777974
-0.1624383797517725
0.03891652634046346
0.0574402942938145
0.06608155902327754
14.64068670729871
0.01938049363609539
-0.05614499034154526
-0.006456130424885176
0.04322062697803759
0.4452200066910849
0.06566713352824588
-0.5521493161351493
0.04126217592270116
1.434875043114736
0.1532233007201603
-1.020391517847895
-0.5677068263771315
0.0001430760843951819
0.3945094709391429
-0.113279620590112
0.0587968308690927
0.1953444283172817
-0.1408616386987826
-0.06479147650448036
-0.1322234170603503
0.01460108746873222
0.1824138060154241
-0.2059104015385667
0.02028405019327224
-0.00126170524808942
0.1868880564995647
0.1276863792207263
-0.04098109486288011
-0.08670528444624159
0.01795546118968585
0.03896981984734006
-0.05692528107599841
9.704450745368678
-14.09742321813396
4.39297247253998
-0.06244167629073405
0.08143881789197938
0.1809463536320698
0.2131319661359436
-0.1389934266003025
-0.0006705466563274529
-0.07346799310472886
-0.1030385025042187
-0.3022411517081274
0.8356492306846807
-0.4303695766100409
-0.1409687323968934
-0.3358865627315353
0.1932311162752426
0.283624178689759
0.2097809739565601
-0.3945393017635609
-0.3698242487140941
0.554582576431874
13.58294431193095
-26.40272275144868
-14.45220512381978
0.8828532596688735
0.5187017066673182
1.761629206455327
-3.163184172899013
29.3738001594456
-25.21150702991386
5.739894743971021
-9.90218787316331
-13.20381436769584
-16.12810742057114
10.1511830209842
19.18073876791078
0.123169699010453
-0.04168144416998687
-0.08148825497060389
-0.01262562443167855
-0.01017522927567954
-0.08821467107090911
0.1110155246881299
-1.244513954579535
-4.799635381178385
-1.015894185263177
7.060043520943621
0.4014856470040247
0.09515431807562869
-0.577835385128347
0.08119541997317829
-0.04682294692108484
0.1377422947370941
-0.01005825218244508
-0.08086109574513525
0.04909528894335292
-0.01677868737614646
-0.07766106516875643
-0.03065631781443267
0.05118950177164325
0.08643089740714492
-0.106964081479916
-0.05105529522537502
0.1110588757156496
-0.06000358054275723
-0.04765830161640371
0.04658530008560074
-0.118671392444949
-0.06095107347477028
0.1855121821380065
-0.005889716347146056
-0.064779780338825
-0.03012134830328164
0.09490112852164413
-0.4580868174228909
0.03704475152727763
0.3477138254755528
0.07332824033050049
0.1979026710115718
0.1809731028722067
-0.3268229010323924
-0.1422956137832476
0.09064495593383877
0.07526416711092693
-0.02361350936350552
-25.97329209726746
25.28864288376089
-3.530348990526041
4.214998204869384
-0.4516100199958771
0.09966903183064392
0.2762919589968433
0.07564902903431771
-0.4030367572772581
0.1638912938580283
0.5033369932062149
-0.2641915299129007
-0.1622291093874352
-0.01641110706205035
0.1036651489609073
0.07497506733040443
-0.0680668993263643
0.2822658311323748
-0.2466502038798224
0.03245127183192337
0.0809013093088549
-0.2163501709779926
0.1015104181071252
0.03393844340632107
12.05481162872709
2.808977208266005
-1.390170476942716
-13.47361835976756
0.1119021425130413
0.02511640414932068
-0.09135317908015396
-0.0456653677054079
-0.08210922742572795
0.2044624030566808
-0.03284702872821566
-0.08950614710788879
0.1219503470699088
-0.1157851341158156
-0.1621192106213645
-0.04243078708169489
0.03727576069759868
-0.04665598076782602
0.0518110068556423
-0.06764202082516987
0.434846120869634
-0.3134888655956146
-0.05371523459460888
-0.02096682131296466
-0.2257543674146292
0.1844193140138468
0.06230187448123275
0.1351150010704012
0.01153324304544347
-2.281253920802703
2.134605676115303
0.1270268268259954
-0.01725404709085153
0.0334182418356129
-0.1431910216699852
-1.305439600782941
2.094165492925728
-0.3238333918809492
-0.464892500232877
-26.86992724791101
1.511274009596907
27.00089250449894
-1.642239265811771
0.07719123113653589
-0.3215258994152196
0.3366687841220425
-0.09233411611676944
0.1046917708093532
0.01758785854955237
0.06671525080999662
-0.1889948802471495
-0.0580241611629203
-0.0239173179106196
0.06187618283531444
0.02006529615214711
-0.524577265068796
-0.6103963987172747
0.5967186684202496
0.5382549952964459
0.0564203918121977
-0.2602964832557576
0.2056230147413479
-0.001746923471946076
-0.1869349871122018
0.03334220234466175
0.1893195506334327
-0.03572676596156169
0.0248624223122455
-0.09375283300349486
-0.01097889192457149
0.07986930252479964
-0.3719174456275314
0.363119044598541
-0.6710336458840859
0.6798320467022773
0.2546548840011081
-0.005031458826085873
-0.6501016611418895
0.4004782355477187
-0.06113142832526781
0.1336140353025801
-0.04463350223939064
-0.02784910480749377
0.1427081374378195
0.2747569028838885
0.01179341840992675
-0.4292584588203315
39.17524218878386
-25.17863621589542
-18.10683981439166
4.110233841763133
0.3497297803797749
0.1038132491697265
-0.168170960160635
-0.2853720695265265
0.005254466168440456
0.004223613019494588
0.2175926567190714
-0.2270707360279096
-0.6620839168419779
0.1323474489306897
-0.09932011843478068
0.6290565861469006
0.09258093375376403
0.04152388943718834
0.04664625287195803
-0.180751076155175
-0.05027388654866506
-0.05629572852524493
0.01966793711772221
0.0869016778885649
0.04700390582923807
-0.4099841984075866
1.723579793502897
-0.847045153798039
1.275113837671086
-2.151648477781365
15.54483275172101
-10.98838469536187
-0.04246772059951655
-0.1283474268140578
0.1283220877824691
0.04249305954785237
9.566815684968865e-05
-0.1277758821310175
0.00914397185551357
0.1185362420487531
-0.1353947284077807
0.1269973993035592
0.04018153038760236
-0.03178420135798566
-0.2431907358806458
0.1056877269656117
0.3204159266109743
-0.1829129178068326
-0.07830020010091306
0.03062341748063395
0.02090052951812619
0.02677625306793891
0.08146288700369125
0.0253201502388496
-0.00486233579630988
-0.1019207015357989
-0.07308111798934337
0.05766615628383091
0.0952866502077476
-0.07987168864271199
0.6411108210933475
0.7022155068847993
-15.23297229887526
13.88964597200494
0.1467267129482654
-0.158340634693079
0.001010367958339771
0.0106035536568666
-0.1636629158261097
0.04724862547987144
0.04422681490688213
0.07218747537289154
-0.1909020480561865
0.3420516851123362
0.133176120120464
-0.2843257573775207
-0.03647463099678583
0.03836515111011651
-0.001890520172886021
27.5804956077692
-28.35311829108574
-8.257187378888528
9.029810061899541
21.23302195267342
-2.383902947614513
-21.69658191577978
2.84746291069522
1.966323517818735
-2.207650156876764
0.3457750321043051
-0.1044483934763972
1.828447648358611
13.10048820399876
-8.342413261941326
-6.58652259047536
0.1492827485513754
-0.04502384529097678
-0.1042589033337331
0.001019679308117091
0.004114233021897914
0.08296049834378798
-0.08809441073789998
0.2824612169571981
-0.1223122441713408
0.4391354951202221
-0.5992844680495221
1.832299086915974
-0.1328306335857187
0.2722027558189111
1.221281311929795
-0.4787819154752155
-2.05078559390092
1.30828619723042
-7.352921167200074
-0.2897832460621581
-2.382938920191344
10.02564333467301
7.600796139439575
0.9260037482645325
-8.215218774913794
-0.3115811132361231
-0.2837487050254937
0.1171935673607699
0.1145346969721985
-28.71788385973888
22.24424323194783
4.548077527775422
-0.09970662437155868
-0.15805461410017
0.2229873878962758
-0.001794839975912861
-0.02061005161966413
0.02240489156326416
0.09626214760332982
-0.05148156597172119
-0.1466975415894216
0.1019169598944424
3.020525954477984
-1.728444805141665
-19.19937431537047
17.90729316681903
0.5399958370308108
0.0795804728696425
-0.7455643674900678
0.1259880574988068
0.04296601770593046
-0.04011217764745415
0.1253100766160943
0.3596429304835064
-0.03655194283565753
-0.5060971401623504
0.1830061524253997
0.1373767577184854
0.04955618954799103
-0.08162934256664335
-0.1053036047988139
-0.0944726515792168
-0.4171241278212959
0.2013463466919613
0.3102504326211489
0.2728453218912893
-0.01684818362657588
-0.2160878997158356
-0.03990923876075188
0.03496135973207548
-0.1962653897864913
0.02937154162720366
0.131932488201653
-0.0334949657268266
0.468463042363402
0.2616055378913261
-0.6965736146711414
0.2006908956995018
-0.2538619007554464
-0.2692485109098571
0.3224195157470961
-0.0616825360678367
-0.2876825471968049
0.3029427586707912
0.04642232426811233
-0.03579833987574573
-0.1442789076327781
0.1800772474223164
-17.05880679674964
15.51006740577636
-2.540668589426164
4.089407979656231
0.08066219984971341
-0.1164605397723646
0.1009809186115719
0.08754955764642408
-0.06954959422819704
-0.1189808821704281
-6.606402398200289
20.52659415976342
7.666181016779623
0.7208224829816401
0.0160805545367339
-0.4544418206540876
-0.8016853766030709
-0.316783772195476
0.6603319660538076
0.4581371824318309
-0.03378700209769802
0.1145728406095839
-0.0737403701772545
-0.007045468405502116
-1.063444729136838
-0.4078205591484178
1.36196027162199
0.1093050161720052
-0.0004257551429365998
-0.01173874059991022
0.04013369397932504
0.1272905479094803
0.04848268510805816
-0.2127207378171679
0.03694750469759801
0.06223520407099043
0.1457175436393028
39.51816692732714
12.42043313062721
-37.72876683515608
-14.20983322213879
0.04506341165839249
-0.08726285104329658
-0.001880698011989662
0.2879181565883333
-0.4858935118462666
-0.3524940318186144
0.04158813336223131
0.3661538232358375
-0.05524792497755183
-0.2724740050687397
-0.271351120113262
-0.1729474721640865
0.7167725971415497
-0.1139230036385698
0.1695280453040266
-0.0963808968283548
0.04077585508022457
-0.5503701991075534
0.4336190072439237
0.01173297392683021
0.1050182178456254
0.06583004821889485
0.001255983315134108
-0.01703269769847335
-0.05005333392572739
-0.6571609036635486
-0.1049866254918312
-0.1519582495550755
0.9141057786517288
0.1065365529216711
-0.003823184361343219
-0.02633123996029325
-0.07638212867837627
-0.3628862395781284
-0.1108315868277884
-0.04742410463457922
0.2568895198761605
-0.1685316310211663
-0.0883578889323027
-0.03615250682690682
0.02205553741820313
-0.1178800685594176
0.1319770378717087
0.03246572437885819
-0.1131503782479626
0.1036116372859126
-0.02292698350858239
0.5401097886424225
-0.7396542546566759
-0.1242714281361343
0.3238158940112353
-0.08217271081913941
0.07714913379225236
-0.05458880635775504
0.05961238332592721
0.1347901213139706
0.06955058694084935
0.0009868685946156329
-0.2053275769459987
0.5812743747372484
-0.3547603137619663
0.03108694121219849
-0.1523819874449174
0.1104676131228428
0.01082743300359663
0.04248191237258798
0.0006564811250375299
0.3386614080303413
-0.3817998016847277
-0.08808097322398932
0.0264752460585868
0.00358156594455419
-13.75102123933524
-4.066333533978622
-3.678873640072156
21.49622841358542
0.4625614796199647
0.07938407009520523
0.002607345260898372
-0.544552895011979
-0.05279787788937684
-0.1834895675504247
0.1682989044862891
0.06798854081953212
-13.24903696731699
5.528635321173466
13.17195778784848
3.091463849929254
-29.51245860503074
-0.1290480798909796
-0.04019741660354688
0.02261240039104693
-0.04930610692496429
-0.09511673581430036
0.1856852350818503
-0.04126239251752915
-0.3585627978009844
2.385572106513829
-4.336848452604802
2.309839144098657
-5.634284706322347
15.81428635878554
-8.351554003960521
7.788055867581895
-13.61019432994615
13.32617273782559
-7.504034275275439
3.246898723205011
0.04297962423471293
-0.6709758040747846
0.7728577007938404
-0.1448615211643564
0.1057580284189066
11.02292315505408
-4.722375162501651
-6.406306020833241
-0.09846873470326521
0.002120157828911419
-0.07783673878502728
0.1741853154686262
-0.6377191606420237
4.069682367701478
-5.175745535940303
-7.731388237275218
3.272884877093376
-1.190278111937875
5.648781472140991
-6.58087624715925
3.85228353539291
-6.846219972117227
9.574812683354438
0.01098155809216392
-0.1545058122419563
0.03055209580529608
0.1129721582222816
-0.06597995827230252
-0.3136988338874225
0.373457318429189
0.006221473482779569
16.38729202503889
16.56081439894224
-12.66336896366973
-20.28473745996532
5.707286019233383
10.68000600604662
24.99574612781413
-5.790758641475469
-2.64417308711309
-0.04448133483205165
0.1667473012906562
-0.04608579432715647
-0.07618017220940899
0.1380884923080468
-0.07809838726076906
-0.1044714399533074
29.55705816117194
-40.51026586962181
3.428824551498793
7.524383157087173
-0.05147558521622749
0.04726796391709984
0.004504890171305136
-0.0002972689591281488
-0.02663502721898278
0.06675406221242296
-0.04011903503645985
0.13999248301875
-0.1776443588674216
0.3292730442350579
-0.2916211685958772
25.67535899383983
25.89742203246211
-0.09253645313390418
-0.0165218649217076
0.1271297876021771
-0.01807146962161827
-14.31146583198111
14.25347383529947
0.124410374939173
0.02191587213788191
0.02431010654531128
-0.1706363537642757
-0.0283103202844107
0.01158719123136334
0.01672312901778106
0.1591098191771612
-0.01797486070863463
-0.1724820476079832
0.03134708907047778
-4.241135832156201
4.878564264679097
4.417558212581841
-5.054986644903154
-0.01177263603568649
-0.04270193809530576
0.0122622584147124
0.0422123156350356
-0.05007378491947043
-0.05192423482974392
-0.030138877489025
0.01836624142549038
0.006813260811536669
0.06053985819965745
0.01163258938157941
-0.07898570847287538
0.07589874090617554
0.1143783373971435
-0.00797786562952727
-0.02216101189389171
0.07048225279661025
-0.1153278179894029
-0.1002911213708901
0.1451366864474196
0.04389279727053307
-0.008513201763238444
-0.0353795955524803
0.01790535239751139
-0.07252344685542765
-0.09329126384958936
0.1479093581970972
-0.3036487815387169
0.1244004912287384
0.3209025444086184
-0.1416542544835486
-0.7430522495230504
0.08531366125133476
0.495158393185781
0.1625801949068508
-0.1077076649995607
-0.2024808006720046
0.4262412363802998
-0.1160527709099751
0.3027479918377807
-0.0322610754569593
-0.5066439510107806
0.2361570345198793
0.07247162805364643
0.02359339061205474
-0.0274458356735711
-0.1371273978934891
0.3277077408857502
0.0937817814947126
-0.2843621248375249
0.07897517222627227
0.0532050962516845
-0.1321802685278854
0.08709657038523162
-0.108045707683662
0.06324741451111585
-0.0422982773012839
0.7868148164629345
0.01552255245771897
-0.457812813279802
-1.261588443080079
-1.303086777620412
0.9420678654070236
1.622607355258562
-0.110142955460982
0.03104583595303845
0.1101840606671038
0.07170735848085678
-0.03512717649517121
-0.1371361449178029
0.1002592789655466
-0.01663539636139393
0.05351226211421515
-1.175498080961216
0.749790888410333
0.1934276473638461