/*--------------------------------*- C++ -*----------------------------------*\
| =========                 |                                                 |
| \\      /  F ield         | OpenFOAM: The Open Source CFD Toolbox           |
|  \\    /   O peration     | Version:  v1906                                 |
|   \\  /    A nd           | Web:      www.OpenFOAM.com                      |
|    \\/     M anipulation  |                                                 |
\*---------------------------------------------------------------------------*/
FoamFile
{
    version     2.0;
    format      ascii;
    class       volVectorField;
    location    "1.8";
    object      vorticity;
}
// * * * * * * * * * * * * * * * * * * * * * * * * * * * * * * * * * * * * * //

dimensions      [0 0 -1 0 0 0 0];


internalField   nonuniform List<vector> 
19631
(
(0.007054535011246361 0.001027991921653022 0.003585791804989028)
(-3.260575821007103 2.94776322591632 -1.473221081863777)
(1.350041579004241 -1.299589009169413 -1.836059092911077)
(-0.2042429855242148 -8.490811133184749 2.918703411603335)
(0.006244124789742726 -0.01700187473622507 -0.01648537802791084)
(0.09870701452049685 -0.007221837607343816 -0.03686390765741938)
(0.011632791016626 0.01026651043536757 -0.004651101029299305)
(-0.4567770408137514 -0.4315293066126341 -5.489233405718807)
(-0.02634888955246432 -0.02893074073224171 -0.06186650537570241)
(-0.1017403513692564 -0.04679230788566556 0.03003278429603221)
(0.02888063960872907 0.04572007623171087 -0.03148240962870581)
(-0.02050783136633935 0.07375418008545034 -0.01476391053950329)
(4.418750091681563 14.62551360116148 4.753546441401839)
(0.07166042659099169 -0.01187305027151175 -0.02384874697319276)
(-0.01176823251696789 -0.02224064621941449 0.01840608994199875)
(-0.009113919255467187 -0.0005604301784727615 -0.03426639763029591)
(1.529570831534298 0.2553927256572169 0.9516058261055623)
(0.004852387873683051 0.003603881054460105 0.01584550412756674)
(-0.04310690300269529 -0.0007370724641646972 0.02341450613832224)
(-1.360063541127328 -2.491068528308036 -1.974269482409203)
(0.02856467819344002 -0.001463566621496064 0.01836949357431626)
(-0.2736093388827798 0.8094114784738526 0.295747840240886)
(-0.01409845429758371 0.05530795661288961 0.1351741879846806)
(0.4319782930561036 0.6472979304370271 -0.2637367514521273)
(0.04120069776198761 -0.006714140888437472 0.01108531581035323)
(-0.02271027017347009 0.0329868328364199 -0.02760603465426208)
(-0.05615403781200309 0.002858238343802383 0.03655182613872415)
(0.2072495531193394 -0.5696367051070639 -6.773457011272367)
(-1.439557093695815 9.083110186598937 -1.884401891085374)
(0.1530812589255339 0.02939045157229304 -0.1494042537134608)
(0.009241181876411346 0.0007386055161838376 -0.01999187638588015)
(4.425026398527493 -2.04881315780135 2.066225685917118)
(-0.556771362194557 0.4571624864758059 -1.994183343110763)
(0.04317120364464011 -0.02295736758529444 0.01799690667367931)
(0.2585834861335938 -2.887175370027709 0.2753145103523471)
(-0.01441558546382046 -0.001833301657947844 0.01892930814528181)
(0.1061095494698777 -0.01739607063540482 -0.1409470307302784)
(0.3579281029638859 0.1013911912540359 0.05402214752611646)
(0.208725643193055 0.2019916360038541 0.08899138740740817)
(0.1503469011152428 0.02932847320548459 0.03973953120684952)
(0.8494890278337197 0.7942018810876539 0.7741545527980178)
(-3.494619722285476 6.50467266303817 0.7174428421380414)
(0.01092581936430841 -0.04121158672449088 -0.0427539315785699)
(-0.2659689199675854 1.904855426248198 -6.293429147821775)
(0.7266964594353051 -0.2391702362109973 -1.353459024612097)
(-0.478935660043967 0.2429536311978455 1.679061321431471)
(3.321549511873969 -2.264347623610252 0.6873141037349358)
(-4.642678749428082 0.3003115513500478 -0.5550791491515906)
(0.01313687776208711 0.000547222098960784 0.03081386727256845)
(0.06372552836912937 0.03699154737564091 -0.01755512763800171)
(-0.01290785453533255 -0.005009122241446604 -0.05713228848952522)
(-0.0122497125796219 -0.06511292363902887 -0.006480460281120877)
(-0.04242836690215708 3.105313092298644 0.9360884264675707)
(-0.02218797787271418 0.01898605591092692 -0.1320902886384005)
(-0.03525886473308112 -0.4467929030279992 0.1015586113527459)
(0.2939175978279236 1.080182757938386 -0.009379330026137167)
(0.4951077707588657 0.8210090779697171 0.0283000265611334)
(-0.02547097434938855 0.009801958862352579 -0.008472778893589186)
(0.03178169339861112 0.1735078452874512 0.3313024228109882)
(-2.061799603530663 -4.484753966948998 2.657099772828698)
(-2.010321161912716 -1.618529060336853 -0.8565651820104647)
(0.3079494787996912 1.329851115752559 -0.9670059294016263)
(-8.215355276611277 -5.836114266985014 0.9462368870446568)
(-0.0327611918054122 -0.04815449602539335 -0.02172049141039129)
(0.8553402254967502 3.725545517949239 -3.071819694281126)
(1.355487505605261 -1.164659734616346 -0.3546628794986918)
(0.04939544470515405 0.003432497387032317 -0.08576730124695024)
(-0.06109962891636624 0.1825857841028358 -4.746273628978201)
(-5.490959651268858 -2.030924913626418 3.116632415692476)
(0.08354344835541644 0.2047312695502418 0.1552719230954802)
(3.465547284406922 8.898186600584983 -0.04055669711666632)
(-0.03805464985816026 0.4720617643390569 0.1605134392038772)
(-0.1045718313109514 0.001095210999083515 -0.05936122245197435)
(-2.619478593925823 3.421924476383505 0.15139680941795)
(-0.01190713840641779 0.03217961499120377 0.08124312481252921)
(0.1445634757836401 0.3390788908843577 0.1271351164801316)
(-0.03931267399790386 0.09460221856236924 -0.01211198817534171)
(-4.435242254914679 -6.867514578010821 2.167109217577917)
(-0.7616138034080356 -12.94067984957091 -7.858202559334686)
(0.0554494672352912 0.008488328744441829 0.07215532693347615)
(-7.861844171740342 -30.26556441840797 -4.338419991004625)
(-0.5943768094032953 -0.8764517341018023 -1.229101315683769)
(-0.1669211372377573 10.21245726530573 -1.373559489162955)
(5.775043303768485 1.432422807724179 2.617901121065247)
(-0.005532597627999361 0.02345381865782381 -0.08052174239243799)
(0.1281169672530199 -0.2162260434838675 -0.06922014667056722)
(-0.5914188628380148 -0.3393832890125476 0.0965550115433232)
(-2.468117606531624 -1.208298262916081 4.096622617049679)
(-0.5050075650680678 -3.370910050505531 2.086206908090939)
(1.299761703663549 -5.305185907808053 -6.516127101361253)
(-0.318878001113643 0.3945493365501729 -0.3154308231172248)
(0.892453577470993 4.55975739027263 1.236154849820122)
(2.837986174559649 1.5464297641017 0.643803247796228)
(-0.1999520299248812 -0.6958525270281377 -0.6592932224559687)
(0.5595148876414068 0.1583217669116541 -0.0728592832762455)
(-2.635935755465892 2.621544477010879 0.02394399576008049)
(-5.760476201423176 -0.2415421843651284 -2.260971514403642)
(0.1023269732949742 0.1609159821538761 0.05947411693525557)
(-0.2763376798317875 -0.1097060309344484 -0.5140134682844911)
(0.03942014884436613 -0.04644999104639362 0.04108911625001169)
(0.02215013371962775 -0.02697495847471506 0.01594610329964444)
(-3.842604800213123 53.69445758896783 10.63818211256562)
(0.02557476449704848 0.06713185406815587 -0.0153819336149545)
(2.216558246009126 39.02067078813376 -8.696356379396818)
(-0.6476973154180019 -1.780247754009788 -0.6110014840259406)
(-0.2599210945966037 1.718403057775471 0.04966376857978472)
(0.04525046109666293 0.02757992601811366 0.0008560920115699248)
(1.564237178783809 -6.684953297510306 1.960127249974979)
(-0.0606835709985972 0.03955114634598553 -0.02575705548582144)
(0.02385197291613885 -0.04855982238544665 -4.547894331195107)
(-0.08908932811748832 0.234557031615306 -0.4268017582412941)
(0.5648123591989129 8.035577184334024 2.244268633675356)
(-0.006156059280870138 0.02854033952032402 0.03059193151110139)
(0.161610393667099 29.68204307913294 1.880022433585112)
(0.8924674748425306 2.375761826210181 -2.16633821862059)
(0.6135471772956939 1.203364563672861 -0.3584928727862107)
(0.2970052886522833 1.33461766761413 -0.6857876874241998)
(-0.06873300400764391 0.06114825487632015 -0.01467865043207443)
(2.138276683015577 17.9517380964753 -1.071260548132845)
(-0.01568276688617347 -0.003844867586264043 -0.007457560508226116)
(0.3572459554802906 0.07034000735517026 -0.02297725507806171)
(0.2271058881569523 0.06080189688318464 0.01173702927012189)
(-0.01305464647268371 0.009044116793875297 0.00518692260213961)
(-0.168785262605485 0.2971655208458419 -0.2397207748115611)
(2.971959392011328 -5.191149014523383 0.862615112033333)
(0.06971137008343066 -0.02136300567127267 0.05745893823218146)
(0.1108719245554476 -0.01276568379250361 -5.283835946564445)
(0.1072801138871662 0.02120317839589555 0.01622621180036844)
(0.06612956178267276 0.02787309509038288 0.01380155371509076)
(0.05437557245735647 -0.02507461337364475 -0.02759978806597869)
(0.4196044601706868 0.3820490403209899 0.01865771689583207)
(-1.064685368992032 1.532018903725172 0.2350845207037253)
(1.977031229955889 -39.61003130996597 6.568222123606425)
(-2.665327546245571 -3.947879827812542 4.142859442007078)
(0.02730460779349661 -0.03611369579488552 -0.009769466019569108)
(-0.0002653204247403326 -0.005115114558197915 -0.02730681172815079)
(-0.1200155534816013 0.08473122808945348 0.08490059537345394)
(-0.09033201436737229 -0.4988709734565783 0.2057469806277769)
(-0.3191014840845386 -0.1639143069467519 0.1278310290354944)
(0.09604000060696431 0.04338606565961808 -0.117558144374722)
(0.03161388146780809 -0.4371420392749011 -0.3326850062050725)
(0.7398756837800577 1.737653364336194 -20.84624924522639)
(0.03667444855163199 -0.3689297575467218 -0.6652854432185052)
(-0.01707967888144404 0.155855311067954 -0.07892463755045552)
(-0.06434177426376347 -0.08417087326851036 0.06496708798917866)
(-0.04353609198163547 -0.06027743815834839 -0.08644435481493407)
(-0.1208519395455281 0.1233025825946269 0.03914161602581381)
(-0.0187848216396328 0.007423861939489303 0.09151485579847966)
(0.0141712372856653 -6.141064135512716 -3.871790877640138)
(2.780254424315147 -3.342978183779199 0.9872939929559866)
(-0.02254456866071311 -0.004949442290583768 -0.01692503945418977)
(0.08617500941289633 -0.0009733822253069971 -0.03617505478719347)
(0.01904452678666693 0.01136874187345713 0.07576534528141526)
(-0.01355745952709412 -0.04717990884165187 0.1028825020858116)
(0.04590548972831143 0.01148003543102956 -0.03540964004961283)
(-0.05571009427401655 -0.02229285533279977 0.02933801685725865)
(1.634133451558939 -0.6973241733819759 -23.99670635016033)
(0.1734185614563415 0.03095550389760334 0.006984269352804745)
(0.04363225423318701 -0.09445135364833572 0.02956878624333664)
(0.1082521723255988 -0.03962188539850472 0.02932007730137755)
(0.01093475056274846 -0.0006863900749267543 -0.001413445503217824)
(-0.04016663148003465 -0.09377995217001062 -0.1010805551555069)
(-2.402705706260179 10.22222573558205 2.230052645405495)
(-0.1225959495546074 -0.2620368133241296 -0.1325492292315454)
(-0.03200572559805574 -0.01448798625490847 0.02439713926240361)
(0.005381229641241453 -0.02111066311840742 0.03020339207215881)
(0.01085500816416294 -0.01420762938882874 0.006011563719485736)
(0.01300122315458496 0.002468849227995389 0.00243615516514153)
(0.07893383722369417 -0.0301099002933713 -4.189493165538632)
(-1.477294187121982 -2.449449670151965 4.100223719987595)
(-0.05781456913155032 0.06679738457624647 -0.1209662975736491)
(-0.2703143936393789 0.2617464317676463 -0.7423899397312688)
(0.2456587956593945 0.03727833605851752 -0.2771237744231819)
(-0.9793928402763584 -0.1972959393208315 -0.5388166606746855)
(0.2373127814314834 -0.2435713252157699 -0.1247038792188086)
(-0.08643267319435473 0.2166121295687659 -12.79233946947503)
(-0.1069608110096367 0.1554569428971915 0.08565835425227755)
(-0.4353199091911811 -5.224458991207957 -10.08337850471311)
(0.002654530963892492 -0.01701889654614927 -0.02249074457673466)
(-0.1961126189268475 3.921221132384323 -0.5936188573821565)
(0.686080447884531 1.502037210465007 -0.7475537435359429)
(0.005393308754524878 -0.006237330704407917 0.00274288648255332)
(-0.08216549947453627 -0.5918022896722125 0.06326623035677517)
(-0.01461535982505323 0.1003635332652034 0.01071187360193931)
(0.9218344804059364 -33.62542639872972 3.056296112834548)
(-1.745116474771796 -22.80431599153108 3.294119921723359)
(0.5290949217726957 2.473272772649952 -0.2506015293883445)
(0.005067403078866916 -0.003175472948653217 -0.006289451917694331)
(-2.182708362807676 -1.24403547179105 1.587216349818818)
(-0.01309684530559781 -0.00469734742186774 0.001597031514265292)
(-1.729710874424154 -23.0178454204666 -4.438262118507089)
(0.461585692853191 0.5226426573146873 -0.6124602138444778)
(0.2532419277799686 -0.3382127340381186 0.04026261643131396)
(-0.09905165736058316 -0.01433532336894033 0.08684150212158784)
(-1.479001053338093 -11.20499796765431 -2.972332457346311)
(0.5742778702277183 -0.9981265028192656 -1.189836515543578)
(0.0493688996179046 0.01517577939259566 0.01626046939289996)
(0.1405426982292526 -2.261011367737868 -0.3143448375983675)
(-1.866977120568379 28.68030368287358 -5.333231222570956)
(1.579480875812249 4.327190881334102 -1.451575649745137)
(1.366820150825012 0.2197070221445077 0.4399235115338311)
(-0.2438471226835022 0.3316111474510537 -0.02711289039216819)
(-1.998258977069207 45.54640302073246 4.752907071085132)
(-5.348970150743613 7.090361955762825 -1.07882127462982)
(-0.0242003158589629 -0.0009247172888142176 -0.09925991636244832)
(-0.04585469250794073 0.002372455296512707 -0.0001416348972446552)
(-0.03422884056190609 -0.007007805487297481 -0.03346241870273783)
(4.395572375206541 11.07834250976985 1.395233031599498)
(-0.2816340149723164 -0.06697864010944093 0.3353510681179362)
(-0.1224834858089942 -0.07865960460975233 0.1494455107855375)
(-0.03015395021150809 0.03019431980457364 0.02690114952054196)
(-0.2805241318922126 0.01275151847022715 -0.02983030431523928)
(-0.2453346971820717 -0.3237623969471066 -0.600843200362658)
(-0.0531198308063328 0.1754653150858342 -0.08273243048929388)
(0.1565227176383882 0.02418444311579421 0.7224239524116252)
(2.426830049234555 -63.64060857227211 -2.440489904352454)
(0.2244228184141708 1.3250862323691 1.981463266598873)
(-0.9720604037567089 -3.720285689412123 -0.8110942553044843)
(-0.06725382597938742 0.1506756717385733 -0.0006030450642369942)
(1.398678341660676 -1.076435740293372 -0.6594596118997765)
(-0.008153811911794765 0.003418466878901624 0.002827229388264826)
(0.1093946308636957 -1.823571880499303 0.9515570216420178)
(0.01574144348770425 0.1172262820025698 -0.3380139948974273)
(-0.597023625107288 -0.1801766115355299 0.006214620916424579)
(0.02741540200574571 0.117357387727576 -5.596115438901908)
(-2.691335028495561 4.634906783376191 7.976724385212178)
(-0.05353951860971309 -0.03851957601565689 0.02069791018939438)
(0.05213487392132632 0.007736760332523535 -0.02186173223414252)
(-0.5950474849917501 5.837544726073857 -2.128294168539523)
(-0.5934197880390799 1.646392933767928 -0.9596234006728224)
(-0.1589597864979729 -7.05240977335187 -1.158956699758516)
(0.06177127966270424 -1.456803863401211 0.1953668438043976)
(-1.28201452076142 -27.20177567885122 -0.1768733780084457)
(2.252938503229158 47.43272541519686 1.857499003767992)
(0.003230786175485629 0.1316245507895121 -5.895678571835032)
(0.1873534357654811 -0.05526478827411397 -0.3845866182282053)
(0.4472054080574221 -0.05390863540084267 0.2410211275820715)
(-0.001967779633804109 0.007298096498404794 -0.1060024280489638)
(-5.933833840187553 2.996088648511432 -5.888270831558525)
(-0.002944362967828025 -0.08518824766231475 -0.04826163683339253)
(0.0008650726092998026 -0.01377780545177138 0.01647966649908897)
(-0.06638107922742091 0.01785286317988943 -0.04598637448349786)
(-2.278285778527768 1.144139226476207 1.502728954010271)
(-0.005800118137855407 -0.007982995370497703 -0.01023660918041032)
(4.808322401364314 33.5947720530873 -1.854195029200153)
(-0.7890702792281661 7.209980285266361 -0.584473953954775)
(0.000260553410828113 -0.0009986904618866643 0.004892546075844877)
(0.245558495832934 -0.0576482272600181 -0.02657091178847967)
(2.36823121275412 -8.972070154716155 -1.155825633829529)
(8.305064531482508 14.85179275393755 0.9996076378031669)
(1.019316998813082 13.99150515253468 0.6255179657019581)
(2.211987572912292 -36.51243527180502 -3.29995769209159)
(1.136332419342658 0.9259256077173409 0.2377969553893459)
(-0.831120146824081 -1.900211108014752 -1.113501477047721)
(-0.3208212572254242 27.54131026230352 3.270010445171049)
(3.003350669633237 -2.722104893666201 -8.328442388660518)
(-0.3822502404078121 0.2298366005746246 0.1305127377984918)
(-1.544150073600913 -8.094150943529689 -1.202333579922931)
(-0.09422816702134543 0.13256353375537 0.017216533085776)
(0.05330316198794782 0.8445759739859356 -2.721925040185493)
(0.4425946838673769 2.587323641360707 -0.2176627546787874)
(0.1620218505045783 1.28588459474186 -0.3163274560805006)
(0.08984056921360226 0.3245228524020343 -0.3934176560006388)
(3.813920106249932 2.506742091226209 -0.1741092616512747)
(0.1572878221165442 -0.08309224914118546 -0.3117487802306837)
(2.375111830779701 -3.431688854495794 -5.040888021686824)
(0.4297469664021641 -4.178605355667711 -0.1301675243215898)
(0.3309036834436871 -10.12893310237289 0.4413171615788542)
(-2.627551459115638 12.97281684918356 -6.07764976315775)
(0.1041063563470456 0.1563889235002927 0.1671244853078321)
(10.01058456278352 1.437055039650783 -4.073574027697078)
(0.3105151431496523 0.1181365879122924 -0.1395448400533752)
(0.9134400410021841 -5.358699421818307 4.205189258054292)
(-0.2934587684011266 0.03781887184866228 0.1905444064983081)
(0.09379436082629215 -0.01976206419765435 0.03800402618052585)
(0.1022117813608449 -0.07856966564114097 -0.1124270958098843)
(0.5649768152543625 -1.644544886719547 0.5523838909534413)
(-2.427085128904624 -8.070047605562056 9.61817310883329)
(0.1172878849935774 0.1512044633216894 -0.02707287058348562)
(-0.4557451780398902 -0.9911671824188726 0.196116816191931)
(2.846409098988342 -3.937519628009594 -1.641906097420232)
(-3.746456312777374 -9.531465068010409 8.772810574035246)
(0.0299680436662292 -0.3938515795888537 -0.2228367262799776)
(-1.491673215662555 -0.08871733386498969 -0.4969968274802122)
(-0.1921877461777634 -5.851859418885573 -1.569471836234977)
(0.3671008073250629 0.04810702061797029 -0.3403749588860978)
(0.001731554326670426 0.01007167539648065 -0.01524460647781945)
(-0.03316864859160411 0.3545130476011864 -0.1033050832085843)
(0.5146245870157943 0.4724977242525721 -2.151512080319022)
(-0.03792689235507699 -0.06555555053612556 0.08696154334858287)
(-0.4374342511570767 2.638825895759742 -0.8793771655581103)
(3.109083544004524 8.614158508503689 -3.1077749198937)
(-0.3415814306852121 -0.1394987204681064 -0.1727711582600192)
(0.01093071199376993 0.003817113400370174 -0.009492963367579434)
(-0.001186572058686598 -0.00421189587023518 0.004023141456411375)
(7.507020573295927 7.163937844923775 -7.165532968574038)
(-3.243936830160624 -0.1274117184838592 4.447320364573483)
(0.3224446694337468 -0.05901160001298814 -0.3348773306779642)
(3.070949410840766 -0.02651584907432114 2.550798697059458)
(0.009571121621906363 5.189808554312854 3.761285044905749)
(1.39350038403858 7.658726380554866 -0.4627462295908485)
(0.5712314741518021 -0.6739118147938791 0.1574625271451681)
(0.02415418531386635 0.03006690284027757 -0.0125270871065275)
(2.224438946094871 6.028475545545382 2.329769995656668)
(-0.9412656718261262 3.789001454656302 -1.263746984231791)
(0.01772297188135915 -0.03894294239673855 0.04743193154647384)
(2.069011877914661 42.10657006605769 1.230826940488474)
(-0.008212817615904196 -0.1102169199508807 -0.06194652739987654)
(-0.0112593484833176 -0.02107002907647571 -0.06573862966505108)
(-0.09123146112578946 0.02216207555035454 -0.03341816282409449)
(0.0284980729576375 -0.1229061626565623 -0.003829933770603157)
(1.103908007591895 31.46548846484714 1.348378832916862)
(0.2541593344422402 4.156936905038581 3.064346887216089)
(0.05913848679015254 0.006371977381041114 0.01565685492545131)
(0.01370605830696789 -0.02214847143219351 -0.003581520466672025)
(-0.05031218466852547 -0.01681848422884263 0.006023408360782263)
(0.01725655655897219 0.03761068644779535 -0.03667274529687703)
(0.003959699290430389 -0.01500307649303924 -0.01198692756155542)
(-0.09238560184688989 -1.392407463319605 -0.5883136931962392)
(-0.004031948226171696 0.001509927541616762 0.002362470943638564)
(0.3694005558504621 0.9794154752514996 0.7932228060722996)
(4.108362807853398 36.04460619374056 0.692270803170874)
(0.3721755465859349 1.272451137749998 -0.3117702531740965)
(0.06012071140110833 -0.01082922069716925 0.8138844348037961)
(0.211312656287627 1.220973008096558 -5.873450876959581)
(-1.402632294337336 -2.539069606164653 0.7810029498548177)
(-0.1469546824170315 0.3435607972846 0.1529707754824719)
(-0.4994627884997488 -4.4977681476561 4.183469748111255)
(0.1081367871077669 0.06430159700779053 0.1138749176110936)
(8.41172362775356 -1.767166895591838 -4.251265203860008)
(0.274742956775605 0.67024473731868 0.2310421388232044)
(0.1170901074938107 -0.06404917666611115 -0.05885979664443476)
(-0.06764963842492577 0.05322392528819342 -0.07005692271821322)
(0.4544431769737615 0.03805235665156886 -0.1720396227293932)
(0.5134443286290153 -46.65182791106145 3.85664457336015)
(-0.1330184830098019 -0.1552705112419664 0.1120863206754754)
(0.9258578783665847 -45.59037640330742 -2.117371235591976)
(-0.4480068343369151 3.051314132875604 2.351906241014273)
(0.136131662840451 0.07031138537991563 0.0135389235847552)
(-0.07647324935650907 -0.02906502204808777 -0.02432833302269285)
(-0.0594832814379952 -0.003693433288463463 0.01608040161767036)
(0.6029500353012668 2.637031778805233 -2.115625863596528)
(-0.03078312560040353 -0.01360002580540554 0.03410348778060236)
(1.911165082668603 23.371799531488 7.716207113177283)
(1.2225281117172 -6.625643819285762 -4.343476082213144)
(-1.780866925810089 -5.790454795205036 -6.97154394033818)
(-0.000959370902245221 -0.01425675880080053 0.04910912560410277)
(-0.6653174726905728 -0.1278292365474528 -0.1038534270817795)
(0.06800646649122048 -0.01408487345494556 0.007452192607616329)
(-0.4439777304881316 -0.06311580075670699 0.30885042524411)
(0.102625689568472 0.01042261530050107 0.02329599014154041)
(-0.0487392776161553 -2.459643201279811 -2.835058297148272)
(0.100263843269992 -0.1853910035445339 -4.917528126924327)
(2.517737077809258 8.57138341537353 -0.589549746365696)
(-0.08880093194286225 0.02734682700268464 0.001721435183186962)
(1.325489018617495 7.875101549073161 -0.5449327819533298)
(0.06321625592791491 -0.09349710339261719 0.0262621655708565)
(1.075146568130922 34.03275403817177 2.265308220630896)
(-0.05777108613408802 -0.5797806180528809 0.3656687820652924)
(-1.957488032820887 -0.5722456335704864 -0.5542796098242779)
(0.113096363436783 0.1079926680884491 -0.001986615893070941)
(1.27547676316671 12.24095299126297 1.702392699736744)
(-1.252021029293561 -1.239817311978699 0.3552184645391229)
(0.2436227328669351 0.1706353750525056 0.3203022239372061)
(-0.04835517676472501 -0.01902789457856147 -0.1206133591390878)
(0.01370982509446479 -0.04120505570099753 -0.008111029755051694)
(3.194413214877373 -7.268957946051528 -7.588943324919799)
(-0.0281605066903271 0.1936876931848907 0.3497778772458754)
(0.02416092042891167 0.02350080499914157 0.006312259521415941)
(-0.1612036728296761 -1.171613897966524 -2.013836377574783)
(-0.0209925322811669 0.01116582554375604 0.01244944452175567)
(0.01899355001120245 -0.007271307607476558 -0.01262142261982001)
(-0.5767426409716481 0.4508120548427201 -0.1387238096706715)
(-0.1492275139292859 -0.131021004787654 0.2749285504450324)
(0.4723934818288955 0.1213679238239159 -0.3452128559453959)
(-0.01087806551257886 -0.002050715912304422 0.0159825429344386)
(0.08223082813946325 1.150572859048986 -2.307217117795281)
(-0.005223584468971003 -0.001416269666125441 0.0003918624538042665)
(0.1291532820343032 -0.01623132843839972 -0.0273532001257769)
(-0.02670152493083456 0.006441789855795643 0.02068006779821407)
(0.5159357007161828 11.08346456935336 0.03615312832311246)
(-0.01331360008561503 -0.008700015620993018 0.02153800063592117)
(0.04832310123269146 -0.003341567139241652 0.00494424262429057)
(0.1043934867996248 -0.001146204362085498 0.05831519617640659)
(1.288261723216591 -0.9707514977263245 0.635632712263198)
(1.885012595490818 4.132366056317902 -0.3435710278013508)
(0.02104362594549397 -0.07244636310520215 0.2084347554694303)
(0.2924256657482434 0.1746917586112143 -6.456998037039176)
(-0.06986629947521023 0.02953508678076178 -0.1659595333440784)
(-1.283376146576354 -8.682643471385832 1.068663162306983)
(0.5602910605556777 1.205142812709513 0.2860112518496633)
(0.1563334201706247 0.0433216396103789 0.03054900915110926)
(1.777126236171736 -7.207853921519736 -9.476808444665799)
(-4.658078455923446 -33.37641210269835 1.310455973080858)
(0.002618548740287774 0.2382248860909791 0.08933736817303424)
(0.03302478744354406 -0.03896213091595425 -0.007952018377605119)
(0.01106849720936778 0.002639444032035157 0.002953042068961978)
(-2.707706214269066 -2.688998655505989 0.4459365786741647)
(0.4625755916984783 0.7846661957918661 -5.382991333551287)
(-1.055886376947336 -0.5896724738614797 -0.004358837972332275)
(-3.357218213355701 -48.08581591030723 -12.01727880529301)
(0.9344958353857542 0.8979384004522893 0.4261992942517203)
(-0.8132595034809449 -0.3393547413572348 -0.295020961871068)
(0.686742906332205 -14.86780987582954 2.731815304008418)
(-0.904199292048886 -1.679035830907046 -5.835318976298705)
(-6.832616191764346 -38.47619963718752 2.642387154620121)
(-1.197408685080765 0.6552632619667667 -6.830068272480475)
(0.4289621647684895 0.3462075208666206 -4.434088869205642)
(-8.979194983423149 -43.48872943986952 -3.318578104169947)
(-1.626421066021291 0.7338456264981132 0.7998508266310473)
(-3.652591027718073 -36.04523817017743 -2.553417516751322)
(-0.3220688777119433 -0.6943370714415085 1.379727547581001)
(-0.06361066344364251 0.1428551585978577 0.2466067727352438)
(0.08161116721650186 -0.3111024935796365 0.019137308520474)
(0.1002829760756616 -0.1342021044490674 -0.1971480159457244)
(0.0005178227654608972 -0.07143414676275472 -0.206826165491635)
(0.8222287833325358 6.940873805872387 5.109891670222402)
(0.1904983375992479 -0.01691750519785219 -0.1643065315280348)
(-0.9187022491713219 -47.2730397540955 3.738702788681708)
(1.515508894187703 6.51863570061607 0.1431096319678667)
(0.3749880039980811 0.139055796356646 0.1094193293306525)
(0.0105457560180904 -0.007681303915475888 -0.01898014063364445)
(3.480207917288177 1.013925945141192 -1.643354216853095)
(10.45356999314184 94.71957567045807 1.110564309670824)
(0.2944774547053202 -0.03416241071455038 -0.3564119063034955)
(0.01951848807175405 -0.01965912444791521 0.0006764667940081705)
(0.1067759523680871 -0.2800758035819392 0.1633172002587068)
(4.907774728721483 0.1205145070359471 1.673979201269979)
(0.4455443708381278 -0.3349395125815726 0.03815685505201855)
(-0.009726512125820558 -0.005890484541819733 0.005242303293455788)
(0.003386597928856878 -0.1860574993556069 0.1013380544483578)
(0.6108032038369358 77.10884217356218 -0.4486419274080884)
(-1.216297569378338 0.4701010988861771 -0.9458299932876796)
(-0.01561329304194903 -0.05577606985068093 -0.06919517420829488)
(1.88143904022021 -1.57771860061355 0.2952820599577377)
(3.92308082586021 9.789302457732154 -0.2390886304322684)
(0.004814206430193732 0.001436633261759041 -0.003702887207607552)
(-11.59396647414302 -16.09341615896503 -0.1557733610773165)
(-2.089076531709428 -3.58909895621073 1.190209111002325)
(-1.502791623549451 0.09709798801077762 -5.629375631543093)
(-0.008946348870956264 -0.004308294497663761 0.001324979134307004)
(-0.008525345599909084 -0.005580516582980727 0.1362536394793193)
(-5.159067321009347 -3.374758276516557 3.17141291507744)
(-0.1860181147027165 1.439738424576856 -1.257664585753753)
(0.0006128147697405056 0.005038877819573849 0.001807304671667656)
(0.3355873860290549 -5.378435370700481 1.648949797669523)
(0.006207661762405461 -0.002805739432004123 0.0107613734508808)
(5.407636951562701 2.580758878434002 3.118426967281307)
(-2.187294607976514 2.891901721808753 -32.38213552569961)
(0.02767159065716502 0.01932496340811528 0.01309844122279301)
(-0.2951071949686015 -0.6984161273864067 -0.421539453551571)
(1.014405212578821 0.6680532387958729 -0.8833240174446833)
(1.356990472712748 10.32657369859868 2.071345007209598)
(0.4346082721357438 -6.245785645141344 -0.05140423948357764)
(-0.004614406828106013 0.006273326121131644 0.00554804254999442)
(-0.0007802180209203003 -0.00342233296495592 0.0004474745020700555)
(0.09728952876014221 0.01337261925093191 0.006607102467582277)
(0.465820139652173 1.520612251443921 1.161919931956222)
(0.1556370023009122 0.1496341869109668 -0.3904183935898403)
(0.7907900135914886 -0.7719509603503232 -1.030535929100819)
(-0.1012421194058883 -0.7093173907716683 -0.08824789304085073)
(0.02624560933183237 -0.04718735621105888 0.0311059079405657)
(-0.4194469143826687 -1.013964070059265 1.748386968895943)
(0.0003350601228701258 -0.01414796434862534 -0.01457785156549909)
(-0.8548552939262249 4.939678703127141 0.867364237489473)
(-0.03359692112477139 0.01021615358268652 -0.03704673015344481)
(2.840140914822387 0.2750736937549809 -2.742612149347234)
(-0.3648240407000547 -2.386673088510374 -2.91349345427361)
(-0.1008349796417361 -0.07841500877651036 -5.88292705130573)
(-0.2475008699812176 -2.501125940502696 -0.10027730444017)
(7.041205084985638 46.87886540020291 5.98629769779751)
(0.2291696896118308 2.278308616904815 -0.4333060385645848)
(0.005178710315903866 0.01636319443153749 -0.01059082419263985)
(0.03931517769725101 -0.002694796155816744 -0.008388346836366174)
(-1.947648008043831 -54.19201764766066 7.375028442983987)
(0.2227214373868621 -0.06485304599747066 0.04484087357505784)
(-0.1028919019655919 0.03265108300626996 -0.1089347432566065)
(0.00323284348474423 13.15767459494399 -3.060897531411361)
(-0.928451583099237 3.646339396114628 -2.546342642958999)