/*--------------------------------*- C++ -*----------------------------------*\
| =========                 |                                                 |
| \\      /  F ield         | OpenFOAM: The Open Source CFD Toolbox           |
|  \\    /   O peration     | Version:  v1906                                 |
|   \\  /    A nd           | Web:      www.OpenFOAM.com                      |
|    \\/     M anipulation  |                                                 |
\*---------------------------------------------------------------------------*/
FoamFile
{
    version     2.0;
    format      ascii;
    class       volVectorField;
    location    "1.3";
    object      U;
}
// * * * * * * * * * * * * * * * * * * * * * * * * * * * * * * * * * * * * * //

dimensions      [0 1 -1 0 0 0 0];


internalField   nonuniform List<vector> 
19632
(
(5.020492290040375 0.005937784499324506 -0.01218461827236571)
(5.000125872048852 -0.006180941300598445 0.0006378115329996979)
(5.000484668389328 0.001101342902497741 -0.00076940236270243)
(4.996801759441392 0.06189940319147073 -0.2655719047107722)
(5.000241856438994 0.002182541564601896 0.009413118425242329)
(4.999877195359751 0.00199833101733137 0.0009865773420542037)
(5.003170676623777 -0.002806685341328549 0.01010006217245781)
(5.000420232522083 0.0007748099075219283 0.0004176526702640851)
(5.00002133833943 -0.003174291710686773 0.02969029319959682)
(5.044703675262939 0.09666705774382117 0.03026694230457903)
(5.043488988008258 0.29533005141466 0.09531194629240396)
(5.002576886409864 0.00691050714283281 0.0002012141668061059)
(5.000629946598685 -0.0007631684503047653 2.165626192296487e-06)
(5.001844613005295 -0.000986842682601047 -0.0002227534751975526)
(5.018834053079933 -0.02343948498633192 0.01235112234509393)
(4.98961867878104 0.001455163726338774 -0.001361122751105024)
(4.998299472395524 4.673823078073309e-05 -0.002381147085933351)
(5.005695764136008 0.01621611522855888 0.06058136289317774)
(4.999832730255215 -0.000341590672085214 -4.846407875657058e-05)
(5.001932755793224 -0.005624502486050736 -0.000536106709047976)
(5.034461118711402 -0.009774093706440445 -0.002929207677044845)
(5.100905826332871 0.03154694962017171 -0.1359448975056)
(4.945422408483119 0.009857934369018655 -0.0545987516331264)
(5.001898041420596 -0.003121939969542384 -0.0003403430597787639)
(5.000462956076132 -0.002821099226717839 0.000271328863909048)
(5.000672279840635 0.0005411585987250956 0.0001657776367420437)
(5.000669098522708 0.001041014149028082 9.664363280686487e-05)
(4.935981998432292 -0.002004160639268216 -0.2401248163540283)
(5.030159514684287 -0.01466224736298511 -0.006859939289641312)
(5.000856935272288 -0.0009813794117267776 -0.0006390093047410915)
(5.000574906495972 0.0002216442135938913 0.001677429728684707)
(4.998994622357367 -0.004692075717735165 -0.008241234002466928)
(5.067749958525507 -0.02526726341892901 -0.05560770114425797)
(5.186965624298794 -0.1579777789058958 -0.3542891613737141)
(5.001622790638828 9.420845304564747e-05 -0.002729373454061163)
(5.000864361685671 -0.0006989581583756845 -9.620023031134499e-06)
(5.001373098565465 0.004796005049081904 -0.004523320460436402)
(5.000674540445884 0.001389653432479651 1.638181026803265e-05)
(4.999997671468811 0.000122161149507377 -8.354837608239786e-05)
(5.024483343813895 -0.01086141376644589 0.0008550486276366831)
(5.000422616543099 0.000691038950518825 0.001181055255391831)
(5.001660584334877 -0.004404091643745455 0.003582729646461073)
(5.002059075460572 -0.003665208838735328 0.003259252949483823)
(5.185862411108148 -0.2434163285997473 -0.1294117849583094)
(4.999056248179677 -0.0007476923448824792 -0.001030664760402571)
(5.000242357070345 0.0003891866040540599 -0.0001677222668637047)
(5.000287843027129 -2.486265469393575e-05 -0.000189256807496936)
(5.000648915565466 0.0001088979530074795 -0.0003587811255162609)
(4.995876140933989 -0.004489617523483341 0.003738269669550323)
(5.001478095372574 -0.005522546414436716 0.004844926077953796)
(5.000255987674525 -0.001612102311602894 -0.007424861657016555)
(5.003989667881021 -0.01229565930885448 0.001644126391717746)
(4.999644234609653 -4.2013976141253e-05 0.001576210393561633)
(5.003113620827512 0.001912139153116473 -0.0008032424264998421)
(5.000376474149328 0.0004441129334343552 -0.001961490984933477)
(5.000583811219926 -0.01701890795608488 -8.351576672687896e-06)
(5.000742120301692 -0.004042333778291851 -0.01107200872574494)
(5.002053492639691 -0.004109177937174451 -0.001649247701778598)
(5.002740399089284 0.001562152838991341 0.003290816252183457)
(5.008969298527619 -0.001911315092812127 0.02853027483131216)
(5.000625709878065 -0.004147226748918571 -1.868049518179479e-05)
(5.000215604718361 -9.253486143576191e-06 0.0003992222962181865)
(4.932812333061487 0.08228727537601814 -0.0121120746938293)
(4.316191094405944 0.6932736073842973 0.5377841454834666)
(5.00069760077663 0.0002007152138676297 -0.0002524225776269325)
(5.110454277481279 -0.007067724103544497 -0.5910089728898407)
(5.268270958942693 0.1218910924513164 -0.05424361499705735)
(5.000962202251332 0.003201925084720487 -0.0009067053142072146)
(5.000468086711615 0.001595438826524753 -0.001275118169973234)
(5.002803024622887 -0.003864968133237586 0.002229633047638644)
(5.015323634952887 -0.001577731872438963 -0.002295466332026493)
(5.001108449692953 0.0001018619117136429 -0.0007364918902407695)
(5.000752493038347 -0.0003813008374564244 -2.445131008081991e-05)
(5.000081078676291 0.004087848995900092 -0.001032901081134264)
(5.000493636397883 0.0001792794448559661 5.501910761468647e-05)
(5.000289508862149 -0.0005308708219273463 -0.0001008169097962438)
(5.000198660026502 0.0004300624293071085 0.0002631341111177618)
(4.837851189650676 0.1596771705245424 0.003868036858567963)
(5.10657239793604 0.03054975897851391 -0.04530693536508427)
(5.034729187772351 -0.001620082293265242 0.01635317388428973)
(5.463222914094994 0.06746799746695682 -0.1965810039717779)
(4.967188602909152 0.2332513641912956 0.2287960404544798)
(5.002015780248854 -0.0001074433619705708 -0.0002995801409475774)
(5.000869119882027 -0.0004644798623939526 0.0002381741384552976)
(4.998048342576209 0.002329971681195806 0.001446351434249822)
(5.001233601143166 0.014270715476958 -0.01162380366409879)
(5.001006850618428 0.006684166813940284 -6.438614279394025e-05)
(5.000745108531385 -0.0006473306496745673 0.0001716092891700847)
(4.99827255553971 -0.000684574096033188 -0.006504665045205867)
(4.995486210999637 0.008159843337412008 -0.01419339899718195)
(5.03260831814405 0.004268454624628487 -0.05406288436491776)
(5.00023895307893 -0.00876136641865913 0.0002806491857850093)
(4.997634431826414 -0.005823373709647329 -0.005307913481394687)
(5.026833874065756 0.006425100742360217 0.02076529619776384)
(5.000575025177891 0.0004891731499315701 -0.0003924807755337744)
(5.003436998668831 0.002056837756186534 -0.005956762674183475)
(5.003586434109958 -0.001489348804005021 0.0005021535567930702)
(5.001169549772535 -0.0006789172508072436 -0.0001539622350688269)
(5.000303500441507 -0.001045156851064035 -0.001127294733897986)
(5.000124970226498 -0.0001437629200864587 0.0009160498767413611)
(4.550766791855873 0.3793406679217929 0.5440600229382008)
(5.000240646220517 -0.002285734017793493 -0.00200670204037143)
(5.013023791786033 -0.004403596939015539 0.00296061907714892)
(5.000226411421391 0.003691277363258857 -0.001428456511859705)
(5.054831451132209 0.0251560942254453 0.1717093680057774)
(5.072904119594941 0.005527573774894374 -0.04555558509768914)
(4.071018070551667 -0.7396075853777423 0.3689848660055754)
(5.046336827117968 -0.02318384558129449 0.01712946923752007)
(4.99988775784969 -0.001119950984442995 0.0004065920411884632)
(5.002206701367928 0.004631695233685957 -0.003854321492896341)
(4.943219632159612 0.1853360670630594 0.2485505606220344)
(4.999426857172351 0.002341146422678157 0.0008930235033903895)
(5.000521351898648 0.001677613088501514 -0.00268507503013905)
(5.23548996377799 0.2879335271980886 0.07289009007019567)
(5.001411925946108 -0.00405643110733085 0.0005829407588652358)
(5.029027827714746 -0.05742674910261971 -0.007227929241080729)
(5.07234580971057 0.1263007398802249 -0.6768522080814355)
(5.058028435477115 0.1782529133939962 0.02062669279698418)
(5.000290351947124 -0.002094892791371001 0.00111526897655748)
(4.999883047623235 0.005524376471743882 -0.002804225926804156)
(4.999153382762566 -0.004739280127088913 0.0006989255432881617)
(5.003659429181925 -0.001114146471431886 -0.0025887486443673)
(5.000505237525704 -0.0007334320935620365 0.0002720622828790769)
(5.0003302048446 0.0005088378640016417 -0.0003467807444458729)
(5.166181605729625 -0.1032376767793627 0.01732459732894373)
(5.083754719434253 -0.002810537292416175 -0.02041646038547934)
(5.000472356152117 0.0009715723564299195 -0.001933737983874551)
(5.008131629788388 -0.001115733500299335 -0.00109173863024652)
(5.000749256900548 0.003392568829105888 0.000106352251230091)
(5.000143275388393 0.0009515980579046502 0.000492372221187244)
(5.000764604477582 -0.001185285935447651 0.0002084825748027379)
(5.000442268982884 -0.0009687208216027722 0.001002965874793176)
(5.055668199024549 -0.02553862203587355 -0.008297505317636643)
(5.000366353553276 0.0005926301536428704 -9.69279393526762e-05)
(5.012226961940333 0.0007400976279638007 0.002287877936366771)
(5.023817107427013 -0.01020969246259888 -0.004201211561669583)
(5.007198457078354 -0.002316388711239392 -0.003380408186268253)
(5.001799708770752 0.001313711500078873 -0.00294595073891035)
(5.000927661911517 -0.00151531687220757 0.0002360023836837532)
(5.004547094328131 -0.009082901924425653 -0.007751183631104284)
(4.373246951456502 -0.0312035006646398 0.4829215932497712)
(4.961651782185714 0.2822461044855283 0.1227880837121045)
(5.320912582568273 0.3653156739732151 -0.1481250003851521)
(4.157700958887498 0.2091186731285307 -0.03719220515265496)
(2.865766254628363 -0.791376576107564 -0.6856484616747007)
(5.000210318398984 0.0003918355943925398 -7.972031166422775e-05)
(5.001422832356323 -0.00154692362933533 -0.003247518580410091)
(4.897252545681133 -0.04648938810337889 0.0566493467366667)
(5.01790086513682 0.0008389153017718902 -0.001193601598860024)
(4.999666337817984 0.0002386282045098762 -0.0004623728288976763)
(5.001063281324984 -0.001884012671362537 0.0005480537058675354)
(5.0010308679726 -0.003879197108486933 0.005086867842955449)
(5.001778710556509 -0.0004867119851604738 0.002149003396259632)
(5.001561584731991 -0.002248398511075111 -0.000681091911401762)
(5.015862150238155 -0.01449864616028985 -0.008311821798928077)
(5.002370596454725 -0.002095290306370897 0.002980230802327965)
(5.000241250986314 0.0006595967748729353 4.353746178703579e-05)
(5.000663406954335 0.0005430822156638103 0.0006538495688806745)
(5.00587135607793 -0.0112673406552141 -0.002122788615826819)
(5.003862022682634 -0.1487815541893245 -0.2278378968949525)
(5.020014121239961 0.3096950843786354 0.2614511113059529)
(5.002246702923885 0.1239998030459702 0.2095276555910668)
(4.547731761664671 0.5523669779758711 0.2398647740425567)
(5.242826395980676 0.1749799480733037 0.004091920773171782)
(5.00130748323646 9.340445420094698e-05 0.004604379198925546)
(5.001780002683724 -0.003037420972128423 -0.0004579860006957518)
(4.999704751311331 -0.0005905043940358419 -0.001415276470093584)
(5.005552136434458 0.02207024121332176 -0.03816253972966583)
(5.154755209758436 0.266823388002717 -0.2196256198073532)
(5.001563287937419 0.0008562239296903396 -0.00446385995743186)
(4.999591629159182 -0.001625949653682263 -0.003263896343246105)
(5.012732317336433 -0.004162540212296363 -0.001595444234900288)
(5.005851988245889 0.01399776778266538 0.008243510573790511)
(5.000685026398902 -0.0005223973586080937 -0.000601122655613427)
(5.000333487429669 0.0001345540525720859 -0.0001873177831357383)
(4.835331730964906 -0.03821065080412749 -0.007922850158274873)
(5.000777947046114 0.0006669529671304604 -5.296126432027012e-05)
(5.014231602626152 -0.004574375246253883 -0.000379638136734692)
(5.001012209990235 0.0001303706950308082 -0.0001472471690246913)
(5.000572860840552 -0.0003198678799258903 -0.0004678545969615994)
(5.000304694624609 0.0002685441334321876 0.0001594612105674909)
(5.000692152877032 -0.0001026741611290383 -0.000469146295120116)
(5.000838402918403 -0.0002686837629167134 -0.0001468186394346099)
(4.999692801930418 -0.0005735807303880982 -0.00460157918861851)
(5.001377206467558 -0.00180524116601046 -0.0001657792204752486)
(5.00047646747503 0.0004698548145676351 3.803701372032594e-05)
(5.017298175973154 -0.001304120559123285 -0.001923912976177755)
(5.001168043404007 -0.0005211125921185421 -0.0002839442525682651)
(5.000010213365117 -0.0001506682553800417 -0.0003386817827920061)
(5.00072130426246 7.492895733477719e-06 -0.0001837107729310607)
(4.998937240843295 0.0009068296175507443 -0.0006828908397947739)
(5.023281179561191 -0.005543909431769839 -0.001451792316535618)
(5.037897500667653 -0.0218517934136238 0.01183026688112804)
(5.002077850658065 -0.001803409561079195 0.01839987716571026)
(5.000702797054204 0.001300192814236304 0.000364973452093301)
(5.00031770953464 0.001214764896464017 -0.0006347599019430211)
(5.009660198836277 -1.264965363595057e-05 -0.001741962018438109)
(5.012057962620689 -0.1237106899409982 0.1932216205862891)
(5.001564313992445 -0.0009298140674962979 0.0007464104049081803)
(4.944687192814698 -0.001129593293177565 -0.04850483400669833)
(5.000819528956443 -0.003885804953423307 0.0006985559352005769)
(5.011041208943508 -0.01210733035542094 0.00213437294602547)
(5.000595286994579 -0.0003254999874227291 0.0002801939303781402)
(4.999864914171481 0.001858010301152126 -0.002013524674992459)
(4.996931078437377 -0.001146576926520507 0.00427741710443162)
(5.003281573634284 -0.004038425294069913 0.01345040606205817)
(4.999812597805 -0.0008375076502232321 0.0004138444770819058)
(5.001701985262444 -0.002746259442233909 -0.003440724429368242)
(4.999550588404333 -0.0009205989643706178 0.00154153733775983)
(5.000841762045134 -0.0001558024896572192 -0.0002575422040382893)
(4.995150035626762 -0.009862469610939497 -0.004658372776050191)
(5.00050141176577 0.0006857896903324103 -0.0001736451803163852)
(5.000008291184088 0.0005150856886807833 1.577380863727966e-05)
(5.001037863590371 0.0009581290831310324 -0.007224482852288161)
(5.000335330485224 0.001141186419171525 0.005749923495911581)
(4.997972043728173 0.0007336629695032791 0.003986278461544104)
(5.003322998383293 -0.002357712640375686 -0.005972627780063606)
(5.000180397059328 0.003988764367424214 0.00105822079699973)
(5.000212914298802 0.0004844446680482629 0.0006211465746233073)
(5.008016102681779 -0.0007199605337091971 -0.00781067366846055)
(5.007222832879648 0.04708345287369948 -0.02552436300691495)
(4.997182021025185 0.002351852167636338 0.006149547486244323)
(5.000194182521627 -0.0004347948445661381 0.0005924408493378803)
(5.000316094797367 0.0001791675694623935 0.0001404924785542346)
(5.016751948162112 -0.009813183013381795 -0.005490706496041623)
(5.000710921758805 0.002094490768931079 0.0008692730538692092)
(5.001668531710759 -0.0001570951216450151 -0.002528960165074744)
(4.999996326622748 -0.003145549377088335 -0.004952166349348159)
(5.002399611832091 -0.0005619879467575111 -0.002238126233967988)
(5.001693577648478 -0.000364075180811911 -1.283198716148081e-05)
(4.99894836481818 -0.009541032158722169 0.005088333307233225)
(5.002261185352907 7.786800338892169e-05 -0.000246877315693026)
(4.999234570321145 9.444723994976233e-05 -0.000129884906148929)
(5.00185660282444 -0.000100044083407413 -0.0003576534104372117)
(5.000290368044955 -0.007560861212331714 0.002628413666603321)
(4.998768401087826 -0.0005700316760882196 5.088052943196704e-05)
(5.000541319225142 -0.0003505068649297903 -0.0003136850100547097)
(4.929795658015999 -0.01368799010881006 0.01606596183373418)
(5.01726401404917 -0.008245897062435462 0.002055046293335448)
(5.001081952788542 0.0008412791195710156 -0.006248451570801164)
(5.00085486369563 0.003605811291677563 0.001275754628215207)
(5.435085363766015 0.07573972032893136 0.01802365866105698)
(5.021820528838483 -0.01330875555008073 0.0009005871842457135)
(4.999960326908591 0.001904104889713635 0.001670506254575814)
(5.000961980169635 -0.0002909738869227739 -0.0003306147850023327)
(4.999311225235506 0.001570235794127054 0.001857005919704165)
(5.000607812300355 -0.003663314208561455 0.0001240800356281768)
(5.023650926496062 -0.005505576130479336 0.004385824208500364)
(5.000356161467862 0.0003044816301188193 -0.0002646291954686992)
(4.999306737211925 0.0001365528509497923 0.001049762639256212)
(5.00049989099795 0.0004823687372101139 -0.0002627162428494905)
(5.000199461680401 -0.000140469433320159 -0.0003886562930630203)
(5.00009787389302 -0.0006298138846306767 -0.0004686111187889215)
(5.011862354223097 -0.005697728572016832 -0.002129276317222834)
(4.999806018871488 -0.005617928920547992 -0.002650585751839321)
(4.997400297128793 -0.01212209200621002 0.0003710143786563514)
(5.000312649884674 0.0001668521367725322 -1.227435486972683e-05)
(5.018280419686679 0.03858053509467238 0.02367053764501039)
(5.031236072175727 -0.03098361074402356 -0.00065279433512046)
(4.997480169221712 -0.004298607395721035 -0.002978796495942782)
(4.983836891736612 -0.01210093644789711 -0.01010223994907195)
(5.000717417065252 -0.002484386699763679 -0.005655850956761183)
(5.000835645340428 0.006018475112931331 0.001440741449516595)
(5.001249480819764 -0.0002805138819489699 -0.0002657321828569651)
(4.999381891950032 0.001304899036266838 0.009388339137834116)
(5.001230281381631 -0.0002724778577109499 -0.0002856973773147161)
(5.00124592000391 -0.0004236204509791141 -0.0001745013946827163)
(4.999620799941404 0.005876254117154308 -0.00564853554364102)
(5.000917312045149 -0.0003879374621664124 4.829911189894463e-05)
(4.999882079802289 -0.0003323222450378168 -0.0009588233731970425)
(5.001438585698059 -0.0002433397365007336 -0.0001842417054145889)
(4.999924094273741 0.001098623854355384 0.001223564924603993)
(5.001342571680738 -0.003039996190564507 0.00627488690674006)
(5.000839980098742 -2.543250381189056e-05 -0.0004821051785485581)
(4.999463161423185 0.004064289478663636 -0.00074313179053195)
(4.998891418727965 0.0008863258396513801 0.0001000309278060626)
(5.004102202342962 -0.003856871286776313 -0.004454637198799564)
(5.000770571621661 0.0005318023076736974 -0.006108963114258229)
(5.000301648112259 0.000589160239930557 0.0001255008038285308)
(4.998962718715789 0.005470436601239696 -0.04511348669548636)
(5.000616377480982 0.001164808179882369 0.001117592678639309)
(4.999669153360719 0.002538288012532219 0.03428382121273467)
(5.001289517536867 -0.00343250169096041 0.001105305853960118)
(5.000987136750413 -3.049159553899871e-05 -0.0006866620132542416)
(4.636954676267468 0.6981879824186983 0.8264867670779088)
(4.999441179021042 0.003540112332496084 0.03352290333707676)
(5.001507020132849 -0.003752068021302723 -0.006319497051764369)
(4.999411915108146 -0.00594213970969072 0.01999079892357413)
(4.997775762691782 -0.003449255799659285 0.005626579941655624)
(5.000316791445657 -0.004707538212605339 -0.0001456536790772142)
(5.000915760056325 -9.24147532762234e-06 -0.0004543128663537398)
(4.999509054810932 0.00198697157061368 0.0024846715946313)
(4.999639398844614 -0.0004231630337924345 0.0001903759854976172)
(4.999381497249449 1.008671717014586e-05 2.350216826263936e-05)
(4.999964990806344 0.0003671839487416215 -0.002608727637543959)
(5.000193911827354 -0.0002963178598145833 0.004670731850761314)
(5.002942344235253 0.0002277321481452717 0.000965285994965978)
(5.031480957864443 0.007772811584982301 0.02673646053112555)
(5.00005963944461 0.0005157085562709387 0.0001333765759601201)
(4.999488754471337 -0.0008363290192933011 0.0003168232166934387)
(5.031720694982179 -0.03452748618066296 0.004522169515729899)
(5.002107471081036 -0.0010333785001012 0.0003283448933955076)
(5.000087451399824 -0.001347560549930409 0.0006365661044744289)
(5.00047278687068 0.0001192983843721278 -0.0002303990277821936)
(4.961011343417535 0.2201293004335195 -0.3956560368501809)
(5.002312201494319 -0.005334170231075878 0.003052499544325943)
(5.000972759026338 -0.0004005531124428307 -0.00064139765129241)
(5.000622908781549 0.0001531112827006386 -3.299744139644454e-05)
(5.000442409800004 0.0003455964565280414 -0.001012688838274455)
(5.000483943683276 0.0002037047621994718 -0.0003539704716291309)
(4.372086647254998 -0.04764535462281249 -0.258807579674087)
(4.156592964929174 0.2035240162793846 -0.1463344294218197)
(5.056910921185337 0.02657527906261899 0.05991136180270275)
(4.997469061851908 -0.009384790340117697 -0.007303995658578973)
(4.971884301026065 0.2441328543003343 -0.8458570020982489)
(3.980542766611054 0.072834843515444 -0.2281608226478593)
(3.96928855483041 0.3156369820298124 -0.02020218311868019)
(4.999943351243206 -0.0001814943211196158 0.0002991642463214332)
(5.148694411817841 -0.09615200704045553 0.8199811307067248)
(4.935889104933448 0.0815885117186787 0.4163994670996071)
(4.99976900629158 -0.00177188620655785 0.0002580756935162047)
(5.002727759543809 0.003342486357383721 -0.001665888825549952)
(5.330849349318707 -0.07325737813840703 -0.2260365189859921)
(2.93302867331991 1.392637077383191 -0.5455097206018119)
(5.000603868600839 -0.0004132101398876658 -0.0001458113848015091)
(5.001770118946535 -0.007457548380647172 -0.003378475464344442)
(5.000659661297675 0.01154570522798888 0.004223922903244947)
(4.837444324517914 0.4605108644517592 -0.3058073115150453)
(4.818920270287489 0.2082266839949536 0.03539352374670647)
(4.951144196337441 -0.01661241660163266 -0.004979744031254841)
(4.999880729158402 0.002175212952002977 -0.000798343580418153)
(5.000318113405336 0.0005948370391690817 -0.0003782401312886357)
(5.000353804606262 0.0001905078820934934 -0.000442895833720453)
(4.998191596244427 -0.005327531640400378 -0.01047045477874291)
(5.001704114967015 -0.0003788634941884771 3.846421394515676e-05)
(4.997657884015073 0.01528705796299893 -0.00197932941565791)
(4.995893605554311 -0.004510024983364302 0.003193736849130378)
(5.159471457077175 0.00603121045237006 -0.3538255532166028)
(4.985163873102474 -0.002699836050328282 0.0003363056999927338)
(3.98910892615534 0.1643323775089635 -0.3125575528016465)
(5.000548158078887 -0.002601275195765911 0.001177885157429927)
(2.888707775698579 0.6773994039144386 0.3541628234351104)
(4.122405331376521 0.2068541857700843 0.7463218619668637)
(5.006320217372759 -0.002829408496494786 -0.002289993791749502)
(4.281039070765879 0.2124645350037932 -0.1987210763147183)
(5.005273939262527 -0.001769156006488459 -0.0005375559542417451)
(4.688205448522551 0.03506858574987021 -0.0930429516862188)
(5.003179522900947 -0.01151023978044438 0.0050709525181616)
(4.943614363562761 -0.0002371670269869248 -0.01226192660080214)
(3.32619983026565 0.04147833189304704 -0.3027292223026584)
(5.000413167611277 -0.00316092802453045 -0.0003205923095497751)
(5.000546375313371 -0.0008278890036073007 -0.000157226205762573)
(4.999264142511812 0.007917882459883365 0.04773600519709367)
(4.112052296890905 -0.4715255778017701 0.08380047132449796)
(4.995717951089628 -0.005968809481242564 0.001059554239093556)
(5.000378434955557 -0.0001139508800141491 0.0003615046590778028)
(5.000330627558309 -0.0001917731374830979 -2.829201139804964e-05)
(5.000340257160909 -0.0006161656059242799 -0.0002957560147469572)
(5.001474839188719 -0.0003350664704020188 -0.000221520636397417)
(5.000857300096696 -0.007290277850579449 0.01752679035428809)
(5.02513886667905 0.06052263300680724 0.007588134970454186)
(5.000193374593011 0.0003874702282363872 0.0001230529969609552)
(5.028238866769158 -0.0227319284922845 -0.003603910033574008)
(5.00225621726174 -0.0004806715903093784 -0.002154180636711694)
(5.022681371442319 0.01375154150006085 0.01264108944836691)
(4.589509206887604 0.02935022416311724 -0.03398616545308417)
(5.000630162763436 -0.0002811820586900606 -7.83396913119899e-06)
(5.027528285912654 -0.0214368117586559 -0.01378840026073023)
(4.998375869627727 -0.002867365918134809 0.0007522239285214394)
(5.037140512099278 0.003884044385299545 0.03499935247129141)
(5.015968669999074 -0.01210357054900616 0.004137532847450901)
(5.000552527622263 -0.002111176995857258 0.008127355349899388)
(4.956209224602066 -0.06212997376774653 -0.02199418275690549)
(5.000865457978334 -0.001707370651795538 0.0007888411217297377)
(5.000909133470343 -0.002437539012647006 0.0005932134274926938)
(5.007302326449732 -0.002120226402410281 -0.002179766851346434)
(4.086392046026077 -0.1729726007804822 -0.06626604577049003)
(5.000348731129116 0.000768548629675465 0.0001263273966430562)
(4.999880767807295 0.00078614539373827 0.0001617443908086496)
(5.000797264773047 -0.002134560518086668 0.0008949931765783745)
(5.009584736810239 0.05514522530716162 -0.04869088725442466)
(5.000858615939937 -0.0003825124774214311 -3.115679831955772e-05)
(5.001084417508726 -0.000567020723061918 -0.003311719160285053)
(5.000483355369019 -0.0001374667928402706 -0.0002709304777804115)
(5.029840677198088 -0.02423524525526259 -0.01770608953899529)
(5.000880212418374 -0.0005595282012921839 -0.0001874307907156384)
(5.000325269185503 -0.0004990113792316286 0.0003690666274418222)
(4.999291336744848 -0.0006454591732270419 0.002062461327015641)
(5.038763525132928 -0.006634099690831236 -0.007033721365201919)
(5.000806549183189 -0.0004997734292983332 -0.0001869385792091881)
(5.000887857073799 -0.0003030483474148092 -0.0003324335094588333)
(5.00431838397989 -0.00486420844244374 -0.001985268874816348)
(5.00141745500952 -0.002105944555200987 -0.0007195663395847483)
(4.999990882622271 -0.0003892963803676857 0.0004300547658595063)
(5.000898291144019 -0.001195482014187828 -0.0001557082997971753)
(5.001022855789295 -0.001313261390813084 5.445411474156142e-05)
(5.000992676046919 -0.001111534553114329 0.0001850261432977751)
(5.000839202165938 -0.001225645548488544 0.0001118598752502631)
(5.000119841180457 0.0004350254068659799 9.699160620277388e-05)
(5.000775675185563 -0.0007330432198132511 3.018612010917395e-05)
(5.001535599443542 -0.000882650078129501 -0.003660005853964048)
(5.001137909988038 -0.001092966017139781 -0.001872625676072519)
(4.972697594289052 0.007137014559949553 -0.003816451336105466)
(5.001642531887459 -0.001025088514072233 -0.003844061696621223)
(5.009882096086655 -0.001114133463443789 -0.001163080792683149)
(5.003066591253037 0.0009335290068888057 -0.001400688012497518)
(5.00059037121846 0.0005336709151770193 -0.000618824343075843)
(5.000458222909107 0.005598623995690956 0.034791474435896)
(4.48993303158637 0.005447281491915748 0.1068555480760414)
(5.000624045160064 -1.161398472565516e-05 0.006830134857033742)
(5.033292165331722 0.01501504205474533 0.0009706133636214766)
(5.000825678647817 -2.637174377020366e-05 -0.0007921295312142599)
(5.053866005484914 -0.05398473453774253 0.01070317307594605)
(5.000499276031792 8.670968846482141e-05 -0.001393263725465618)
(5.000376104397849 -0.002988381987423042 0.007787228820502663)
(5.001346784244893 -0.002328533213759346 -0.002104874818289121)
(5.001695028912696 -0.0007945177082329885 -0.002109635699669953)
(4.995098990328977 0.05243609451402655 -0.03346035504616107)
(5.001399953418006 -0.002021115656924857 -0.001907544210386104)
(4.997892217135791 0.001533028259815666 0.005236999086452967)
(5.001768627744045 -0.001298162560930524 -0.00178140744403225)
(5.000936460225376 -0.0008420998637474054 0.0003474547683458402)
(5.000527149280221 0.0002020465436297449 -0.0002034760729039426)
(4.999687172044833 -0.0008496528694887162 0.001417249438436375)
(5.000367426305876 -0.001044655231048073 0.001374762930811814)
(5.000382992293037 0.0008587625557609573 -0.001149587473294964)
(5.000600004101937 -0.000573378141497587 6.496539399373624e-05)
(4.999505836498447 0.0002696113969092477 -0.0004272583691061018)
(4.999169449198074 0.0008573295787727027 -0.001217213519715663)
(5.061436324480151 -0.05832124521017115 0.02017949420508735)
(5.000595851201536 -0.0005825444251766501 0.0001009328125478972)
(5.000473968866839 -0.0005299826555898269 -3.458813175867638e-05)
(5.000635916254243 -0.0008427917806450897 9.870300084373988e-05)
(5.000639006327084 -0.0006611283928843702 6.032277440671705e-05)
(5.00068106726235 0.0001758224469579995 -0.0007830663688243158)
(5.000691878983927 0.0001081956985691192 -0.0007409319994267478)
(5.000613266330028 -0.0006804769561767562 7.254663512813904e-05)
(5.000772081015653 -0.0009621957326068364 0.0002620818709832897)
(5.000734273548232 -0.0009469478589005028 0.0001617496020540523)
(5.000637509280203 -0.0008249331378705029 0.0003939597566418471)
(4.999918042361319 0.001614015866043821 -0.006979797778255129)
(5.007619800242525 -0.001382628753039552 0.02302104854167786)
(5.000494400707184 0.001899531287617229 -0.00131954031988917)
(4.997137274121108 -0.0009067731485738579 0.002709147622485071)
(5.006870030112628 -0.001465451885912161 0.001339124721327448)
(4.999497729556391 0.0008297438304501932 -0.0007971962336203684)
(5.000802526592254 0.0003268252295405377 -0.001239203098861261)
(4.999349319350398 0.0005652948560864111 0.001670103966605571)
(5.000829710379964 -0.0006213459528059662 0.0001666584906923851)
(5.00074624304219 -0.0008174235006657099 0.000157573070185469)
(4.998880733191595 -0.002034330675837044 -0.001753152035807154)
(5.00054870117973 -0.0007340705092980467 0.0001869966876981858)
(5.000634329434969 9.844362976531083e-05 -0.000304475575731277)
(5.000699863216446 -0.001214910405112562 0.0001336160408411709)
(5.001038188330532 -0.0009222838125178749 0.0004001873184393019)
(5.002439567264548 -0.003540765349178506 -0.002737058875269931)
(4.999955238082242 0.0001390911106404048 3.240950729406467e-05)
(4.9996523698007 0.002888186980783947 -0.001358727912617112)
(5.000072778829276 0.004360065276028051 -7.547337516829233e-05)
(5.008240261990793 -0.005233639211078636 -0.0009202112069531381)
(4.996833112373665 -7.849813388504641e-05 -0.00211424017002667)
(5.004713441335128 -0.001889181479774421 -0.001813955325649937)
(5.001244053084112 0.0002993242965877102 0.0002096819133296842)