/*--------------------------------*- C++ -*----------------------------------*\
| =========                 |                                                 |
| \\      /  F ield         | OpenFOAM: The Open Source CFD Toolbox           |
|  \\    /   O peration     | Version:  v1906                                 |
|   \\  /    A nd           | Web:      www.OpenFOAM.com                      |
|    \\/     M anipulation  |                                                 |
\*---------------------------------------------------------------------------*/
FoamFile
{
    version     2.0;
    format      ascii;
    class       volVectorField;
    location    "1.7";
    object      U;
}
// * * * * * * * * * * * * * * * * * * * * * * * * * * * * * * * * * * * * * //

dimensions      [0 1 -1 0 0 0 0];


internalField   nonuniform List<vector> 
19631
(
(4.989879142986366 0.0167635266123734 -0.009157371880407474)
(6.019828456539176 1.523396488549807 1.505104521665352)
(4.810838727453844 -0.1666993500127431 -0.1441261538377214)
(3.498412506597186 -0.2594037711035443 0.1489460224374071)
(4.991074920770303 0.004529091958971208 0.001211621992315383)
(5.099270582605467 -0.1000938018569691 -0.04433755426569057)
(5.043863173511775 0.005385278777465844 -0.01619005474619523)
(4.895062737357182 -0.1557618005767871 -0.1620879816099955)
(5.015194756991114 0.1500456348526085 -0.08322157513422469)
(5.02853212816294 -0.03207537299572451 0.008036869891492321)
(5.006031638548381 -0.04005017966088355 -0.05196299291808879)
(5.056223146375281 -0.007564643495796495 0.03970077913169744)
(2.203583906261944 -0.2432502750165002 -0.1422550192377549)
(5.016811871994408 -0.01900067848580234 -0.004916248255049569)
(5.016793177288021 0.007241427680941686 0.01254065949378228)
(5.029508829691431 0.004176926859092676 -0.03202230165588989)
(4.879397005361747 -0.1895541286958306 -0.09681187481081657)
(5.018436424411388 -0.00802927816271116 0.005642844988967725)
(4.984724068242749 -0.02045417161390733 0.002057720494489402)
(5.498870630697955 0.8811396337203293 0.5087296027516625)
(5.00248551719027 -0.02106805055628611 0.02157904578337665)
(5.023054890230305 0.139214388223154 -0.07334080133845274)
(4.968334613629707 -0.07406631564185574 -0.06127702223237011)
(4.865140197499692 -0.3616466993277935 -0.3494733319376564)
(5.019807326221204 -0.02583052243622064 0.001781434053972178)
(5.024272036162808 -0.03316747568331643 -0.0102404481642722)
(5.057061052539464 0.008095564154089864 0.01281267989589305)
(5.444689774428875 0.4347530264042961 -0.09339768511130118)
(3.936974405080476 0.7062358552903489 -0.2857042774499396)
(5.032966793988709 -0.008790720792599344 -0.009355406481478217)
(5.012181574723254 -0.0148138557187256 0.00123303895970517)
(5.388113887505286 -0.1979184723547588 0.4159264347843273)
(3.094260898931146 -0.4805943909409237 -1.056529156615258)
(5.032140126369676 0.01122848739636216 -0.002901799258041182)
(4.988121483893831 -0.1520874269822443 -0.001754496215605323)
(5.026570368981144 -0.01562454526550469 0.01980410164067642)
(5.048380627915427 -0.1173101766663221 -0.03573407517147157)
(4.994858042658264 -0.05641639764175138 0.01550057029004735)
(5.060889564985932 -0.03568832006847185 0.09955019364106805)
(5.072601202682058 -0.00504899550771036 -0.05616513336049599)
(4.757541414128902 0.2026479220689549 -0.1453598569973163)
(4.204437615413277 0.09155976488798064 -0.03805053866592041)
(5.090344990326066 -0.0611272234905039 -0.01716863488383893)
(3.81206207794955 -0.002087734349149744 -0.3902396485529932)
(4.879956583826045 0.0110721153423253 0.0494662934206279)
(3.476240613850329 0.08055898239811504 -0.1143084265401805)
(4.481945792761737 -0.03731992281937792 0.1497048861041891)
(5.02552873967272 0.1830492304995849 -0.3792486058263129)
(5.077310265930728 -0.03973859523170531 -0.0009281918876087381)
(5.026629865211683 0.02313784610780978 0.06096495884303489)
(4.958907124659201 -0.01156566909696844 -0.004550646199525939)
(5.057784017270455 -0.004731382913875048 0.01652742884607884)
(4.237466595300865 0.129630486184992 -0.1070305112413429)
(5.056996552105013 0.008136032410885233 -0.05640404669103311)
(4.970259020673624 -0.05575276859806264 0.06409710664234032)
(4.942407455811289 -0.006194491557663881 -0.097106834245)
(5.046294149284289 -0.08705887509732929 0.01296959272635408)
(5.037017084427159 0.002185886077755062 0.01528761327462606)
(5.049657614698966 0.02398109496653038 -0.1145242795833339)
(3.967969072637842 -0.03037776837929929 0.3830041546323314)
(3.947166223757712 -0.1498573896637596 -0.1026497720774909)
(5.1072259225018 -0.1006769589029851 0.2554684748223931)
(4.751322186585774 -0.1010478447533824 0.09164326462119722)
(5.10488976416995 -0.07259457995373424 -0.01889284200954595)
(3.960090143797545 -0.1930330104647044 -1.190338761388698)
(4.980592489124294 -0.0406720229091926 -0.4819227095402912)
(5.054279656331925 -0.002221664315363458 -0.01018489454994236)
(4.977647541966626 -0.01326812903759619 0.02050741006177914)
(3.293294299946759 0.2871903219605681 -0.3833025798017529)
(5.046470521811481 -0.005999466747134772 0.08614226540944657)
(3.52107913705954 0.08947425618273519 0.3680356128551666)
(5.092675060407485 -0.07005386474987642 -0.08245193067726392)
(5.120499432085814 -0.06573443126185279 0.009745560862583829)
(3.912254821719095 -0.2511893312463715 -1.076229730720288)
(5.043392102514142 0.03769475054717741 -0.2272366602396797)
(3.703406746463236 -0.07358908955732889 -0.05559485667719774)
(5.03640785618152 -0.05594605410065147 -0.04371334793933884)
(4.840048601989387 -0.5879787432132769 -0.09932695955168665)
(2.547835836358749 -0.3860763200710137 -0.2154323937208424)
(5.050742886142517 0.03700545595368357 0.00254731404895898)
(2.106384460723311 -0.276526740920849 -0.009701159776248185)
(4.905830550095112 0.06684647969606197 0.1578792255793399)
(4.245885657097274 0.2848579808415121 0.04753444155684173)
(3.098055032953955 0.3493159881687963 -0.2412001841742666)
(5.071693389620018 -0.02852386272358567 -0.1285922795501678)
(5.118771527700927 -0.106366443781804 0.0211418896244689)
(5.080184523937301 -0.09230365324873985 -0.02558082247626868)
(3.525553696203612 0.3269223975244276 -0.04568996198936903)
(3.573324299319261 -0.2343649500989578 0.1262172411563892)
(4.231952059179954 -0.08057289607569956 0.2300730884269578)
(5.036700549332229 -0.09154407709343838 -0.105858383816136)
(4.008725143528658 0.3097589450886027 -0.2027075917929631)
(6.788144125837964 0.3289738936665962 -2.712726563931574)
(5.086490117411648 -0.09969511644360604 0.05211004299682274)
(5.057077964349583 -0.09652766156254758 -0.1031109408371148)
(5.020688330845023 -0.07120680287423735 -0.1032790855530169)
(3.825184062469888 0.3908236638481323 0.3516589884136307)
(5.011969426809431 0.03091217365409794 -0.1383152008539417)
(5.12304375608048 -0.07717871437054034 -0.01782855357409279)
(5.090257643394945 -0.06556657879132115 0.04313574865150482)
(5.009146609301975 -0.03076700759123134 0.01763011856862942)
(3.169770187006892 0.104696509233107 0.1743427589370749)
(5.033468338809281 -0.02270974864319223 0.0009332256318394653)
(1.589187827180784 -0.04639178997836737 -0.05481370366644021)
(4.49949670723933 -0.1478709148636141 0.005128047526183038)
(4.90332121344503 -0.1310215047082476 -0.1669739798281924)
(5.048092605215157 -0.01887476857618057 -0.006965858592180333)
(3.982256169697848 -0.04800292276361635 -0.1874389729412973)
(5.03753320654755 -0.03613067195833755 0.003584839878060457)
(4.969371360925219 -0.01981389711164339 -0.0002477174360041387)
(5.033969760856484 -0.09407142299407871 -0.0185336913715968)
(4.123456186542223 0.06671452817319976 0.1730150917808382)
(5.030169536711501 -0.02072677504685111 -0.01997695265002947)
(2.506937549923551 -0.05642657892977145 0.03339725268025644)
(3.171466425672334 0.005064658804770097 0.04516387269119283)
(4.972027191601866 0.01586414515356661 -0.3040969728902035)
(4.619237024697538 0.3062067898243245 0.1753966907282035)
(5.066662758727317 -0.03359025750079588 -0.0988039045654784)
(3.114084670863326 -0.5161277715560196 0.442834508511069)
(5.006144876485042 0.03051184199557641 -0.008595531800833736)
(5.017591967102732 -0.2472816357895827 0.2355531608664612)
(5.026784969191408 -0.01826636050610506 0.03075920691677076)
(5.032642165991859 -0.01247431633184593 -0.004108468400097084)
(4.940311873485563 -0.03262254771869311 -0.04488078294941656)
(11.99172866734106 4.697340518392563 9.859017734690431)
(5.016731589455527 0.01515001844146706 0.01297105637532476)
(4.418582880407485 -0.1019351867375141 0.2398560887420464)
(5.029875658024867 -0.008531089294273349 0.003597252040100674)
(5.020383619774904 -0.03479172918383724 0.00736947641433125)
(5.038955979115512 -0.01756354558202723 0.03058670023775876)
(5.237746992781959 -0.3744097670862178 0.2993169765398763)
(4.30417013950914 0.05634898987367913 -0.2283329741538034)
(3.433726418685783 0.05465848826981676 0.309558168291967)
(3.479156270809332 -0.1222060691405471 0.229844714448947)
(5.041754736802808 -0.01200313394711473 -0.03185843064249784)
(5.051962284097935 -0.004727514553714979 0.007846809909598894)
(5.047073160357985 -0.04001977810204559 -0.04214931394212653)
(4.535142897814093 0.04210199534924521 0.1116508572821008)
(4.975237611207152 -0.08481051552898927 -0.04166029694768298)
(5.062577675765721 -0.0103469007762762 -0.02346126818850551)
(4.821000650703303 -0.02868061322298846 0.05322224221872137)
(16.23489662337776 5.050935773450616 -1.420609721218423)
(5.017152532244704 0.03398328047967105 -0.2955229881478792)
(5.127128743813046 -0.0774253749414435 -0.06100342677250106)
(5.065176782562129 -0.04122751873750351 0.08324917261890978)
(5.065679873051441 -0.01251021276286667 -0.05149250601994367)
(5.048228000692353 0.00497719065034004 -0.08222222244388727)
(5.009035604713614 -0.00307121511294554 0.00640729776573941)
(4.774558997340777 -0.2427890857973949 0.008833211829459392)
(4.471786906282848 -0.234152476259716 0.1178125870305679)
(5.015935731828091 -0.00117960298828546 -0.002737347467308925)
(5.059484448061622 -0.0335497933966358 0.01270805210939891)
(5.044039088035204 -0.03400477112701479 0.03009948157761613)
(5.056780595881411 0.00132031847050691 0.0004269191323378349)
(5.006799904538219 -0.001565004498992074 0.02415915693188091)
(5.01893056270763 0.05921433912415409 -0.04719417829324314)
(3.321768976233197 0.5994498164399874 0.9974693610675401)
(5.074945396852979 -0.02773290124596295 -0.05288785496929886)
(5.102132574080837 -0.08796494347998421 -0.03535955900183058)
(5.0387245560562 0.007819703780608863 -0.00846150322480653)
(5.020886774587745 -0.001056464946799056 -0.02048583241933827)
(4.975594024041015 0.05915793889894568 -0.04662461011819286)
(4.129237408010095 -0.1270430549979301 0.003777817831120329)
(4.938642463367867 -0.0517861184269342 -0.4052519952863474)
(5.028357191347489 -0.004899518482381374 0.005628836158630345)
(5.033780625523277 0.0118988494275655 0.01384211382956011)
(5.021721943644998 -0.0005419700371712156 0.004236009349872462)
(5.022898133948069 -0.01439399264454875 0.007936579796792728)
(5.083949073578256 -0.01911143491244413 -0.00117973618737898)
(4.184719810223471 -0.0458926831200713 -0.156776930672024)
(5.054474720474686 0.08580966513585189 -0.05447243614011181)
(4.861567315895446 -0.109145456289483 -0.06227331347561244)
(5.023511598528944 0.03945126622200344 -0.0529491127752284)
(5.787205063787075 0.4154114555202437 0.06703277081953087)
(4.944026071827192 -0.07006103028241935 -0.05997648659620929)
(4.57570531028118 0.4747961257130103 0.1103581659642964)
(5.152805258217256 0.0574068240850537 0.01539783813545516)
(3.396135057034022 0.2148300984039983 -0.09647844895140423)
(5.056897709736626 -0.0212919859862708 -0.003991234338082064)
(4.438393007546344 1.120332641304292 -0.8823440074162757)
(5.04660432317722 -0.1257525296858029 0.1567807797562328)
(4.986489417694532 -0.02554471664413988 -0.05038155117257836)
(4.810208919432268 0.0119511058870576 0.03863623926723065)
(5.08770738444921 0.01503077261864544 -0.03648123091567743)
(3.539621715357123 -0.06034997806325797 -0.1382437771213651)
(2.037262686438202 0.005106625307402642 0.06195886051377267)
(4.048989341295527 0.1104886320765432 -0.1720211951412233)
(4.996517504766591 0.004608114318091394 8.430144548903239e-05)
(3.985220382925482 -0.7120726157152862 -0.1025238443149594)
(5.045099018196737 -0.03456569078430174 0.00188855769734056)
(2.597435932866496 -0.3327254476943329 0.101740280508663)
(5.041342887914071 -0.06492716760128261 0.03696080296755126)
(4.973365456119417 0.1459956294293426 0.02055262225453723)
(5.012628411457043 0.03276618831477673 -0.06495239736199547)
(3.614177643738684 0.02059220486484028 -0.04165837623286704)
(5.045149507324124 -0.303566691244339 -0.09900820578602812)
(5.021500722840857 -0.03312165874652941 0.01202815982172233)
(4.740640873963391 -0.2372906561697372 0.2108078930658105)
(2.325490352867823 -0.6059481861859589 -0.4583460292954779)
(4.930803722634766 -0.5046041418840563 0.4188727550029872)
(1.255996718548409 -0.1725100103434984 3.693871346076901)
(4.967346374372217 0.2007633395129946 0.2009744230067129)
(2.36786541381604 0.1386646589706549 0.288979559516549)
(4.277543841589279 -0.09651103580918392 0.4469797391430938)
(5.05380943449625 -0.06222352418376832 -0.0177889700975007)
(5.013493505499828 -0.001902021156513818 -0.02292652800171806)
(4.952769975796262 -0.002513561483095455 -0.01102137041820464)
(3.644696728847286 -0.2047782416290797 0.2244680751791844)
(4.912884408349102 -0.60127097202137 -0.1494423726715302)
(5.069840620419336 -0.05118276573583427 0.09764413666975724)
(5.075507499993224 -0.03333331364400729 0.0366918653392476)
(4.965106700584283 -0.03323435079704104 -0.0404505700494228)
(5.062634363130229 -0.1086438893607118 -0.06592572625404997)
(4.98686551866126 -0.01696530382878664 -0.008699069513280292)
(5.050431299216862 0.1411544884694585 0.0144619601292634)
(4.141082610972617 0.2497477778877024 -0.23434034866311)
(4.848042521558653 0.05319815712990905 -0.1304708666315992)
(4.796823827509545 -0.2049194772166018 -0.1184683319578935)
(5.058739548959353 0.02918827798521702 -0.04076077664020637)
(4.864397582120247 -0.2379499185842384 0.201637581666101)
(5.001387268700479 0.003823114130418642 -0.01483592769871206)
(4.906361344115897 -0.1472754530886828 -0.05793161433888397)
(5.192754765253115 0.09227655339382139 -0.0782252770785881)
(4.926753532862464 0.2208434151607456 0.2818877248149999)
(4.980525632269549 0.1310926381763886 0.3372634656799163)
(2.826819924961906 0.2984814069635073 0.1792307528455517)
(5.071584522938668 -0.06421821536522494 -0.003474248449852279)
(5.084250306316425 -0.02368814036455139 -0.01720213464758338)
(4.699810065964281 -0.6318396532969626 -0.6875519305071899)
(4.752182567501237 -0.07456715723188649 0.01257409215761292)
(4.747698406224884 -0.3309339441724266 0.3170507065166839)
(4.79421677246558 -0.0860760621969531 0.0091074224450024)
(2.784711093479614 -0.2467589243706617 -0.2714244171560127)
(1.980226584226176 -0.07627896970192082 -0.05892706358057938)
(4.923736315096274 0.005875461963168175 0.001830057096351441)
(5.077940802728082 -0.0555678799389157 0.1079522494238378)
(5.042559106858238 -0.02278693733132625 0.1871247308583994)
(5.100944008679892 -0.1111099433805446 -0.03345929942750889)
(4.264127004061513 -0.898505226660497 -0.0324143359816365)
(5.090630271877099 -0.06663020646372089 0.02937123369884624)
(5.01728660377406 0.02740991040676528 0.004046672653483155)
(5.060514763911297 -0.1005250922499188 0.01134853803716103)
(5.677663302532474 0.5601505797381408 -0.7127697089039862)
(5.012468460184367 -0.0004989732718165518 -0.0008372812303199651)
(2.866984706497092 -0.34439178586062 0.09229684178355356)
(2.567826097314789 -0.1373615717596696 0.02027389757718295)
(4.985454594746853 -0.05280303579322995 -0.05564709704694037)
(5.121524126835512 -0.07490967301852734 0.01884206929051422)
(4.291845098702928 -0.01705873869822792 0.05533206023276815)
(4.524282346433283 0.4328421114907604 1.110683367099054)
(2.423939454400933 -0.03827748170499985 -0.01304640088931418)
(2.842249681148918 -0.09463220637360119 -0.116340508821938)
(5.19257451742153 -0.1670632596160053 0.1867069196365848)
(4.914874660910101 -0.08975536985874043 -0.186602514505386)
(1.980280002304199 0.09750830734526234 -0.3412664667177954)
(4.556183416074767 -0.3905488725526571 0.5654173214445217)
(5.069251183820665 0.03646378630437069 0.08163694412160813)
(4.282620682036208 -0.106009170881166 -0.01296669288169691)
(5.090432834064372 0.04592936580741163 0.06551895568241749)
(4.004869628774762 0.03217954291056226 -0.2523412856716738)
(4.059371319153296 0.1556022414866824 -0.04683254526751526)
(4.952738091207934 -0.1621072228013873 -0.3361549013444466)
(5.086598333447808 -0.1490323105107589 0.1001191073787536)
(5.113702804395816 0.8307904437496804 1.957116626188928)
(5.143096820819082 0.4289228058848896 0.1670805324982913)
(3.975158454568159 0.00552056796204819 -0.1302341559071045)
(4.394195566734132 -0.1810042152542876 0.1568763304261018)
(2.806646306808392 -0.2187935286809635 0.04981187625542585)
(3.759848861132391 -0.1122661429916832 0.07442953768116639)
(5.124979339705289 -0.1155008207883556 -0.01204372304074578)
(3.943056254755165 -0.4845042717205783 0.3750844711418692)
(4.909960331471063 -0.03303952559800916 -0.3382113555202554)
(3.51815097219424 -0.1145730757643807 -0.04406298966585146)
(4.951986986065507 -0.1404784764527118 -0.06384408039864475)
(5.044307322700925 -0.03465510632855972 0.01448124113366383)
(5.1207245268487 -0.05486863095352443 0.04381786163157794)
(3.95276273993581 0.02859798939334268 -0.07945047366992052)
(3.474038042511753 -0.3029505403273208 0.4001559125124334)
(5.091204282638914 -0.09910728541731746 0.02585488573488329)
(4.981992616645307 0.146495352994263 -0.09478083636654433)
(4.781080336154197 -0.337015382783964 0.07615140124963034)
(2.824468985548393 -0.2826401270086199 -0.2146597442711223)
(5.067708416556455 -0.1257741474635295 -0.03638674532805762)
(5.032728535860093 0.007614900833618451 -0.06533903222583468)
(4.508180137230218 -0.4695178042969992 0.07804619507000091)
(5.046718291350339 -0.1100747180915018 -0.07245115614084163)
(5.012600348870901 -0.001231579688010967 -0.0205571156273668)
(5.120103675111046 -0.04172336540488026 0.03550974264030703)
(4.775062114836443 0.04587269415296488 0.1713430060884109)
(5.039516841577828 0.001203118431779046 -0.0592054208928373)
(4.854929241298129 -0.05938205434159994 -0.3015342099470981)
(4.420587153295019 -0.1499975312632754 0.3316933447460225)
(5.000904255365389 0.066015198195429 0.05369532061358398)
(5.041661724603191 -0.00571035375447547 0.00938107116256439)
(5.006792671041686 -0.004241631314005762 0.001303767841694664)
(5.126513295167166 -0.1435434548267328 0.6243842677655826)
(4.757828586730998 -0.2579773260014279 0.1707491303294325)
(4.054247320168321 -0.02082109077228703 0.1302469257921695)
(4.610303259923399 -0.4740095852213781 0.531001132318176)
(2.98405830819072 -0.1767460187574412 -0.04221647768685562)
(3.912364618539132 -0.1839111795742944 0.01476813259801161)
(4.914021694027642 0.2985753525064911 0.1339165316275996)
(4.925049915969287 0.04385629781925515 -0.02169441327750694)
(4.703181412755776 -0.04408118092304354 -0.7000354931436237)
(4.489782238447444 -0.09612364390515099 0.02280807490790011)
(5.04792336241857 -0.00769132754562363 0.04411019163344972)
(2.146411609150295 0.3047197325944376 -0.09283228140900808)
(5.011540276929312 0.007239505055437692 -0.01791791457210533)
(4.952882533859774 0.008236387409955501 -0.008601635840168516)
(5.034267546486244 -0.02556604331178676 -0.01892607590114998)
(5.010778892441295 0.01085999846476063 0.007395360619449054)
(2.764462541789479 0.05547919285346245 0.3294451227625996)
(5.008949948268852 -0.02667195750335703 0.2260021352867428)
(5.085932460052855 -0.05231382466898172 0.04453601741391972)
(5.043738227999722 -0.001751948451250748 0.01254303713693834)
(5.007414923947819 -0.06781377218872653 0.09145884377991909)
(4.975012454000012 -0.01644325195259928 -0.01890782583163594)
(4.978909822122637 -0.01540879937974587 0.006278403719151919)
(3.750264984424438 -0.04869657463331958 -0.1220728865228313)
(5.00208577605408 -0.006891994623569569 0.0114353200975364)
(4.8797285114376 -0.1252911938028387 -0.09666749067338286)
(1.28913462559739 -0.07266113254829196 0.007170269014577994)
(4.915359403102157 -0.05265773429381772 -0.1491277178602486)
(4.67664292299652 0.0858884375642027 0.0124319350601986)
(3.809834733837913 0.008860951101577195 -0.2265475655243829)
(3.788999049517858 -0.1770506699850769 -0.03070866946679647)
(4.93215063050029 -0.1324545083094832 0.02981068747213762)
(4.36194748219035 -0.2996151924484228 0.3555243680570012)
(5.110582891128777 -0.05533924180597147 -0.0910230179646819)
(5.13209650158715 -0.02706087899512895 -0.490037482840735)
(4.983328423909266 0.003423272198322334 0.1879442806454935)
(5.049163636338146 -0.02187123689848427 -0.04038606072297167)
(5.034083606239765 0.01708018630765823 0.08047531978162256)
(5.013559981981843 0.04533530656706572 0.06225976656962225)
(3.900108924948064 0.0353326757558993 -0.1091397033084772)
(5.019949761902416 0.03726012585312549 -0.001391210973092144)
(3.435955603976331 0.200425188352173 0.05916651931322201)
(4.279598766736482 -0.02213592010288056 -0.321300998307115)
(4.997179615725546 -0.04811930420727907 -0.05749704963486799)
(5.08749887653212 -0.04950456965117378 0.03383453631445187)
(5.043530352398132 0.004266856181431081 0.02881207331926036)
(4.720084180153761 0.05070883099214032 -0.2562294723802378)
(5.06733473040643 -0.01360861041795982 -0.002693711866772182)
(2.828166262780293 -0.1146913147239874 0.08794695815338686)
(4.578021089106006 0.1591109049856701 -0.1433791296685067)
(3.953344985656372 -0.02514053285238132 -0.4593964313933767)
(5.046351960171698 -0.06016282209445191 0.02515820490267882)
(4.942593524332977 0.1455367873466717 0.2907681640096029)
(5.081372795056817 -0.05302864523380204 0.04670243933374631)
(5.086070653897535 0.1538344548603149 -0.02406156719363964)
(5.096971908706093 -0.06221412079024512 -0.04947895777454694)
(4.846780811316155 0.00761050372343622 0.1045548146282137)
(3.442438904949719 0.1240764838143994 -0.03194122132618016)
(3.72465522629669 0.08487518702085783 -0.103877794643983)
(5.081777838583977 -0.06611153193088408 0.02671720038513302)
(3.855158753229186 -0.1533738296988263 -0.04276237925286512)
(5.06523008144069 -0.03503787777508313 0.0869666675188786)
(4.260028112775601 -0.2104307991460042 0.0514522052306482)
(5.138605302357108 -0.1531318548115375 0.1084945802382483)
(4.894090728515293 -0.2933157482861934 -0.09605162172195071)
(5.09651242893412 -0.05086822514265934 -0.005409396955764608)
(2.88361191221596 0.06038546301673951 -0.01555127233989403)
(5.033853208388622 0.08105281887631977 -0.2592381624240216)
(5.003142720780445 0.01544881717028711 -0.06201580078572758)
(4.914196207922547 0.2774299175466739 0.1036422407313618)
(5.067670744089351 -0.03582906735432972 0.04364237816660022)
(3.195785275350911 -0.2344991929720856 -0.1326972868444742)
(4.838813538245984 -0.121849467648769 -0.1762259311377756)
(5.067443987196743 -0.05933321725308602 0.01087811534298962)
(4.612116533321004 0.06733536074395897 -0.1896477898614058)
(4.990357558322576 -0.04776543209733775 0.02091032677250447)
(4.999088771560393 -0.01568017583066538 0.0243295425900483)
(5.073122116929119 -0.07723155278424404 -0.06312615699208071)
(5.020191336162999 0.02546535619948351 0.1160430290788116)
(5.131850250213817 -0.04404298158246502 -0.0538382521675371)
(5.000112852986129 0.002517078055925355 -0.001305143252217017)
(4.952248669187436 0.8740400403811214 -0.5441954244719035)
(5.034965409502725 0.005610773206326897 0.01845476559351254)
(5.093404129569687 -0.009415117087989441 0.007149855101664769)
(5.022958172967479 -0.07483691862210759 0.03292609687591701)
(3.42271228501144 0.04558417149457763 0.03256182413536765)
(5.030256609347354 0.007241088020324539 0.008273134828973735)
(5.003008315094209 -0.03609741881775941 0.04022074371690892)
(4.996470093754481 -0.01510260404751803 0.01441878159147126)
(4.406117888089453 -0.5107591686554955 -0.02960066156350438)
(5.076415709104419 0.2048586146971387 0.07825107396648495)
(4.935955127311198 0.06226753906522899 0.06511313399688221)
(5.092733142075969 -0.1470128670235679 -0.2517795500926697)
(4.908799076447166 0.07167462911426398 0.05015949992656712)
(4.534941350065582 -0.1226902133418994 0.03313705758079043)
(4.695129124725308 -0.1052547433778791 -0.1904751053006508)
(4.97957494484546 -0.01060723211485561 -0.009751695160876334)
(2.286596792970253 -0.1338010606197231 -0.02900494680949663)
(2.494448301838857 -0.1943604388706798 -0.1692180127171307)
(5.082669212496819 -0.06994337712986537 0.1182963469936471)
(5.002453012943462 -0.0005425329388610217 -0.009642901946647187)
(5.005734957651778 0.01255171302323506 0.004293707338357144)
(4.675942977665313 0.4468840185874101 0.1933474603132456)
(4.797687153596884 0.1954501874660799 0.3662933663653826)
(5.063942789201919 -0.1065764377490814 0.2150904333771134)
(1.841049530789418 -0.07650703580829109 0.0007524939013968815)
(4.968612171020086 -0.05399985661387329 -0.2843356989787375)
(5.11123765740125 -0.2436894757524226 0.06041997055984481)
(2.323606637913627 -0.3073736717775299 -0.1892598919928388)
(3.772850387461122 0.1419419118887148 -0.2839806337221142)
(1.802000780788431 -0.1718727321011327 -0.1794029058428942)
(4.120379755075458 -0.1869828299631723 0.08608820940791428)
(5.010638914677617 -0.2450620502667882 0.04898516165447547)
(2.45870273535082 -0.2225191599047973 -0.2185293912682247)
(5.064821369694909 -0.1114909752393836 -0.2824649468112286)
(1.831072793427375 0.06809884004441491 -0.07578678487202127)
(4.39327392282469 -0.2990964482919916 0.21498242946492)
(4.998316387988821 0.09766743930847596 0.008612506604090773)
(5.073622291235153 -0.181208892202856 -0.04613450172965)
(5.122825377707333 -0.08200152164366806 -0.02708304960109929)
(5.095681638819987 -0.1990731196002557 0.1283448500925365)
(4.093130545384982 -0.1209739226527613 -0.02592003385130899)
(5.092062606889439 -0.05444741120113114 0.09304150836804427)
(3.918283410558379 -0.2359531194269669 -0.1435159149449865)
(4.208879001658215 -0.1629822603132756 -0.3128201479031756)
(4.98882934954506 0.04282603067099905 -0.05976809434471024)
(5.020722717685592 -0.03415174738632308 0.02021095027889)
(4.932660180147074 0.2763651192697777 0.04104614194145527)
(4.954995933944357 -0.03008560981313324 0.4185105572878113)
(4.97424558358964 0.0823372998584749 0.1064507105475461)
(5.07860491084342 -0.003086297791469004 -0.02155894499118119)
(5.097630651575153 -0.03590500841095389 0.0575509302496364)
(4.856527420955678 -0.06900792914407103 -0.1348770877627611)
(5.038511142841508 0.01262317639829242 -0.04389977805031878)
(5.05680191156616 -0.02917673404420405 0.008392728678349873)
(4.971968338691483 -0.05874190213635502 0.08942783954466087)
(3.586667861725603 -0.01785170054840752 0.4029221131776594)
(3.778399794107787 -0.147138291088331 -0.1961520375113933)
(5.079643780373144 0.0488641775784453 -0.04352994267801073)
(4.990644554666206 -0.0884710455206951 -0.1126012366457441)
(2.1123028624511 0.4579595087773309 -0.08046361504576879)
(5.005895011517125 -0.005142067169346927 0.005266366848048219)
(2.55854425224094 0.4373177908414885 0.1782956452068838)
(3.857769917905244 0.2250104583529497 0.07140877517853014)
(3.127834975496104 0.09444078410064415 -0.005324837429040357)
(5.001347106925242 0.009657136603232194 0.006209597712195634)
(5.091133884692398 -0.07333977243819884 -0.1385871102840222)
(4.802077054395906 0.1506663569430505 -0.1474530053147097)
(5.035462059156544 -0.2211650253035468 0.1617911562300827)
(5.011652668729499 0.006302725087523589 -0.0003722656838737184)
(2.9063202562696 0.229983184646041 0.1823775078157387)
(4.989741478771172 0.002836562124812674 0.0196397651404316)
(2.545838970115609 -0.04795237454324042 -0.2784576081028965)
(2.343270012876017 0.009976028701899967 -0.4125245739835578)
(5.063824407457424 -0.0431922063537786 0.00234746110423833)
(5.084995410638809 -0.1031060944854928 0.1466997758404945)
(4.810253734881606 -0.1566951035979825 0.115720381810842)
(2.123558123576467 -0.5103899330419286 0.0505103131183695)
(2.767732289997695 -0.0949341561720278 -0.02699589789612265)
(4.997573771020603 -0.008291465946387185 0.004837860641923378)
(4.997049902115926 -0.005875610747513286 0.002175700104713241)
(5.019904709248046 -0.003041280930368748 -0.01482671928252192)
(4.987696769788342 -0.06866881460849839 -0.07589273631564672)
(5.058985886237875 -0.05536415351709239 0.04971962090725326)
(5.149619461362889 -0.09370272194023954 0.09815589177947713)
(4.767689741403129 -0.02747246618050571 0.1232071902349066)
(5.000678692101554 -0.003184579719329565 0.05971114282686325)
(4.379755624120478 -0.361538226122912 -1.327696344631132)
(5.008231432836984 -0.04243252302631296 -0.02726175754815199)
(4.78281090937184 0.03719698074864984 -0.1051789742559979)
(5.069483934900441 -0.04436532943864498 -0.004958216177027875)
(4.474388198401854 0.4869286032858192 -0.4396365829051214)
(4.572863255178027 -0.8027422866032526 -0.1254917310056295)
(4.920203908304263 0.007020609224396552 0.006321661300358649)
(3.778255565396986 0.1602948453623514 0.06406386926752509)
(3.80060188925896 0.1197589500083483 0.2057700826526574)
(4.968218036527409 -0.2300292533354243 0.003970738260966958)
(4.99079741646096 -0.04233776290075667 0.01977852667061883)
(5.011556893717329 -0.006059093702590841 0.008140890893495661)
(3.099378232115484 0.1323346158817367 -0.06148913151428248)
(5.135111984056834 -0.08260110587253736 -0.02803867857289317)
(5.051102205881515 -0.04975232849100408 -0.05114516085138381)
(3.809957233513145 -0.04851621826272116 0.02020237290244855)
(3.362540443585267 0.05727942561588983 -0.06283435175866177)
(4.603218557552892 0.4494543943379971 0.4623372473926279)
(4.611064213148861 -0.160130035677355 0.03973895134265915)
(4.698838851465849 -0.06958197797643619 -0.08768669138173461)
(5.009199515710075 -0.0075627591040143 0.01561642534143851)