/*--------------------------------*- C++ -*----------------------------------*\
| =========                 |                                                 |
| \\      /  F ield         | OpenFOAM: The Open Source CFD Toolbox           |
|  \\    /   O peration     | Version:  v1906                                 |
|   \\  /    A nd           | Web:      www.OpenFOAM.com                      |
|    \\/     M anipulation  |                                                 |
\*---------------------------------------------------------------------------*/
FoamFile
{
    version     2.0;
    format      ascii;
    class       volScalarField;
    location    "0.7";
    object      p;
}
// * * * * * * * * * * * * * * * * * * * * * * * * * * * * * * * * * * * * * //

dimensions      [0 2 -2 0 0 0 0];


internalField   nonuniform List<scalar> 
19631
(
-0.08234905595492049
0.2176037442656068
0.1199400685475024
0.45229604877025
-0.006423999097621294
-0.2052322488059784
0.1355340488379992
-0.6545264241040407
-0.2798780747791443
0.004022483709771731
0.3807595595050359
-0.3053420616697959
0.3161709166659
-0.1884737254145134
0.009442910903759245
0.4759414197293777
-0.2194830723040884
-0.5221717415540698
-0.01927438644778505
-0.6710589771127342
0.003448770465601231
-0.2239646941106019
1.830679696615068
0.08133887733739405
-0.2170294921036761
-0.04599755613499257
-0.3098428259108745
-0.9693841764261343
-0.1804195980133106
-0.01860475392630253
-0.2371459224214812
-0.2197307783752539
-0.1574982898522517
0.08266058850118657
1.554383892602694
3.16116269517564
-0.01297576101066349
0.3911310563670274
-0.3113777539021051
0.0592568880572537
-1.547109216995947
-0.0247396715651802
0.02097513415709128
0.1068016598174055
-0.2275958387893897
0.3802584572074265
0.05645610921801034
0.0458073441517955
-0.09080832180086167
-0.1951107471566114
-0.03848595894350694
-0.3792134103447198
-0.2106671400389405
-0.4583699109576658
-0.09073412036899496
-0.2817690351190246
-0.2913481856907337
-0.2487343030623585
-1.502915034325233
0.0320100820925287
-0.006347054526983421
-0.2313101959611361
-10.43337536670619
-0.02149742729750902
-0.2095022663040646
-0.9126699459911722
-0.2107152324747585
-0.2321942941420687
0.4183633504128729
-0.001603032557427713
0.009071448737027817
3.587474640100508
0.1201875035032177
-0.1847347459401509
-0.4551414280442702
-0.4988931671670889
0.1782588461988887
0.02029101211396525
0.2179200877785482
-1.233646656204297
0.09595072560474219
0.05199794352632098
0.4678611794133333
-0.9479983522541684
-0.9575604120829125
-0.1243798707122239
-0.2165254022173038
-0.1221107365359391
0.1776005483591081
0.03745941901260324
0.02600530743093269
-0.2242979759003005
-0.2158879885036128
-0.1795460457877062
-0.6288175018750153
-1.603108061118909
-0.06454442162713153
-1.458368110640406
-0.210076230723214
-0.1815017342047202
-0.205785409720233
-0.9317781980972618
-0.1654930999773167
-0.01594462099792533
-0.4695668731989787
-0.731051158210317
-1.260519826249525
-0.1960101416916927
-0.1861735498185568
0.4112728684538152
0.2270558371737817
-0.2574280051032599
-0.2540142343015291
0.7216184160836656
-0.129940433969998
-0.3302583647741437
-0.1052525454894171
-0.2110698233548528
-0.1642633098593058
-0.2272758629518618
-0.2087499782125362
-0.1933180794739946
-0.2124979065225471
0.1862392482276534
-0.2757233264445629
-0.1545277437583399
-0.1811180081834612
-0.2067746062605476
-0.01675935547017546
0.6682717978779381
-0.1121553089316743
0.1043946229420401
-0.1336954179354186
0.6031756881994023
-0.01662413289300222
0.07696038930433317
-0.3272564063653512
-0.001207604962456667
0.07689991926437391
-0.1831596060943949
-0.6767470641640823
0.03937529241613765
0.1982288825937831
0.01451267816245977
-0.2437106590215328
0.1121900647536693
-0.03868030134413465
-0.008751205504052314
0.08337436411262972
-0.1907414872528184
-0.2231424520480881
-0.1949792819117755
-0.2000816538859506
-0.1489056317792272
-0.1819963476098588
-0.119588047885154
0.09789655011482058
-0.1703674890770131
-0.1507975300185447
0.1437826174801601
-0.1555539630025052
0.04936871212997383
-0.1558898357049903
-0.1918228164945878
0.04849783611727465
-0.06174768373350128
-0.2164927951352265
-0.1251640963151499
-1.229985910651366
-0.09327984967109569
-0.2841897114240084
-0.2261105470887528
-0.2639158118662153
-0.1809399857304296
-0.1989330164479803
-0.2124514913192216
0.01666527330235244
-0.2021976322267596
-0.1842577971241812
-0.8295029985654396
-0.1941365705708834
0.05461590220373541
0.06109255153458955
0.3019209670238449
0.004817685967125389
0.04365628911058641
-0.007825064151749045
-0.202303313435536
-0.2047949710914844
-0.1672679117658238
-0.1935285618114552
0.07373381548293596
-1.428059232581902
0.04338520688425742
-0.199106629597551
1.051620335693099
-0.2182414228735214
0.04360907950367863
0.2798612925356837
0.2620732301575329
-0.23024271190462
-0.2137054311999339
0.1022331452699559
-0.2166271653361002
0.01120974444747667
-0.2311895644080867
-0.132222178741131
-0.2068058480225448
0.03387262145059563
-0.2672323289406307
0.1353392564705301
-0.3497730704221821
-0.0429841545095675
0.001817807651450488
0.02038342786190716
-0.05448689733472269
-0.001756552015560539
0.01366245866693947
0.01390953658276988
-0.7534881995265149
-0.006484598804245515
0.1060634282011876
0.2372693374943647
0.01337531178370603
-0.0483145647867607
0.1675572017835497
-0.0842856506342074
-0.03247548923980944
-1.039001380081962
-0.1110370827016875
0.1020287821959196
-1.269939179620065
-1.469737874012773
-0.6364275553449557
-0.9147359753083317
-0.406240940852874
1.052628534291188
-0.2154661480618693
0.1153743372790589
0.1395798834705162
0.1718852242514546
-0.1915731472132631
-0.01857709683970958
-0.06066144785417719
0.09634123382213855
0.4038683888058579
0.06566425780014269
0.05801481793983512
-0.4438438233962898
-0.02967565807100332
-0.170530504085625
-0.3104508631086824
0.1793073830065048
-0.2825064995679943
0.04252839574536837
0.8652558201747792
-0.303693955885093
-0.1115747755757606
-0.5132448528541435
0.007021749583562325
0.1744685309258371
-0.1731511962811341
-0.3091093082402863
0.5652427088663773
-0.06993421161865246
0.01136487038245981
0.1789688283988873
-0.3660259397301288
-0.01191291366393479
-1.030182078300939
-0.269561764723782
0.1374591287812908
0.1465391095269929
0.02941416163007046
-0.524627319608858
0.2977987116410267
0.09974873338560107
0.09157694163086111
-0.2273400690596007
0.03340117609320518
0.0592743756341407
0.05511092294762368
-0.1087284626857247
0.8580921790036879
-0.6596513286484161
-1.81737297614769
-1.174060659143079
0.07202472807762257
-0.1806565823573458
-0.05535896000719291
-0.3516610880519107
0.1889329989518689
-0.06144325542317608
2.932247925877778
-0.6352763858501186
0.02851446432163854
-0.3644502635380713
-0.05948353219555819
0.1495788649153846
0.3915657771789164
-0.8401643416950222
-0.06945400215620269
-0.4360679501037928
0.6281362786777612
0.1844429209755587
-0.1025769201486389
0.0004804886593462094
-0.2055145842812375
-0.069080118027197
0.7726929340056692
-0.2460470086418069
0.02661041431715547
0.03547369864894353
0.159254595782675
-0.07666862146255732
-0.6033946385346326
-0.08034977514089621
-0.3156790453365599
-0.3421303208376384
0.02969875401905789
-0.2859423593916027
-0.3213570105772347
-0.1563658094514191
-0.3087805627623901
0.1741865416750308
0.02375435477010528
0.2505294768891914
0.1143426035662552
0.01207765151778485
0.007132640662297191
0.002641351898474759
-0.5901079680317944
-0.3394509806284203
-0.1878067824059709
0.4689239840588375
-0.3243247417110361
-0.06947825043784601
-0.3357073227777086
0.2818433935171342
0.03009908015461531
1.651236641576525
-0.1795431504404149
0.06265057863493272
-0.9672862094712634
-0.1989735554720858
-0.03241969505965239
-0.3934254022180294
-0.1726863290883051
0.01271023272252307
0.03563736361724743
-0.1992557493649028
0.04443157203758392
0.06875089322043733
0.3545495973607161
-0.1041633468321204
0.009595197110312358
-0.09893482951345647
-0.1969547196800495
-1.513394728695553
-0.9812723701741862
-0.01095894750895251
-0.5690533534237457
-0.8939175677947032
-0.6188455319517771
-0.2808900738698168
-0.5727486854717416
0.05090615371337125
-0.3489653762526101
-0.2523011620733905
0.3276349590946527
-0.1274847182850569
-0.07964747849832973
0.2168002706272495
0.02881487071349122
-0.4125047982076281
0.01297271760317973
-0.145182938680797
-0.04930950178633437
0.5527418423142881
-0.1534041365935616
-0.3234316778966108
-0.213616911999696
-0.5239612976274861
-0.3059609353806557
-0.2905461796088439
-0.8335442717742024
-0.6622604922380029
0.3208033031253668
-0.3560887701800826
0.05056284279818067
0.1824825478581879
-0.009978458604464073
0.01688305534365783
0.0387622027373264
0.1668716077494274
0.01038316998109762
-0.08106437555875895
-0.2230859539285746
0.06092870670382931
-0.3016075033708981
0.1554172100152851
-0.04939066503653722
-0.6625928697976341
-0.2525529969442073
-0.2231455946114803
-0.07623892373458159
0.02676684221710152
-0.1255784965973345
0.05760247669287692
-0.01563313385768086
0.04099826322355891
0.6435092179406159
0.08472086582763347
0.3890278353094093
-0.01898379437106765
-0.01268905087102639
-0.4042552002221975
-0.2247321510794267
0.01287205126479007
-0.1514125902434919
10.85235725817173
0.02412754893424691
0.04434844750236264
-0.3192455418980174
0.02886605552240795
-0.2626732263990864
-0.3779309519523062
0.2141560638766548
-1.54616962162445
0.0004529001941868165
-0.0009574612921360807
-0.7954259654419408
-0.2184506381365588
0.07401444056539593
-0.5815117168804678
0.09683651205315535
0.1257474933455557
0.165706953586993
0.01220650804899289
0.2432034882261324
0.302585701128416
-0.3945239900253778
-0.1352475056760683
-0.03931087260986565
-0.07339802183031173
0.5994298683461802
-0.9007518726512844
0.08974310467906946
-0.320260311665718
-0.3193301433735606
0.06588849228904582
0.03817691849741225
0.0599314190064832
-0.3421539690537638
0.05767988831148698
0.09318637504424795
0.1609481119505608
0.3285586148776156
1.231973460740718
-0.04343646300279345
-0.2635791933187454
-0.4564684124992861
-0.459126654193192
-0.02859126145292906
-0.3046839773236533
-0.2975407799335706
-1.446994076014059
-0.9301775629546858
1.866475777909162
0.2097249187563152
-0.005471585895024534
-0.5720587174951813
0.07712258324393768
-0.5454815402972458
0.01494214671632971
-0.3068692389961414
0.1080286685705478
-0.3677195987894999
0.05388970020935973
-0.8138067577571545
0.1871054444596162
0.6589392263778019
-0.05658378831477555
-0.330072468613177
0.9201750758617142
0.6221728139340782
0.0975023816955673
-0.2660169160056856
-0.1015326155298103
0.9551325249368436
0.03815432983736666
-0.09013535242578478
0.2130229746731425
-0.3213382511750585
-0.9346109283466931
-0.5854898248638458
-0.04188750017685997
-0.2699595048406835
0.2830671190738202
1.265221065299831
-0.04551095837632473
-0.09872526868707719
0.7015361737093607
0.2297842237604108
0.6892138051441359
-0.0442203936388288
0.01962744791963714
-2.537755802716105
-0.1039690832125344
-0.4770983784051873
-0.3225878596248906
0.02867481658369059
-0.02759682396359823
-0.06627688019814912
-0.09638076867266071
-0.01495172112636325
0.404039555243294
-0.1025267301178232
-0.5406160212137658
-0.6938678292870392
-0.3117556422320721
-0.009848240330618808
-1.284477706075032
0.0003661799298279876
-0.7442667562682337
-0.7470456736871539
-0.1521804013426845
-1.037534999573992
0.05891821531920616
0.5537324178469084
0.6803937075975017
1.47854016932302
2.368286420147447
-0.3413102904724173
-0.736908995103796
0.07459635776689867
-0.5756167249442518
0.1985831631401416
-0.1182841903128236
-0.3314768798002224
-0.01327307275460486
0.2661915753339987
-0.5121526593915043
-0.01098939225610805
0.1079312645751419
-0.1374208258697016
0.01399717843883913
-0.3106531040706095
-0.7575301269744099
0.1652380455106622
-0.3115097472951044
-0.1305345760550297
-0.1360014167109449
0.1710391856150586
0.01527221826438476
-0.566165006958032
-0.3453043626208551
-6.447823221936583
-0.120741222997764
-0.4878666434908089
-1.148350914433946
-0.3092639892051988
-0.7917772114885767
-0.1992446608074526
-0.211000621819494
-1.031032309845895
-0.4200520007847516
0.1480167027034544
-0.456806132959042
-0.223811204257547
0.108677782748798
-0.3726803692511405
-0.06072812116152457
-0.322669366753613
-0.4906823164519891
-0.1188249621648334
-0.1947427077052825
-0.5195625173493018
0.1247743863660235
1.509729646170616
0.3831908158036651
0.6485560961190919
-0.8643531527120238
0.8694707086954117
-0.2418416125906142
-0.2494521735929237
1.617818190184155
-0.4786188064070221
0.3427712276533998
-0.02878229760002356
-0.4346757519078008
-1.000044866484663
-0.8053910239186127
-0.2250330676935986
-0.5023848067243881
0.3208584529587405
-0.7937181015842448
0.05060024010068134
-0.04196696253481452
-0.07471782978552267
-0.2837535382292172
-0.3933955567758892
-0.05759891247497973
-0.03416409652809166
0.5498270137090584
-0.3282429433311397
0.3075320592143078
-0.3131811798765281
-1.172573243146058
-0.1521740953176416
-0.6072633218619314
-0.1126938214353066
0.6631964421800844
-0.1530296781574609
-0.2151792331391038
-0.09562482061606613
-1.570690767630911
-0.1212143362339638
-0.6904064148896711
0.532280138729301
-0.0583546395749783
-0.06670265893767502
-0.2156266445070314
2.068429450478726
0.03982402387391414
0.1989375618351227
0.2470587567231893
-0.1844125758750372
0.8495409690707268
0.05357296289150511
-0.03118281766120786
0.1594320311710077
-0.07300106316472756
1.881292603943814
-0.1889354011558454
0.07246501838054428
0.4591558636447005
-1.36264787692683
0.004541850368814739
0.8963132722678436
-0.1010766392083462
0.08875718032152927
0.1879394154679335
-0.2757478101910474
-0.9142598445178796
-0.433186249375491
0.3220336600587531
0.3971426530092258
-0.04942038338802259
0.2728012477886443
-0.5089907616745913
-0.2011983235744438
-0.2635708599092265
0.8139400144749986
-1.070773715309269
0.01044573657213384
-0.2528717827261702
-0.6358467431838007
-1.658360838706535
-0.3232967410229055
-1.335672919737312
-0.3153548840738705
-0.09079432383427566
-0.589886543498501
-0.4359457544678441
-0.1914885397655298
-0.4775490802679648
0.1013337464690056
-0.2411251926649569
-1.011939516879478
-0.1772305876665871
-0.1346642735716069
-0.503581727043461
-0.0852915946331696
0.7103016220446212
-0.2761138927528485
-0.4760511222424725
-0.2498463282025093
-0.4262475286591069
-0.4255298118387157
0.05632316124288173
-0.5095261713466526
-0.158199007660891
-0.5074579681432598
-0.2164965828349753
-0.8192620984056858
0.04798545474532544
0.07800179323255055
0.02279241659965335
0.05470528452785561
0.04297040693468339
0.5339454480657233
-0.4734874612820577
-0.3660495100386998
0.06140084356611098
-0.08158448894065302
-0.06396432446763153
-0.3024410711629318
-0.2751800339603342
-0.4126970618642674
-0.1591381864570865
-1.143492726411252
0.188241937286189
0.01717987490373658
-0.2767233044313388
-0.1084996307823253
-0.000780801930683974
-0.09797251851773983
-0.09825107437252274
-0.1002288433240591
-0.7239095367836875
-0.3473986119765102
-0.252965539830161
-0.2514745001197443
-0.8639149702070021
-0.2646001077282763
-0.4769213141250307
-0.6389923158012017
0.5985859418477235
-0.07740665193447122
-0.002636879101623479
-0.02017374719282405
-0.1461493604759944
-0.01005159276258043
-0.3088334718555479
0.2831347693826386
-0.005906568848759445
-1.46279806002362
-0.3492852689174373
-0.5867576152224456
-1.943614146015839
-0.4172042758055726
-0.3662761301485157
-0.6323500375825191
-0.1464807680938581
-0.2881411775054308
-0.003775882966141472
-0.0735668154530683
-0.2980677942983012
-0.08330252666716748
-0.7703398189716895
-0.2088460944986905
-0.07693868210702327
0.08585728163052635
-0.2739252089347833
-0.05623118607404825
-0.2642022850585437
-0.2076055702999275
-0.4515711133156634
0.08571301198664345
0.1760044817448299
-0.2521242422391145
-0.9191021827135184
-0.4283312900561345
-0.2100780996025194
-0.2283109802835279
-0.1538125672659622
-0.2941552077633088
-0.2361647462527099
-0.3069023179802864
-0.4178585596304346
-0.02666127103366271
-0.4049231054076687
-0.3276987002347212
-0.1178402114033238
-1.039584771269787
0.05491583968113899
-0.1352859466899524
-0.04038371652080661
-1.034741979604797
0.6473446976828249
-0.05766079873885956
-0.01137930927265086
-0.07445067582602094
0.6504791793957261
-0.2985059301408904
-0.4431601302326614
-0.1687600078119583
-0.2811888855220916
0.05130279220815164
0.288416913086068
-0.6075638109774163
-0.4865860027919752
-0.3571822512363123
-0.4503088481083653
-0.4511073310461398
-0.179185594330752
-0.003592114161090408
-0.5324955856174735
-0.02766770477672027
-0.6630916499568182
-0.3092088287863928
-0.5737972327241163
0.208184892131777
0.3572974284987763
-0.1427186820923507
0.2400402364977279
-0.4534350182001722
-0.1994776175587142
-1.008636737648799
-0.345523884924415
-0.5143869518216838
0.01668747554980977
-0.5333102538017249
0.01650984973707726
0.4438457438935458
-0.161944275946818
-0.03344443311753336
-0.2133002506115268
-0.002995428425264738
-0.2035012888781723
0.04060252588897997
-0.3705013761567776
0.7656207075338691
-0.1320887509299335
-0.1295603072138157
0.3948902504840625
-0.3571947163354611
-0.1314411939061918
-1.3912610128189
0.03300084734367301
-0.3534527817504074
0.6043317378353962
0.1083590681419304
-0.3080442637140202
-0.2834147883966303
-0.1048763499981046
-0.04551291200664397
-0.312106607331208
-0.03392123810697482
0.04951319351047181
0.2291031572584589
-0.06006848208579257
0.04929806435070477
0.351270415422154
0.02345477492577048
-0.1743156470351574
0.1951897960399191
-0.7336701068467725
-0.01215281732846618
3.18511798900779
-0.286640957739804
-0.4750450619075863
-0.4528122177588368
0.1227421187052672
-0.3370248736278846
0.0986761616690017
-0.02187036320429378
-0.2334825725175832
-0.243776274726102
-0.3155746006978362
-0.296873655589456
-0.06587810500757323
-0.5751787503579544
-0.4205941248739429
0.04633823603568301
-0.3902689146191645
1.061558768453507
-0.3607769474566991
-0.6434389189625029
-0.1412289418121852
-0.04898182245679682
-0.1796654849089495
-0.1928944914728281
-0.07345756559073588
0.2917549550581433
-0.2438218404213209
0.1190890497602068
0.2805727926911908
0.04824940754416605
-0.3437199622658579
-0.03847034235247352
0.07165108084206878
-0.9884984746239958
0.1729015174590549
-0.186040412889513
0.07339802344948337
0.1487979187128603
-0.3248360790317751
0.5081853440133752
-0.07233828449166964
0.2631353104294733
-0.7949667249137324
-0.3711378961879438
-0.4213215872988049
0.5722924099015193
-0.084671473853647
-0.2790984311118546
-0.1363358976618001
0.7605663453505955
-0.797141993104802
-0.09781521762715384
-0.3117872276008656
-0.2287183538944355
-0.3577683572807427
-0.2791361672331096
-0.09933335630378863
-0.2390535137585044
-0.6211660959961122
0.2215189702382747
-0.2493245540053328
-0.5168057037683197
0.008048336583872545
-0.3092394454673529
-0.08220685422916975
-0.3660057100616022
-0.132333708310519
-1.11111488416237
0.1786425623810077
-0.1875447386692335
0.01971334548994377
-0.2775772400874459
-0.2850024025624151
-0.9839691031530091
-1.850815543335446
-0.1083061921357568
-2.152770869373626
-0.3039001443463645
-0.825497961773213
0.5621936841810787
-0.1168722568489255
-0.1498547330477318
-0.7647581556287012
-0.02229588575240197
1.825097095169557
0.04217050741838113
-0.07879381175925447
0.02976402223216749
-0.3233735796202487
0.1396726350797751
0.03034070821193095
1.291237956441802
0.0551893348394049
1.157610897320979
0.6083510099072295
-0.5649039193174447
-0.3999075507773304
0.04267262006136725
-0.0813416479426512
-0.1591408301090231
-0.3702036703400974
0.04259831473482569
0.03231885774926575
-0.1561079186779241
-0.1289551178496203
-0.1497004815668785
0.7014189151143211
-0.5421676605239332
-0.5696319538248102
-0.1293065658574397
0.8066841371787283
-0.1636881747806747
-0.2461903736523845
0.4004284612537706
-0.06643343401220053
0.3246904447543416
0.6317228720625084
0.7168159948047363
-0.230251252822628
-0.1836666204858144
-0.1701128667324001
-0.504194384145358
-0.1917131655846157
0.08108133150377751
0.9058584864744686
-0.4871962272910103
-1.140961879618252
0.6076794200826114
-0.2633975468686318
0.2835980424138578
0.3870847509788448
0.138845122208374
-0.3249593721194674
-0.3556972269217173
-0.1932732278325948
-0.2255306729400801
0.3911893917464855
-1.065274313716587
-0.6335139968433007
-0.279312563229416
-2.051344410409544
-0.1562869072711111
-0.2448957446982042
-0.4252368031413442
-0.7426799588985493
-1.228918249096881
-2.094710137186797
-0.40123264528081
-0.1486668108189777
0.3492614471688532
-0.8215826232893506
-0.4096737735016983
-0.1939186687130365
-1.35940581654406
-0.2320780784880015
-1.149550297122611
-0.2204195304233519
0.3387016348466551
0.5564421188061365
-0.1671604358312733
-0.05084906714950256
0.09258463798670678
-0.2237302873127377
-0.6337129470681439
-0.4504882647127679
-0.2742208335563678
0.01595109713887189
0.08570354287648325
-0.2779458830222626
0.009850258081511905
-0.2010430917333573
0.02123118640387279
-0.1254573602073576
0.08581670856631268
0.03772474132066059
-0.7645074778779044
-1.096869404299262
0.4319166219457027
-1.336364804316441
-1.026800107644002
-0.1487712777778127
-0.2201486453086328
-0.02458088420127175
0.1624688716605163
-0.1617117044163259
0.1074713898284591
-0.4823538133842838
-0.592048164136193
-0.1877306561477153
1.49450954518428
0.05552903993572229
-0.5580920818483296
2.076315945052256
-0.2865659808299875
0.05698240636892869
-0.03098745989554355
-0.3703981615032806
-0.02885217621169073
0.2696672184144821
1.668203539896414
0.1189865605538104
-0.5956086777969196
0.1442528879870726
-1.510411565116963
-0.2434767434370214
-0.9275243005042303
-0.9113840843904769
0.04236991492081348
-0.499366801158001
-0.08985507312202767
0.1427629349519108
-0.07523980810255622
0.001632710069077277
0.1406615490224906
-0.07655132742332546
0.09005118400007088
-0.3319376993927891
0.5498082290658207
-0.3474018795445965
-0.3906762462788879
0.2290439029862408
-0.567097573329951
-0.01737091481977084
-0.5040745913794071
1.632688878892146
0.3905135478924135
0.7549352362907656
1.166134676738912
-0.02079653138021981
-0.01731491147018866
0.1814123997431467
3.641434281320975
1.815352363926419
-0.6899363279171242
3.287666525787635
3.169875333618907
2.946137434150069
0.4814929205072067
1.338144104155268
0.2660993150429953
-0.3548125597242929
2.494874776329563
-0.04826727977419396
2.793769480898423
-0.2321630495179824
0.02491504319158219
0.02826245297712788
0.0328595960257622
0.0447915038074081
0.03301574697407964
0.008856378875726998
0.04923296400989509
0.04403893510473686
0.07785009726599923
0.2497103943672662
0.005654691058040932
3.538931131916222
-1.267783705560701
2.125015768626375
-0.03016464455149842
2.332141890573988
0.2345870206168072
-0.5789262497328577
0.2441941472025453
-1.14715076242327
-0.6329129993821314
-1.793724620050333
0.5099659304264673
0.5892030946743664
0.09298481603586774
0.4666719895528058
0.3336905597992915
0.3046160732304071
0.07288967869822598
-0.004230066177905568
-7.52243135712917
-0.01901456603548618
0.03604705323548938
0.1716995866370335
-0.0640927013126838
-0.5297042060922875
-0.02261295583521758
-0.7680368803118047
-0.3038178428123249
-0.6812661291303052
-0.7373390491573072
-1.710784318943922
-0.1457419201620649
0.2160963439098844
0.2499046701013031
-0.07568952601137127
-0.7337455559066859
0.1739602041466308
-0.4257332133703334
0.1365293655223042
0.150173741089613
-2.238856558708357
-0.08621213560369062
1.188734269697036
-0.01652426768215496
0.02755583767909178
0.8763745786857773
1.079820824158039
0.1011961414732945
-1.444000686051046
-0.3294705954156225
-0.01348991417781945
0.9270469767024098
-0.5632173750701445
0.003912921905585303
0.9575998598023581
0.0287248565921147
0.9240616507900407
0.0001548869176290675
0.01142989159626664
0.4417497894882544
-0.1256557394515194
0.04253729781693309
-0.1158366268459427
0.6016513875641837
-0.4653525552511163
-0.5587735027440331
0.6231900351306379
0.07407085502616986
-0.1123749265419929
-0.07747000741384064
-0.5309909481935418
0.04077406914807895
0.0002278214358081369
0.1629700493778681
0.005577154344070782
-0.363277033738257
0.01427302030405279
0.118615359424041
0.03733737136249482
0.1911586599045061
0.06182882681239531
-2.500451431759763
-0.7768495547753934
-0.4551398962200435
-0.123918979198289
-0.2469024804132662
-0.8795305930128866
-1.068572835188112
-0.5554133585749914
-0.5172729940594016
0.0009055820502589972
-0.5147094102639257
0.9351853106604557
-0.6610028135486387
-0.8884379406370542
-1.330544939834962
-0.424991347256429
-0.002707093639025079
1.596841355656397
-0.2465325258809691
-0.4081206103827955
0.2561988010125144
-0.08518253118210981
0.04098776136694268
0.4785615337759364
-0.2318418819043774
-0.2363235844112558
-0.5282948968531016
0.3604709069225212
2.543603986201922
0.04674619655019832
-0.0364964300436589
-0.09613939807265057
-0.1801365859034005
-0.06129703189141288
0.02140529009149294
-0.01615403754961454
-0.4790443121530356
0.1159424247109314
-0.07464605149414459
0.3156964195024596
-0.2439315451342922
-0.06072929294764954
-0.2563939428231524
0.1413825770126778
-0.01230538052322595
0.2617954762356748
1.640204373710918
-0.03809522194489795
-0.03940896349160251
-0.113908915666031
7.572457519609525
-0.04259782607109174
0.009581112133129227
0.1310769950845333
-0.1817561967417269
-0.4355000363019226
-0.07341522950031844
-0.4372759489023934
-0.2431007782104877
0.6334359431965618
-0.2046078623347183
6.763023600686044
0.2841651178989968
-1.321967406746581
1.21003748619208
3.045492866064634
-0.09218093521177134
0.368912926078579
0.7057056399630495
-0.01998108778285267
0.08923006950164535
-0.05507507922877812
-0.05447432545269106
0.009146278953313406
0.03934584541182265
-1.304819369187701
-0.06044055599098522
5.552395307418094
-0.0004309841220117002
-0.3162620692894265
0.1155256242996208
-0.4793703985096915
0.1482387585688029
-0.1125149271202651
-0.2104727050335589
7.788884717001234
1.282298535401015
0.008237246021540584
-0.080938645578531
-0.2696626650021766
0.204773066668993
0.01658243374937423
1.16830377623584
0.6873936614773127
-0.195112047324407
0.003210251413527026
-0.6689813370114882
3.433347259939063
2.336123675959169
3.21439664600901
-0.283068356131122
-0.01422449908019825
-0.962698356409536
-0.1257835394138125
-0.1678553930731844
0.5100334070495831
-0.2081327037881094
0.2696812134203112
0.05053118717013648
-0.03618284655589685
0.6222082121442868
-0.5650635595935196
-0.2219299542856961
-0.1255031212515272
-0.1297633215502517
-1.209743744525134
-0.005231731164948616
0.1271853691338332
3.434198489216346
0.1899829246163136
0.3567897596027484
0.146055632993587
0.03781256643413528
-0.4652089803117938
0.02712756615824863
-0.8332263664409012
-0.2726817530195393
-0.06980733437453018
0.4053821397591778
0.2347054599586272
-0.3896223386911347
2.301433540440127
-0.165118935844645
-0.2704540130141521
-0.1365643456275365
-0.2404590412735278
0.3497964121289173
-5.429138467389821
2.154069887588002
1.414280495668116
-0.02806627985639678
-0.03710382619142247
-0.1956681300700744
-0.1551653655473366
-0.05402020486159762
-0.334399782211792
0.4873460197550719
-0.05818924097565371
-0.1152835869818394
-0.1801042293661586
0.8115232583096079
0.02617536514878982
-0.06296620418668064
-0.1560167143796196
-0.1189560977439068
0.06178522014679282
-0.1427497523117352
-0.1334516754183761
-0.007380601134638042
0.03775240238035002
1.390217938928992
0.1019129060236421
-0.05948753519866766
0.7395078670830699
1.633562232875689
0.08438305303641429
0.4142760496933789
-0.4831470810675084
-0.243989557634079
-0.4003759321177395
-0.2349490954909313
-0.3043254142696705
-0.2139404080081945
-0.1353012320218762
-0.1459763514131442
0.04995858598675321
-0.2208985102382459
-0.08853214506423192
-1.529915484495829
0.1230368942575072
0.244452708572705
0.04662608239241976
-3.521765729021057
0.5699013854164434
-0.4290652445669234
0.09297010241204846
-0.04958675832503403
-0.3050273534612011
0.1221958771698378
-3.20409863177406
-0.1585961412483179
0.16246543104827
-0.09738519716061614
-0.1954517093554934
-0.1380815545431273
0.1201591085366708
0.1467927987289252
-1.63696675450646
1.063446637249037
-0.0859043023025462
-0.01991023432743609
-0.9083530519248579
-0.04422847824120733
0.005614929643548426
-0.2013115506156753
-0.06562354540306026
-0.06630580016967071
-0.1326932418760551
0.001461241479658461
0.06340512167453531
0.3064002778613399
-0.2706633789539964
-0.03066750542662294
-0.1370277028784663
-0.1868576825951151
-0.1575164989189712
-0.1378469799903689
0.1734661799107417
-0.02589960455177255
0.1190247085500039
-0.03649902367881251
-0.09104088007370773
-0.228487218961808
-0.3118331003618056
-0.0115042131805572
-0.1432252957546377
0.1996011969576428
-0.3730036514381383
0.01211850654657806
-0.1417509852192802
-0.03715364526826721
0.121066069229334
-0.04876402880499722
-0.4235474710306
-0.1966929646231829
-0.2776960597862823
0.2607386780836508
0.348396293621809
-0.2144878291813578
-0.07627212807355485
-0.5890484432553905
-0.03283064848691335
-0.08412570385912282
0.04287208777428424
-0.08768069743619344
0.1063919089892406
-1.404634257306226
-0.05793182880248232
-0.851628940699603
-0.08710102074169565
-2.003938880664672
0.320046651364259
-0.2441622544999635
-0.2947766933709288
0.07828892178091226
-0.02363590132744822
-0.3724500720019974
0.07061095007534596
-0.728788621946052
-0.01525760942974525
-0.5015922142763058
-0.1664888906327484
-0.1781535468341975
-0.201878209047692
-0.03526176479249347
-1.428794628495154
-0.7728266618984007
-0.05010644561827446
-0.1240691089282341
0.0529501055745843
-0.009344041364194975
-0.4914872242114443
-1.053172264577779
-0.1416887819790929
-0.1440550834330223
-0.1700194400892208
-0.132245969101439
-0.2851766771392747
0.04845892432293426
-0.244131135722315
-0.03506336105846221
0.4967289084176208
0.129085692640618
-0.006724761964960291
-0.1221987279903687
-0.4872725035272518
0.1459375119028608
1.926761972114304
0.008289713792298774
0.03198391077649328
-0.2578445196647935
-0.06853653880827881
0.02983793727258807
-0.06892555948315934
-0.1455539729679063
-0.1470765421413715
-0.1095127623891039