/*--------------------------------*- C++ -*----------------------------------*\
| =========                 |                                                 |
| \\      /  F ield         | OpenFOAM: The Open Source CFD Toolbox           |
|  \\    /   O peration     | Version:  v1906                                 |
|   \\  /    A nd           | Web:      www.OpenFOAM.com                      |
|    \\/     M anipulation  |                                                 |
\*---------------------------------------------------------------------------*/
FoamFile
{
    version     2.0;
    format      ascii;
    class       surfaceScalarField;
    location    "0.7";
    object      phi;
}
// * * * * * * * * * * * * * * * * * * * * * * * * * * * * * * * * * * * * * //

dimensions      [0 3 -1 0 0 0 0];
oriented        oriented;


internalField   nonuniform List<scalar> 
37423
(
-0.1094705702846508
0.4251271597047794
-0.4555226065396518
0.1398660171186872
10.92822006682338
4.894025303490866
-15.82224537034547
1.587250056349468
2.8494906806643
-1.487270669121538
-2.949470067879743
0.3675944055280104
-0.9289334636757365
0.5613390581844286
0.1170793387220623
-0.1667938134256364
0.02985324678818718
0.01986122792160533
0.04749350200681797
0.1427375338170289
0.3037949051451128
-0.4940259409464509
9.157945303829333
-4.652352367577489
-10.84682046473998
6.341227528490134
-0.06170595219037271
0.06877841625818575
-0.01322104311871502
0.006148579060878751
-0.2316860100885688
-0.01208156757327663
0.4116361329876931
-0.1678685553159865
8.637267805957581
0.679295171977522
-0.4841213671247609
-1.404465672128993
0.4526574873672051
1.43592955189576
0.3020274476586355
-0.5557078931472298
0.7716302828658628
-0.5179498373403401
-1.054056611072533
1.319039538040524
-0.2649829269541754
-0.4543316011958711
0.492782813784148
0.6089538547522545
-0.6474050673066276
-16.2873662124086
8.936272533188541
-0.06140640155484289
0.0006594759198391662
-0.1171923163870819
0.1779392420312295
-0.4701272341816493
0.8171688071118285
-0.04501412525392257
0.1986066113684366
0.04589696685609067
-0.1789303311354203
-0.06557324707402039
0.1092381391853673
0.02769712030281716
-0.008826858326476715
-0.1281084011521455
-0.02388772468887211
0.06974403290269439
0.03078892863814035
-0.0766452368430658
-0.2190395607608354
0.3792858986657997
-0.4230770011561227
0.2628306632586807
0.4072237078092048
0.6799140310084569
-0.2658397492435671
-0.821297989544629
-0.1185570031465003
0.1256767650695634
-0.1133355415104352
0.1062157795981366
14.78317919927825
-17.68106867492943
-6.351837677220986
9.249727152793779
0.5917557181699447
-0.07127958115905789
0.09262535039526276
-0.6131014874010027
-20.44102750670447
9.357646212591705
11.08338129410813
-0.1841307625549149
0.1336687145314722
-0.4196651861423834
0.08740577924939115
-0.09308484746803664
-0.1831324110978559
0.1888114793243819
0.169621969788177
0.01272040355862738
-0.1808885852849218
-0.001453788047394366
-4.259885196362067
-22.447427196567
2.75748042792933
23.94983196488593
0.2166432987279468
0.3987735038774773
-0.1554674140155816
-0.4599493885756737
-0.08060689650124209
0.7044739030449964
-0.01415587390569744
0.108622684510087
-0.1065798634150702
0.01211305281960904
0.05930756073658257
-0.6369737254795262
0.3321445131503794
0.2455216516149261
-0.02197906070265121
0.06294651887423126
0.09501011090960837
-0.1359775690660235
-0.03435774113508206
0.006746702894105815
0.121847680006537
-0.09423664175781254
0.2603921651582665
21.56007435211927
-19.45328683479224
-2.367179682490594
1.082830394632241
-10.18528502479729
9.36319234044262
-0.2607377103387377
-0.02513039230379208
-0.04583946718989705
-0.1017808854273588
0.1727507449321997
1.652479466742176
-5.707147451114825
2.41538430906395
1.639283675360966
-0.1409926141685088
0.01242521350423163
0.1454245240896666
-0.0168571234197637
0.5549004485710171
-0.702541820460956
0.1930185710932233
-0.04537719919405718
-21.00216612389207
3.668601815153404
7.174217116153724
10.15934719254606
-0.2205238958104275
-0.9220684761795517
0.9971542578792
0.1454381141535523
0.4057649028123076
-0.01068338786499053
-0.4962587932411427
0.1011772782932746
0.04187133008629956
0.6528219960530394
-0.1009988090412065
-0.5936945170724751
-3.59183373051259
-21.73574466584982
22.60678776013847
2.720790636215649
-0.9523389619481963
-0.6723588384242333
0.1777481187339151
1.44694968164083
0.5174955154058059
0.2497036969697772
-0.5218644207799354
-0.2453347915870426
0.4237302570024172
-0.1836465354829739
0.3720416626486708
-0.6121253841545305
-1.051600405448634
-9.841886817580413
10.89348722295721
-0.6747725883798221
-2.79466235117559
1.150343432306931
2.319091507399783
-0.248071348283473
0.591194708788388
0.03293144570632865
0.17817702452136
0.03889382430050896
-0.2500022945141824
-0.1322115121449292
0.04216432417911647
0.1113977990218729
-0.02135061104824454
-0.508476923114183
-0.09228862412259672
0.09681551885292486
0.5039500284243266
-0.09051430399849303
0.5916873662115928
-0.8717965235076097
0.3706234613097343
0.2723229019215689
-0.07626305001315795
-0.02395815294765028
0.01353861937696275
0.08668258358925947
-3.222715695489943
-0.5612281381096564
-3.061543232192634
7.250262512640883
0.04528951572884507
0.04233478250378156
-0.03324000259453615
-0.05438429563236728
0.01500769474683487
-0.1097691791779255
-0.04398605965517881
0.1387475440909872
0.3899064650444157
-0.3776750772453327
-0.1341708178701853
0.1219394300911291
-0.3140509382770299
-0.1576338303348027
1.151598799647084
0.03779997762150068
-0.1075160996549694
0.01471736817871065
0.05499875386550176
0.1164249132142802
-0.2995467198159008
-0.1593188482016429
0.3424406548129463
0.3398277126388036
-0.7893139973493719
0.2194934788339169
0.3595371858295325
-1.144747159399365
0.5657164947543152
-8.544772085468148
3.965043278973081
-4.779798834718378
0.07217999723433831
-0.02739242470567302
0.01467773950608732
-0.05946531202197132
-2.391526129560221
1.030926211584185
1.108554544837456
0.2520453731630798
-0.5300416605588917
0.5339440584062864
0.09274019629640794
-0.0966425941198607
0.01464249871558594
-0.2834321957654841
-0.3690081681788703
0.6377978652332741
0.1197449278096472
0.08294287899698601
-0.1584804371375886
-0.04420736965509289
1.676009321333221
2.951159976078206
-0.9626611252616722
-3.664508172068246
-0.007996242179519161
-0.3944095345175291
0.7068461992269797
-0.3044404224860572
0.6437946237739058
-2.010619586815474
0.400483402113005
0.9663415609594646
-0.02695176883331073
0.01531949151255252
0.01163227732645507
13.82559352541316
-1.137206677597467
4.760014791965076
-17.44840163982505
0.7335152342320954
0.07255429711615036
-0.01869961040054169
-0.787369920933941
-0.1784696722097932
-0.5347810518685487
0.0336918960307264
0.6795588280611813
0.3200256064814471
-0.1515770838733244
0.10398936069321
-0.2724378832856715
0.008547550744273593
0.1004399533801501
-0.091375834456702
-0.01761166965782617
0.0443288262854323
0.02870161645153906
-0.07303044273155004
-0.08279258811454203
-0.5295948077233741
0.3643160475560196
0.06702034915408739
-0.04465562984299959
-0.1089078001479044
0.08654308084591997
-0.07081722561841113
0.07097194104464759
-0.0001547154192156884
0.05867250158127753
0.4309896731827516
-0.05913359507844828
-0.4305285796719259
0.05810152065398753
-0.02859162084867684
0.1275894445083574
-0.157099344306751
-0.1182305476624111
-0.2295411850538537
0.4641966459360752
0.2931083453867671
-0.01256538916150243
-0.03247185410484886
-0.459199568594347
0.5379820677088223
-0.04631064499548069
0.1655908777045129
-0.0176153379583913
-0.1741034985987386
0.02612795886616631
0.01738117671924826
0.05659767755217021
-0.0279086344784858
-0.0460702197846039
-0.1103062951212069
0.5166154065224351
-2.069439290326637
1.663130178957025
-0.7443844859035458
0.771537421469815
-0.1336715499708234
-0.1450830576914396
0.1994713198187987
0.4247206822761135
-1.179712163927823
0.5555201618527812
0.4675405878762027
0.01354468626100127
0.06897451013907872
-0.06863216928438229
-0.01388702710820265
0.05038780323506966
0.06071584623835225
-0.2153901740845338
0.1042865246204017
-0.6211781264129229
0.5886938024951311
0.2325313180200772
-0.2000469940904063
0.08490559109972497
-0.0426141042284039
-0.1051022066569238
0.06281071979440617
0.1330765846411355
-0.1171910345274989
0.5019004677345877
-0.5177860178413315
0.06601962199788465
-0.08105407877835936
0.1115059133332169
-0.09647145654263801
-0.09977130845623465
-0.1505158389591648
0.3790252177050396
-0.128738070290321
-0.3252324410499858
0.4747985906314079
-0.2493374580394757
-0.01328751767141236
-0.04002118410850501
0.1598765917974243
-0.1065678900090942
0.1211306826252551
-0.04700212603805332
0.08602234735239983
-0.1601509039278004
0.1050621638046472
-0.0120229795178819
0.00847684815373256
-0.1015160324340824
-0.0732501079897848
0.03436607236324015
0.1357030163964093
-0.09681898075280207
0.4296418910034957
-0.5439888800679746
0.0812735239837365
0.03307346508697461
-0.4307096817029348
0.6570942885838669
-0.2275379512876544
0.001153344421943191
0.07206002955642234
-0.2299055303878413
-0.20702661576392
0.3648721166060851
0.04994883531035636
-0.03385935328853477
0.0982692380579534
-0.1143587200726376
0.6160799046551232
-0.3578219360499169
0.2878311287262674
-0.546089097306692
0.10322823535259
-0.08534139401614924
-0.02883342670180187
0.0109465853747198
0.1121528887657251
0.3207715732985679
0.03461612582686618
0.4561886301708527
0.1899083170098856
0.6980410324866796
-0.1144329819192217
0.2150963288828122
0.7860023511041117
-0.3030576474859303
-0.223879133411021
0.1425189928012543
0.1809581470245719
-0.09959800640421163
-0.529931118776768
1.305342950402147
-0.5611245254692151
-0.9018522552531281
-0.03079513546004119
0.08614928339270254
-0.03575918599844339
-0.01959496192749879
-0.1392842043834729
-0.5227670813415012
0.3634413766008491
0.2986099091688375
-3.183978199382565
-2.982136908160308
3.798970892544602
2.367144214953624
0.3340688497559627
-0.3168648297022622
-0.5936008779298986
0.576396857903801
1.823752571834423
-0.3989543009862452
0.4694486486096694
-1.894246919456484
0.3517783766030154
-0.5283766839979648
0.2359058681465366
-0.0487309012248054
0.3329563709124762
-0.5430376386790214
0.2588121689994409
0.1852036061035176
-0.1883472040014885
0.08520653288660678
-0.08206293497679464
-0.1285100226020479
0.03970088957335689
0.3177034744480829
-0.2288943414056184
-0.05684089941757049
0.02037332780147096
0.05587365471780541
-0.01940608309412768
-0.2205396469837772
0.01422109953806312
-0.01962467187253724
0.225943219329843
-0.08171299398378939
-0.5124916152595909
-0.01055573436384311
0.6047603436250983
-0.1960548947079502
0.1383954834774856
0.05765941123521073
0.2235104198045814
0.02737244911089716
-0.1681248325898415
-0.08275803630848208
-0.04090835420689109
-0.1105948909517185
0.1815628741674424
-0.03005962899921418
0.1967390501944723
0.06838221851374124
-0.09902028191076571
-0.166100986787008
0.3270281125869445
0.2231780777763032
-0.7375113719245091
0.1873051815798421
13.67571472245564
-9.148377953946031
-22.52730699537344
17.99997022682437
-0.5757899472438348
0.02110523467490726
0.6178037720449132
-0.06311905945448414
0.1255635183819395
0.03125256611580277
-0.01064539405400581
-0.1461706904281991
-0.07205076237014695
-0.5293851966357596
0.6099549349310822
-0.008518975916236472
-6.747747298627388
-5.421880409288002
-17.42477698628239
29.59440469409508
-7.656923065856158
10.95656908752592
4.21625623608247
-7.515902257716317
0.09665686824962035
-0.08593306668319767
0.04829948618102871
-0.05902328773854167
-0.47147463804045
0.2332146359099016
0.07984738206704386
0.5368933163370392
-0.09879909289296095
-0.5179416054953673
0.2328382399738936
-0.1207037147748713
-0.2626503641533193
-0.2901922615673252
0.5059825783992231
0.4229215475209423
-0.6387118643266348
0.0131389022263351
-0.1484552185177604
-0.448970961118752
0.7565318481977014
-0.1591056685421075
-13.62935181979719
6.128030165881444
1.082263002556873
6.419058651315702
0.08863052356298788
-0.006657029451561272
0.1634392405854162
-0.2454127346858725
0.08346455307284155
-0.0725278419948792
-0.01093671107188877
0.04208733390519552
-7.469908252708247
7.427820918739464
0.391064055637769
-0.3650090789738938
0.4782977405205373
-0.5043527171728325
-11.16226095803756
10.56168850424267
10.69439108448603
-0.04236589337334824
0.5261701453095632
-0.08787567925854853
0.08486474083925051
18.0291791341246
-17.94868629626645
-0.08049283788238497
11.88341190822653
-23.01057254627359
11.12716063804629
0.8909282701176029
-0.1378498735198674
-1.544019345833433
-0.07860808112818758
0.1327127408510362
0.01507450593642694
-0.06917916565241652
-0.1143095985787603
0.1804468016751884
0.22837737466681
-0.2945145777612385
0.4705343168803827
-0.4409723556631082
-0.1986536181275591
0.169091656919819
-0.1326800950920154
0.5463955805268859
0.432137041873307
0.09819199229924452
0.06135833204895511
0.4898523302676298
-0.6045435238758975
0.01804859950423868
-0.309344004218493
0.1052849136412976
0.08335537580529877
-0.5447689861108559
0.9062135722541573
20.83227202894246
4.735609349015694
-26.4740949501885
-0.5805486624173429
-0.216158416670571
0.4947427690458022
-0.4055576967223968
-0.1391779234473942
0.04999285113444051
-0.04275285158151668
0.2049480054946342
0.02499463282624418
-0.1871897867335056
0.3369895552870685
-2.649179974195151
-9.532397964494946
8.958862243143422
-10.4602377151823
6.251596557364727
1.55946118358291
19.58912711670979
-9.351030746040758
-10.23809637067646
1.100513088840801
12.40523686652589
-12.82645478342533
-13.68182371596456
5.832496712468704
21.15232209647051
-13.30299509297059
12.55117927051648
-11.59987579352043
8.544448935377316
-9.495752412358319
1.155864395651355
-0.6120141063545059
-0.2560191605373761
-0.4846895244264422
0.5799681902231333
-0.1376445591644907
-27.36007115375483
10.09130860304169
17.26640263123198
0.02058433155454522
-0.1403252270026928
0.1702942693632245
-0.0505533739029108
15.93204324123964
6.729180073361071
-38.28413249333324
15.62290917874393
-0.05851182145855188
-0.6061441507844822
0.05253058809355395
0.02906922300742224
-0.1495289747112733
0.04976392308406261
0.07069582863041976
0.003649088987947028
-1.660677912401302
-1.971386595183364
3.937920785431277
-0.3058562777985037
1.847164315923244
-1.184346197065991
-0.1163272218367765
-0.5464908969961626
1.381242594684395
0.1044699143602288
0.4824083664414193
-1.968120875452754
-1.142078911192813
0.1321552454007758
0.1810767420777382
0.8288469237664448
-0.1006474974518432
-4.701391254897528
-5.241844192581054
7.386533399383895
2.556702048121119
0.7345005844331597
0.1836570120837975
19.38675156211985
-20.8302445171051
-12.23833076094684
-0.168551717199406
0.4556057013887915
-0.5172813739165308
-0.2863212759717607
0.2808355685741951
-0.3930561583511956
-10.15713879049473
21.52283590459853
-11.36569711412695
0.7703164637470877
-0.5890214626782609
-0.7112261198219895
3.891939081294206
-0.01759304616271519
-8.575737290011956
0.06823586385636921
-0.03235445891546867
0.04245332901904059
-0.04263183776215605
0.03253296766234627
-13.80886985822668
14.88685766778026
-0.1936973592954541
-0.01279643791665524
-0.04109881222738678
0.2475926094543329
-0.2306073789280917
0.01058702866648175
0.2868834440841125
-0.06686309381207184
-2.763714434110914
3.544779513684043
7.201214219438284
-8.788416995676947
-3.192596058498973
3.925872589196023
-10.11460320630335
3.425016182959018
-0.03994129719966345
0.03827477632243679
-0.0973941483521438
-25.24560375299035
-0.01515910988069109
0.03229534792223167
25.22846751490271
1.86051205213639
-8.017992654795012
1.972502083524917
4.184978519255774
1.896725917888395
-0.4019181508340237
-2.943556848145529
1.448749081128407
-8.731805476280307
3.89020606596715
36.31311057463451
-2.95597846923854
-8.465756491128689
8.149954449089563
-0.7819347998976326
0.04772723166543875
-0.04970233122036024
0.7839098994663176
-0.05760058963926939
-0.2713776304489441
-0.1413080887966868
0.4702863089098858
-0.3554293541079397
0.1703116698690698
0.0424947919342252
0.142622892325493
0.03479307139397755
-0.02624552064303481
0.04434421048100839
-0.04113617185726921
0.185669123156434
-0.1888771617686157
-6.555678216252463
6.571063931327695
-2.939972614353905
2.924586899333014
0.0004113888812177267
-0.0002295921343862573
-0.0001817967459017815
0.0004113888816943401
0.009717653328311112
-0.02043614333640022
-0.1362370040335435
0.09104959613822572
-0.01777164449035161
0.07261491328454199
-0.1458928649223475
-0.1779674740534954
-0.3238541515083389
0.4450258503447367
0.05679577522923937
0.3482218529046051
-0.4710264210130529
0.03193272887113471
0.0908718392430012
0.1635808145103627
-0.2541014625265736
-0.09849309621468134
0.1890137442426014
-19.52379207046637
-7.840961025071294
-0.05431001218745001
0.1572044744279504
-0.0008700054447497742
-0.1020244567847898
13.00177869119839
3.752635455323785
3.341708597917963
0.01795328029675706
-0.3540568854174933
0.0466071654866393
0.2894964396502172
15.38551774470587
-13.97896321313939
-9.71263970583667
8.306085174268146
37.6852620983709
-19.58235137177758
8.141866002402338
-26.24477672900123
5.258667680518263
14.76838806699768
-1.465392699401059
-18.56166304812876
19.53437321251786
2.920852587364992
10.95305650698293
-22.80968563321076
11.85662912624186
35.21518072534028
4.974623957650075
0.5696072093269062
-40.75941189240442
-0.07887728532286602
0.1389853884175739
-0.2498908355967777
0.1897827325170424
0.1919381122738093
-0.1447734147746365
-0.6178906123276633
0.5707259148294955
-0.1429950727038476
0.2896850561335489
0.07849579155779494
-0.2251857749722217
-0.06529573156372952
-0.004948678700277198
0.09351219233600123
-0.02326778206891133
-0.1302182432337072
2.004246188984888
-0.3785662077651807
-1.495461737964066
0.2795753229865014
-0.5253910304117426
0.2098388207972279
0.03597688663221654
12.24899442615923
-5.703688638639703
-6.545305787542017
-0.2371348205988826
0.1220918358016832
-0.04421212483046642
0.1592551096371492
-0.3604092677894989
0.4940007006961372
-0.2063344404122568
0.07274300751815969
0.1514974140148282
-0.1071532035297381
-0.07412485949293914
0.01352829283575763
0.06059656666130423
0.6621843184184998
0.5010193952456832
-0.5200885563746784
-0.6431151572392545
1.931580547983984
0.3847275865735316
-1.081849383764124
-1.234458750749024
-0.1395084454775402
0.106347035168024
-0.09872049043344067
0.1318819007529516
-0.05583252315749187
-0.1356723885473239
0.08801422958192247
0.1034906821333311
-0.8516897849166308
-0.7093955073952146
1.742247459834344
-0.1811621674998632
0.3596873935275194
-3.875247283720917
3.343459374045907
0.1721005162107114
-0.845923731272225
3.419275455033785
-2.606077853050658
0.03272612931787154
-0.4743311278598962
0.235283039856106
0.3057848006257216
-0.06673671260663543
0.1748728084006883
-0.3150709795142244
0.5217690703094832
-0.3815708991830059
-0.07529201860674685
0.08308465919760831
-0.007792640583639048
0.1219374434637836
0.147406332542913
-0.2693437760046186
-0.0713924928083851
-0.002305470592644153
0.08450542458257937
-0.01080746117413712
-0.05909666754563206
-0.09394546034736401
-0.1072909038976871
0.2603330318082704
-0.08732003672742591
0.1142476599737972
0.2007752231951099
-0.2277028464317588
21.18023293317949
-13.60038486584225
-13.98989803979941
6.410049972425901
-0.0142283966585254
-0.06373672727830434
0.001233860330693193
0.07673126361382643
-0.03959805522829853
0.05086510261404685
-0.01126704738297851
1.979799459990343
-2.581447125179757
14.39690900839835
-6.932284981651925
-7.464624026772827
0.04696573788406708
-0.1156273745690796
0.005784308426906566
0.0628773282653643
-0.05227488034255717
-30.35370985286109
-0.01942755910204796
30.42541229227547
0.1116885287026342
-0.06356379416181457
0.2051494669258925
-0.2532742014575872
-0.04736088093728592
-0.02946366678190067
0.06794599070941297
0.008878557015094048
0.06422551348013446
0.6201115876066452
-0.2591844235327658
-0.425152677527241
-0.0586112569100884
-0.004414204557556955
0.06302546147588496
0.02012231564459221
-0.01702312264819331
0.07090736885818656
-0.07400656184781164
-0.005820812462997909
0.03706979729161811
-0.01982917489892508
-0.01141980992178153
0.05072264031317093
-0.03098028536602409
-0.01974235494134566
-0.0008550131621497014
0.07552552941108949
-0.07467051624304304
-0.1324065644989218
0.5715466163021866
-0.4175942791134687
-0.02154577267437042
-0.01170077701459036
0.09315126857362126
-0.09558936841303491
0.01413887686291439
0.08839339780955284
-0.4288565658820834
0.4199099724490593
-0.07944680435330098
1.262291065882027
0.5118410980487588
4.210114345320772
-5.984246509222633
-0.2859075871178693
0.1351132752412433
0.05105599051861526
0.09973832136890791
0.1069608186300772
0.01843103622607544
-0.1253918548458599
-0.02034565692885172
0.1324428050421385
-0.6189324560505698
0.5068353079554364
16.47861187191431
-21.11980624035627
-0.07463482837981064
0.1461477825109256
0.001690018604779065
-0.07320297272826307
-0.5205561200278204
-0.02147171462107555
0.5420278346838981
1.57514046068525
0.6194762967393779
-2.272848850927773
0.07823209349818279
0.817236823297149
-0.04495062181120363
-0.715905017478579
-0.05638118399577046
-0.2495107789252451
0.3138077368262293
0.08361594156365144
-0.1479128994521351
-0.02377531485096204
0.3667075890063171
-0.3824733265194802
0.03954105238140857
0.1429208563934075
-0.2937378935118889
0.1609028400164296
-0.01008580288902736
9.883002264878154
9.911424445260089
0.05053026740349199
-0.4641498008164865
0.09878530818500489
0.314834225238083
-0.2237233760760921
-0.4404795773315812
0.5909491215077824
0.07325383190325846
0.01760880879900507
-0.1710709092517163
-0.02039179292568273
0.1738538933882409
-0.276122683545214
0.01264417974918414
-0.008242788898513742
0.2717212927054607
1.432663094129383
-0.5671328774786266
-1.675591681383911
0.8100614647679395
-0.02574505401362577
0.1232619058825671
-0.1071063894786877
0.009589537621842836
-0.01715115463155436
0.0237808062311528
-0.1016107287688187
0.09498107717531032
16.13722325909034
-23.67229567400832
-3.147959891151789
6.272645066622591
23.05589186748226
-1.37075307660421
-0.1883793485347634
2.177608102677174
-0.6184756775197194
0.1671015761512599
-0.2673040970854763
-0.2449362319471691
0.3451387528904265
-0.09615241178155508
0.01658014291048053
0.0328988418132329
0.04667342706624037
-0.1079803214369716
-0.003168865530440961
0.09699228522907893
0.01415690174328012
-0.1356206892960573
0.1779472591659912
-0.06745696216488001
0.4845739676869248
-0.1861140942410649
-0.398031967948564
0.0995720945160429
3.260311582303021
24.68466409107791
0.0879223879828803
-0.04796013994041894
-0.2399070262565375
0.1999447782262177
0.008873709626642716
0.3827048309246528
0.07640813311853895
-0.4679866736559972
-0.5135382592435344
0.07296242357780008
0.06657264363986708
0.3740031920396834
-0.5165016730176308
0.05137410593557823
0.253688428810303
-0.615348857508856
-0.04496077756137407
0.7038955692057807
-0.04358593408549875
-0.01675020485117192
-0.2493282949814711
0.739921473332861
-0.4738429734724741
-1.708170713655922
0.08655075760316892
1.62161995605501
18.62282818111223
-7.361784604138032
1.740735114230772
0.1596864825943162
-0.2696411686507912
0.04391291911994976
0.06604176695378783
9.017026465962214
-32.5057163758354
32.21908695639006
0.04638390350727279
0.08533969014723182
-0.08133579041369228
-0.03838937129465695
0.1553864534678575
0.001459325036065345
-0.118456407200856
0.06251516530953728
0.03247014231825195
0.04712511085519385
-0.1421104184755521
0.03987829334730812
0.2621562431513826
-0.08370077185452668
-0.2183337646339216
0.4295225705324525
-0.3027255432809173
-0.5111837759461993
0.3843867487108035
0.08247749457409084
-0.02931260755737342
-0.08255166904740938
0.02938678203624625
0.4833547935754975
-1.107891626159169
0.2507061366566858
0.3738306959617187
-0.1020584312148982
0.05868701162246662
-0.03126340878255136
-0.07222771207646415
0.06369016457513593
-0.118049560295172
0.1265871078014804
24.1271806125979
-12.88911646374925
-20.77688582610784
9.538821677250064
0.2060259659821393
-0.1762504081737556
-0.02977555780113168
-0.3197870180826272
-0.03548839048245497
0.4546872052707385
-0.09941179669726134
-11.60784326860226
14.865312504246
-2.136368210114213
-1.121101025479534
-0.01933012348881295
0.1171674255726536
0.01469708243844983
-0.1125343845150006
0.06357662676100606
-0.1629972589865452
0.1153247908367912
-0.01590415860210958
-1.289970789730663
0.962809937161946
0.4478869881636427
-0.1207261355809757
-0.01975474388998047
-0.1964383654062849
0.1956467378161678
0.02054637148920313
-0.8457495875393848
-0.6257280341501507
0.8594635153498154
-0.9817177440232662
0.2127148422778388
2.550601584320332
-1.781598682581736
6.963879452968603
-17.38888824764793
12.40819711065908
-1.983188316094596
-0.110542718242342
-0.5289577797978403
0.7467781483399394
-0.1072776502999863
1.574918748021542
18.29564044380966
-23.4623929223272
-0.04725731056356672
0.09995030965468199
-0.03779428479553199
-0.01489871428870703
-0.5022419431619821
0.2990967947838585
0.2337010704637115
-0.03055592207287834
0.4970358530452668
-2.149537600867263
0.6874925646366744
0.1995719572982051
0.06494222476305535
-0.1782535555545762
-0.08626062649563668
0.4936953862560871
-0.04368709492215572
-0.4864522280421652
0.03644393670717325
-0.09651661753318946
-0.4103169780824236
0.3285896452766829
0.1782439503517216
-1.824257547281815
1.775351084148695
0.04890646314281167
0.1217048150861501
-0.1270889709090323
0.01839613319651973
-0.01301197736227894
0.006636221928119517
0.107190514616137
-0.09843140893283486
-0.01539532760476855
0.01855208822864987
0.0162714884665075
0.1140452332386874
-0.1488688099265818
-0.01950417575790486
-0.08209867917659074
-0.05217338790727698
0.005484757291491734
-0.3048041246949188
0.0667688298949977
0.2325505375164046
-0.1458225741178736
0.07750281895822975
0.1141196599353932
-0.04579990476831348
-0.1926847158836803
0.1077313819165932
0.1734592380064797
-0.08850590402229998
-0.5985886369135431
0.7184626247590689
-0.04752994617387245
-0.07234404161747809
-0.008679007464518603
-0.5160978523850368
0.1029210649593958
0.4218557948938153
-0.0009484874690603522
0.005037465292897285
0.1514130004814071
-0.155501978300288
-0.321266965658791
-0.2030736995110516
0.4283950809325721
0.09594558425857813
0.001197489434299783
0.1786740587698486
-0.1605880524489197
-0.0192834957421209
0.009890978950495505
-0.1428015930674711
-0.02415504945678713
0.157065663582438
0.802366871952946
3.890232077669156
-3.90047146653874
-0.7921274829412466
-3.957683805393336
-40.80756148934637
36.55384555001912
8.211399744715257
0.05942400303815802
-0.1651995974962798
0.09093669345643585
0.01483890100937908
22.96074821103976
0.3024413944837827
-23.15634374141214
-0.1068458641261661
0.1492232321972583
-0.2023998367626244
0.04465946804103156
0.008517136540901285
8.160104279343498
-9.810400434144427
1.914085868907948
-2.701310227073241
0.8826577913273194
1.818652435758008
-0.1029842946699088
-0.05605407127283709
0.03457833384393369
0.1244600321089638
-0.06453313398243193
0.0565070536401593
0.008026080348974104
0.1256674272798128
-0.06035131783966699
-0.2435925190070964
0.1782764095796407
-0.007949961901389522
0.0005805614109094802
-0.06754447772235758
0.07491387821731639
-0.01672929965564884
0.09455523580864721
0.008766283181279855
-0.08659221932267136
-0.0692901237210046
0.004201605167583552
0.1677482944407357
-0.1026597758775939
0.01953165668213322
-0.08188076958857318
0.0414408603926279
0.0209082525229498
-0.0796454632221269
0.001392389983317101
-0.006512961563511718
0.0847660348091968
-0.5966693489206243
0.1262510495033759
0.4704182994258946
0.1210966359349558
0.08793659454947982
-0.1774448980993671
-0.03158833237662175
12.5236596843435
0.6978476352028542
-12.72700137960081
-0.4945059399854743
0.1877097043452537
-0.135914288665387
-2.238611811760024
2.186816396107028
0.321661723232932
-0.3617605078305018
0.5146702311292357
-0.4745714465168016
0.6491103303797288
-0.4438924966331568
0.05926105438138177
-0.2644788881140696
0.2361966528454845
2.227346779091221
-3.704782368267411
1.241238936386152
13.33364047555134
-13.39767215800319
0.06403168244264452
-13.6677964150388
-10.38927664673345
10.2482032034937
-0.2314606520360576
-0.2044079927378173
0.3792474795940896
0.05662116519942114
0.411150584120566
0.212783800363171
-0.6239343844516774
13.58788230918135
-19.30098587709381
-0.1816404967148398
-0.03536008483550018
-0.190618143181086
0.4076187247444478
3.309278032966323
-1.15286220539638
1.774643068076184
-3.931058895701037
0.4004642800958508
-0.9987368172973767
0.4834258125538817
0.1148467246728749
0.01487950867108861
-0.02535740483123169
-0.03415284210745694
0.04463073827662076
0.3751533718498569
-0.4963782694709631
-0.06875526349726337
0.1899801611262223
-0.2647449664566889
-0.08401752761399649
0.2483827552183975
0.1003797388663282
1.30636384747379
-0.5274281781347411
0.6537274248149307
0.1361440050578372
0.07781784619023854
-0.1133313527098754
-0.1006304985284463
0.22698329053127
0.3221230989114681
0.01484348503057925
-0.5639498744647253
-0.2459551717257597
0.225031240148292
-0.005420534385216182
0.02634446598144438
-9.561949911679827
-0.60373439307541
-2.68949109050952
12.85517539527649
28.08139617604578
-0.7370207428752318
-3.688550847580061
-23.65582458558228
-0.002301367023954751
0.1436872161761244
-0.05837590331035271
-0.08300994582493057
8.312561866642229
-2.363327192863529
-1.353132218378112
0.7060183701542648
-0.4172868383182305
0.252698390128924
-0.5414299219356496
-1.214820344042476
-0.224673136199267
0.08511335212600038
-0.3506500230941392
0.4902098071867704
-0.09734477215880663
0.02725421057352585
0.07009056158701928
0.3594547822637751
0.08921661428424461
-0.4431866392474964
-31.81131956062825
7.024836008014495
-3.66648397020749
28.45296752281233
4.314961844868638
-0.6942361645977416
-1.790908673215376
-1.829817007062239
0.01746368358214522
0.01654073673042839
-0.03400442030658414
-0.1893017660802096
-0.004190662024480136
0.6134266884553202
23.64494909785982
-0.01995697469390019
-0.06686500415817404
-23.55812711906827
0.1950584270239593
-0.007084830567223747
0.1495689024435438