/*--------------------------------*- C++ -*----------------------------------*\
| =========                 |                                                 |
| \\      /  F ield         | OpenFOAM: The Open Source CFD Toolbox           |
|  \\    /   O peration     | Version:  v1906                                 |
|   \\  /    A nd           | Web:      www.OpenFOAM.com                      |
|    \\/     M anipulation  |                                                 |
\*---------------------------------------------------------------------------*/
FoamFile
{
    version     2.0;
    format      ascii;
    class       volVectorField;
    location    "0.7";
    object      U;
}
// * * * * * * * * * * * * * * * * * * * * * * * * * * * * * * * * * * * * * //

dimensions      [0 1 -1 0 0 0 0];


internalField   nonuniform List<vector> 
19631
(
(5.042347230744796 0.01698369329904186 0.03004118903078616)
(5.026900971557975 0.02530188357620678 -0.008665681364713514)
(4.99327508550938 0.02232734981652324 -0.0291822921534019)
(3.567649568065261 0.01635999009599408 0.4530531789294107)
(5.025100962251507 0.06975527708512261 -0.1026136234183899)
(5.033009826947032 -0.07083692272397704 0.01702229269764319)
(4.98952284421317 0.001930143096288574 0.001918877684879312)
(2.758500201449502 -0.129001603969105 0.02569719911285709)
(4.407425097215163 0.2359526463936651 0.4087483278894787)
(5.008013259497774 0.002725352827662368 0.004261877577394414)
(4.954127063714352 0.04172042997167473 -0.01125601220405307)
(5.081550389198187 -0.01672177811779841 -0.01440889508781125)
(4.203126857692608 0.01492517382492799 0.03028704311218508)
(5.059103875288506 -0.05867369447383735 -0.01725960082960797)
(5.001272678972103 0.0001499945303260528 5.631882439988262e-05)
(4.916358776620661 -0.05065843736366758 0.1562417101700129)
(5.071274469480567 -0.05661467944086358 -0.002557006064809434)
(4.53461668306895 -0.0002031678527459682 -0.2879712467542276)
(4.571660594978902 0.01662792308909906 0.1186520789470317)
(4.926117355327401 -0.1309326504711779 -0.1210495595537057)
(5.021624560926801 0.06643386582189506 0.02699983661558713)
(5.079559275054867 -0.01455043525711932 0.03506178797344297)
(4.609659184096121 0.1726294571569494 0.4768325731007388)
(5.004005501540793 -0.01683676193340497 -0.01862615383334429)
(5.094239408370515 -0.02115706557132442 0.04082257339397627)
(4.992033238761191 0.02680658794464348 -0.007213741336719865)
(5.079833024952491 -0.0355036452640085 -0.06017684143394397)
(4.113353459468227 0.007564357922284549 -0.05473428973290758)
(5.0477266993325 0.1136993303473946 0.1204376071819365)
(5.002683799658003 -0.002590080955171456 -7.695655980718811e-05)
(5.073566259242601 -0.0268627094373493 0.03913039614075661)
(5.075415628634493 -0.04331074640338825 0.0190821722768586)
(4.982201418226472 -0.1194856381062028 0.006128809283155533)
(5.011054998610645 0.03804156277497819 0.04170787269000337)
(4.657162278537273 0.08104210900868886 -0.1196372016623541)
(4.427356614562209 0.1049573382338796 -0.5992072433241888)
(4.982716973106248 0.001348370182945385 0.003876051365127418)
(4.872508713160676 -0.2550358010054168 0.08891829789798676)
(5.088238301734477 -0.02474047585811223 0.002330008005281222)
(4.974438586509653 -0.1580467099981757 0.06139706755907988)
(4.923337799003844 -0.1125978775432749 -0.07714684715444808)
(5.038171390810987 0.03456693333392703 0.02961493701044349)
(4.997572138299081 0.003580382064006185 0.001137312908991132)
(4.993526748355578 0.04579237182385192 0.03263524624213485)
(4.448885866257613 -0.5157035344319658 -0.9455408631616313)
(4.623032063954943 -0.05749421992029493 0.1231687396465511)
(5.00086067086383 0.002938018080288019 0.001872535381674002)
(5.033532042158761 0.03838137531545292 0.04475879690361514)
(5.047224770213828 -0.002495266988499483 0.05082890597798347)
(5.084301360852863 -0.01878380699646638 0.01951241993500993)
(4.876649903746626 -0.003760465387342749 -0.01329913894444829)
(4.955038458367659 0.08868961878660554 0.01617417640391943)
(5.087823058741717 -0.03221519554618704 0.0108407529806516)
(4.463135829929326 -0.03491005135037207 -0.254165317045333)
(5.015902907903778 -0.007812155103998469 0.03067540330385078)
(4.877088268114523 0.1147843956669369 0.2101421801365918)
(5.099023043772262 -0.03968350113813754 -0.009945633423230165)
(5.07594252413835 -0.09128008514316929 0.01986231538012887)
(3.91637282921838 -0.1187095580791377 -0.0007106849683948045)
(5.004296888100225 0.003368642606062495 0.001305912529079622)
(5.009031480927912 -0.000650050354788758 0.003474896904081153)
(3.045470098642874 -0.1214407969489797 -0.1291864366767771)
(5.347889918409232 -1.188234666953889 1.640106685380673)
(5.021135718869498 0.0334022139314871 2.311278504295972e-05)
(5.076267153606116 -0.02809341453262546 0.01593775442566377)
(3.56131980076785 -0.2676701850305381 -0.2952193991074534)
(5.06656450585754 -0.03811979349959858 0.02304248937513959)
(5.084175701025607 -0.01634684293269467 0.01621183095510998)
(4.93322749873196 0.08560376056921444 -0.004213585456307824)
(5.009719273557472 0.002491818265980065 0.004583201538589251)
(5.008628020764522 0.004917377493132633 0.003646273940781469)
(4.058229685408956 0.2799905177921299 -0.7501622289209458)
(5.00114824609451 -0.002582615152927431 -0.04966857600713914)
(5.061906776581522 -0.01291386281136027 0.01288236980166604)
(5.156958655485314 -0.01282733639542251 0.03507589292951119)
(5.084358430186739 0.1286648096720567 -0.228923289403828)
(4.954101218502672 0.01398229855954643 -0.00323785952970118)
(4.974315908886603 0.027467712605035 0.1560089657812154)
(4.962332742908433 -0.0627242190762199 0.0191421952468236)
(1.622666146905903 -0.2891691095705681 0.1134361027980771)
(4.994774719077486 0.005025700232432697 0.007190342471748913)
(5.040368024929725 0.03252397820996536 0.0395151526564201)
(4.93224035367857 0.1648090142270816 0.02427418509644511)
(5.095502321254011 0.07268440577941973 0.1304206059502149)
(2.616431479777174 -0.07636072391514014 -0.2799757921658736)
(2.460582222106489 0.07253238325962486 -0.6216010767245977)
(5.09271023130167 -0.03275506521027075 -0.001044526955030176)
(4.966794241566175 0.01917716873707738 -0.1092021666257239)
(2.765149390093252 -0.01053743328402791 0.05990043251179088)
(5.017276099394733 0.01630397798855867 0.04300539086864315)
(3.818248111420144 0.1031902052562124 0.198075411940758)
(5.073340454786184 -0.03049564537597324 0.01210024520693114)
(5.064365811960239 -0.01962541059029702 0.01291747556856794)
(5.060631114750438 -0.04800652978889356 0.009320856631670139)
(5.142391075019401 -0.01351292658821473 -0.01769486569726095)
(3.225578202255879 -0.3725764056108939 0.1407682355461171)
(5.035202586508159 0.02976688376624481 -0.03751985407797277)
(3.309329761905794 0.2529814317078107 0.1308155695561803)
(5.059172925983083 -0.03593298569519116 -0.01925592883848749)
(5.071460786817369 0.00066813511243746 0.01748844983468857)
(5.069782376670284 0.004075028036284379 0.02457063657714164)
(3.702769512457691 0.1010465533745413 -0.3074890529762209)
(4.175213833034054 -0.1780748704010914 0.02625593387906911)
(5.028016670232319 0.0443346239428524 0.0315083154403503)
(3.807008668221428 0.04504033984835149 -0.06561468112449058)
(4.800572226102753 -0.5302776089215795 -0.6879712580063512)
(3.429901588686724 0.6788116653357221 0.0541343338499107)
(5.07192171373396 -0.03966749191103497 0.03348602240235597)
(5.089968196561478 -0.04756015781473611 0.01662875640027366)
(4.364027984940617 -0.3043041844772622 -0.2508193163044504)
(4.992776392611707 0.2775036014228544 0.1282354462956798)
(5.027446581251255 0.426881179033159 0.08929656186465416)
(5.162979489710493 -0.02476454172137812 0.05963072369219877)
(4.805794665372566 0.2228386485756615 -0.04732470834488216)
(5.039883636406183 -0.005192904811660605 -0.02573438889363807)
(5.045639452291049 -0.1360433454802443 0.01422192599233787)
(4.05458170381613 -0.1818021740747506 -0.1108952571493019)
(5.059882910730225 -0.0246588196443723 -0.0002996643691530089)
(5.068877607590967 -0.1398319881689664 -0.3111706218191467)
(5.065512386827025 -0.01918811480325513 -0.004240118634551484)
(5.059555651338261 -0.02793809279607713 0.0006331245845859363)
(5.06196861189708 -0.02867193889083942 0.00681001003703902)
(5.061166513519069 -0.03665392220510652 0.001835254988155513)
(3.894379280213335 -0.2820066197646889 -0.04616087585784819)
(5.090249778959476 -0.03141264083419669 -0.001246061709330985)
(5.062384039823552 -0.01657185031581066 0.02565217319956077)
(4.788832149855578 -0.2012723148050595 -0.6844896594236037)
(5.049310171036077 -0.01371312957632437 -0.007768640765024308)
(5.01218575037411 0.0004686162564006177 0.004425743099567435)
(4.66690903726018 0.02539116606342054 0.1757182447570091)
(5.027258609459669 -0.01282899050850841 0.001098233718284858)
(5.003003746018684 0.045762212363259 0.03035045701062564)
(5.123362012613956 0.07420340176356562 -0.07362904149508187)
(3.909699200549282 0.1043217078073147 0.4947061892129652)
(5.024536411542805 0.05418317059612972 -0.03340787514095939)
(3.48407979161943 0.5499556143257797 0.2117228723201837)
(4.017730166136797 -0.01801549044970778 0.2982402346935795)
(5.045492182419186 -0.05272657586688775 0.0502970734808054)
(3.034051941552792 0.08894389222771235 -0.5453260576596689)
(5.047875443246328 -0.05264387894974164 0.04149787850992354)
(3.524119222151314 -0.2707665666591605 -0.6258559537037653)
(4.863623636074449 -0.2694836603705043 -0.4017965069203809)
(4.692526482408771 0.003517727505279774 -0.09330121272908019)
(4.996828560646729 0.005260091020487532 -0.001370543441289374)
(5.068917678870377 -0.05155481609575156 0.05114089593754934)
(4.854230197223784 0.2603873456402839 -0.3026873434334069)
(5.033924624290009 -0.01694517667866948 0.03743905755562341)
(5.003073008636445 -0.003101808642058043 0.005009939631528357)
(4.992735764460275 0.004622185734139081 0.01046688107075978)
(3.298188255893546 -0.05512496097080501 0.130452247220526)
(5.082361639262258 -0.03532447535735371 0.02679269416810701)
(5.067896787737342 -0.01558617853512948 0.02071345911845024)
(5.067441821915 -0.03135847097563238 0.03288869969741126)
(5.057395171664015 -0.02072716781539843 0.00529152255485124)
(5.06768256780002 -0.03636862148973701 0.02971048099586455)
(5.057316951610808 0.02877164823303792 0.08035306219767702)
(4.992406200614112 0.004460786917029708 0.0002116403238516234)
(5.069630709985416 0.03938432268362308 0.163372925999384)
(2.710164700532673 0.08472194291961103 0.02822339259289339)
(4.896486777000515 0.01009842654445934 0.002149966231965338)
(5.059571067477211 -0.02118111309565708 0.01311337422063701)
(4.996474507358418 0.005669415098686261 0.001315916119440652)
(5.058840016885521 -0.02068313491449145 0.01481830230694331)
(5.059679564163349 -0.035839820545497 0.004693228064334536)
(4.984431619247535 0.01611962576163233 0.005300653689851809)
(4.98827237597675 0.02176782014267395 -0.005477866418071817)
(5.062306898013285 -0.04752208246337986 0.005246540686044249)
(5.026722304392374 -0.01099048284519311 -0.00164246075927475)
(3.89828184222628 0.02162705811608335 -0.08077721075697)
(5.044981546649323 0.04965744383721478 0.04690834448845412)
(5.072630944909804 -0.06373662978537897 0.004880291594764075)
(5.060434739177444 -0.02587867895710719 -0.01863680807645068)
(5.08915501707166 -0.0508258034358481 -0.007969751702297139)
(5.065797334172987 -0.03263842477085475 0.008053277233624936)
(5.071230433841354 -0.03708656122713472 0.04096480974137223)
(5.099350602059935 -0.02857587406285572 -0.00321310036881378)
(5.004563988892629 0.005858251978876407 0.005594257875596131)
(5.084034150084426 -0.02828256064076035 0.02570268565821423)
(5.078918272936872 0.02662087834811012 0.09533609529520085)
(4.554682394251324 0.0917121077866113 0.2379836889774999)
(5.053884698464118 -0.0281050743468851 0.001612911124893899)
(5.001493065575063 0.004508048906860793 0.004909982080167354)
(5.000247850678777 0.008820139661338428 0.006094021960471278)
(4.851380565895574 0.04990258618917764 0.03815095635184967)
(5.00952274933023 0.006629013422181622 0.005597611095085067)
(4.979221937650267 -0.02551906873116365 -0.0003022297148142555)
(5.006430630475258 0.002023301967829695 0.009233650683541936)
(5.058137499748815 -0.01782300440855391 0.000298055508076006)
(5.060432662228217 -0.02140394080739969 0.004682779049525263)
(5.054183531853903 -0.00727304919632253 0.01975628329260254)
(5.065557148905777 -0.01601211346850864 0.009237293195795941)
(5.00922221368575 0.02873528765466846 0.1222731934999084)
(4.534474374902701 1.291235717641156 0.6271648239710131)
(4.997516529141601 0.001998676136242058 -0.0002475154963989497)
(5.09276986588061 -0.046059608826777 0.01099313573470301)
(4.91038572167114 0.07857665724826697 -0.4576126112271905)
(5.101223478015181 -0.03209689271233022 0.003162290935198096)
(5.013669775607851 0.01421651293689872 0.02222122749973699)
(4.965940914388982 0.04175543215851948 -0.03807755375296952)
(4.968765687365631 0.05126738202693942 -0.03429172855325605)
(5.063003145128064 -0.03372093816889691 0.005820672899382073)
(5.062134615895014 -0.02159245816551295 -0.0012056968386001)
(5.012796506443078 0.02352207418486656 -0.02203420251357405)
(5.061958539028423 -0.03400271190015709 -0.001306923513642643)
(5.000315329133798 0.004746339338064337 0.0003297607995999918)
(5.071139382946939 -0.03997618884986957 -0.01741307246788616)
(5.047574577730201 -0.01136921593529012 -7.712344403507099e-05)
(5.068590904009461 -0.02572682178059819 0.05446725141914296)
(4.91210588956914 -0.02039449831414815 -0.01975930598131228)
(5.101966151040531 -0.008040815491649264 -0.001856266323044551)
(4.983913173946069 0.01711202254505922 -0.01271463443429833)
(5.095528614290196 -0.008804854113502925 0.01053677561303607)
(4.483932728082258 -0.1339009690895255 0.4857879342972795)
(5.007252049792537 0.001656403359218897 0.002306928860882627)
(5.035863630470587 -0.07260063798409448 0.05676964951521414)
(4.410098246281154 0.05063449236505439 0.5146163280334216)
(5.009613827512856 0.001783897720318269 0.004433667304050167)
(5.009898894501609 0.0005639733449491299 0.0006292172874242904)
(5.008080585224013 0.002967346473284977 0.0005946648302866601)
(4.706389551435413 -0.1453033600882311 -0.08452719988178557)
(5.002051616550363 -0.00224281722717193 -0.004670599667471595)
(5.023578598337195 -0.01964700924659215 0.002329948223393882)
(4.979607064211149 0.03696458945495112 -0.01786201835677871)
(5.00085877865989 0.0008913686553578788 -0.001104443669237257)
(5.015467548488422 -0.004317881190959103 0.003945259867115775)
(4.999391569468777 0.08225399571370942 0.003609621757543614)
(5.04439997690602 0.04547962337076283 -0.07341543698758222)
(5.01875573918254 -0.01380342568549577 -0.03918614730576421)
(1.051796283117683 -0.03265846167069292 -0.4512728148779122)
(4.254832848213447 -0.02015663328755847 -0.1740746022018501)
(4.990515709191673 0.01518846702662565 -0.01943499937983459)
(0.0333076768946767 -0.01474399471437084 0.02101915499806475)
(0.00721909738379386 -0.04031212478195983 0.01946969277768672)
(3.760259298852543 -0.02359908841402683 0.06139377818194511)
(4.380112519586571 0.02307330421025876 -0.07952006791893948)
(5.135982414842431 -0.1117849046020077 0.10818573681896)
(4.189898899357711 -0.07726944358293482 -0.4432289654177243)
(5.05778361487432 -0.3262431238579791 -0.03441908349709478)
(5.006408201106241 -0.01977042805084706 0.03192424022670914)
(3.973474543289238 -0.1876124499717403 0.327363951243444)
(4.969443406468322 0.003979921631184076 0.002568144548343405)
(5.058313315729003 -0.09430732298155926 -0.007589958627779666)
(4.993053737421054 0.003292336246522324 0.005768173508696825)
(5.01863189911041 0.02076087531080489 -0.003697485096387113)
(4.990864952648195 0.007815081334088626 -0.00444098360313388)
(4.943739061629686 -0.02584489744779894 -0.07901805363419408)
(4.957309794086415 0.009673688954629807 0.004555160333527352)
(5.000953200733548 0.01287937876639604 -0.003446236641638468)
(5.113279523041772 -0.01815874611417949 -0.104316809084007)
(5.022932544473003 0.003774015658707998 0.0371853022156942)
(4.87330103015206 -0.1176298978318165 -0.004941998729627564)
(4.669642906376692 0.1744311726695138 0.002576828190267738)
(4.987574675406345 0.02377360987439144 -0.01457263932278426)
(5.105464196221896 -0.035295539218172 -0.08592386939646883)
(4.96991603919214 0.01572310043783936 0.003519578159266158)
(4.882950411951639 0.08497497375545765 0.1434309279031232)
(5.054925159007125 -0.01660314118695824 0.0822796298474788)
(4.057186554920925 -0.02900096584835523 -0.167230463451689)
(2.536893249213241 0.1041129925468281 -0.1099405397495312)
(5.040080695099483 0.04516736263524121 0.01934163199349466)
(4.995848846656373 0.02110142720468998 -0.03576771032652872)
(5.061827088145092 -0.1137875164146034 0.003749891031899037)
(4.84769839840201 0.03736919267269797 0.03162734441302673)
(4.970722869482894 0.1169593564054685 -0.01414919006791112)
(5.058454600378383 0.008946010344122174 0.02295582344130923)
(5.017295956268293 -0.01532669746652213 -0.03159909776721854)
(4.992668884355102 0.06772783787680359 0.05096984602318595)
(5.094629149449699 -0.06306994074602194 0.007521580148282725)
(2.10942162633555 -0.01559058466758413 -0.02606824309164399)
(4.322761524435923 0.3190057672255014 0.2575179622966723)
(2.838261124755468 -0.1843363654659304 -0.08758541713810178)
(4.985674762059503 0.02950242890433302 -0.08433509470492473)
(4.170459965580392 -0.267178379412559 -0.1139982990464983)
(5.000765829373406 0.007045078533412235 -0.0005459732534165713)
(3.407708788402326 -0.1236703689333198 0.1680870231062259)
(2.99588436191466 -0.2101013312321279 -0.1398171905212004)
(4.998896635484846 0.04106731626591396 -0.01545449108888946)
(4.75798624342727 -0.006655205248450313 0.006644927851983569)
(3.63667349072283 -0.152567282053728 0.07823485994692586)
(4.996776205177764 0.009574831475279716 -0.00124553767376057)
(4.861069315831184 0.165607408649647 0.02580730097250549)
(5.060445821830823 -0.01786299557218492 -0.01218065513481789)
(5.036522876091504 0.05336806444453716 -0.1087099546128957)
(2.818539793011333 0.3584613031758921 -0.070618368180159)
(3.405289809522015 0.09787616325781047 -0.1615375787635712)
(1.361682873676727 -0.125376550397554 0.4321632174583463)
(2.133287750034888 -0.01753013238714604 0.001592418712444964)
(3.030959705413891 -0.0905346024857939 0.111516317039087)
(5.085404761559832 -0.01149006918514667 -0.02060446699831343)
(4.406867596504506 -0.06397823303677949 0.007075352079548587)
(5.133364239198607 -0.04429445724298071 0.0336639300600904)
(4.978795948570787 0.02357169851069024 0.001955846436251552)
(5.054834266823885 -0.01244282048184728 0.0005746687374529687)
(3.805536270461857 -0.2782216957794562 0.4867084540958615)
(5.143681253255588 0.034070546701197 0.2113165492417406)
(5.000396777934077 0.002314926026651633 0.001951645655910079)
(5.050365026781959 0.0459045159016289 0.2335549457305918)
(3.746180975585597 0.1225155727292224 -0.2957374816623223)
(4.987249724020255 0.02211144137639206 -0.03057367490649731)
(4.852886140774291 0.1917597312845837 -0.3666767047501786)
(5.086007443293177 0.0817208450501877 0.1232048040343209)
(4.42327468895459 0.02305422254295098 -0.04779100257735568)
(5.137616260312721 -4.303728915638818e-05 0.1269161561535378)
(4.855741998837989 0.009930415855024315 0.006737728301598299)
(4.887158958616594 -0.1928685603744043 0.07965207476811859)
(5.04574437676128 0.008957665709422503 0.03157581965691595)
(3.685403990403667 -0.1765929432271446 0.0320006850090434)
(5.022236145754963 -0.07741887680768865 0.1062997094973161)
(5.040166657861279 0.001354261549944306 0.0344590011235353)
(4.958533037536588 0.2744173277510226 -0.1472221938290152)
(4.916535546608983 0.009996591418531148 0.06565678500680061)
(5.002949861511699 0.002379206029728064 0.001349455094988494)
(5.004190016269257 0.006411950161962912 -0.001332786062228995)
(4.996588316247065 0.05688120774959613 -0.05872046651447708)
(5.063733298154109 0.07924577067048762 -0.1886629502083483)
(3.841874407443986 0.03581613537905412 0.1966574701221435)
(4.399751266512752 -0.1665864887413443 0.1604312548720821)
(5.073677831677725 -0.03410576570958031 0.02435399758540963)
(5.083933951945755 -0.06409854140076499 -0.01773223610755652)
(5.002366803906038 0.0002942744829426165 -0.003728289554506034)
(5.072918009873773 -0.06319502012901269 -0.01556997133025492)
(4.996094944428556 -0.06477161996715702 0.01885943433243505)
(4.377375324729845 0.05402427158315538 -0.1366840327100689)
(5.062411618281077 -0.05031404468119566 -0.01258809344496805)
(4.992642127932714 0.05128564047658775 0.007080337386118322)
(5.016087592553689 0.04022477807275175 0.06558833944968298)
(4.748562608435773 0.04788309247446038 -0.02939314850555596)
(4.98696245675816 0.005262913935864977 0.002511618563975349)
(5.003115505065187 0.01066767061580313 -0.1038070980012379)
(5.001978777357963 -0.00168793237568476 -0.001712162823122354)
(3.309777772134319 -0.2501548227168602 -0.1105140383787633)
(4.823570722836497 0.06208786769778941 -0.01520437217136505)
(5.084290241171622 0.09193429164704479 0.5531085855340905)
(5.074160022257407 -0.04067331049005368 0.03149568583663072)
(4.937806590129136 0.09095546346774401 0.01302625250648104)
(3.55661398961919 -0.03767571432534284 -0.205888471138051)
(5.044100245732473 0.02242388841441792 -0.02941230793436897)
(5.045701420028363 0.09292654505659438 0.1221662884519169)
(4.592675582124225 0.212208754152375 0.01544829247212164)
(5.003929569510733 0.003180807734935065 0.0005978320915613104)
(4.053446845404546 0.092005160968398 0.3287133154504518)
(5.058469693496358 -0.08048279802234071 0.002722613448391285)
(4.995971291385001 0.003792502699661957 0.004360062760239281)
(5.206971396128218 0.1292444456359825 -0.2527875293755926)
(4.502711594997269 -0.2482503860213892 -0.8541524469605657)
(5.030884693408988 0.04760845224854838 0.05140263431875552)
(4.417131654515877 0.05756613965698498 0.07087940772007187)
(5.057467908446669 -0.01980267858135027 0.002313471782874583)
(5.014013574766421 0.02176926920802151 -0.01722912558084103)
(5.019834907815875 0.01290530460208079 0.002859017592185803)
(5.049143372422103 -0.02233691138510098 -0.02209023989619099)
(4.999879502888243 0.003085002696028197 -0.0005505074743082778)
(4.365829713189266 -0.8072004844602246 -0.06987315949105223)
(4.957964637435828 -0.06559307241237888 -0.1055980712498095)
(5.023912551501251 0.002804841487615593 -0.0137274647015408)
(4.140363589134089 -0.009574162581229666 0.04743624214291733)
(5.046847530568747 0.03460405947001297 0.04400427302826742)
(5.069837035538926 -0.02774255010756619 -0.005454358946176982)
(5.162905336268445 0.3193499389515932 -0.1005498689303679)
(4.744050754875728 -0.05736851997883984 -0.1140738165091183)
(4.633055547776628 -0.2990701395885126 -0.07243755297366017)
(5.215722320053394 0.02517760791748926 0.02765743051801312)
(4.226208359060304 -0.1248083384186022 -0.1042301789198782)
(4.784165680977201 0.2008873266035302 0.1902172729789429)
(5.083760126885982 0.03622868892627172 -0.1323496835067536)
(3.790672728834923 -0.2732969779120046 0.3734972822646069)
(5.010940372515737 0.06103326340839479 0.02538653438521364)
(5.114939443414009 -0.03203320519008066 0.07793448956848117)
(4.235263764774623 -0.04106064379255133 0.08627805976598005)
(4.969056331968805 0.1340039419930592 0.04694268307251024)
(5.072702085843974 0.07951548892854428 0.02640166060113656)
(5.026526868135799 0.05610036448866055 0.05225558539798551)
(4.980436285008652 -0.06375010450938912 -0.02413140886482787)
(5.001863160627058 -0.004462548042091603 -0.001520220542815667)
(4.763205419167152 -0.1367355806337028 0.04174094080023602)
(4.995019529772097 -0.001722945358418914 0.00298278796493927)
(5.054912701491407 0.0791602397581925 0.06211080480924411)
(5.009195157408607 0.002170108739759125 -0.003657354355770746)
(4.711673026905076 -0.05040640963038541 -0.03353948200615902)
(4.701290589205522 0.2556625363258054 0.07974440324050891)
(1.994485888808515 -0.01635892029740371 -0.1090198215812023)
(5.07980155083538 -0.03173109452352677 -0.06132942654332552)
(3.235190358508881 -0.0111943772135256 -0.2283793126142075)
(5.079382109862204 0.229389212453964 -0.004661707583837839)
(5.00607451320108 -0.05606138250589644 0.09022529375164087)
(3.537559877150053 -0.1236033956027364 0.04134366861301871)
(4.189492409869829 -0.3287196315786923 0.1152577329465222)
(3.812252161932685 0.600132857721054 -0.1345509934194448)
(4.80021811531272 0.1306227066538743 -0.1773691705317605)
(4.995020614824222 0.001732313493171581 -0.0003772195824511785)
(4.997489646923462 0.0365295964706741 -0.04956034640398412)
(5.018834218740523 0.07789030463696058 0.08706060620068297)
(5.022683322062897 0.03542797279065725 0.02539704088841178)
(5.016908046233867 0.001737629629846898 0.0484431418804311)
(4.985284751138209 0.02228037403836935 -0.003305485999143819)
(5.008371055430135 0.003189973515908186 0.006042258830567747)
(5.037491720122243 0.005926179164232141 -0.04057372426256593)
(3.723840100236066 0.1729445498968782 0.06181027667198415)
(4.99886929930144 -0.007530933558752011 -0.009443877763910887)
(5.043597730748766 -0.07424168162267689 -0.05301218496988657)
(4.93653803312336 -0.02818346209654135 -0.02723249040928205)
(5.045253544547731 0.04684563963484791 0.06065954682389798)
(3.483047941091967 1.067068051123753 1.032350954476857)
(5.102883352200782 0.007526071916547363 -0.08949564137194528)
(4.947228357939109 -0.05169899527917063 0.0218102901296052)
(5.039209616257258 0.01219538622916364 0.02366633084723252)
(5.030138521658811 0.07672593219932995 -0.03258367566168683)
(5.064901649380237 0.02331170477278387 0.05563349194544613)
(4.999567491320487 0.02417191398987985 -0.03947944799567948)
(5.004441280842742 -0.003385847807380723 -4.836327630658042e-06)
(4.997081313798585 -0.001172616036378537 -0.008706201266570766)
(4.914614348986404 0.215678438259314 -0.0918173053116383)
(4.998822813526275 0.009773258256045959 0.01262381199193882)
(4.94893379817547 0.07143249766026392 -0.08323753466367315)
(5.002901290834484 -0.0007199458736520466 -0.0005704789329976804)
(5.020395311175783 0.05405881150307296 -0.01639349530828695)
(4.065505760750653 0.1264286241794536 -0.05969744433855474)
(5.069558638282143 0.1169399177705849 0.1215712959319954)
(4.997761256767922 0.002320224950984136 -0.004099634479242052)
(5.037917686938073 -0.009304232963635377 -0.002214019843471817)
(1.827267274499941 1.134365040498216 2.026465510202506)
(5.012748680168118 0.03514425547502317 -0.007579642848034167)
(4.987464549547491 0.009992239712007299 -0.01600301156149191)
(5.059129411589653 -0.06634244604294857 -0.07671711821090758)
(4.977091956664562 0.009218167539474357 -0.0048184712735279)
(5.049246265710742 -0.02731932985282563 -0.02632322833678884)
(2.722718331083152 0.4520007276754293 -0.2358332344698112)
(4.997909019048112 0.09212343520421606 -0.005458644277811633)
(5.01042775552059 -0.4393051996111973 -0.5700036130831941)
(4.976232239152509 0.008860086515460257 -0.0008194242243309273)
(5.004340693379659 0.005547238980847434 -0.003253527592954874)
(2.93397014202069 0.09904528939921271 -0.1107473333938116)
(3.254662658838807 -0.1299522598313338 0.2412319670603403)
(4.982376840464147 0.01513502540902517 0.0001684823977032165)
(2.864380553181295 -0.03694057563392468 0.09777573942803394)
(5.004447266016311 0.01177108982540999 0.01588370317137791)
(5.009279533093878 -0.06314941876336867 -0.09169654246354682)
(4.99783091811624 0.1384481086537669 0.08408314962071295)
(5.001307370265443 0.001522377626749459 -0.001120890466532538)
(3.125717241910014 0.02405074529751358 -0.1459018472935299)
(4.985478874006283 0.1269053999119074 0.1157911617432654)
(2.913941274255252 -0.230116860934282 -0.0723832035164076)
(5.050114008611684 -0.07940391853114279 0.03399503122277791)
(4.987235240590026 -0.1841460999271435 -0.03839335762541625)
(4.895980724660203 -0.1715097377604364 0.08134675599574857)
(4.898668645458247 0.04453133839759407 0.0925706341645994)
(2.330599335686195 -0.3170588371729592 0.04972932154391409)
(4.847107425371376 -0.1326849888108277 -0.08238929149973011)
(5.025577853404019 -0.0674647951579658 -0.05321780397128498)
(5.059972142414071 0.1296828733366128 -0.1125748037361661)
(5.011877602051525 0.1995855087237329 0.08092059303933863)
(4.940349752227459 0.0127549952337507 0.008715768831613189)
(4.997496713599625 -0.006504741118714252 0.01505948633862875)
(4.274685306188889 0.05144483906524971 -0.01301027207273958)
(5.011135639136292 0.3427431989681242 0.02033194889417303)
(4.997636662433943 0.000609606472165424 0.009368941179554025)
(4.982961567209165 0.009213422866144958 -0.001560924961738887)
(4.921895231114623 0.0328394077059008 0.01012815356915802)
(4.626223132001825 0.3314226829801377 0.4123341503692116)
(5.028789039795306 0.0134953402310893 -0.01966302174917495)
(5.102123485590076 0.1050450772221681 0.0561876144215415)
(2.858063392809639 -0.1144574104542719 0.131855031548102)
(4.683395222548373 0.005017105078958905 -0.003967995542480146)
(5.007455636874704 0.004249460664813925 -0.007893769803276931)
(5.055862679696907 -0.04192187786726392 0.008947944046126019)
(5.137884621600573 -0.06756835394366857 0.005639006662596579)
(4.817855354692549 0.217813547312273 -0.5369610444920934)
(5.067823117077315 -0.06732387178484607 -0.1640234259401118)
(4.256082239965097 0.1646830679353705 -0.2322816522577646)
(4.864786861138167 0.07744594326917789 -0.1333898494053447)
(5.018247158920317 0.01474152601894023 -0.03230483614930169)
(5.162676649763997 0.001599816756100201 0.1504218796812503)
(4.997949816213747 0.04784893037412454 0.02317040734007322)
(2.434715563760323 -0.02943693242928948 -0.1744494727882907)
(2.936795678668292 -0.008652932923088082 0.1739843844198006)
(4.642116097164592 -0.01610701243062147 0.004957073371080902)
(5.000873698222541 0.02935708172543425 0.02446943795602653)
(5.119809408863848 0.1063494140092357 0.04673714645342022)
(4.999141329263012 0.002649642338102179 0.004648011791709783)
(3.484100931973234 0.1276572911796792 -0.2995452423590316)