/*--------------------------------*- C++ -*----------------------------------*\
| =========                 |                                                 |
| \\      /  F ield         | OpenFOAM: The Open Source CFD Toolbox           |
|  \\    /   O peration     | Version:  v1906                                 |
|   \\  /    A nd           | Web:      www.OpenFOAM.com                      |
|    \\/     M anipulation  |                                                 |
\*---------------------------------------------------------------------------*/
FoamFile
{
    version     2.0;
    format      ascii;
    class       volVectorField;
    location    "0.7";
    object      vorticity;
}
// * * * * * * * * * * * * * * * * * * * * * * * * * * * * * * * * * * * * * //

dimensions      [0 0 -1 0 0 0 0];


internalField   nonuniform List<vector> 
19631
(
(-0.02862106753687633 -0.001881498842590229 -0.02554087727074587)
(-0.1645614114885391 -0.09608658635756184 -7.653703090547535)
(-0.009878931076112939 0.01449138513499607 -0.01125832872149284)
(11.25389882980029 6.053390915216429 -24.71053982798119)
(0.1588433275908193 -0.143886182852982 0.003992105634547952)
(0.2403321755830309 -0.101110416885664 -0.07348203497030113)
(-0.008547597393154549 0.004696232345243113 0.0003229332122411453)
(-1.772846457459468 12.47493495339889 -7.642155735382747)
(-1.130067933827384 -1.574871758874306 -3.591362683955826)
(-0.004230513598185855 0.0006774031210507185 -0.0003246510088755904)
(0.04411835748826571 -0.07272418472764816 -0.03788538610498592)
(-0.08087247502459236 -0.1109323336477874 -0.04902497973243269)
(-0.3783872324498505 0.1183263958241873 -18.82758115223447)
(-0.1667521266736817 0.2206005897226445 0.1163264687301836)
(-0.001815439006530353 0.0004918740541650739 -0.001755011999197423)
(0.1752145229074359 -2.463047814414769 -0.5459948842408949)
(-0.00489644779739376 -0.2538731899618691 -0.2263285996088966)
(-4.550667737875338 3.720857199086294 5.552965537797425)
(-1.059514408387044 4.905661128661002 -0.3242161702976651)
(4.039937369303732 0.9172458864253792 0.499209996636595)
(-0.01804357067806267 -0.03581732949609358 -0.006591334788874033)
(0.00807787519141611 0.0330747327924007 -0.05325566175621756)
(-0.1522453697673483 0.1842582416796849 -1.011925985477439)
(0.01252327926514807 0.002256625159906668 0.03359354621352581)
(-0.02722547791870852 0.1105427272251425 -0.01547668645445967)
(-0.005627711400267689 -0.00275241163654291 -5.475980802763948)
(-0.03215543894532547 0.07497220924473419 -0.09503231857929693)
(-0.05717671070186958 -1.527964761089357 -7.478697241887162)
(0.01814944607357355 -0.07761306442429176 -0.1716968586141627)
(0.001356322231649418 6.248985337495732e-05 -0.003696086445990522)
(0.01320166954720674 0.03836653380266344 0.02774856195371416)
(0.02750787801316522 0.002210372585291437 0.1337319435389871)
(-1.503975045252832 -4.965631773513312 0.2885287815738367)
(0.007025211338661307 0.01156721261010476 -0.05292698226575157)
(-1.481719487218527 -1.150560631902098 -0.2971661633226151)
(0.07313691572034042 -0.9554105355632223 0.2726401944247397)
(-0.003098494960422389 -0.0001312861221750903 -0.00323844832735453)
(0.05677205745859408 -0.01818730825393255 -0.3876530553109231)
(0.2860947891119192 0.3745220215291427 -0.4930328712259991)
(-0.05230044870063355 -0.02882342696989976 -0.1309891646169904)
(1.139789861796743 1.367808160276614 -5.474429500204229)
(-0.03131315201932443 -0.07058682307236097 0.04305837723942063)
(0.003999959673057246 0.0002014364378873868 -0.0006580993803806062)
(0.1444576975700543 0.005614940975829479 0.01733478639553688)
(-0.6490969831991918 1.637413883289619 -5.797602626770976)
(0.9598620309452008 -0.1471227324547419 0.572028970737017)
(-0.00111545725444878 -0.006383734904024626 -0.007982818231620177)
(0.008024824423979459 0.01430949857499862 0.01252631858568444)
(-0.03644762674579571 0.04562212212537856 0.04674860324700315)
(-0.04605950818203074 0.004848439238528353 0.07364994541239528)
(0.005569374861939928 0.1393868435490767 -7.213400019747516)
(-0.4808057558402538 0.633099508605638 -0.9957209937197822)
(-0.01741311365303178 -0.03069886642313514 -0.01311400113711162)
(0.1681219810808133 2.10658259447171 -1.207999348830629)
(0.1630683785378585 0.6022897578278466 -1.20307400583159)
(-0.7290140068173303 -0.2713090913246563 -1.732679431958797)
(0.1735228094270731 -0.01011397908395307 -0.05468181048059781)
(-0.06148971184631504 -0.106853025515898 -0.01126164358742473)
(2.690982299178196 -5.319359541765487 -4.687886804550618)
(0.0004248952909106092 0.0001188296737637054 -0.002864611570635479)
(0.0004660121370529163 0.0007955255439352091 -3.677635097810105e-05)
(1.621460494794334 -7.683327516031663 -2.574918868249076)
(-20.76302400535018 2.967561788152615 -44.5337857786778)
(-0.1043813661446953 0.03338059522051023 -0.05868967490038902)
(0.06663471558734073 -0.01380329093780074 0.01701845411936582)
(2.382553943023369 -15.80206326848199 8.006131843083075)
(-0.005450795271003492 0.05084945335165045 0.03291918590777237)
(0.1139121576138788 -0.001006572999498311 -0.01918696337479563)
(0.09923680298702656 -0.01490011330395328 -0.07513709892890558)
(-0.0003716820135227956 0.0002354731619333338 -0.002605775835975105)
(0.0004385014504193152 -0.001074281368101435 0.002681797095336718)
(10.75417721088363 -7.582420785645367 -9.695044801106512)
(0.01259785875117835 0.02029285677688356 -0.04506418593097801)
(0.1475998231804264 0.04461078854777741 -0.06566628328955068)
(-0.1229051139512547 -0.05673669372549467 0.1803408132277171)
(-0.1345552998265606 -0.895472513455551 -0.8174060186795487)
(-0.05939745877362265 -0.0814895701821536 0.01092070552092891)
(-0.4911684923899798 -0.1669792648181056 -0.5072583233778712)
(-0.3422949448359452 -0.004491302329313523 0.0348128123125949)
(3.805462920970429 -13.44203808425304 -71.68493055461065)
(-0.02071608631353375 0.003725489212999136 0.004450972445005099)
(-0.1248720050423092 0.01900800959175403 -0.02213838743912953)
(0.188247639794688 -0.1120265778399891 0.2460120418636502)
(-0.165208188650655 0.1832089449899478 -0.1800060446305614)
(1.717320654279513 12.9654922061059 4.65259541306928)
(0.8620470924164172 -46.4701170396638 4.414209428252871)
(0.02033695954412822 0.02127942858767098 0.01466126806222869)
(0.8479390820340132 -0.5044032853291009 -0.2894244540599821)
(4.135315503616022 13.72578987064314 29.29487365162414)
(-0.08221845554759422 -0.04766710608606963 -0.04005409566641414)
(-1.431029261432736 -2.092137273390556 0.2593432497766501)
(-0.0158680902080805 -0.02082139315776138 -0.007803845867476771)
(-0.2013620545236504 0.02687073850136298 0.06876418071350815)
(0.01293139325530426 0.001386098427400263 -0.006931619544206676)
(-0.3768806925368693 0.982805631243997 -0.6471851697540174)
(-5.20220905940487 27.07910282261275 1.921253717272531)
(-0.007064860567121379 -0.01388414355177679 -0.01064764360138367)
(1.550528585920381 -1.64311937191956 -28.04381658946176)
(0.07725462328490258 -0.02251894049205342 0.07280373461989303)
(-0.06223633626700906 0.02719342461576342 0.01747635142861354)
(-0.0381123523739871 0.0550111453427649 0.08661339308094435)
(1.515966272999404 8.300219532656637 -1.821845592597659)
(-1.308102600395193 7.34332698083412 -1.827407958581973)
(-0.06151024520803302 -0.00866213750146967 -0.03408434230157505)
(1.508012278729732 -9.861874971418908 -1.345484409857349)
(-2.327758874763009 -1.197856601044428 -0.5174212215319063)
(-1.355794557714727 6.405921041843328 -2.704611093172695)
(0.06613176613600283 -0.001310521592030101 0.08234771744853879)
(0.01907696427311256 -0.003693751792887397 0.03930022955231431)
(-0.5632577763408146 -6.037972659843884 -1.786872446422896)
(-0.1852553238842333 -0.1578623490165648 -0.2589824921585906)
(-0.03334381681549392 -3.696249938368913 0.9899341591855155)
(-0.4202560307251088 -0.01646217111446496 -0.1036244672134712)
(1.070954596779172 0.3372097223756216 -0.2087784453362846)
(0.04543438065403871 -0.0008948257975235593 -0.02232378819848267)
(-0.1698217682777936 0.8264863180970935 -0.5100898598754635)
(-4.95008299520056 6.47515750796793 4.32982354616951)
(0.04360687905816056 -0.04603822521697249 -0.01251807263965948)
(1.093350779410111 3.511557700991008 0.5176181443585333)
(-0.01136686099488929 0.07945263259720356 -0.08837243330189787)
(0.009773546912774806 -0.006472883150323343 -0.05191801599807824)
(-0.06485540111890331 -0.006891768399500245 -0.03962843541802245)
(-0.02411766149619179 0.005751462468098628 -0.01100200006131192)
(0.9825662924346926 1.612522592975634 -6.470106818027437)
(0.1429383640536196 0.03084091653057142 0.02514003034324508)
(-0.006315386447950806 0.04033374051102172 -0.01013895199031908)
(22.87794294483125 8.518738649897022 3.080944992807305)
(-0.04991491009278755 0.003115588418518882 -0.01319506047064214)
(-0.0005824093332472746 0.0003398071097328985 0.003773428496470722)
(1.502140524702049 -1.733382422190763 -1.823401042980281)
(-0.006774343549073952 0.003157626356498114 0.001273815770039971)
(-0.4079384096468709 0.2503729467417648 -0.09796721422761298)
(0.0532768314426201 -0.04134126751147658 0.02688660601375097)
(1.133049888067726 1.826268363063612 -5.404256225662397)
(0.06903174254822492 0.1990219867818132 -0.001481321074222499)
(9.939520234293576 5.691717880912763 -8.518165840000954)
(-1.571752931405703 6.517106144803751 0.6654564448188098)
(-0.2132322649929666 0.4916626448278831 -0.1048611859629716)
(-7.010732981606917 5.44573691241538 -32.49654519809607)
(0.09389541427145662 -0.09896154268939378 0.07175122058559988)
(-2.573701334381681 9.056241834946153 0.6082100412142626)
(-0.8130886899581211 0.3861662128351999 -4.747351152095886)
(-0.2295148869870962 -0.3913114970179332 -1.651940759975262)
(0.0009777177853895693 -0.008580655172459758 0.005342119411966901)
(-0.02819269418607685 -0.08560273117978569 -0.2044161554701666)
(-2.414858671465923 -1.391663403872226 -6.165839701930517)
(0.01245083639941102 -0.01605964139779749 -0.01939741258322396)
(-0.005368593673877323 0.00120197014196048 -0.003464259635547164)
(0.009925984349312057 0.003281861372060574 0.0006324788551465017)
(1.253623858875759 8.802877503068229 -4.379555245611503)
(0.05028132589456741 -0.009346226957025024 0.01063668404465374)
(-0.0717871683106994 0.04880552732346025 0.05746857074159591)
(-0.03106113369740114 0.0482142891535146 -0.05037059379191453)
(-0.08948378050052726 -0.04587655248937601 0.02477636311423497)
(-0.04434887233723781 0.03599097014263185 -0.008462108016481316)
(0.02746932943347891 0.03798818115142173 0.04826972326701605)
(-0.001263373910639981 -0.001545140489608033 0.004081577094809868)
(0.2298104264718488 0.2881791752304157 0.6791856289328209)
(-2.12357868072009 37.64212818840007 5.879022499165678)
(0.02837881929455524 0.2343911722458971 -8.893805168749324)
(0.006460124589137678 -0.005084245072342768 0.002834669301092017)
(-0.00208676304231361 -0.001385098039725676 0.001364529632347798)
(-0.04549940989248465 -0.01975747803348873 -0.003298180788791419)
(-0.01950413118206008 -0.02533616482420008 -0.03214017847132202)
(-0.004831511924828343 0.001903113320225772 -5.550487062994502)
(0.001504686836896727 -0.001338134805692854 -4.915559294286422)
(-0.03166106726358899 0.007550901812404393 0.006612392440133563)
(-0.05083433191839341 -0.001168135074438012 -0.01428568110144115)
(1.733763303189662 -9.852467155578822 5.292517520261451)
(0.07142778963274493 -0.01166955610202852 -0.01277491671599246)
(0.02625245297875556 0.09266910298891112 -0.02107553897124198)
(-0.06579829366074019 -0.07212660310661935 -0.01976846458230495)
(0.09073455891933502 0.008273519596852569 0.03510857230606543)
(0.08179185061416472 0.01680571877087813 0.05429053628900978)
(0.01528674939021546 0.0103509879641339 0.009942081884797643)
(0.1714616732385457 -0.02565715506221491 -0.0440976456246583)
(0.003895861720786592 -0.004225979026830973 -0.007597076444647929)
(-0.1128521269792188 -0.06194338850676308 -0.06147249666228474)
(-0.09102426854874884 -0.150623474779091 -0.08982275990623521)
(0.7722526257429736 -0.2026096519219495 -3.924841589953494)
(-0.08768253109637367 -0.03550646811801134 0.06226400810336793)
(-0.002416160315624409 0.0001843837332375958 0.001570515842268265)
(-0.003648810304576848 0.001940160859081635 0.001729401235648697)
(0.007775912538470309 0.03476079277554459 -5.639995717501757)
(0.00045666718415093 0.0005827644295453881 -0.0008674936127330967)
(-0.005286321840976436 0.007484372464054171 -0.02817649411758521)
(0.01484379770706165 -0.04439353170882834 -0.06334279774583493)
(-0.01042718607391452 -0.004765310787170607 -0.009768202922202722)
(0.08282117072751333 0.04427201420372145 0.0006759695493042863)
(0.02760191758720465 0.007613704841148565 0.004806644268286942)
(-0.04797191956924446 -0.005764637328323543 -0.0396441279068513)
(0.02654922550389465 -0.004900691007260132 0.03245785760162645)
(24.1218238605769 4.841115518472212 -7.65998675155303)
(-0.009413902875150459 -0.005937398702649452 0.0002129038500961644)
(0.02052851765591331 0.1050535069364586 -0.1217296058498526)
(-0.9760944150571699 0.0872538645336373 -0.6197627202702638)
(0.06688857140261352 0.09256387263035556 -0.02545385310043433)
(0.002332577694467257 -0.0162655011941333 0.005021708868102985)
(-0.06489039619072781 -0.001224901946347805 -0.04644692499809781)
(-0.03304317767421212 -0.02906105238600309 -0.006171798100395295)
(-0.01580593889050571 -0.005765939474384315 -0.02042699643247924)
(-0.01201036859289116 -0.02198446910277362 -0.03432824917017235)
(0.03492978169974724 -0.02480230013492085 0.007487314801850165)
(0.02505506420190426 0.02625656782369478 0.01520629481897327)
(0.00580550526923171 -0.004557260632461309 -0.01716498824377133)
(0.05844799220849517 -0.03169735097774749 0.04276512366319549)
(0.0444293690295881 0.1007002183160983 -0.03235546482500887)
(-0.01565430366190104 0.03779898570132986 -0.1236915545201614)
(-0.007180485677550702 0.01161825716091141 -4.866287578932859)
(-0.1414716562317034 -0.01103977667726999 -0.1451529517299012)
(-0.001605881280708095 -0.00399844638421298 0.01239595125026763)
(-0.01795250494994706 0.08115763687440504 -0.09257958477377914)
(1.663498798169694 5.312520505362104 -11.34548577724522)
(0.0008131793209435775 -0.0001021899488449743 -0.0002339542691460784)
(-0.3645628696710715 -0.01409032253872071 0.07006613837992158)
(-3.461765969561063 -1.372183324367455 -1.232091036178615)
(0.003758665648440672 0.002899592356775563 0.00148853382277204)
(0.00531421137150343 -0.00250781103546237 0.002596811128250346)
(0.001455382924674934 -0.001411063345452346 0.001893667600492041)
(0.242932131332569 5.332295967899489 -4.218350577486866)
(0.02133565684916387 0.006264666546948895 -0.04163319196715275)
(-0.0507268963984192 -0.09151444549135086 -0.1210424627054735)
(0.003099398238018508 0.01234062868067034 -0.004248066846969406)
(-0.001533770543111526 -0.0006030859901902575 0.0009107769421480825)
(0.001515123214012373 0.001039429952950882 0.001323792352210864)
(-0.07167462439048347 0.0119474706611623 0.01912238788851108)
(-0.02776069474450823 0.03320332864774785 -0.02390523030766421)
(0.03231722217501402 -0.05775949429018087 -0.03525441424053029)
(4.448130025638305 10.8458304421782 13.88378104758993)
(0.3107117914274651 -4.617307462923446 5.967263245904102)
(-0.01513910046504338 -0.002922464048746864 0.01306479702892636)
(-1.206013879019908 -0.7932807353273885 4.489352133527277)
(-0.5123691290808146 0.5994030811397306 1.151954031607462)
(1.041004244534552 8.049307777749378 -3.113527118348006)
(-1.940958298600929 -0.09063968279627099 -6.641475487540841)
(-0.5613374736560706 -0.2530406792382611 -1.933249325941691)
(1.795126698804284 1.034993974533279 -0.3956420893286197)
(-0.9691528589140384 -0.2044913875276527 -0.349720850675924)
(-0.08894392646493279 0.01213957543911127 -0.06760231438761864)
(0.6560717229817452 -4.585851032944365 -0.9743348832393355)
(0.009470595296755847 0.00615748144782295 0.009536427602930926)
(-0.1446474505134696 0.1225448676656907 0.03771741496974683)
(0.004514767808076394 -0.002840874227788207 -0.0309289966203795)
(0.01128214274043796 -0.008214715291411816 -0.00523704974415845)
(0.004566863805518497 0.003004720889704336 0.005748981652878613)
(-0.06594207057515847 -0.09896642911393116 -5.028946329667132)
(0.0009793136808326944 -0.01936161352566725 -4.864844295211717)
(-0.0006307480955494284 -0.001296116399074245 -0.006420212151899384)
(-0.0917998477888191 0.5076595505235689 0.3313826624272607)
(-0.008274386561145323 0.01210863189995728 -0.005501597436800246)
(0.7042467880937378 -2.076836893060387 0.2684360117757834)
(3.701360419699736 5.583072926690575 1.756459784049056)
(-0.0271010482783272 -0.05749119640724454 -0.0818187669061772)
(0.02355432107845301 0.08433183111187691 0.07211584225535925)
(0.008643442766434146 -0.010225284944649 -7.92840723926842)
(0.7722707002325537 -1.057130357386201 0.6123202861366743)
(0.7529708033562423 -0.4106815090434962 -0.4746443980648647)
(-0.915349612287262 -41.87251873234865 -1.032457205331659)
(0.3307928959613775 -41.24041550752064 -1.937358564706897)
(0.9250927206373182 0.2873366257880378 0.1032185387999049)
(-0.0184411403943544 -0.03247703803021978 -0.05316953959760187)
(-0.2308355790235873 -0.1642166873518729 -0.0003800434909665973)
(0.1413430031140792 -0.5856244183027631 -0.9697595367529473)
(-0.784502018948609 -0.1180548395896109 0.1423431039392934)
(0.01877425297342397 -0.02903679823259381 0.03123998345174516)
(0.01013591735122123 -0.02088175493486241 -0.01552195482832138)
(0.08641450034216695 -0.1833656246862965 0.007933160305043513)
(-0.1114702660664681 0.137763893110755 0.01097056128850742)
(0.4901692831578535 -29.37395132885868 3.926451934153416)
(-0.3783595606455972 -2.103498207544839 -40.37221438079627)
(4.136313335711951 -7.725215589835939 -1.648080027601282)
(-0.009808291958167403 0.1025973759440017 -0.08328805620681248)
(-0.5446383846110834 -3.478922628721098 -3.849167303652725)
(0.001129820513880864 -0.000876332520557243 -0.001986179757983296)
(1.892327957835621 6.587376697695474 -0.7834941750059629)
(-5.69426078374654 -52.64165901926226 1.122185343484871)
(-0.01283052508212836 -0.003244552183539754 -0.01125582481055309)
(0.01936986689699402 0.04562606710825143 -7.594620957598243)
(-1.256759572224272 7.249811139948413 0.882184230545489)
(-0.003826812805376744 0.003330007168771919 -0.005420355413873978)
(-1.858810652946183 -4.779570634972197 2.015426485467254)
(1.07790282936679 -0.7248207136442084 0.4896538428617135)
(-0.4518208669603069 0.2850196711572452 -0.09725398810258659)
(0.07276505741892425 2.418805790544079 -47.040796291319)
(-0.5727225118426686 -7.573573276486702 -1.604037695037477)
(-4.872769702248148 -19.34163287211868 -1.661730092334855)
(1.023188398488486 -12.34274839668671 -46.99653256989787)
(6.051090833629803 46.60042382566387 -3.52141692575603)
(0.09338101976820008 0.05935513003779544 0.01764941391242488)
(-0.4598407435968295 7.111814997728311 0.9612366243462788)
(-0.1801946781063715 0.05632771859785922 0.2346138028783916)
(-0.02847431364465949 0.01265025144449197 0.02880295120192883)
(0.8690720372727179 0.1497355827911805 -0.1136120363978919)
(3.817062496168376 -5.593728314959622 -54.57798348224695)
(0.067309207849366 -0.5607806673108665 0.0106064718201881)
(0.0001328986368768898 0.0003170147968047911 0.0001937760507875833)
(-1.88253003183483 -0.4584825907076129 -0.1146317673505757)
(-1.254181789475557 -0.3509216599859081 -30.51771161078448)
(0.0906459021340876 -0.02618438699000214 0.008276872930358134)
(0.3102210990366143 0.05732995581906952 -0.6887559002983175)
(0.6572983810742175 0.4602661295222855 -0.8063918023800585)
(0.1662803267560569 -2.787458400773778 -3.892413790302422)
(0.05220704187679021 0.332651131401742 -0.1616313300462258)
(-0.002089567166011805 -0.05575963256555316 -5.627087229688389)
(2.913990527094305 -1.256211978962026 1.003274680614588)
(-0.03776740862348371 0.007603526952166352 0.001257616334076049)
(0.05211461844246117 -3.779934432330027 -0.17222523378559)
(0.08539722559991549 -1.222668374408193 -0.04788212657773348)
(-0.03213310374525694 -0.0493061370773726 -0.02809632805944254)
(-6.751865134679003 0.7730800035486736 0.2751796341624237)
(-1.289330149914203 -0.8708344964416806 -0.7380406367819533)
(-0.0009872220421877388 0.0003726630230243183 -0.001836408540573324)
(0.002605218639150286 -0.0009752105428422575 -0.002258758789646463)
(0.05822078128520994 0.02365207709949254 0.0341229219396819)
(0.4888983966735095 0.3074323657722151 0.5710941047658995)
(-0.02567504414206978 -5.09017816117072 -3.78432995741676)
(-2.172759462313149 -11.55397291235159 -0.706573342530517)
(-0.5316796868930965 0.05692161489692116 -0.3055208100020706)
(-0.7436412178865965 -0.2838771243901684 0.0472590369310627)
(-0.01316515064614737 -0.001246639459806216 -0.001466079388154562)
(0.01854136885723838 0.01997010563236415 -0.0239363142724493)
(-0.0496442276237994 0.5562560952980803 0.1616524414429163)
(0.3187464481472845 -1.20861921221777 -0.3662808830010344)
(-0.0249249550874717 0.003430806360948528 0.05866556448512748)
(-0.05152797004034292 0.0184751063845 0.0215280318823207)
(-0.1129111256075154 -0.01092892388142375 -0.0396376821575942)
(-0.02638436310274214 -1.091461945102306 -19.03489429741344)
(-0.01103070457579385 0.002444116238579121 0.007482881067977678)
(-0.2362375039155055 -0.1719737340898192 0.02086006384253964)
(-0.003985613244485597 -0.0005070712495701074 0.0001727455951660451)
(5.630036993646415 2.296305258307758 -5.37176250671358)
(3.738255019430854 -5.951200271115868 -0.4644382405533367)
(-0.6778493039789969 1.279497153800394 -0.5730507512729577)
(0.0683110844263239 0.07167477427130003 -0.1349543669687209)
(-0.0234467326582223 0.02642424391913191 -0.07163191393239916)
(0.2633703047320051 -4.875942377380261 1.452990600250171)
(-0.02655189964997817 -0.0281581361025495 0.04078944434791606)
(0.6763390877170582 0.218567788874906 -0.6247619484969372)
(0.2749848198786241 -0.7686084011071779 -1.772685075941014)
(-0.001357634864496673 -0.00874201942849695 -0.04062433236331317)
(3.714448246495373 0.1833813865951619 -46.66098414068594)
(-0.1126716360975602 0.01581656155982127 0.009372535357159033)
(0.003732759298636628 -0.0002955475464341199 -0.00133431514228506)
(-0.2010400910150253 -2.986542002179835 -0.4013999947128482)
(11.63425653945415 -2.048628356741324 13.05711675109935)
(-0.02691890793165011 -0.02062533738942576 0.02298173168942351)
(0.0638993408733248 4.389282245448547 2.697474122903163)
(-0.01369876001115161 -0.0004103679164096392 -0.0177114067477889)
(0.01652463084111001 -0.003650651421543255 -0.004223972395503589)
(-0.006729148889422843 -0.01303696344883618 -0.005275394684284576)
(-0.01650582034754249 -0.001006070299677709 0.00865801900695104)
(-0.001574433760164872 -0.0005260497128479659 0.0003809691279734504)
(-4.185006318877901 -0.4622260226117687 -15.85079848590125)
(-0.1575044571969441 0.497994759654557 0.5949353716216529)
(0.01822026187292379 0.02885805321808103 0.01132263739639587)
(-1.02484053069692 2.335378924175673 3.064154511270643)
(-0.06342290647417721 -0.007491133242841417 -0.007337208511560524)
(-0.5380582670005545 -0.006525002015761821 0.2088833531208532)
(0.7770921963729274 -0.1415504812541896 -19.61197252285679)
(-1.344634118750575 1.839136335334174 -1.091311850556156)
(-2.843450493353654 -2.494808199021766 0.9188423354881812)
(-3.909686797029896 -4.890365386443808 1.399014454651812)
(1.171903152815503 11.73597423187802 0.3873421980078062)
(1.070294583909292 1.342851351809627 -1.783723572644178)
(-0.1740781508419472 -0.2321528863019299 -0.2427104932188401)
(0.2332397763010596 -3.529709956286571 -8.196201848797502)
(0.009531168627469389 -0.002345236756805449 -0.004567998229321493)
(-0.07610032393088463 -0.02401971244056054 -0.05146369993209684)
(-0.2532937236209551 -7.039602568036728 0.9336813934437038)
(-0.0974398862342811 -0.1367479282960713 0.1555866920323933)
(0.3503702088637783 0.2540980434767469 -0.005864154361304053)
(0.2797029822145128 0.0007718675487898979 0.2933525718441224)
(0.2460362350605948 0.8670612236160439 -0.3345547369996857)
(0.003580029921572252 0.002838593745639827 0.001578847554381128)
(-4.09175968002892 -2.619051389909539 3.598498282516368)
(-0.001059115187424699 0.01118401890036618 0.004266175227427247)
(-0.2270879992144727 -0.133497646086967 0.106548675852274)
(0.0007866839751344387 0.001893060460490584 -0.003005779390970657)
(0.6664483674041484 -0.1036391224787415 -17.7861179321538)
(5.325005891868413 3.684074788767925 -13.17679779798554)
(0.7894736674221976 38.52329591691194 2.954710015598619)
(0.05858419710587516 0.02096690356696703 0.1360500428164324)
(1.878881103861219 -5.748905388917997 0.626347853330075)
(0.2988676144902822 0.1338676760746668 0.9904257669927863)
(0.3731082349713 -0.5412200204882791 -0.05850648371486497)
(1.990855227250891 1.660269523997466 2.739859783476579)
(0.1041304817449679 3.580002323776963 8.814722645431026)
(1.206468259808996 2.57510728713464 -28.55669420024517)
(1.468361330655751 0.6240193318199121 1.211609358474403)
(-0.004712034466568298 0.01875337829777218 -0.009529581478823369)
(-0.09248596911356721 0.01301438478966172 0.007261651188864878)
(0.05048840715516056 0.1003715330977764 -0.08643690948657556)
(0.02213822123035459 0.02168998729888049 0.01100165918383287)
(0.05894890909414398 -0.02887636256172221 -0.05377599652415475)
(0.009478228812587499 -0.05409642434812065 -5.508806142774832)
(0.0004367723099213045 0.001278228614727034 -0.005825840179506169)
(0.005081465450449971 -0.02080485304071953 -0.005577890453246984)
(0.5587483894845702 -0.09664621011253421 -27.23428144359218)
(-0.003479071273787455 -0.006920924238322722 0.009374523999122305)
(-0.006799550662932349 0.3370300920072631 -0.3629809511330048)
(0.3722256530857526 -0.01340554298220768 0.2792769911975874)
(-0.05964468796757528 -0.01462035719275746 -0.021735313426407)
(-1.191449704998757 -21.96360125908721 20.80146434370296)
(-0.08751137349814411 0.2124815829166546 -0.1029424170813668)
(-0.9217468090652918 0.2923070109941454 -1.307516910430903)
(-0.07637688250247054 -0.001962188893897691 -0.007096518725825042)
(-0.2371713104533587 0.004983333370372975 0.2219014185445952)
(0.0173560577923185 -0.07568824513908688 0.06037049820982403)
(0.9226392118923987 0.2093847940580531 -0.1516495270260125)
(-0.004003816637897128 -0.002194486392218201 0.003817059838044356)
(-0.0005050578783981 0.005635866712027256 -0.006142859761733482)
(0.7236934715806694 0.2679355465579832 -0.6371312724349045)
(0.004113090050981653 -0.0012907119583341 -0.001024641505807498)
(-0.1819435344116957 -0.00878782305995747 0.03853438471811904)
(-0.0006151277517528407 0.0004693565243070647 -7.307460588159689e-05)
(-0.03045241769907433 0.05181135570113688 -0.04208781368081427)
(-3.022721732521335 60.81506144464782 -9.442745038303588)
(-0.1430889420411963 -0.1513763366772905 -1.25678410596245)
(0.0005175069654560121 0.002329581974866851 0.0008969028995051357)
(-0.002146734157691782 0.0230603429988407 0.003273968712571008)
(0.5367061470158987 42.32314782534756 9.861863090356939)
(-0.02754884140725518 -0.1344703581955805 0.1320582421244412)
(-0.007492022064160065 0.03600994337731346 -0.01605933344829267)
(0.2408007323602421 0.1498118849409832 0.2606789888871788)
(-0.003223314209011305 -0.008457977420098033 -4.996580484230583)
(0.3733906373924179 0.3584134129661868 0.1080374981656821)
(6.394544445114152 4.071740017602263 9.924474062019435)
(-0.9539587075437107 0.002212097341293434 -0.0821249538866609)
(1.663387063408096 -4.400782199414897 0.2632557716922527)
(-0.0009054499531043862 -0.007910708073332223 -4.801512627768393)
(-0.0002406273485036044 -0.01576050096020769 -0.01675062253952738)
(2.710756436886021 62.06880881814672 2.44671631801344)
(0.4450861868087727 50.01453779473935 -3.543503070347656)
(-0.002500697746374417 -0.01479172765394724 -5.010402392019195)
(-1.940082308308049 7.860830782090463 2.7061318299529)
(0.00204910988012146 -0.0003520132284099294 0.01358475970434594)
(0.02245691922220841 0.5522567571323606 0.8245448069986184)
(-0.3752547601554737 0.1752914729539185 -0.07187232756499319)
(-8.674692142366636e-05 -8.719456643733221e-05 0.0003188155063037963)
(-0.7234091983055329 -34.68720117975666 -0.735062856909385)
(-0.04902542104072616 0.3038282170911381 -0.0621116691152252)
(-4.501694154446787 -59.37006405861516 -5.495988302095916)
(-0.04238947168688145 0.04718455152759037 -0.03633789379876692)
(-0.1576924069321513 -0.1970790981933772 0.2960523414277804)
(-0.3306567859189599 -1.693820113398789 0.4801591458576779)
(-0.578813297686933 0.002836949630673158 0.1149934450779974)
(6.892422980209529 34.37685597938991 1.966592401750078)
(-0.5020432405409591 0.2028498793876435 0.1579870277803559)
(1.401315530527481 1.439906404877435 0.1323494371136347)
(-0.4334456242234226 0.1233943527625351 -1.619006427485)
(0.03704542774888636 0.07862544238357522 -0.1659193013228577)
(-0.005849315690344845 -0.1758069815753298 -0.4306851501170309)
(0.009882730724168967 0.01637638628657546 0.009699940511455726)
(-0.4683925551600214 -0.1089642545113426 -25.32222121896906)
(-0.9882083664224572 0.3001453512731623 -0.3433360260064839)
(0.003965896028745828 -0.0002715233161793571 -0.002019892399776403)
(0.04010680678786611 0.000641505527797988 0.001146108696492652)
(0.108941332040848 0.03632823051341245 0.1676099130849292)
(-1.084980824070697 2.638618000398636 -3.201075388604915)
(0.03303822748809963 -0.01017678670904217 -0.01178565531784344)
(-0.08910385743151827 0.1668639778780435 0.2377489060852428)
(1.206042533130698 15.6604465559266 -5.183923922860648)
(0.6180070717496853 5.922330928137588 -0.8253115514262537)
(0.001945582869714891 -0.00145603890514813 0.002481756013634815)
(0.1619322014367823 -0.002733910743293849 0.320358674608562)
(0.3341410326998516 -0.3854219002877933 -0.7093165959493739)
(7.074444804428001 -7.886635783882092 -4.092413442510842)
(2.007060293957099 3.047913039633043 1.898651554111684)
(-2.773801134656126 -5.486924666835101 -3.291978960006997)
(0.1399552751819561 0.5432008636660944 -0.2024333144229772)
(0.0172882735152553 0.02494030188210314 -0.03213131343836952)