/*--------------------------------*- C++ -*----------------------------------*\
| =========                 |                                                 |
| \\      /  F ield         | OpenFOAM: The Open Source CFD Toolbox           |
|  \\    /   O peration     | Version:  v1906                                 |
|   \\  /    A nd           | Web:      www.OpenFOAM.com                      |
|    \\/     M anipulation  |                                                 |
\*---------------------------------------------------------------------------*/
FoamFile
{
    version     2.0;
    format      ascii;
    class       surfaceScalarField;
    location    "1.2";
    object      phi;
}
// * * * * * * * * * * * * * * * * * * * * * * * * * * * * * * * * * * * * * //

dimensions      [0 3 -1 0 0 0 0];
oriented        oriented;


internalField   nonuniform List<scalar> 
37503
(
-7.329701964109045
-10.98716323337055
26.07136220554273
-7.754497007784813
-11.22867246292104
4.606348751515517
17.04817226009427
0.03781617171933631
-0.6296399943961566
0.8233089104815257
-0.231485087807942
-0.1037347884350555
0.1243164106756859
0.007725952032174477
-0.02830757428990136
12.37231783776631
7.204382015521417
0.6035400137348843
-0.02417421151159522
-0.08336346633973084
-0.4960023359077057
0.08318866626601451
-1.615009622180749
1.578919069897922
-0.04709811407317257
-0.5257439492661083
14.45709017656323
-13.93134622723518
-7.761705186933677
-5.755730546487441
-7.813833924629667
21.33126965826256
1.80023870652023
-3.13275526908122
1.48293679376859
-0.1504202312851285
1.490391695071146
0.1861330353554174
0.396672212638267
-2.073196943021732
1.711867541186544
2.122130552806131
-2.720779922893361
-1.113218170940407
-0.02195954399380762
0.002467112225862509
-0.02641181823181519
0.04590424997444937
1.078695667060946
-3.566905370684502
-1.019126047187773
3.507335751088861
-0.8902944191181359
1.973753171677505
-2.781489220278438
1.698030467890082
4.299029354047513
10.52863902209356
4.57695430851716
-0.01014354274825681
-0.1621844792640482
0.1385767022526708
0.03375131971087186
2.093264634659861
-4.63135556237648
-1.992331396055849
4.530422324008121
-0.3377701073203053
-1.295694864504402
-17.01338156607853
12.90034449083633
18.21643366436416
-6.608612446826627
14.14877680457005
-8.107860438500728
6.903033655276733
-8.02449363665526
9.229320419974638
20.097053206273
-25.67815288834312
12.0345527019622
-0.05832814455656944
0.4570513402976292
0.03300690268539683
-0.4317300984466605
-0.4563879281971452
-2.190837505149209
3.725921100570525
1.399059501921957
-2.674665432199504
0.3853115112816912
-1.440051294841776
1.922174146288632
2.210213743649299
-2.692336594884524
-9.689289501173867
-9.552706773472979
0.2434527918123561
-0.2776097186272796
-0.03403645734766802
0.06819338410172246
-2.319831412049199
0.464793582632635
13.1128891101492
-16.19476740352211
-23.76965291613575
26.8515312092822
-0.1479781332510882
0.1265421911058217
0.07707722120964444
-0.0556412790992157
12.29721067961904
8.296633814003307
-18.79279583520079
-1.553971047834439
-0.9980172549343805
2.09560037478371
0.2404447748240321
-0.01255149425429029
0.1993413641648695
-0.4272346447896159
1.330352549623682
-1.174686216008525
0.513651673074683
-2.063914874673282
2.724949417781212
21.4359329901905
5.084466232390834
-4.452584872036315
-22.06781435030048
0.05891214883548073
-0.3133845578929516
0.1130019793659252
0.1414704296401068
0.2974496297099701
-0.6145162781314036
-2.150144003469452
2.467210651781512
-0.03609456982274312
-0.2277728472530048
0.3789232527188713
-0.1150558356843896
-0.05497864978570782
-0.05103764239329392
-0.007213571937461007
0.1132298640931979
-0.4975351887618312
0.4491602033713982
0.2994008936317569
-0.2510259082928292
-0.02828629628348957
-0.3685593255763934
0.5579191104881639
-0.1610734887222376
3.730170923523154
-2.53692175021893
2.544055351421911
-3.737304524732021
-0.1273170618650604
0.03072203431989825
0.01719051088586233
0.07940451662838598
-0.03520862476324495
-0.08427412875130154
0.02477524820788077
0.0947075052643767
-0.02059651457740964
0.1122205500441998
-0.1418334802007662
0.05020944470664176
1.962015188188833
-0.9871880179933713
-0.2429438155099079
-0.7318833547185849
-0.6605163611098566
0.1796827388537168
0.3271164101201157
0.1537172120181639
8.742936442485041
21.03385211238396
-27.24682683969969
-2.529961715151404
-1.262639835184522
-0.08444057410422552
-1.373699513528734
0.4412269508750851
-0.1233703356054296
0.0961438384296978
-0.4140004537243541
0.8221622454187252
-2.176108578572377
-0.9658850787812024
-0.2109745909968312
1.515133030155053
-2.094692383698582
0.7905339444430232
-0.1494671405167061
0.2157656132004456
-0.009728747629017667
-0.05656972509136125
-0.2345218150775941
0.1229807906152653
0.1675221716894351
-0.05598114726882059
-0.9015112964731054
-0.5268970993961607
3.163692266598776
-0.05051096282737554
0.3270925439252907
-0.3179573396101864
0.04137575845020667
-0.003686701497524948
-0.1088251776090347
-0.01334768560216863
0.1258595646641243
-0.01460091618691649
0.061992614208434
-0.07901566788885844
0.03162396984283188
0.006991593604628498
-0.1344472466930625
0.1193197374139009
0.00813591563927679
-0.07251652049640715
0.07229424843111264
-0.03320266425125125
0.03342493630240419
-0.2384290525159995
-0.2310471298957291
0.4586503465581107
0.01082583578487398
-0.1577271763852017
0.07397059168305092
0.08021404191519241
0.003542542755297811
-0.1105753680661964
-0.002017609232693555
0.09659360439462225
0.01599937287244192
-1.936300212531534
-1.159133095960873
0.06613883556902563
3.029294473167485
-20.04031380459871
19.33852323794737
0.7017905666889821
-0.1627612768367992
0.03904666285981043
0.09395242141913025
0.02976219252558
17.89437228975363
-14.7382135044251
-15.20414884013671
12.04799005503723
0.08465928034619312
0.02255563934661314
-0.07503085487056878
-0.03218406487208995
-0.1531930613972246
-0.4907763777377638
0.4368790496366868
0.2070903894470228
0.1258241031962156
-0.5823276968945751
0.4848810140902108
-0.02837742051627488
0.1601387081512516
-0.09322587989799504
-0.09014294243030505
0.02323011413302517
0.1974427955326321
-0.2228957971941586
-0.1538396689650795
0.179292670560652
-0.05408113288190055
0.1397356157500917
0.1789892799394009
-0.2646437628471869
0.8457788358663056
0.6100480873997273
-2.191614744754971
0.7357878214320341
-0.01730625510593226
0.1251495944491647
-0.04018253987226759
-0.0676607995052791
0.05610965389377466
0.006603654393542425
-0.03886228727041371
-0.02385102105190475
0.8163818685643168
0.843539420664783
-0.05535136031058403
0.01479798522043736
0.04055337507768928
2.998449867720934
-1.651432306457914
0.6914371877317097
-2.038454749035343
0.2296287722048321
-0.09956853689180624
-0.1127836927558512
-0.01727654260553197
0.1015537140527883
-0.03264108686969177
-0.0506248467346506
-0.01828778048093472
-0.07550905581102629
0.4462305528272802
0.3971848246377035
-0.7679063217635973
0.261935733267646
-0.1853392039014838
0.155891108689366
-0.2324876380803981
0.1179375168805547
-0.1729512516169314
-0.246630214790109
0.3016439494749646
0.05934230935442148
-0.1302784549017045
-0.0184420516348544
0.08937819716039375
-0.1022227508622989
-0.01863047664498389
0.01711843906134791
-0.08676423481883964
-0.09732192848653883
0.08570200172715692
0.0983841615445601
0.1919698390006986
-0.1111077497637852
0.0202609091739306
-0.1011229984227108
0.9300589828104725
-0.5830372779356959
-0.3783469035937706
0.03132519858318562
0.05112956631526341
-0.2911197251126899
0.3177699328927213
-0.07777977416266629
0.2545531035009294
-0.03913365631504578
0.02142227161468375
-0.2368417188429502
-0.05942128179346869
-0.2416247135000379
-0.18748692170037
0.4885329169768688
-0.02563421130484037
-0.1969463949802905
0.4073717885196692
-0.1847911822698513
-0.109432450700279
-0.2569621815686404
0.09931854152380375
0.2670760907132629
0.02839372448943066
0.1442605380810854
-0.1966094467407084
0.02395518412508848
-0.1019338933500963
-0.08658739814981473
-0.2521851056227311
0.4407063970935647
-0.2040949525907895
-0.2849484993538191
0.3413527042368516
0.1476907476955101
4.803501285827669
-1.499395564457054
0.05206963458973538
-0.04913625320934654
-0.002933381399289574
0.9917260337201509
-2.218079414449195
-1.448312051363994
0.03301769065466411
-0.02265931867908828
-0.01035837198934996
-0.1856787605353966
0.05200957748263933
0.02267623225506125
0.110992950766357
0.002765002405574269
-0.06445513149439565
0.1573208470686833
-0.0956307180207923
-2.330920363085646
-0.8096747550972062
2.608935924548063
0.5316591938304847
-0.02842375215563457
-0.09174752267301488
0.1392366961137327
-0.01906542131306066
-0.4339125609923836
-1.183784139214608
-0.8603247636295535
2.478021463864496
21.10666253725521
0.03260348763962614
-0.2697803561316236
2.854724617733092
-3.759630477554288
0.06599430544700388
-0.09889400803287068
-0.03066238939786995
0.06356209196234516
-3.041431475788266
4.867192905985777
-0.1520710518082207
-1.6736903786102
0.1081679211548281
-0.05237038664249487
-0.2735118052455897
-0.2804110049086201
0.3785507671849374
0.1753720429266608
0.1761482023414835
-0.09929917010775367
-0.02235590509787286
-0.05449312715904675
-0.06534299565871411
0.249001738501579
-0.2364242373034593
0.05276549438167275
0.183246408248007
-0.290191471873215
0.3032787530226144
-0.1963336894489767
0.0301375864461775
-0.0178538796199595
-0.04260381595250572
0.03032010911076476
20.2060740403361
-18.64231538732331
-0.5010040345247301
26.73064573654767
-26.75538565117468
-3.354702001951787
0.2623014260014719
3.83911322597858
-0.7467126498493848
-2.043991913100401
0.3427401371498321
0.9154125699094539
0.7858392060412432
-8.044337748774373
-4.85498100200798
6.95938641579034
5.939932334531134
-17.63146595646606
-21.72200596554097
39.71635675535088
0.75746753792147
1.584972421442296
1.38348114134623
18.87895663778636
-10.9284235220129
-7.950533115793815
1.194869633165532
-2.363529169637806
-0.06834328703170632
-1.72141989952315
1.137373217232638
2.323909565422211
-30.56674891087708
-1.01859075718832
1.409475532580699
30.1758641357404
0.09765637687810144
0.007657945803504399
-0.124065007778296
0.01875068505651856
-0.1458842511743572
0.0107022421219996
0.1351820090279731
-0.09659131045322543
0.03845463515490565
0.1075148302027445
-0.0493781549381296
0.5422810628360025
1.426834785412963
0.5341158200409484
-2.503231668048375
-0.6155361778494596
0.2067899610475303
-1.772962885862607
3.108776804506435
1.953929209458156
0.7572425033584387
-3.497864207210915
0.7866924943066177
-1.901885758690391
1.880011997120333
-3.125087138949878
3.146960900825425
-0.3724238973160212
0.1731147388654032
-1.96209061426308
1.691052554251713
-8.991032174374766
-9.878641013844581
-0.05453174110837637
-0.1511917080207618
0.1151857283945927
0.09053772069927253
0.117615719524323
-0.3399456836474758
-0.3552903702436689
0.5776203342785667
-0.5182409982845452
0.3576604209548735
0.1170468789673088
0.04353369823832182
0.4582700208853955
0.2131900778535693
-0.8255243533761852
0.1540642545800286
-0.3559587285609073
0.4859362295789131
2.206266821817349
-0.144372474349974
0.03812996828304693
0.02330499708513286
0.08293750896957294
0.01114523693159108
0.02373509241054472
-0.1237461551163446
0.08886582575606977
3.123801131377917
-1.081590428478015
-2.595208993194822
-1.165146771302769
0.5899221356976543
4.75338930290103
5.580466795873575
-10.92377823438242
0.1877649986882867
-0.821082414769555
0.639843540095316
0.1812388746624581
0.07086404736087336
-0.2752664597239664
-0.2144242385873391
0.4188266508944273
-0.6437728413039167
0.2501882453008806
0.5473846400651652
-0.1538000441276657
1.798683668365553
-26.14730235432815
1.788760182560364
2.869661428282561
21.4888807435729
-13.901142505628
7.776371961616888
6.714692679942214
0.1810531768081927
-0.05918282608107918
-0.1264075612830429
0.00453721052626696
5.024110983507032
6.394559811586897
-28.80652899752031
17.38785820275602
1.655185645091161
-0.7795881309998102
0.2827057602166483
2.679016794639025
-1.766852921548915
4.074000862790665
-1.735399826732135
-2.964299022599899
27.59916566256437
-13.58747106783423
-14.01169459454602
-0.08454224760855117
0.0003866052608618539
0.09752878516505804
-0.01337314284372565
2.437591843872464
-3.673257278782087
1.984884213310194
-1.914846337648948
2.784686742227184
2.355099524145575
2.30106395422974
-2.218571634374678
-19.06603667186421
8.696686521896696
-8.630569863941698
4.382504398795634
-1.562611291908222
4.285948167611456
12.58008857358792
-7.753727733846811
-4.258843422996207
-0.5675174169287058
-0.01322580974745363
0.07773092886925678
0.01086415015898311
-0.07536926931428438
-1.284602862122968
-0.7415680723811322
-0.4637173021513637
2.489888236522228
0.3900838248166984
-0.2180104038647867
0.1195850870429866
-0.2916585080446267
0.04241280481184306
-0.064966057282298
-0.2119685626355917
-8.097303094663967
9.068849312941316
5.248903529651506
-6.220449747881032
2.663224863128627
-2.035692790846095
0.743547850762671
-1.371079923211368
-0.06408099336259779
-9.1362596055805
-1.740927208684469
10.9412678070695
0.2081489428244843
-0.1822644481108495
-0.02588449472642703
0.1053168779125728
-0.1833526035433054
0.07803572560071625
-0.05411680616157695
0.297206955672298
-0.0540635614161647
-0.1890265881301676
3.712404507464382
-21.7274787954168
-4.075869816686956
22.09094410481572
-0.146986673656513
0.1417258076108846
0.1689399098376299
-0.1636790438522236
2.630261723564597
-1.262084391749251
-1.80208989276578
0.2074385592845097
-0.1021216813958782
-0.1474502006906698
-0.05491897902296805
0.2338810824155769
-0.03151190276020272
2.983472128135032
-3.551405713798299
-0.01153175912242457
0.5794653445667943
0.3647677421465744
-0.02282520272020208
-0.02060574044669869
-0.3213367991235654
-0.01429263360813084
0.01362865087434903
0.08862204315562394
-0.08795806045548475
-0.430939699781852
-0.1160205538840842
0.2711626542222197
0.2757975993624349
-2.301858356835967
-2.120230244242448
-1.454402456747546
5.876491057880782
-0.09116533491033686
-0.162015735163469
0.1052348977069718
0.1479461723472593
0.0748910762584315
-0.1680330649563744
0.09314198866619287
0.06423697459654981
-0.01674720647967421
-0.09925831329421372
0.05176854514225669
-8.165435704044366
-0.1328111599821153
0.00455810093342988
-0.01647986338335344
0.1447329223938367
0.00910667482709485
0.04823964610015034
-0.05734632096340474
0.03305685864223429
0.0540369337424268
-0.1070776401389541
0.01998384772037428
5.872273476989918
-4.029242245344848
-5.316976403641034
3.473945171723947
1.972722968633692
6.0989482948265
-2.417671120259561
-5.65400014331022
10.22721565549249
-6.611282761685132
-20.84796538234046
17.23203248873816
-0.06791310716272866
0.05721850229692035
-0.08807076053764261
0.09876536535451988
-27.88332952017456
15.12291353229638
-4.25296557816851
0.7191063066697608
-0.3604946783892131
0.70290830200456
-1.061519930238856
0.727980800255367
0.1472484401131318
-0.7198730484941709
-0.1553561919273887
7.650605370161486
-0.9884004754235752
1.930844810271247
-8.59304970508698
0.09676563328547542
-0.1192759597986244
-0.3362081543212434
0.3587184807897189
16.95950248874117
-13.3315596726846
15.25101382172328
-0.6360217585052123
0.1889593023014118
-0.065592959473742
0.09358505998374526
-0.0279921005281663
0.06837987820387395
0.125872711514683
-0.175020982696663
-0.01923160704922892
0.1149347511418242
0.02809418201617532
0.02075218186683585
-0.1637811150845374
-27.13290571805353
14.8980916662901
1.228253761786941
11.00656029031634
0.3268502109382313
0.447140993702952
-0.3805812258769436
-0.3934099788011906
-12.75509228423373
16.41379243735765
0.08296972407208277
-0.3562660052218893
-0.1202082417833762
0.3935045228487449
-31.7649029264056
8.957919704779425
7.455767626450941
15.351215595306
-0.159532338946276
0.03143625610764426
0.05924305351161858
0.06885302928439412
14.43019251743257
0.02287481201572244
-0.07331817777859415
0.009440308415289757
0.04100305732612999
0.4465548968581352
0.06452294474669978
-0.5504809021372641
0.03940306052265332
1.429999075026573
0.1587844958327149
-1.018788139535861
-0.5699954314615271
-0.007746896167126645
0.3984332148039597
-0.1209353686397796
0.05922874388879872
0.2071597290460839
-0.1454531043499691
-0.08258790995288158
-0.1286806101258581
0.01618522955670161
0.1950832905048517
-0.2166703786192596
0.02531892466064985
0.00238815798190154
0.1889632959214257
0.1564802614225521
-0.04528215973153386
-0.1111981017264383
0.02017145651401304
0.04846386729528086
-0.06863532383408973
9.724775915587655
-14.15075638814514
4.425980472482614
-0.06113555445392775
0.08256059658221628
0.1794960170691617
0.2155143262885007
-0.1403102810140623
-0.002184972114332389
-0.07301907322232995
-0.1047474574447098
-0.3036056795437791
0.8378127381691776
-0.4294596012148691
-0.1531871424386128
-0.3649789036155411
0.1898954869019092
0.3282705590672965
0.2085212836428346
-0.3942020811787988
-0.3672748339365155
0.5529556314465844
13.56993524289356
-26.19737548328563
-14.50546547739244
0.8808006557614809
0.4494678867509065
1.779927458009913
-3.110196000580996
26.23021026854462
-23.86817498894749
7.433351005184881
-9.795386284666227
-13.1882836232564
-16.13731134193948
10.16247884530287
19.16311612014214
0.134328081959721
-0.02687685394682427
-0.1074512280596214
-0.02240826383591006
0.005560449600407878
-0.1114987622116751
0.1283465763844769
-1.265046046146331
-4.795014520691965
-1.006669375593847
7.066729942408082
0.3950905845499181
0.08966427568574058
-0.5724386861105645
0.08768382586088373
-0.0455914946289552
0.148155162060801
-0.01952343474257399
-0.08304023272803376
0.04253730522265416
-0.02088059283789908
-0.08027475193039417
-0.04429327079972926
0.06674035871703636
0.09316988570148638
-0.11561697367997
-0.05170390254359714
0.1096998708264397
-0.05799596830565758
-0.04415469940267772
0.04439359913319534
-0.1338767383315092
-0.04933304368758879
0.1973110192706317
-0.01410123730251846
-0.0645184738110284
-0.03257827299607215
0.09709674676996745
-0.4249832374297119
-0.05600930773129507
0.4081679554238804
0.07282458968634364
0.2045120610190095
0.1798831832986255
-0.3254830955202283
-0.1395493724067693
0.0902951688850446
0.07255616416781678
-0.02330196069010146
-26.35042189269008
25.38964801435732
-3.700149694199686
4.660923572822493
-0.4727430492276424
0.1042891220027174
0.3068050040623636
0.06164892308579347
-0.4292384902843644
0.1727501007107494
0.5508042299785236
-0.2943158404539727
-0.1663635896693573
-0.01772306177927732
0.1061258787198244
0.07796077269753954
-0.06763249323373906
0.2794682155368061
-0.2450818743025016
0.03324615194911104
0.06206683432045252
-0.2267195555016547
0.07056010478964585
0.09409261634495264
11.50484061053882
3.223252922008475
-1.34647291684614
-13.38162061560696
0.1185827739102607
0.02279031560243143
-0.09640234226274398
-0.04497074729261965
-0.0854361244032759
0.2125729876765551
-0.04261130541269192
-0.08452555790761504
0.1192131677553522
-0.1419814452342545
-0.1605843260959242
-0.04385745562330059
0.03771993653490579
-0.04545781709350243
0.05159533616616847
-0.0668508026661646
0.4344971648248321
-0.3099552992561413
-0.0576910629339832
-0.01493294660452563
-0.2138488168160223
0.2049344638807086
0.02384729948619943
0.1604996467554133
-0.01155511269978405
-2.341492623365121
2.192548089122214
0.122386663874172
-0.01844585582047587
0.04197124026676009
-0.145912048355776
-1.385089957472993
2.06755554668433
-0.2317751257813948
-0.4506904634419813
-26.40474620406156
1.185554539375881
26.89290606408591
-1.673714399269272
0.07652172871595309
-0.3183587344185979
0.3317602249758263
-0.08992321937221005
0.1020708959677433
0.02314335070231856
0.08402733323617637
-0.2092415799468565
-0.08971255615183943
-0.01468388686830887
0.07637908925283601
0.02801735373928014
-0.5266310310923356
-0.6057429710811164
0.5889156171514671
0.5434583850032997
0.05734741622390327
-0.2603866736211723
0.2045516513995425
-0.001512394068402292
-0.1849353142151883
0.05951484137118838
0.1973932913640732
-0.0719728185558431
0.02524095945008514
-0.1026188332173376
-0.0156456096977985
0.09302348344693323
-0.3799998013246731
0.3658473762641668
-0.6577205458180883
0.6718729707945579
0.2514663981152879
-0.001946655072226175
-0.6508620504834486
0.4013423072575255
-0.07097951323391459
0.1477754937722208
-0.05374057245806745
-0.02305540810954632
0.1487775759921661
0.2678476080282685
0.01165407897741706
-0.4282792630308618
39.25454808833582
-25.20839325138826
-18.13019772831002
4.084042891438568
0.3473498245505042
0.1014305219501271
-0.1648753203561963
-0.2839050262051475
0.009043239011864788
0.01209525256285971
0.2203767702470831
-0.2415152618704713
-0.6554899579813099
0.1228408891090772
-0.09309525490038366
0.6257443237115198
0.08927433841646412
0.04152347675038846
0.05300828219026994
-0.1838060973905833
-0.05529036178219089
-0.03371852430901706
0.01857032514742392
0.07043856092208765
0.04411903228230963
-0.4104682348340358
1.71808308431061
-0.8499231030818267
1.275751770810055
-2.143911752195813
15.52954520384359
-10.95587615828955
-0.04327818077109551
-0.1259402974546888
0.1327265115840884
0.03649196660447188
-7.687216257293576e-05
-0.13203416511353
0.02086222694221373
0.1112488103098597
-0.1395937290702771
0.1375791833990863
0.04083254858126886
-0.03881800294199073
-0.2540298806472265
0.1076151035076617
0.3265307174494818
-0.1801159403656746
-0.08484164559913257
0.03434259165391861
0.02088972614384542
0.02960932777267261
0.08685736223152273
0.03285160926695559
-0.005288844847226692
-0.114420126699259
-0.07344265570762736
0.05719260588169991
0.09821447904301474
-0.08196442925055757
0.436066758882001
0.707438829239656
-15.14631000625965
14.00280441853704
0.1580563700667432
-0.1679105009012718
0.01280358112705808
-0.002949450326087143
-0.1712299953012998
0.05388294891851771
0.03660211851398566
0.0807449278174508
-0.1905402321137077
0.3417805436540095
0.1327330778062234
-0.2839733894252476
-0.05266859205806977
0.0417760412050314
0.01089255083026154
27.67549301205658
-28.45350584955175
-8.402092170453582
9.180105007842059
21.39583280478294
-2.678034030989439
-21.7928655436846
3.07506676987913
1.958924969306415
-2.184485235757777
0.3116406769082791
-0.0860804105984678
1.82724503137908
13.04074081228855
-8.352995977650091
-6.514989866049281
0.1491604425223723
-0.04119886923946461
-0.107961573327297
-0.006448218738644217
0.008596854335652694
0.08811520062631457
-0.09026383623501556
0.2788061407616377
-0.1186909496197755
0.4389953031170827
-0.599110494311871
1.827228167551846
-0.1429735030402523
0.2902064046694827
1.203670300245316
-0.4673266874736737
-2.036121804983171
1.299778192155822
-7.317167333859921
-0.2630995444338193
-2.439638060877712
10.01990493954153
7.643738552577265
0.8924937075326485
-8.215593498162283
-0.3206387620863612
-0.3133935516762931
0.1462833969618329
0.1130290217954922
-28.74250334057951
22.23122736806497
4.516317787588345
-0.1169746042361057
-0.1477976861421623
0.2391380790540233
-0.003783054033734928
-0.02325343514972113
0.02703648917104337
0.09672443986108514
-0.04818983212468659
-0.1498524325065872
0.1013178247401371
2.720353993900661
-1.782930204740616
-20.06386122926378
19.12643744036487
0.565850956862575
0.09560238868862295
-0.7806297093287156
0.1191763637115553
0.04659782161652833
-0.0385655544902963
0.1317033486006171
0.3598794835269368
-0.04261638793554421
-0.5049516455872869
0.1876885499707122
0.1466765925595949
0.04388362053492837
-0.08540957307775184
-0.1051506400415586
-0.09321978532075867
-0.4134075048178764
0.2015868363872476
0.3050404537238021
0.2683048000671855
0.02565571393958
-0.2687148173032066
-0.0252456967619069
0.03184440223477617
-0.1932960546042694
0.02785664057998337
0.133595011711016
-0.0365859181167412
0.4716818606583851
0.2585650563399302
-0.6936609989425011
0.1997413616922768
-0.2500935658366791
-0.2711675517985451
0.3215197558585608
-0.05985716506438896
-0.2902908890401674
0.3025892721284197
0.04755878186352895
-0.03434536486741888
-0.1461663668103921
0.1805117316429423
-16.87034757678725
15.59222166016739
-2.602388504704584
3.880514420993975
0.08357774063748656
-0.1179231055188514
0.1090331625459016
0.08887806763929901
-0.07083332069515325
-0.127077909519993
-6.839324591771685
20.02254132481133
8.252716257345501
0.7188096575511879
0.01884332384935368
-0.4588468406622235
-0.7991696768955974
-0.3189629714895176
0.6588059677790193
0.4593266804861428
-0.03422639932858589
0.1185628775406138
-0.08151916734546573
-0.00281731089770886
-1.062060580216592
-0.4041711583532234
1.354534771952269
0.111696966403222
-0.002677890554023934
-0.0125360141309005
0.04535149111607312
0.142006513880602
0.0396874959070774
-0.2115910873243605
0.02989707750235135
0.07827733060410906
0.1473069238989452
39.15039811826959
12.29369468758902
-37.30479185248011
-14.13930095315241
0.04448137861124511
-0.08639668289736661
-0.0002741857616314053
0.2833709455031507
-0.4871917123568943
-0.3487207263287709
0.04916047969301662
0.3513667180626477
-0.05180647149006708
-0.2693645408029629
-0.2701671789490387
-0.1740456729419276
0.7135773925905252
-0.1332881185559622
0.1782738265068541
-0.08429892661350877
0.03931321863133466
-0.5819409724046498
0.4605936371838977
0.005425315028305002
0.1159220201541462
0.08618326074183434
0.001384089418390502
-0.02496117962435316
-0.06260617058131179
-0.656996365363541
-0.1040153035508709
-0.1462133750009131
0.9072250439362312
0.1159628210207001
-0.005136671675858148
-0.02633610241325119
-0.08449004696755189
-0.3626013423752878
-0.1093925684195367
-0.04624708755484232
0.2551623833614078
-0.1674373707242574
-0.0877250126679285
-0.03633160922754185
0.01987635807308497
-0.1187685297511779
0.1352237808674319
0.03333538135811941
-0.1149291701242605
0.1046318887236668
-0.02303809999607147
0.5368588058599535
-0.7391765416733147
-0.1216076135111388
0.3239253492492383
-0.07839549184598095
0.09728723796035429
-0.06068585242110735
0.04179410624586405
0.1399966212451753
0.06672879938537195
-0.001068530853338165
-0.2056568898125
0.584999533636524
-0.3682463365461097
0.03242830027862585
-0.1515385836827572
0.11142027466024
0.007690008696877578
0.04307187056511516
-0.001287188010561019
0.3386892686992443
-0.3804739513279846
-0.09901669888845235
0.007697552406995337
0.001606590311508348
-13.72577492561842
-2.342362787947934
-3.523123968482738
19.5912616821157
0.4633178247429661
0.07763641738359711
0.002988449791409038
-0.5439426919325511
-0.07444707040589797
-0.1789593887126289
0.1897662219606389
0.06364023709323507
-13.30189741323847
5.338722888287724
12.94716887679726
3.337009633999522
-29.58607592401372
-0.1346886514867286
-0.03631597072962562
0.02355442148443196
-0.05770543274735918
-0.09006265978189504
0.1876066217065503
-0.03983852922938219
-0.3623406824184673
2.252246863860786
-4.292606599830453
2.402700418494573
-5.629957457316829
15.82115210284876
-8.363949614108188
6.614036536633531
-8.776331798176669
14.7446643947521
-12.58236913314716
3.233951568565769
0.04588152335161375
-0.680515025840135
0.7708977829053303
-0.1362642804776642
0.1451189497567077
11.01194180699543
-4.691057682577613
-6.466003074147086
-0.0980126932884047
-0.009671955517108826
-0.07461380492252903
0.1822984536520494
-0.6331132049502208
4.053587566403642
-5.155874188302698
-7.71913873979523
3.314591332747961
-1.170214471927861
5.574761878953089
-6.649307161321732
3.943599740011983
-6.853271052638085
9.558978473748432
0.004213004568637164
-0.154325295143571
0.03097189048566785
0.1191404000617458
-0.03299956587569947
-0.3525458069383471
0.3635889454413973
0.02195642732824346
16.7424685955379
16.33698382382214
-12.40010098453823
-20.67935143470381
6.404001965200912
10.33846663041934
25.89323856332224
-6.543078728362788
-3.013176011041487
-0.04791863649719209
0.1670902695928814
-0.04740290622114808
-0.07176872691451229
0.1371690471693687
-0.08673263980132377
-0.09835504389793528
29.81317442822738
-40.49374590171644
2.978741871831969
7.701829601727791
-0.05913394041438734
0.05752826986904967
0.001885544831462754
-0.0002798743411989804
-0.03165240411483473
0.08222446434915585
-0.05057206026029366
0.1409700244075927
-0.1761731236761368
0.3270214174290926
-0.2918183182426752
25.79345930451644
25.96374478805004
-0.1003658962071436
-0.01222014775026535
0.1333404775905914
-0.02075443366511739
-14.39346940597702
14.3870375741676
0.1254924739518994
0.02831504082652963
0.01449547183122325
-0.1683029866519531
-0.03195321191261431
0.01235425568642223
0.01959895620154972
0.161639802948991
-0.007742021261549225
-0.1812753878753449
0.02737760616600257
-4.696244639040194
4.853184778465272
4.775384021979441
-4.932324161326944
-0.01964302107750351
-0.04945078706088211
0.01548876558326882
0.05360504252129022
-0.0568355265280068
-0.03718118511422949
-0.04045375407826587
0.02081073299081067
0.03290600541865991
0.06613410874425993
-0.005524523564255557
-0.09351559062251269
0.06950253255295238
0.1096088129341113
-0.01647019818733004
-0.02398355590250454
0.07019351400463561
-0.1161875936208164
-0.1010771187650793
0.1470711983509377
0.0523110142871862
-0.02478951485912413
-0.02752149944794889
0.01426988988344323
-0.08477497224772607
-0.1010189626603848
0.1715240449771888
-0.3050868030098112
0.1227157513966813
0.3220274375933758
-0.1396563861154535
-0.739989207007035
0.07595873323032935
0.497885114959687
0.1661453587754676
-0.1080077770082368
-0.2014497162116268
0.4257978075786923
-0.1163403144417993
0.2998423444471554
-0.02698967792982631
-0.4976783950206865
0.2248257284948726
0.0857031761778501
0.01894838071156314
-0.02338659206468079
-0.1389870163612094
0.3281296706413719
0.09651340654290962
-0.2856560609113671
0.08354456773138097
0.05255018189599466
-0.1360947496454272
0.09938808493358825
-0.1120832646309978
0.0729712155226859
-0.06027603585066282
0.7896810003388065
0.01307830899329002
-0.4628069300930558
-1.267458749213721
-1.295054822749956
0.934400600673074
1.628112971264317
-0.1095443450027557
0.02875080657156457
0.1132218386806029
0.07084605198407946
-0.03762400388654961
-0.1366452292735779
0.103998863680051
-0.01449586313217983
0.04714222866387607
-1.172396385956141
0.744770005500483
0.1906106496577257
0.2370157306875167
-0.3456694180188248