/*--------------------------------*- C++ -*----------------------------------*\
| =========                 |                                                 |
| \\      /  F ield         | OpenFOAM: The Open Source CFD Toolbox           |
|  \\    /   O peration     | Version:  v1906                                 |
|   \\  /    A nd           | Web:      www.OpenFOAM.com                      |
|    \\/     M anipulation  |                                                 |
\*---------------------------------------------------------------------------*/
FoamFile
{
    version     2.0;
    format      ascii;
    class       volVectorField;
    location    "1.2";
    object      vorticity;
}
// * * * * * * * * * * * * * * * * * * * * * * * * * * * * * * * * * * * * * //

dimensions      [0 0 -1 0 0 0 0];


internalField   nonuniform List<vector> 
19631
(
(0.007910173978381788 -0.000766180238477196 0.002962376042189675)
(-0.3704208461267698 0.2084029025783625 -0.3188206491018169)
(-0.8903204260342397 2.209175706821181 -2.08192734596089)
(-1.450884024323811 -9.35266214898577 2.955469933975042)
(0.004210091855113256 0.01497179327958879 -0.01929417678107996)
(-0.1314001278652951 -0.05857322585420964 0.08010915064302884)
(0.03068423297521857 -0.003284667258487316 0.01203607072093571)
(-0.1534325856723575 -0.212846315751458 -5.606191018266088)
(-0.0003631684213599804 -0.00868234702665769 -0.02925703326903994)
(-0.04503897748671448 0.001907650710761034 0.03109739481640634)
(-0.01826177703025128 -0.03160976674195508 -0.06894689088838998)
(-0.02769272746260481 0.01418474651767931 0.002457096527267954)
(6.794829153710056 16.26941920552599 3.081001060264836)
(0.01674343931541284 0.009552020947208105 0.02909678297545849)
(0.001853327444141288 -0.001227737510420992 0.001047189693339397)
(0.07919293359285712 -0.06321642890560947 -0.07386756787663284)
(0.6649975416975639 1.017507272206807 1.26601590832535)
(0.005196832747100562 -0.002690808352561372 0.01883656645844247)
(0.04157473080500071 -0.003374429529640182 -0.002649760517044829)
(-0.1830352414136581 -0.8076781945925404 -0.4192418395639312)
(0.006844551700044994 0.002276721161954802 0.004211339186223054)
(0.03908405340995482 0.1771615306819672 -0.08651348947665093)
(0.01388468872172912 -0.0161628090234614 0.07829196060211749)
(0.7855855504428111 -0.8205256124618955 0.4199639917690469)
(-0.02793332535771753 0.003350738456666903 0.0148099393600911)
(-0.00719646251085214 0.02157073177496543 0.009783343234501654)
(0.05245237202875359 0.03813195127784955 -0.01251566018787593)
(0.02510718184618102 -0.01848909773298366 -5.994622689708279)
(-0.8774824885174364 6.722134220683846 -0.8819226162022362)
(-0.05125945793027067 0.01976197915385473 -0.1195307773373004)
(0.002276798557705693 0.0005864024478724499 -0.004845261551146255)
(-0.2831508342186752 -0.4294352547800349 -0.08866979562826227)
(4.247336774939122 0.0238906473815379 -4.319211750361648)
(-0.03904323326780513 -0.006376785322455022 0.00907236869425574)
(0.6248932970958738 -0.8690536009769375 -0.2056399939889084)
(-0.02010817554913344 0.02500712952490395 -0.01252363593641033)
(-0.02538409070080694 0.03034146609387192 -0.008967926551891197)
(0.01747984867856348 0.003914089997198064 0.005314501567903213)
(0.03182272785351895 0.09055044742854479 -0.04355055622189589)
(-0.09906490757417261 0.5317504122341609 0.5247172325422491)
(1.076100274721661 0.7398904393862356 -0.3684223628737368)
(-0.8682262167868819 6.791985275572778 2.283753309832919)
(0.02811737428636801 0.01904694242720139 -0.05980173618423169)
(1.124206535791017 0.8497019334947453 -4.468432910030503)
(0.5577307859846474 -0.1456228019989254 -0.7997865713711541)
(-0.9120531369232998 0.6472748104855902 2.952856570557633)
(-3.404713108955539 -3.229296197207469 -0.9342792482477877)
(-7.715351585300998 1.67130196998553 -0.7767860897048723)
(0.04266405940326397 0.02110498104017372 0.01588039205251994)
(-0.009081554462393102 0.01082997333535084 0.03240046665270961)
(-0.01065570791352486 0.001789337256061865 -0.01921520225020429)
(-0.02274750682237386 -0.04065132829243899 0.001101742264508404)
(0.4030421419544921 2.074177917328168 0.887582124758199)
(-0.1272582440574262 0.006978763090703055 -0.02032704574947854)
(0.005242756606033952 -0.2252001478675254 0.09092496949607043)
(2.63978848838943 0.8898154454894451 -1.339957710956219)
(0.4905779075564869 0.8497300451893943 -0.2814609315500738)
(-0.01283918961960266 0.001883993345209678 0.001889899989474589)
(-0.007921510448465086 0.05685658859378832 0.01512899721310424)
(-2.679519870975885 -1.593375870752397 4.738933977536465)
(-3.957889873139131 1.249040018400452 3.467574536839801)
(-0.2409841794899256 0.1148184519692683 -0.005259189416681576)
(-0.08294078063154686 -3.711023596344632 0.1639572012868727)
(-0.2180644063293828 -0.06725709024675897 -0.0662335971861083)
(2.634876426761514 9.345871455473407 -1.054303163977589)
(-0.3817911408249228 1.059183749835128 1.454396750870161)
(0.09407037502403758 0.02242170682421937 -0.03989854034417713)
(-0.03044462771916391 0.121741290661822 -4.749941465417859)
(-3.274303125166919 -0.5420238303884192 1.594804421013865)
(0.01152940757475557 0.05126557668509619 -0.009715521438376796)
(1.531359207870653 7.462917068451736 -1.667311668212865)
(0.1803814201549565 -0.004942442844033085 0.02956197993097725)
(-0.2040795990904719 0.08726610110078498 0.01860597801702399)
(0.2241071792161171 3.564492331588996 1.955746505216019)
(-0.05988200230146018 -0.1714888722664415 -0.1406915806045986)
(-1.372957575915187 0.708402952691659 -0.6193264747982108)
(0.006174466478035591 -0.005000163465035172 -0.01233725625221608)
(2.401823940836374 -1.508649327897244 -0.4942335671602047)
(4.500756899372274 -14.48863270326779 -8.303946032043591)
(-0.009658992050620215 -0.02582046306780299 -0.001548239012243609)
(-1.304185530211344 -38.86541813021603 -5.33348862741753)
(0.4630233640993918 0.4839094783988199 1.093481584818366)
(0.540976939626737 10.02438503017355 -2.019792805606911)
(4.276125833402879 -0.8910528341237808 2.24064366331757)
(0.3126076942664426 0.2847413920929912 -0.01891972943011958)
(0.07080168486199698 0.1759742034194514 0.06675850873331438)
(0.4211045423128346 -0.0009012750768027655 -0.07253432458671877)
(0.1174991450441002 -0.4311357867861361 2.944311043965708)
(-0.6475278101759651 -4.719894931531812 1.76383606594876)
(0.6628702592175025 -2.236093615347031 -1.803257462592005)
(0.5195540237726285 0.2094116917416341 -0.08319759667901043)
(0.9609945820341237 3.004159303869085 0.6422225841831107)
(1.562541617341504 -0.5834980979007026 0.5007588623571687)
(0.4860706718528331 -0.6738520891264757 -0.4667033247274643)
(-0.3228095943715745 0.3563833788265895 -0.4034514484078373)
(0.9035415414008511 -0.2844595318668385 -0.2472619994124543)
(-1.492334598438819 -3.105164429454476 -7.723100979684191)
(0.4926812157012324 -0.1411826670296156 0.1759069597218603)
(-0.06421247031451213 -0.02778896674085592 -0.111208186672672)
(0.05490668618711815 -0.006823994588306563 0.0355620103442066)
(0.02507411308051188 -0.01450435717439694 -0.01630368891270131)
(-2.296140710992738 59.42814804359874 10.23743737016752)
(-0.005664792733787234 0.005780457977154162 0.01039087086759622)
(2.445031619929569 44.72832207590322 -10.81171869885035)
(-0.9104028697345716 -1.044656177312919 0.4066225004264794)
(0.5353916444455887 0.2229543337227154 -0.4692942927749531)
(0.148683477930919 -0.004965717655922331 -0.02580458171083638)
(-5.774709862454765 -5.576698428840899 1.313387904896961)
(-0.02341362770666675 0.003868750840817538 -0.00257729128398708)
(-0.005810163075604115 -0.02637911685546984 -4.566318666317226)
(0.1426345790831936 0.1127026113881983 -0.1160716405371456)
(0.5463246410793514 9.756590251559263 2.994499426962991)
(-0.01054952360091894 -0.001610052021258715 -0.005279733491916322)
(1.283704391879877 34.02966301729507 4.492292335043437)
(0.4519171999081417 2.491275832492911 -2.172071702008413)
(1.395357750799904 0.2817255576616905 1.862079936346134)
(-3.74967007499051 2.196689592659331 -1.605100614266989)
(0.1166271666723634 0.04668410371643603 0.01211780502199793)
(0.6581102483799172 7.137954280427572 12.98094081258608)
(-0.00655814402051708 -0.000886614879481941 -0.004752482376525525)
(0.1801063866689844 0.0332230267960984 -0.06862549988929953)
(0.09418812079133171 0.0346214982240015 0.04847705376475356)
(0.02393538174560251 -0.003793830747217043 -0.005205462780871749)
(-0.1093139714696281 0.2091988510523384 -0.1753724744498804)
(-0.08417310996988225 1.790880193326798 -0.7638462776891232)
(-0.007061411477454257 -0.02262879260247844 0.02307485978198688)
(0.04380829216955104 -0.008764409627249226 -5.463139297771008)
(0.0008380133657537158 0.01273808566096109 0.0009560268217267808)
(-0.006702911904457739 -0.001132896676686361 0.009457736397066357)
(0.02171216931612948 0.03041903600625847 -0.006973761854835774)
(0.1937440181208806 0.05617051433133545 -0.03455989499799328)
(0.6511926860406638 1.773868846825644 -0.7623331501644703)
(1.130063839367074 -33.64549029350867 4.243246696525706)
(-1.927068562129316 -0.6072096884089175 2.831027532614081)
(0.004163722313124776 -0.006477547237448519 0.001746193851589212)
(-0.03687635253044747 0.01498952925001507 -0.02241678566415217)
(-0.1001603057295416 -0.04359340956653854 0.07085115573529517)
(-0.3023046973434808 -0.200392393165327 0.188648387568984)
(-0.2210720655459441 0.07940685151970435 0.1161580043092729)
(0.1137257202926731 0.06726125637973483 0.00676771257535233)
(0.03158486860467413 -0.1944075873042042 -0.1655665458593475)
(-0.08270089946617715 0.7093097472976171 -7.617037951053564)
(-0.4215640462554984 0.368168539430676 0.4946883661781222)
(0.01439942656921965 0.08105460980622692 -0.02070624988980175)
(-0.450169383723578 -0.08411819178144933 0.01772915959088967)
(0.06580803998883365 0.2095623447932621 -0.002389100081606393)
(0.007232445621806952 -0.09779832424424208 -0.02156571488416485)
(0.06099628867281551 0.03629742094133941 -0.0147484630791772)
(0.5430050677376175 1.300686896717469 0.1129499113096675)
(0.379924008691963 -2.674136814655683 0.9584698304175366)
(0.01286005254704339 0.001748302102530901 -0.002757781146854591)
(-0.02364766886915244 0.0044868538203911 -0.02217525832152117)
(0.02957670843608311 -0.009752550285444701 0.02804141191164743)
(-0.02998259764254059 -0.07597910708943595 -0.01992170313708605)
(0.01134079786669896 0.002012831654494807 0.002486212766447411)
(-0.05881215592356265 -0.01989053680097417 -0.1402849186390026)
(-5.068732069861321 1.680425617129912 -28.08293671193969)
(0.2580460696009498 0.1669465732601995 -0.1460355406432775)
(-0.2399452840247267 -0.03745093193036724 0.1171866002573065)
(-0.02283470430770308 0.01439663468393068 0.01837368260572911)
(0.0002455440430612129 -0.02884283405247221 -0.01135081228094782)
(-0.009057470851561613 -0.068948855893619 -0.04174245992795505)
(1.533229565277488 8.75005957611255 1.539800504784316)
(-0.03670705828995108 -0.06283170970214744 -0.04023826388667077)
(0.005573060546221205 -0.004546612327149461 -0.007906990317385624)
(0.009641364900368328 -0.00333227691973995 0.003893552149513458)
(-0.004977237994979575 -0.000968824751482683 0.01106943884499025)
(0.04986608832058741 0.0003844826730768853 0.004927960567577986)
(0.003347331245933966 0.01001044881008666 -4.208738832052145)
(-2.107939742556886 -0.9910559098000276 4.032191942129012)
(-0.08739327709633077 0.1255833414631549 -0.4437860536117776)
(0.1581668022169737 0.7182534298955277 -1.017819523391025)
(0.4218248070184127 -0.05183370910153048 -0.5748339103153787)
(-0.2155772466458438 0.3406628095697237 -0.2592044087884287)
(-0.0762075546926546 -0.0111472219647117 -0.1011136898785852)
(-0.08411853645293704 0.2053772310587675 -12.96841434738547)
(-0.02911432954911179 0.02681084092470869 0.01015164320588663)
(-2.476473205152943 -1.589418071382301 -5.48541458056232)
(0.003500672034078826 0.01377910876351602 0.007937866333189025)
(0.3000790608993481 2.634589453773411 0.2049762260393488)
(1.18488400980616 1.377139195711013 -0.1601674022756712)
(0.0004527948802458856 -0.004478594345247934 0.002620024697404706)
(-0.0162110789009613 -0.104833992780176 0.009902467036766196)
(0.0382747238194844 -0.07916708990229401 0.05362547893688725)
(1.498273568147093 -42.14003870226166 0.3631022552798615)
(1.042519364430073 -27.54930548031437 2.488654955553703)
(-0.2126688320554699 2.807329272654945 -0.7923911455374203)
(-0.001923695052978385 -0.0193360645966783 0.002510442493585749)
(0.8383185933490382 -1.01724330884373 -0.2397214603297624)
(-0.02508620805233238 -0.01303420926818393 -0.01939079683391076)
(-1.742734845310096 -22.52296401075437 -3.014170071701057)
(-0.2729552760376621 0.2128889183896532 -0.03553887770253306)
(0.2314475017603029 -0.08099076255280388 -0.4217485182697538)
(-0.03070288748622341 -0.03403057208026243 -0.001065422997324997)
(-2.188887055358808 -11.24133624725657 -4.886044115084344)
(-0.4314792076167239 -0.87188232550065 -0.1903048700756875)
(0.02044474614203494 -0.01287591251270101 0.0007600827855364515)
(-0.6812132520940792 -1.313420862920786 -0.5703676514859112)
(12.95953894489353 35.15338890139106 7.320862677482213)
(1.067970572324466 5.600018690204394 -0.2774375048208784)
(0.01643831073413683 -0.0508685766576466 0.0789227123943271)
(0.1002706303794514 0.229017332093638 -0.1538913884043845)
(-8.484017837176705 36.40620640941042 2.375947093917435)
(-2.746075314256766 9.341295736934933 1.795968445734874)
(-0.008312765021619038 0.01152163527724289 -0.01958073055902581)
(0.002665631161299054 0.006016909521241027 -0.01188216337689548)
(-0.0285311308388114 -0.03009593553905588 -0.03634201588932623)
(2.109244887878147 9.361493839188094 2.948851164827056)
(-0.04066144942816145 0.06461361119130518 0.05583006906695864)
(-0.02883995420427491 -0.006203873529358049 -0.02414397403981638)
(0.07054140632085495 -0.03267378453304756 0.04025591924075336)
(-0.02010093045900313 -0.03537789993295098 0.07074784855571456)
(-0.4384024693995004 -0.7373196826853421 0.05018519649184423)
(-0.01519866787426351 0.06935595502474164 -0.04663596928081937)
(0.3358876990123851 -0.1666551247974829 -0.07223657076442677)
(8.835099723032478 -64.13741799652793 -6.189207464248443)
(-2.575039747319329 0.7018350214180005 -0.9716071021752233)
(-0.4222323341502727 -3.406104588015844 -1.136385996741537)
(0.01473472449969313 0.04263354930469763 -0.007749428696711955)
(0.4426088552732356 -0.8322672880311028 -0.878593289308606)
(-0.002235693336518597 0.00037090403514695 0.0019393064772048)
(1.390072740297364 1.569247070910365 -4.10747346096813)
(0.006285955106519355 0.1206509489590906 -0.334738424780808)
(-2.857806550019123 -1.710751842552741 2.964851635004165)
(-0.09025309461020443 0.1661810329026609 -5.658791591279225)
(2.145334263664838 7.844142202168785 15.94677798866139)
(0.03784573080174382 0.002226162911178546 -0.06486907241176179)
(0.003665742259989715 -0.01846974926469734 0.0324715685944417)
(0.03374235733687353 4.128360946916303 -0.4036224037985318)
(0.08687807172583975 0.7274686316282654 -0.1031601245678868)
(-0.4786095436173288 -2.762650355121962 -0.008044441768483512)
(-0.1153387210348157 -0.4489844747763254 0.5859012314189876)
(-5.834805566335106 -32.58849059506962 1.92259219867369)
(1.828960457761676 55.85035020588553 1.138436998925263)
(-0.009262308047500927 0.09178199085584704 -5.924646979644881)
(-0.1540720233033309 -0.04425729085605114 -0.1028637757063198)
(0.5139802677190455 0.1141778976718505 0.1412598669601703)
(0.07636185279235869 0.05154347176490395 -0.007532691551371401)
(-1.258088256757192 3.469671639360634 -6.046233729560516)
(-0.2111700405537979 0.04787021411668793 -0.04338917762991285)
(-0.007865350404068501 0.006193708207013676 -0.006471210554977722)
(0.02198516767535591 -0.03388674159023917 0.01199484209478548)
(0.1434798213864365 -0.2824439970016406 -0.1436997210698687)
(0.001195360337211553 -0.001936236592038845 -0.008145347663059264)
(-6.61073693425997 35.62723538492281 -2.042113477271067)
(-0.9676271672099771 4.937815419399541 0.151841004735456)
(-0.009835197034438491 0.0002022264662163162 0.007186841959631173)
(-0.04363340559546558 -0.1581032839099475 0.05536625937564796)
(0.07015862487470148 -8.390218270220878 1.764824685763637)
(11.35967203223177 11.0767001053993 -3.903557232367897)
(2.794539071088645 13.20853123536823 -0.7578682399974183)
(1.561126698795464 -36.03323050578972 -2.514191156186813)
(0.1969512861473135 0.926680585308556 -0.04286834353694255)
(0.3540459640156753 -1.566135255167482 -0.5351895910270538)
(-1.206627082209843 27.60412688610316 2.669628431331479)
(0.5564063623025842 4.306137114301806 0.7483944560124217)
(0.3000541873467259 -0.1415991155438169 0.3675205267340567)
(-2.153500571724476 -8.288838615435356 -0.6704145638423028)
(-0.01002651760247055 0.03119695884830605 0.00806893508643812)
(0.05322030389517805 -0.2606899082858062 -2.052053533406233)
(0.4867614119604525 1.508033734882109 0.01111136898695123)
(0.6415175905763123 0.02503226409627857 -0.05448173162320541)
(-0.1303162220651113 -0.1228181802541158 0.08377720074262004)
(-0.006064582655130601 -1.31678624822339 0.7898762930625858)
(0.2059472953722939 0.04971652996405466 -0.1954875586747687)
(-8.169228398673855 -2.174603668723796 0.5234069813192157)
(-0.3351499722367575 -4.11459361783911 -0.9418932617387318)
(1.460520106656835 -9.135218641620323 0.1829656498648657)
(-0.9853998699551496 14.22253294879667 -5.244845988667774)
(-0.2556716905124372 0.3678377838131907 -0.578626255082994)
(-0.3073727940920035 8.500716427737515 -4.968588878444026)
(-0.00274207212550899 -0.3010722307882552 -0.158800240662593)
(-0.07745217312664887 -8.568542142205938 3.809098974540651)
(-0.01163666869865444 -0.002316046677271233 0.00180706068307333)
(-0.009286176057337919 -0.006355283615584699 -0.0216305937964678)
(0.1083980711133263 0.07579779584888371 0.1393063667437432)
(-0.03792083437211746 -1.699835678037556 -0.1286233143657577)
(-0.7654924394856901 1.110329349304335 -3.534607187108581)
(0.04528768883655618 0.03148465255081706 -0.002741992750583604)
(-0.3136103273488705 0.07283270938863394 -0.0169527655855993)
(0.1306364157690851 -7.575497037640485 1.155169181014669)
(-3.226744147401525 -11.81412490674794 10.19600073950343)
(0.01956867222201095 -0.2110986531829172 -0.1036600951181015)
(-0.3875121461303837 0.09090680564684352 -0.3213113949682784)
(1.110080056798293 -2.550730122618231 -1.734067853400548)
(-0.5347164790403802 -0.14083560463209 0.1319433894511891)
(0.001241454483298048 0.005775546334776835 -0.0118701231184551)
(0.1847692405399727 0.4415016909190076 -0.01320731471954251)
(0.6140920693620564 -0.4232815687881317 -3.398521421878798)
(-0.03656717202289858 -0.002522011944245598 0.03416717721128945)
(-0.1140072430991841 1.786670376606855 1.214435689018185)
(-2.658858000613948 7.890363071628163 -6.241348085749985)
(-0.1607813289473517 -0.06370933656762531 -0.06939993089496664)
(0.02283748657141181 -0.005865502432932502 0.00525295644256968)
(-0.001164398913079901 -0.00126270083882888 0.005001476045370077)
(-0.8633712594798366 6.193579384354362 -4.638196647722236)
(0.5282138093813692 -0.7203697080014084 0.0806942255215273)
(2.269496115070464 -1.86677599506623 -1.014253248902143)
(1.547659441713868 0.3306501135954961 -0.5670423359264906)
(1.704939855609862 4.886734430860986 6.359393460606075)
(3.08890356939027 7.269223325434438 1.12817699788608)
(-2.366902009993412 0.6250704241515854 -0.6670100376987108)
(0.03101280060758114 0.02750414595484924 -0.1081072951512684)
(0.9648995922263433 -0.06161401502183372 1.423802157305882)
(0.03014562630040796 3.437561697994788 -1.014885190288818)
(0.05163396036203217 -0.06699544183663102 0.09360211372998359)
(1.107342869459403 46.82135898142923 1.542455091113734)
(0.01946324593238954 -0.05750109937757948 -0.04612030166351247)
(0.004034144511999202 -0.00817512545566948 -0.05378533521636186)
(0.009634828422821227 0.04584691056481662 0.1479583203420226)
(0.01205972669124985 -0.05544484867670904 -0.01403633400330221)
(-2.024488999693979 34.18315098940641 2.581834223364283)
(0.2938111669136238 -0.03876408974654022 0.4482523105015062)
(0.02784577291572875 0.01032787432467649 0.005868404513998719)
(-0.02672257209960476 -0.02089613929707097 0.01183689527958916)
(0.002400618458737131 0.02951443555882338 0.002699007167252378)
(-0.0002206477910478995 0.001999962755933387 -0.005883921721626308)
(-0.002673749854200512 0.002277315839946227 0.001319819597889459)
(-0.3701264111383101 -3.887601038496515 0.8090695367745442)
(-0.001122650567998659 -0.0008428562968239507 -0.0005879481515671543)
(-0.5246242612393004 -1.065308012880672 0.1204586862681633)
(3.118289734604173 42.97657790784245 1.509056143699266)
(0.4929816254888151 0.5070750501571339 0.1979781186726816)
(0.03451927604180417 0.01082145451426675 0.2404910133597576)
(0.1043174843251828 0.7293242680857098 -4.449385631865138)
(0.8073222168115973 -1.335579067315924 2.669424397423702)
(0.03469646858220411 0.2540038194131145 -0.06549394628989674)
(1.385037027635574 3.883579904885326 1.336141965506602)
(-0.2531833663018334 0.1603603829713527 -0.1168847121432007)
(0.806596453833477 1.350324776425296 0.3196664167935758)
(-1.808846068301687 -0.9409016931790142 3.232188869525591)
(0.04287774377018393 0.0002141120895925176 0.01083622953248258)
(-0.116352773467662 0.02306588103904922 -0.0967566883271674)
(0.4580553993138755 -0.3832402956092439 0.5824976107383805)
(2.021033487210091 -48.8639316896486 1.677252217170627)
(-0.05906894237925355 0.001808374726450096 0.01794431767553768)
(-1.915037692090101 -44.36646308262393 -3.534464405016573)
(0.7709279832602319 3.085458741788511 0.07573505301968853)
(0.01157895676915112 0.001837290165871231 0.002830693692844563)
(-0.0383931705556069 -0.02106949578495123 0.01803607143738467)
(0.01917254109347764 0.02993165295310926 -0.01839915279908483)
(-0.08414728941734569 2.674893354995767 0.1305445863126761)
(-0.02748609667161761 -0.02460691862524752 -0.005939545065826154)
(-0.9903088925916808 17.37103655261775 5.431297726523585)
(3.754917042820992 -3.21975461650101 -5.913216831935457)
(-11.198792393536 -0.4344281585243648 0.8053668125195448)
(0.1649202440539507 0.08002920322643466 0.002809634196362619)
(-1.366720624653431 0.1604307916519247 0.4291170311973816)
(-0.05843694433156954 -0.03159584980175853 -0.008932798140454092)
(-0.5391580085522287 0.05737611821518286 -0.4269923651218396)
(0.03783926132098619 0.003528058231242857 0.05882450264819003)
(2.471505312011787 -0.02378457025493663 0.5547732524666373)
(2.935382225095192 2.407222593520677 -2.729771983190955)
(-4.642816310164584 4.01675428994044 0.6268987496224098)
(-0.08232641404908977 0.02894627003390896 0.03363274344682864)
(0.3759522395607682 3.128756363098119 0.5217778857679884)
(0.1047090866000557 0.199042760465469 -0.09614457919685923)
(0.2881295015158034 32.02325013907983 1.137863021052233)
(-1.415974688480518 2.56496070982804 -0.1713602765401441)
(1.113178017311898 1.193070476298702 0.2988942744116306)
(-0.05602933298063744 0.005951327934006226 0.02167626952892013)
(-0.5785643865162478 11.89860837454556 1.154445163393601)
(-0.6163088372819294 0.2234436205708794 -0.07457806021950369)
(-0.01431928257646324 0.02446120642833487 0.03134791517297462)
(-0.6209216122844811 -0.3609695728531356 0.1982048148443729)
(-0.03092368197669072 0.006217952791003085 0.01959671273679627)
(2.217819952922452 -9.745694096988462 -5.725833850561341)
(-0.08065001650130971 -0.01400413717937794 0.09360133563138121)
(0.02113034864644983 -0.01475074230656613 0.009159578086440774)
(0.1899262770273917 -0.7446962792811679 -1.608487878682892)
(-0.007357313126272659 -0.0002706262783624038 -0.002586223912748668)
(0.004471223180982481 0.0001128068458986333 -0.004890722226005157)
(0.9228341501611883 0.3049282589291829 0.09544893941050925)
(1.274984175722413 0.1204932794098991 -0.3495461760639643)
(0.1330477810763197 0.001291092595223517 -0.004155584231080707)
(0.0009833762432548084 0.001897026154146907 -0.01407056965305287)
(0.01146314564254492 0.5505346875760849 -0.5548907672907639)
(-0.01172287204604229 0.01482853246613867 -0.0007823104535430118)
(0.2731459513132274 0.02513595696764051 0.03525985787638139)
(0.004298994394937063 0.02259726528383448 0.01431800782490028)
(-0.5980201596339285 12.52760793240008 -1.978251463511089)
(-0.009980981393449575 -0.007878333532249647 -0.007875643713476755)
(0.007124209266081489 -0.004160534875121361 -0.006764347651306178)
(-0.03199770503087214 0.0006591466898042572 -0.02431398887686559)
(-3.05725683234795 -1.192830281087399 0.07197741881569636)
(0.7818604382879285 0.5232767944125629 0.5820150055107947)
(0.04853751119986577 -0.03158354808714191 -0.004509341265593974)
(-0.02324194433789059 0.124009106563536 -6.65177838574363)
(0.06495323285331205 0.04769523082203164 -0.01123614258629477)
(-2.016948780393523 -5.843092892301702 1.019605429884484)
(-1.409318514666523 -1.202881885173546 2.389395098344731)
(0.02625952153090189 0.008489340766841009 0.006739627842732493)
(-0.2482297822882607 -3.83602771940563 -4.513463356848351)
(-3.473128398380323 -41.91528224969272 -0.09682437047340464)
(0.2268771325198264 0.4867778732406867 0.4128394734964373)
(0.0007212101002771282 -0.003886130019970702 -0.001356976419246524)
(-0.0004619534541235664 0.002326381340906158 -0.005730487898318197)
(-0.2976861511682414 -0.6403899517559095 0.234025111036777)
(-0.2661914008374365 0.1624711219417182 -5.66449998066928)
(-1.370003640704291 0.3350956850586735 -0.1768016387204659)
(4.058665550517381 -56.24582299281143 -12.3581433937465)
(-0.2888356886382441 0.4421429434132039 1.776489301955557)
(-0.3183336165590775 -0.2826941212365132 -0.1049853372307253)
(1.926306376498078 -14.66951924522282 2.056264709394928)
(-4.058048814705393 -3.577720227491183 -4.535978520188883)
(-6.274567677107282 -49.77498925350699 5.045602243595562)
(1.594936290167757 -2.915964533718648 -2.899708831038858)
(1.227145940354832 -0.02712765618485458 -1.978674447147686)
(-8.382973977070415 -53.38202631534657 -5.089402636538492)
(2.052182054988817 -1.642102247605533 -1.021418862382092)
(3.05075437029737 -36.89774711894113 -1.137017005741053)
(3.090822872819175 -3.391784744830533 0.2687573737712052)
(-0.0309946226691179 0.3739664340416642 -0.139740511359508)
(-0.27332643867776 -1.181530859015119 0.787336799486178)
(0.03931535304770228 0.01920511992230241 0.08855975556922636)
(-0.1509586568046621 -0.08347922277536025 -0.4028818703483302)
(5.187049614990268 5.468736913696072 7.245434504644685)
(0.03294317372858603 -0.09284339973637867 0.06479047257553837)
(1.44461323288015 -45.80382599948442 5.861451346020961)
(1.836345163860408 2.58636283827116 -1.213517588135386)
(0.04170094422088624 0.05476340837598516 0.0007430569605578526)
(0.007631995695172557 0.007686803250272247 -0.009299253192037437)
(1.79244338757468 1.132689965253489 -1.250191369198387)
(7.557120621498464 94.40561449946378 -4.160786415532305)
(1.244525525548814 0.8053602340745822 -0.2111628693622715)
(0.03358740007085742 0.01784053221739897 -0.02220217108920093)
(0.07044329957935762 0.1477144892449238 0.05542661895256182)
(1.763545753027878 2.05038429828107 -1.519522341488344)
(0.05892987190996168 0.03357833835041735 -0.02915614018281551)
(-0.01192440819011745 0.009708786781766267 0.03165480476027406)
(-0.01082609796699879 -0.07593391262201321 0.0898125968280043)
(1.407459839547072 80.07248670096948 -4.205938830775331)
(-0.4803425739418631 -2.458873851104011 -1.078420785196235)
(-0.02523194925957057 0.02165393818658044 0.07790131359762502)
(-3.897200406740773 -1.761934176799298 -0.4594043185759543)
(3.090328245652732 11.29514081128296 1.081433027751041)
(0.006418965697273113 -0.0005215874821660011 0.001622683262155602)
(-10.22962196378214 -18.34895549598363 -2.851318404036876)
(-2.749856207313803 -5.078075446273624 -1.009394642991022)
(1.114596323600748 1.940762609239756 -5.89027741525682)
(-0.0003448514325172843 0.002475659225098575 0.0008756607255258888)
(-0.2081306329321734 0.1494841340292645 -0.08125468579126768)
(1.935572586372482 -6.710866470081735 -0.5785165301511892)
(0.4005614481229081 1.794821395566495 -0.8528644457556327)
(0.004872394719825434 -0.006415621583722658 -0.01882919083507966)
(1.542288099585581 -7.727440203493567 1.964945107019108)
(-0.003598271467301416 0.0006512007494945476 0.006240449817927745)
(7.25556102532792 0.7552462278433656 6.003727758596376)
(1.150161423856724 3.062265012264792 -36.80404632786345)
(-0.009914767384354241 -0.009827349141305215 -0.01504440735280501)
(-1.136655260427738 0.4682462154281327 0.1097955776202538)
(0.1992959369963709 0.9688054259893665 -0.367928010379816)
(3.648531726609829 12.53828945601796 5.140287361347345)
(-0.9256645925185014 -5.177821316603824 0.4755565892992126)
(0.0004485737558246471 -0.002083119504383607 -0.002105172512801291)
(0.001314084562682195 -0.001261787335732517 -0.0003943509935584484)
(-0.00343038003209585 0.002655485137224821 0.004423671707615092)
(0.3000991417249386 0.8165305838499056 0.3502668138746315)
(-0.04198078604901941 -0.1465044984164272 0.004440505166505501)
(0.1138734208623217 -0.0249521319680362 -0.1996332272053206)
(-0.1725972857529912 -0.3539019750189889 -0.01742071134631957)
(-0.00127446015990828 -0.0172806184860499 0.00317971829378535)
(-0.08534746906465177 -0.08207904283840975 -0.04416915651230607)
(-0.001660468420027861 0.0002751394687702663 0.001171611912917106)
(-0.04054371788591846 3.858523191995469 0.5318488877325414)
(0.04499817601046482 0.00370745599994704 0.009705252809915981)
(-0.09090347150873224 2.635742786405948 -2.185003669494326)
(0.9578596617972593 -3.616894240897544 -4.054196082668717)
(-0.008280401377546822 -0.02787681632615908 -5.954545942229011)
(-0.3495439282340509 -1.867202518243263 -0.1732623109882464)
(-2.193141193449957 54.87087395246624 4.700265884979534)
(0.08280717401540175 1.783312337221301 -0.5507968865016329)
(-0.01151948224554333 -0.003020755466051332 -0.004343977472434478)
(0.0005336687712572894 0.006122154668307952 0.004577848819302415)
(-1.169741900120819 -57.76609697487616 6.951880743216591)
(-0.04917816588668099 0.02384332275289145 0.1175775459202393)