/*--------------------------------*- C++ -*----------------------------------*\
| =========                 |                                                 |
| \\      /  F ield         | OpenFOAM: The Open Source CFD Toolbox           |
|  \\    /   O peration     | Version:  v1906                                 |
|   \\  /    A nd           | Web:      www.OpenFOAM.com                      |
|    \\/     M anipulation  |                                                 |
\*---------------------------------------------------------------------------*/
FoamFile
{
    version     2.0;
    format      ascii;
    class       surfaceScalarField;
    location    "1.7";
    object      phi;
}
// * * * * * * * * * * * * * * * * * * * * * * * * * * * * * * * * * * * * * //

dimensions      [0 3 -1 0 0 0 0];
oriented        oriented;


internalField   nonuniform List<scalar> 
37377
(
0.01875584560820535
-0.8107770546598215
-1.450373519492804
2.242394728590004
20.61996478849882
-4.653510798687901
-15.96745002480229
-16.563115352905
8.22931629913495
-13.28894418743313
21.62274324119605
0.2244368120732757
-0.007843538267646138
-0.03857228659295225
-0.1780209872579389
-13.89225397689623
-12.0626303374492
25.9552492990598
-15.08204865281794
-30.33386410796681
29.13389639275661
16.28201636803897
-8.711881994178482
-24.80544912892142
22.25878689303102
11.25854423018375
22.74760664027952
-22.16294798150259
0.5046608996690529
-1.089319558416832
-11.26956862557748
-5.812612289832398
17.07837838786944
0.1609922595353491
-0.490069943521856
0.3967704383098286
-0.06769275448357355
-0.6983213418504842
0.5599964110509907
-0.62814910810336
0.7664740387503821
26.63054679333513
-24.25926759704519
9.218701157557236
-11.58998035367932
1.509720021303738
-14.63044038230691
-14.30398331010844
27.42470367117415
-10.10003737141716
3.657397889337293
-11.81371838726214
18.25635786943645
-1.432368579317771
-0.656270508325475
2.213979084916931
-4.788646798905276
-9.54211380533013
-3.461248101677934
-17.06089629637316
14.5771357159806
-25.44471082213895
27.92847140258766
-14.92803543435329
29.51487928636287
-14.58184781079276
5.334803576621573
-18.7772515858544
-5.074117381930586
18.51656539118836
-19.60830416105696
18.7205242443472
0.886814510101003
-0.8303883150091068
0.3076751942828615
1.133803037486062
-0.6110899168963501
-0.2332436510013371
0.1613751047242146
0.2046554578500687
-0.1327869116167953
-14.92399043142342
19.06923021737873
-2.655614466866138
-1.489625318842181
-21.68031314062064
-14.96943185854606
17.04144083811279
-4.70776403679366
15.79576529242715
-23.88958857459215
12.80158731896628
14.85009994279639
-11.62757752556272
-0.3797155513860478
-2.842806865843768
-17.09401150774638
-9.016860048221981
14.69140586192927
11.41946569405071
-0.02999624460408166
0.02118940566849508
9.672725155293556
-20.18566540246209
-8.194522793996185
-8.442327133462186
32.56585114992451
-27.42195813485849
3.298434118421176
39.65088213296357
-16.63712221588069
0.8215831572174226
-23.83534307428581
23.54432516729984
-16.27467455406173
4.228904140826843
-11.49855475403531
0.1605257016892951
-0.2667328021691963
-0.4816761292631662
0.5878832296126179
-0.1180326099682155
0.09588650865927846
0.01349359613911837
0.008652505130291881
-10.19959009910675
3.514571028063217
-12.0001191813923
18.68513825291733
-30.54380271237771
25.67266211597444
1.53316176460779
3.337978831843347
16.61470859654587
-19.00979184671071
-17.95310080216948
20.3481840523352
-26.55892940689865
-1.129570747610443
4.1178898962207
23.57061025829397
-3.485315957427894
4.913154726634792
18.2114854964875
-19.63932426568242
-0.9405871174701645
-1.526395575565811
1.354103417360796
1.112879275678023
-11.21771228604802
2.006770976968486
24.95825756927535
-15.74731626019571
14.2911713644334
7.341312357912592
-5.94440322174995
-15.68808050029004
7.47027791235554
19.94955315846904
-43.22833783432707
15.80850676351012
1.42262520251396
-18.70715428815239
-3.311303712468808
-12.71834654220677
-10.78026650336862
-15.57621437102119
39.07482741659648
-18.93257223377686
28.59666675992215
-5.70768935574123
-3.956405170386692
27.31808603930807
-27.17187382357993
-3.796537454160962
3.650325238446709
-21.59342490232341
-16.49477536872323
10.12781564240838
27.96038462861554
18.63932825097218
14.06504794892822
3.024450140639354
-35.7288263405253
-20.17146896784728
-6.121897820708039
27.99694439567681
-1.703577606875504
11.4724427959878
-20.38469052298433
9.066200001083041
-0.1539522740910258
14.57118608584633
-17.48978846469321
2.917535497395619
-23.26725776593972
11.38073410150305
10.95142622637424
0.9350974380648062
21.63884398881798
5.137871672538765
-2.0390779094456
-24.73763775198847
31.05824812301005
-9.212595322172726
-0.9268782753128528
-20.91877452546241
-2.97406924141289
17.54399603666063
11.38153508752445
6.645179286422212
-18.88475397620853
0.8580396025785636
-17.50234935101453
-3.571051876435563
21.0725973325453
10.31493337919461
-4.135197004084772
6.483164459125034
-12.66290083421852
-0.4861387580405292
0.0615716054401201
-0.8936776361787314
1.318244788588065
-14.69294887073662
-2.09714346667359
16.78923361242299
36.65394094345134
-9.090467172325463
-16.74977750156047
-10.81369626955287
0.03067049034947547
-0.09661410957769667
-0.05208899076320225
0.05632895977961437
0.1124152582621029
-0.07285770941875622
29.21565581852084
-20.03925400009074
18.47161748036428
-27.64801929882391
0.1361848287341996
-0.1225251656832542
-0.000166066944424314
0.208057662388707
-0.08729362701580858
0.04061106933007392
-19.95591096392461
-0.01119147183049685
19.96564032753387
-23.80078937247434
23.95926958217542
5.829493365937131
-5.987973575666474
-1.4886869676643
26.57207240668188
-10.7434817612979
-14.33990367731832
2.292704140522595
-2.218448895185363
-3.685863503733606
3.611608258194836
-0.1389566378639689
-17.2873176730908
2.523395060927316
14.90287924996951
5.838679950325661
-27.40964349592064
-2.280219290542214
23.85118283614335
0.02966277650800635
-19.98689746737926
35.2212330037321
-9.09736667393568
-46.46546267001688
20.34159634023959
-7.240402097192062
-4.342378826185953
32.36437770257289
-20.78159677919462
-23.05400295400545
14.84987344423074
6.135647776004481
2.068481733760746
-14.82344792320437
0.8788202131266294
-5.220940552728846
-18.44779994580249
-8.245544422848793
15.55727077341894
11.13607359543424
0.8113122411801641
-0.5493371020220756
0.2055171646342482
-0.4674923038288905
-18.28451048232343
-11.03190302185159
8.962451714967463
0.07315337206655996
-0.1183043580517205
0.02841272231897669
0.01673826361673265
5.401578478990082
23.76180431863027
-7.651047821554876
0.05059191095693195
-28.53618824323748
25.78910884917311
2.696487483164463
2.398773575744354
-0.3929875161376455
12.56705553224495
-14.5728415918495
24.20224878721156
-0.1390487806556047
-5.265324856448407
-18.79787515002029
-15.87521655107891
-0.1740162601663746
-5.631080329365277
16.45484898861761
-18.38550318775702
-24.62827520775547
11.80076853589879
1.841773361621206
-15.05408837608332
1.411546478714835
-25.36843234546381
-0.6323680749032854
0.7597455215533375
25.24105489882178
0.8973925667281495
-0.9489864180700569
-0.3265430717906762
0.3781369230534676
-13.12062358361222
0.2247497701916444
12.89488071601394
-18.23503052330953
17.10157093100419
-17.03479073303835
18.16825032565884
-1.726869245246501
0.2474992367429305
1.458093642505611
0.02127636604019142
-6.394486138391255
22.84723250892005
13.00690139970337
-24.87285142904713
25.29637370583688
-13.43042367688831
15.6963246943873
-19.44974540347516
11.04026502213253
-7.286844313032979
27.80422784132421
-13.26887340510526
3.669056701112433
-18.20441113714416
17.65965381477603
21.88908208231853
-22.27425444002712
-17.27448145704824
16.75478567584859
0.9036112093958347
0.1564092084155994
-0.0188795584710514
-0.07921746781009231
-0.05831218218162922
1.84231795101851
14.09318264460387
-10.87061894122292
-5.064881654395978
2.80283996686344
1.387725417612594
-1.428424553024048
-2.762140831759933
-11.64965012997204
-5.961608813160938
-2.605312540719956
20.21657148387467
0.005884918188562087
-0.1231794479684177
0.0334304941070693
0.08386403563518728
0.3486131079205066
0.07083152875207115
-0.4158450471546154
-0.003599589570226212
0.01798164247694508
0.5941050987542107
-0.6132845766693511
0.001197835388314529
-0.7702200234369529
0.6956320905338326
-0.5998369401497257
0.674424872817049
-26.0321967908664
14.37439594695724
28.412586519776
-13.88885280505967
-3.602114800134458
-0.02834290870784737
0.15565945202822
-0.1264835414619492
-0.000833001895609088
24.20659859266943
-23.66634434229098
-3.514323491787339
8.011478988707291
-13.58010389287698
23.76254566365753
-18.19392075897424
0.01836597927632634
-0.04760275748884082
0.2372944405725864
4.272239980806956
-21.77562444137888
-0.3118271651620224
-0.2456510629181172
0.416316400547053
0.1411618274423218
0.0241848279875415
0.1683289605078236
0.08426081297913447
-0.127035970823938
0.05044269169774962
-0.00766753390774049
-17.79834953622823
17.3210682768751
4.496298863224806
-4.019017603902135
-15.79276483851598
23.34808145745856
-3.572608512835775
-19.77633436188846
4.769872811826152
-19.93732591244173
1.999869217739406
13.16758388219758
-27.28511277400629
-0.7102208191313321
31.60938159899619
-3.614048005821821
-6.574337355419106
-23.89819874040974
23.80425654210495
6.668279553754761
0.1063268223608868
-0.08082381716793956
-0.0004609300754728494
-0.02504207516759464
0.5095219318863571
-0.729061133765925
-0.007291980561823584
0.2268311823121034
14.92230640677425
-0.178297123422311
7.208770875953145
-21.95278015929754
-0.4508406805080127
1.086260014045714
-9.380461847528464
8.745042514097596
-9.638947999543197
-16.80907777833479
19.66836007524025
6.779665702688589
15.56199612620235
0.1053746285482471
-15.55245053993562
-0.1149202148117613
19.76935647101892
-24.20282365489689
-8.441268444689198
12.87473562855924
13.16220246353864
18.19832149804101
-7.821915633278114
-23.53860832829666
-0.2120634663724218
-0.542806411246015
0.3507281634955607
0.404141714076262
-7.315720359511656
11.11705422520953
11.60443426169494
0.5858839465554174
22.20637718609204
-16.05733233466826
-6.734928797988378
-0.08849205609095215
1.430409246076505
-1.336901277736839
2.418943922942375
6.054962276349029
-9.728232213280208
1.254326013856879
-24.85120995952092
14.35977197900417
32.13028196916974
19.06885414596699
-8.148202738545411
4.00165499935762
-6.817874105363635
-1.402035070135888
9.525113354002562
-1.305204178779093
0.1019861706913606
-0.1171849052288339
0.01519873450935684
0.06915860548251224
-0.1471219734083623
0.09515267234756124
-0.0171893044499378
0.08561241672461353
0.1018362052270852
-0.1332227568171534
-0.05422586516398881
-0.07367576627062969
0.1142081875266577
-0.009861930934693099
0.1261709986695873
2.902765749046361
30.42547101025471
-25.16953645124872
-8.158700308058574
-5.770792883478491
2.623698112564561
-19.40541052418279
17.88097385387435
-11.04632798177168
-8.551539047159268
1.716893175080221
-1.761762236510793
1.88763395817288
4.451056299749593
-4.576928021927023
16.01263730509933
14.19921262221367
-17.08897036201876
-13.12287956528379
23.85178602534472
-8.329785252366785
-1.222611044331668
-14.29938972848977
14.34438725438617
9.417956473470072
0.08944229761502223
-14.85883102327838
3.051081187767664
-4.511604244825241
16.31935408051323
-16.93744612928274
20.59666610448809
-16.37756651740946
1.729334488885976
-10.49675225960485
-9.362584879968479
15.44941608175182
-18.28699234642562
12.20016114475295
2.768775162917199
23.1167536554102
1.176678210083135
-20.46069641522946
-2.431291774994849
22.89057558901937
-17.22825199239445
-13.52064905251208
5.698967397061495
25.04993364813193
0.006280156187395605
-0.1111787094177926
-0.01762661247547701
-0.1385600479583812
-0.003905569750511579
0.1608315969604582
-0.1419054946116053
0.07250405212498787
-0.07795372590378148
0.01644416919890074
-0.2453296266642526
0.01613050502325655
-14.48113523353519
21.82826709226281
2.974193394186772
-10.32132525282322
10.48181755352816
9.273635745349361
-8.601800523854431
-11.15365277502131
-12.72662601373137
15.28209345241847
-19.06384268447578
16.5083752457945
22.36816906071023
-22.3922670791167
-0.08311712081034452
0.107215139273269
-0.1381263159869232
-0.005367105463656416
-27.09908792313754
16.43593037473655
1.946425363350767
8.716732185231395
2.34592883258173
-26.30816427531702
3.137834163844495
20.82440127889321
6.166877116751008
-0.9969008430676605
0.3491709617183991
-5.519147235826999
13.79266295169653
18.05630860288174
-17.31512647262954
-14.53384508194719
35.42662910175026
-13.28673890105142
3.243872472251288
-25.38376267291997
2.380359791799415
19.6611023782796
3.505685527917119
-25.5471476979659
-14.8741311781651
-2.906363039753127
-2.097733018248483
5.726239622953281
-3.102306820641563
24.14689259225632
0.508148637364743
2.399624252080436
0.2285555779483622
-3.136328467797897
-20.70103436223993
24.0000515892484
2.427222395951697
-0.9956649390278439
-20.03996039635308
-0.1318786840943974
21.16750401946964
2.422523897613783
-13.06916725052051
6.669086658815271
3.97755669410071
-28.48859222845564
28.52214662527414
-1.029219335856919
2.50498727316441
-30.35945442944636
7.814506759924915
-16.62602068339249
1.102490869804057
15.52289359999603
-2.328706790384482
-19.27298374458267
21.60047317559134
8.10576515385875
-7.8412717238292
22.03867287084824
-22.30316630085923
6.159361827254757
-12.12935825878687
-17.2275284681313
-11.56945158933647
12.08077055364706
-5.427920025250018
4.916601060946808
15.57548615117327
25.16952997205586
-44.84228123679174
4.097265113593082
-21.63156758446223
22.70026792327401
-29.55729256728738
-5.525571618173852
5.50856539059174
32.47018033023314
-32.4531741026174
-0.7146941895503542
-1.132968255916676
0.0236024351278077
1.824060010235561
0.3789952952073272
0.5864413227713881
-0.7203432059771524
-11.79840447304334
-11.08412886690598
22.87452769984003
-2.73469334537835
8.18680008918731
6.683146217423345
-17.07807710172177
10.61584049182231
28.4195603946037
-21.95732378475803
0.5709089635073983
6.671503864369411
-7.693253508017009
-0.2653473243997423
-0.1573818178333501
0.1942471292368241
0.2284820129074274
15.20408083990147
-8.453243006928949
-14.78715306253534
8.03631522959301
18.8694379476888
-26.87736576612639
-18.98976368905829
26.99769150759201
-4.197292759629833
18.68585079870124
-14.48998099455111
-1.889241951130538
1.671327752056597
-1.299137992129471
1.517052191028714
0.5018255953396548
-20.26303406388776
1.310374944334569
18.45083352423087
-3.979671896523015
-20.27668775326476
24.01694043900922
0.2394192107676034
8.175171692297324
13.78355686186913
-10.00941087778141
-11.94931767638339
-22.86761126338734
11.06202423551948
6.77933698895879
-21.18268264425462
14.22504853187705
1.686894231934169
21.99329981406144
2.46396790431376
-26.14416195028941
13.04406620884801
-33.61056973405942
18.07872025392189
2.487783271297812
-34.73216517798276
-2.040770643408717
22.58406355093806
14.18887227041342
13.4423333809669
-12.68407741529212
5.281377571424232
-6.039633537523907
23.7437965105362
-20.54124487536861
-7.220561058815727
4.018009423692876
30.25749826986715
3.408696477082827
-8.726143673583358
-24.94005107334737
-35.11892595331658
24.89657124078251
18.41340642119932
-8.191051708899645
-16.18199368640063
24.55226044282327
-8.37331479121795
20.76792686007816
5.955052302150169
-19.51420828627267
1.154712450738573
-7.144597825529924
-4.776447043477369
10.76633241758322
14.7356995972559
3.204337979965189
-15.53362202736325
-2.406415549849632
26.0974469620807
-3.609401171053821
-29.06643114331835
6.578385352300713
-28.82246870557317
19.99164281506682
3.864875512899754
4.965950377728646
-3.263410422396914
-20.39727265226894
3.270380014099851
12.52520846664669
-8.38404271336494
9.748854606005125
-13.89002035926174
-12.19701350722094
12.15575392916755
1.55090780901236
-1.509648230918801
21.44540089485609
-4.277553135606185
-18.3967593804313
1.22891162119059
-0.5560219374363967
-2.580822042226176
-16.31559429710106
15.16937659265982
4.701461390669369
1.305316778408244
-21.17615476172946
-17.53072655768045
11.37047075492458
6.630446889424045
-0.4701910866703449
15.06729282549132
-21.05662595206867
-10.65959348597716
16.64892661262286
29.3758230880354
-8.920476573764805
1.354712679073014
-21.81005919309455
-22.11910508239511
-15.08156130471529
10.77475085198415
26.42591553520267
20.31275991439622
-5.456346850478075
0.3129635287458739
7.586967861073235
16.42714648251556
-30.28259972166143
5.968957836037751
13.85928163890199
10.45436024672953
-11.13787821016937
26.50743483147605
-0.4800815939036357
-14.88947502720521
12.62765442781947
0.6901774906145005
-17.78087298223467
4.463041063269432
30.74376320624027
-7.232139568749342
-21.0604485687214
-2.451175068766725
12.68500883232437
8.439083349137917
-0.5617111278022057
-20.5623810536641
-3.05128500017332
-1.17048932271858
-16.97582228975783
0.8253301343881887
-5.164717635060976
-1.442502009470875
5.781889509288392
-1.260076068447439
-22.11865327721552
22.89297556672991
0.4857537789849922
-21.65637814107973
-3.424907296905667
3.678728891684314
21.40255654630741
0.7661445651010568
-2.591867851545136
-17.30157814677122
-2.447896224644946
0.04907035130806778
0.03396013606379751
2.36486573653938
-15.59028166748365
12.07363696135987
-11.69793446512238
15.21457917125891
20.1149173184016
-18.43514753825634
22.66242086015237
-24.34219064023074
32.63054856460381
-12.83717794309762
11.26487750153731
-0.02056741795608845
17.56144891520286
-17.54271687841547
1.921511845427828
1.726976679375557
-1.807424065573841
-1.841064459599375
4.267036524388517
-3.53651646510602
26.01388927320194
-26.74440933246259
22.59006741100429
-23.32846392180147
-4.802803452627829
5.541199963449219
20.59886158763038
5.664582946055142
-7.039001773094981
-19.22444276055987
-14.01300638561602
9.117844320287706
14.10814366373156
-9.212981598396802
18.73407085188593
-11.00044755836664
14.98284827827726
-22.71647157178387
4.275642182085441
1.235254321022397
0.6559806131705193
6.503482022885742
4.736280269581575
6.154468806498973
-17.39423109899793
-2.277157769180958
-10.18342383998845
-6.630661421752029
-20.47453449195233
-15.2880335742655
50.1369640131914
0.02197395684166128
0.2784573028412389
0.3044356776598695
-0.6048669375582293
0.6287681266069314
-1.351099088621521
0.4475539143003682
0.2747770475965045
22.36526433297683
-28.55199918797551
-8.711043411297775
14.89777826633611
6.687545196420801
-4.802707127777301
2.477125336913991
-4.361963405340541
12.72011610831991
4.647090069788972
6.580449509668174
-23.94765568783518
15.00187226494792
15.67751074419074
-15.74645724110926
-12.94396248821252
12.26511864458825
12.79971128463771
-12.12086744101243
-22.88309630263987
10.54820228594457
12.32778062250666
-21.95868948376083
10.01780926688617
-1.003082271344047
-8.966183447518707
-2.585223673234107
23.81652576539981
-23.63825095806186
-0.4810968410442094
-0.5526343554820015
24.67198215477418
24.43948838909595
-5.407913331072959
6.995179699401834
-26.02675475740623
5.881830202303568
15.25762515161755
-21.29888408359962
0.1594287296905864
-11.2888570233184
13.19188793553225
-19.94563065787675
18.04259974567423
15.72423209305725
29.44432505043278
-46.36916980857784
1.200612665098475
21.45362616124858
18.94575010641641
-32.929098355304
-16.73204039251668
-0.3283760491006383
21.32745296601896
-11.11494259108474
-21.09350202936131
25.62002239400639
6.588422226505872
19.95057515279159
-1.342126068987146
-18.61094252179514
15.76250908496895
-0.656896041261028
1.62253448230151
-16.7281475263066
-6.113795622690045
32.37577944397009
-22.48393505509759
26.46183500361703
-15.56968886084585
4.608775450875766
-15.50092159360773
30.8265566643738
10.91182758737635
-39.08742806548248
-2.650956186019827
6.033157789120284
9.47335475657348
8.446189872450089
-23.95270241813317
22.59189826473232
-20.79031547986532
-1.803459300756095
14.88855088656018
8.882923161503658
-10.36239308576991
-13.40908096219792
20.44690324643589
1.916414039973359
-22.31509300732935
-0.04822427909054364
-0.03461447452604192
0.0682935322821444
0.1418679858599903
-0.1755470436755206
-15.82181007910828
10.31713553068148
5.500810620897647
26.80371169660301
-10.67567138965892
-2.118800005299979
-14.00924030164083
-9.603976390286235
-9.912781217928753
19.50439770372133
1.489215316525822
12.0100740713219
-16.7409471991895
3.241657811400452
-23.31499113700025
19.75136648272806
-14.90962739776838
18.47325205230507
-0.2562501925051567
-31.54445044321297
7.781742028124305
24.01895860765899
-16.24254813161618
-12.76379824891325
-8.133868598833176
37.14021497934399
-9.154455300725294
-32.40356896908299
10.62971485636787
30.92830941345295
-2.92866946021504
19.60652614800101
-17.65019907460115
0.9723423868109401
11.9993328227827
-13.85932209919779
12.39911109933741
-10.53912182291639
19.60753217662018
0.1954792779106597
-19.80389605683907
6.033721268238206
-6.237455120671747
-4.662507782869055
4.866241635306406
-4.270169568442251
-19.10108312023353
4.339636063088141
-8.503823792567154
10.4561917901832
17.42850985909995
-19.38087785673263
-1.752365425513077
19.57478079381969
-28.32821076413684
10.50579539583227
0.0593173032075552
0.8578053767116697
-0.2883545534340007
8.115381013826926
-7.722023567310008
-12.22630976181883
11.83295231530312
17.83182902011595
-5.826120196922351
16.94814538071426
-28.9538542039116
-1.651223166796234
14.42153679325234
6.664583731206831
-19.43489735764326
-0.01146693175472165
-0.156655628856731
-17.71669673811944
30.51918113485994
-8.786867646219767
-21.78762335441022
12.18949427531074
18.38499672536729
-26.86911783038515
-2.857634248812972
12.99471168669072
5.71398070156985
5.803883543586998
-20.47730842828657
8.959444183134817
-24.19643463792269
-12.81480224386359
10.14211905141376
0.09127968443094138
-0.07009027877461561
0.1006656060191851
-0.009385921603629268
-0.06617112957476022
-0.2363917233525195
0.1300969545332287
0.1724658982770664
-7.174612810720228
6.516412713702251
-0.06792932071006559
0.7261294173737736
-0.02555789961982415
0.1826105999563587
-0.09647524751766552
-0.01442950153725554
0.07510770639399321
-21.60515520559242
-16.43793725807535
42.17847565343631
-4.135383189763459
0.1397320193025608
-0.1073949963272268
-0.01713828849159847
0.09124710258239867
-11.43848125061678
15.46862854465398
13.41096001145448
-17.44110730547755
10.07565017799294
-10.29615276112979
11.79670879458219
-11.57620621144187
4.558146528420806
-7.484164436289562
0.006720671217428436
-0.08467439714764689
25.00428736763664
-22.5768024014414
-6.241206224434682
3.813721258252435
15.59158362463666
-13.21722066903419
-5.672094806808142
3.297731850446608
9.057605045661493
15.76489152926596
-40.41277824240214
-0.1379690173659179
0.02101014212468256
-0.02479732519995512
-0.09282692653693675
-5.569458303940337
0.9006905182393263
-15.55984085700931
4.552772086216863
-16.79703110172303
12.71088211938422
-0.4666231039315423
-8.675532044627603
1.510521297975139
-10.37761015220631
17.54262089885928
-8.230250693113126
-12.76094845643154
-16.46356486322849
37.45476401279463
3.521862394878977
-6.659335451498153
16.4914512940182
-13.35397823764914
-22.58262331777076
29.82946433102949
-7.246878727802304
-11.11492564662125
14.06146335466191
31.4548618874619
-34.40139959537976
24.17006344811296
-17.52341148160016
-9.764134400363087
3.117482433897607
0.005228144935266856
-0.09539671224568638
-11.96863305973339
-5.288296571952918
-5.201683150747161
-14.21502518301155
24.1873524353822
-17.36607158769981
7.393744335255105
-0.03714564440004627
-0.03653012188779879
-0.06194296960956086
-6.058716736909023
-0.07990109541819308
5.405954806889734
0.7326630253770883
0.01573217479404043
-0.03411829307912533
0.1308013765183362
8.481420294663939
-12.85593824550279
7.849720662603452
-3.475202711824715
-0.9060350923010556
-14.26033747588855
-4.215773821590923
10.67408112308515
-4.263958520994664
-13.63867701668248
7.228554414294688
2.215571232169914
-3.18631206961005
21.73349410906686
-20.76275327160707
0.04135047808987292
1.133066248275626
25.47662130985514
-22.1087749993934
-4.500912558463778
-24.54954223728676
6.482837174937859
0.2241227445368809
17.84258231782486
0.7102864250120309
23.93277590461166
-24.6499391622491
0.1066566635903571
0.1592463543610159
-8.343158887934335
11.52027416501486
20.17096618038181
-0.6500639315233914
13.26891812773587
-24.57021275745902
11.95135856126495
10.32336310433411
-0.7343850056680956
-2.046093714131457
-7.542884384526173
-20.45517316875041
7.649770242983068
4.301579133182365
-2.736822934343459
-0.9946901805694696
20.98913280846804
-17.25761969349721
11.79689460052324
6.340005661451929
-18.13992721165739
-0.4692868827340701
0.007484885555075171
0.5103609771031036
-0.04855898003872615
15.22851577369694
-9.33638200565504
9.669862358163575
0.9775243862739236
0.1441933981898721
-0.007383781105356296
-1.114334004099354
1.227758972959015
27.40633533722636
0.7417287781372887
4.239726478684172
-1.221571912372621
9.315296848667582
-12.33345141488267
-4.499527444374417
-8.047215084476131
-0.778643093715112
0.9130285662204939
5.197431843198321
14.18372733928912
-20.29418774867199
-0.429451043347537
1.460722210294547
0.938325180154393
-1.969596347497323
17.62963847632846
4.665843514723226
6.955701672893113
18.86979797480002
-19.13330518688987
-6.692194460806894
-3.695952789930843
-0.3729961283293779
3.315391348064024
0.753557570176607
-1.389914263783177
-15.05590197851784
16.44342691612491
0.8256708412114436
-10.99523736996912
-7.039626963497719
-0.5792935354897029
-7.850475552287689
12.49625236838116
-4.066483280552992
14.47272254566131
-9.845191802981139
-5.206824278131988
4.985334825835579
0.1930780797639643
-7.4929573131258
2.31454440746049
-0.07375157358036656
-0.003836998068924142
0.02927401830939022
0.04831455331562474
-15.88103093109745
-3.027473279072014
18.18142400290972
0.7270802072794968
21.17129131916006
-22.2378163000212
2.323901342922562
-1.25737636203482
10.94081857158625
-6.64386214251043
10.17576611658436
-0.4730942614160625
0.3731884683001718
0.09677399039270876
0.003131802440587696
24.16583619877951
-5.669087989787998
-0.986602531723983
-17.51014567722881
5.020200417675095
19.14758287953645
-1.000014631785973
-23.16776866521987
21.93078494824318
-12.22901720306035
-0.9420575864413966
-8.759710158704205
1.253602475415191
-0.1980793445793645
-0.9812178596831269
-0.07430527129123279
20.95645683627075
-13.3624048690673
4.160954512234978
-11.75500647939335
22.85261246008256
4.230059733847797
-9.348414473651735
-17.73425772026143
-16.89910883456679
-15.43043931835314
30.58357924233223
1.745968910524485
0.3251441651927836
-1.013525228747238
0.5513752262112561
0.1370058371758797
13.69159344230156
31.43069959277403
21.79681635444432
-3.366550304877934
-12.99511501735503
-5.43515103216609
0.3691153141050313
16.58178478651811
-18.42887814944371
1.477978048975013
-31.34225660645237
15.4908556697573
8.201578350684171
7.649822586140671
-20.23805877935138
-25.09103738472222
25.91294531127619
19.41615085279521
-2.360969741387557
-8.116340466335803
19.45800621154034
-8.980696003812401
25.16222998716606
-12.38803334054704
-15.13516638797894
17.54130658531368
-0.5792484453032802
8.200171847191676
-2.607543889647066
6.627575973215517
13.52127450179792
30.49487096594246
-39.18022522393866
-14.36864869601686
-26.32804660275021
-7.582612434111161
29.69195432577747
4.218704711116013
-13.48618970263332
16.64117143320986
21.48039878353239
-24.63538051394483
29.01219850144196
-34.67663927399423
20.27167106016351
-14.60723028746973
-18.53778638661915
-8.231718907879969
22.89516651098475
3.874338783999806
11.49295467266994
-29.6346160398123
4.655471664862895
6.455399992171409
-10.86226206435121
7.010009056297212
-2.603146984850697
32.96507443242604
9.613044400095315
-1.662729567033254
36.35376533444671
-13.24778044469293
-21.44325532265586
23.21624152984177
-11.93303041513975
-11.28239942140473
-14.55806554147583
19.11650733217473
-3.058905948583605
-16.05900964067262
-1.057102373638561
0.5671905737505887
-0.2664839356415687
0.7563957356166083
-10.9498758757669
-18.67959826057837
6.146186312823684
23.4832878234134
0.1630284526488257
-0.1772670159753109
26.07484841910487
-8.887731335151852
-3.901469099843603
-13.2856479841536
12.47442190585713
9.683910592346901
-10.68588970221986
-11.26838097632184
15.80671527119894
-21.38173349371384
16.84339919911991
5.405151486590329
2.861550088896883
19.03685777723322
-27.30355935265834
0.2906859246728837
-0.4051933201702531
0.3195891858344848
-0.205081790548008
22.22541787278152
8.820977649139833
-25.64124403511507
22.36931195961781
-18.10171757394583
11.91303299659719
-16.18062738224604
32.33139713174901
1.080940598386645
-9.537056892296334
-23.87528083790134
2.426729958018659
-27.76860177247861
26.51679820573099
-1.174926391163036
-12.24009170109518
24.39753287286607
-18.88165000616214
6.724208834368257
-17.19075854172021
11.11245605512667
-4.968025495097265
12.70315048551349
-30.65004384821745
22.50313178184144
-4.556238419161001
4.411571029115256
-5.171481703645023
-21.19286948476416
-32.79082928773359
26.65250062828219
-3.604272981648943
9.742601641125761
-4.554778253074605
-22.26999739196031
13.58007292615629
13.24470271888551
14.22472967283723
-11.92683999463854
-5.815742631808109
3.517852953613656
-0.2959387097109435
-0.7192903321168674
0.5739882815407661
-23.80935634639031
26.12241070385864
-35.10388364516371
21.70787102781125
-2.195757949971433
7.140387550463999
-2.9037264470291
27.99681688277541
-2.615387847829131
-22.4777025878845
-21.96071775075211
24.56502469756773
5.388722540529645
-7.993029487299945
17.1172336213378
22.29610195281132
-28.96147435864459
-10.45186121554855
32.32805310345149
-30.13951208771906
3.541448477869888
-5.729989493667389
24.29593390524427
-14.48730160661382
-14.00080716165221
4.192174863050385
-34.39200839975454
12.19922573079446
32.90290560006198
-10.71012293102559
-24.23688406800118
12.34364172730301
-22.49876605900042
26.85824986380022
-13.14930411167771
0.330310546365959
20.07641738992433
1.607593059397781
-22.01432099569629
-5.817433290042637