/*--------------------------------*- C++ -*----------------------------------*\
| =========                 |                                                 |
| \\      /  F ield         | OpenFOAM: The Open Source CFD Toolbox           |
|  \\    /   O peration     | Version:  v1906                                 |
|   \\  /    A nd           | Web:      www.OpenFOAM.com                      |
|    \\/     M anipulation  |                                                 |
\*---------------------------------------------------------------------------*/
FoamFile
{
    version     2.0;
    format      ascii;
    class       volVectorField;
    location    "1.7";
    object      vorticity;
}
// * * * * * * * * * * * * * * * * * * * * * * * * * * * * * * * * * * * * * //

dimensions      [0 0 -1 0 0 0 0];


internalField   nonuniform List<vector> 
19632
(
(-0.01377601533362202 -0.006805297492723199 0.006488655818503551)
(0.002557185283505732 -0.0018558973870919 0.001651488796086738)
(-3.27629598683217e-05 -7.818595366889442e-05 -7.754183762352372e-05)
(-1.376883004103012 -1.92082084046948 -3.553454097310992)
(0.008685439188351119 -0.02280421886886562 -0.002618048458460681)
(-0.003761725550988465 -0.004320357813070235 0.002933951195980086)
(-0.04608222933777698 -0.0209477711806545 -0.03598141964811014)
(0.007190931566674517 0.0001548630426101215 0.0002046357447220053)
(0.002861734658387989 -0.004243668409693407 0.0005820624412701816)
(-0.02503002821784799 -0.04085681147860643 0.06040150215165072)
(0.09483034685181135 -0.0373717437958846 0.01515661418105888)
(0.008760908989123498 0.01501563712041854 0.003433059574312373)
(0.000363901178059276 0.0002705246468102462 0.0002009085713453026)
(0.0004149243416323306 -0.0001968462373158486 -7.803454218249513e-06)
(-0.01547780305844629 -0.002314746615084995 0.001723575859573661)
(-0.02153231917245119 -0.008771013687700124 -0.08709976448007671)
(-0.009022567146197378 -0.0006608467771263529 -0.00256064242565878)
(-0.04279343451255199 0.02510374724629266 0.009680050789989545)
(0.0002142036768533037 0.0006440395098567752 -0.0002186286019491993)
(-0.000881500005528295 -0.0003253570715500694 -0.0016133284884105)
(0.08051294413213034 -0.04649534619125427 -0.1110065122176449)
(-0.3494307127580463 -1.156944601606238 1.275436919551568)
(-0.460677919517056 -0.3782136256187006 0.1782712723528298)
(-0.001684950049636819 -0.001280275046175954 -0.0008277167579388281)
(0.0001675148158662927 -0.000375229592907471 -0.002182671039683312)
(-0.001697551584370338 0.0002308236623653792 0.0001094623768082683)
(0.0002873340534422471 -0.0006004793957714732 0.004547364422870541)
(-0.5139294171656148 -3.260194902301211 -3.304034777446894)
(-0.01572868057348087 0.08360788199312455 -0.04599016665010459)
(2.445774454972049e-05 9.550680066507464e-07 3.973035573557332e-05)
(0.0007302729889317968 0.0008359751626385661 0.0002126683859583527)
(-0.001080885135526754 -0.0005093320508579573 -0.0001221678052345806)
(-0.0009593124250621117 -0.0280343343124212 -0.03354777333704604)
(-2.18778663942053 0.1316843688881058 -1.325197128573872)
(-0.0002518062693668279 -0.0005606848381861988 -0.0003242810169396887)
(4.66720197394288e-05 7.388176592141878e-05 5.329654653030708e-06)
(0.0001039840045471796 0.002538503112278306 0.003308004939050167)
(0.0006243268007701708 0.0004881485449257459 -0.0007932977100050322)
(-0.001015357428869524 8.145570732844151e-06 -0.0006363001668740449)
(0.008409940282549001 0.007187982256830704 0.002450427178094426)
(0.0008096005917885415 -0.0003744477583043088 -0.001287943879283654)
(0.00196213814703241 0.002008101526434156 -0.000687453471847285)
(-0.03238796619615236 -0.003146004311909973 0.01836147636517675)
(1.182521457800844 -0.2986153534207409 0.2247651087365582)
(0.001179714630622401 0.0002999099527120047 -0.000215523615529739)
(-0.001828412305366182 0.0007438835001777845 -0.0004915018886305953)
(0.0001310009834160089 5.769339921898795e-05 -0.0002989295242717212)
(1.123842847945883e-05 2.779645152449624e-05 -2.052727617706923e-05)
(-0.01681309797894001 -0.0123246122648372 -0.01210353483314126)
(-0.01453881157286866 0.003023974081930936 0.01094507536611735)
(0.005581543099353986 0.003530261192865062 0.0005004537821800793)
(-0.002483075211306786 0.003330863951841225 0.00270149228194078)
(0.03103749846286655 0.01465270016007226 -0.01415420520810877)
(-0.003011074954336293 5.776152012644271e-05 0.00421132145503814)
(-0.001423854498875843 0.002828592934454912 0.0007349103399248697)
(0.001691520381221851 0.0005970355653157453 -0.002142456623354939)
(0.001815965805384489 0.0009680922184532131 0.0001433438366827719)
(-0.001217467820449203 0.0004492089084877 0.008079114611908356)
(-0.00673444531441666 -0.04188049757357096 -0.03130218249121344)
(0.006693872810063015 0.005178039712869008 -0.01442473619671658)
(-0.005067775046752026 0.0005877579135386788 0.002115257271940924)
(-0.0002075948765751415 0.000387504428621431 6.96292892120318e-05)
(-1.520577589482663 4.147411442228251 -7.459231433943595)
(-2.513912053940121 -1.3249234106482 -11.81198309361184)
(1.696529024556513e-05 1.816924149919875e-05 1.486537474822511e-05)
(2.771673693145624 3.579500567033174 1.277732904764662)
(-0.3495648520069764 -0.9996151228488467 -0.9551770054142208)
(-0.01249829600808853 0.001819839398142587 0.005696227911144879)
(-0.0005809414599754808 9.519637875677909e-05 -0.0001551359807683382)
(0.002872227460271541 -0.0008075191584937517 0.0008276053828977928)
(-0.0009038780229699912 0.008814327432777566 0.0009746106754539565)
(4.189028316797107e-05 2.063564890326516e-05 0.0001170507623275861)
(-0.000956706892061409 0.0002200105123290986 -0.0008138689165436905)
(0.005774498820327809 0.0002539394068564727 0.006396419787060159)
(2.362833807644357e-06 -0.0001425243304191624 -0.0001245259393884738)
(-0.0004988600392761528 -0.0002833360182735245 0.0003153856014388122)
(-6.84119457149364e-05 -9.378566878187939e-05 4.605265752077343e-05)
(-0.1665046403169724 -0.03586859081260418 1.251946315383898)
(-0.8380888136135516 2.430092691507379 -1.208623751878954)
(0.08020333632939639 0.003736112479883913 0.03964163859223635)
(2.152860836477118 -2.581090210130673 -3.822198055489567)
(-0.6371099762024254 0.4363956741172814 0.6022264134824857)
(0.0002062673785755775 2.547680179442935e-06 -0.0003604589881511664)
(0.000362903681891804 -0.000132294536966124 0.0002467739622385121)
(0.002475806652497687 -0.0006431052032440758 -0.001372327111246553)
(-0.0006850895643033608 -0.01174387030437161 -0.008068542210335806)
(0.0001750534053732392 0.001401049962726062 0.001632165782550354)
(0.0007737265794698986 -0.0006608812537131755 0.0008380571668455635)
(-0.0001042212109874638 -0.001698007580062203 -0.0006422520711034108)
(0.01196622290479778 0.01412939161986265 -0.0149027373696826)
(-0.005810251480147646 -0.03596899629909667 0.003740512171285307)
(-0.002361951289072402 -0.001491244822808263 0.00430278165353837)
(-0.002401155005845002 -0.005330752350186555 0.005159146632834613)
(-0.03530471633214649 0.003004331005583919 -0.006501069100308932)
(0.001733328443695282 -0.001191992887448755 -4.345747390443403e-05)
(0.00238585694643906 0.0008023694371840471 0.001073315862173167)
(0.001020939208673373 -0.001051451331385347 0.0002232901149640434)
(-0.0001547162654486835 -6.868939480516154e-05 -0.0001517868918819598)
(0.001768425286358546 0.002005934645333885 -0.001627746879492254)
(-0.003614319458754697 0.0008758458822700058 0.0002371729261074241)
(0.8708300400697309 10.45826636011705 -1.861948380939719)
(-0.00212706866740891 5.422300257627117e-05 -0.0006091123787965403)
(0.01633406639231932 -0.004175467910872463 0.002186026981978417)
(-0.003141304025705722 -0.0004110255097364954 0.0008030925123450458)
(0.1182497603407593 -0.1633941979263477 0.3280058493631345)
(-0.1084215996422125 0.0843496884146059 0.07168081654754678)
(0.2488740977907448 0.1091975339638053 -0.08673690904360604)
(-0.01510583301522797 -0.0372008328894908 -0.04755652349596529)
(-0.003805356199192553 0.0004543272032894293 -0.005355551588772676)
(-0.009565772876148713 0.003048238842423009 0.007357780828439593)
(-1.337655605930844 0.343612912472007 -0.5321219470136833)
(-0.003583327551047667 -0.0007633842607870631 -0.0009312422932421828)
(-0.0003062677613473868 -0.0001573465102945 0.0005179691169057639)
(1.849129468379993 -2.116265951703303 -0.5637456446370248)
(-0.0004217030142336122 0.0006087295816497547 0.003896084000245954)
(0.003978853607273153 0.0025183119451863 0.000946253562211459)
(-13.00081898077284 14.88244855292642 -6.239157167949484)
(-0.2103751258321035 0.06445139333315522 -0.1522274809248682)
(0.004238979577107521 0.003440967628986382 -0.006551754125494777)
(-0.0006336483522733602 0.002191296854785542 -0.0002921589229103751)
(-0.002738260878854846 -0.005197978429627352 -0.008512993927456303)
(-0.007907809069982017 -0.006494138440532198 0.001791765676357409)
(-0.0003151076101924168 -9.160480820324547e-05 -0.0005035284157273806)
(-3.682530045102819e-05 -0.0001209200318691644 -8.321702158423322e-05)
(1.051429693215698 0.5139055513954405 -0.3836645002699925)
(-0.1192981854860854 -0.04934762333296377 0.03126221260164005)
(0.00251002341027362 -0.0003187899312906286 0.0007371413779071118)
(0.001976897632040325 -0.0004077891784079331 -0.002216797184313577)
(-0.004361283925727892 -0.01441080987896452 0.02536275888724266)
(-0.001858293705269418 0.0005502151538310365 -0.0004734358363150978)
(0.00196726033721304 0.0009237450112002102 0.00459541243430415)
(-4.009693325884638e-06 0.001555978145467107 0.0008169958435682626)
(-0.1777925185901976 -0.2024292220252806 0.1250532994251864)
(0.0001661099748654835 -3.833585995505356e-05 4.377522740848905e-05)
(0.02206285481054371 0.01830377619098212 -0.01591481539868495)
(-0.03315782660117254 -0.003405578046950056 -0.02039537086364589)
(-0.005829764986425671 -0.002127825350257554 0.0004866815265435459)
(-0.001093007311034538 0.001087038281526655 0.000864767879969146)
(-0.0006263871570075086 -0.001983826451026348 -0.001698993410332943)
(0.003365501661625815 -0.001802697632933867 0.002666784784691987)
(8.365959150811392 -17.06669915037295 -50.76503609873337)
(-0.03696303088451458 2.712013120405388 -4.820428419555145)
(-0.003391475345731396 -5.037086307250791 -3.306487802251921)
(0.7518288386125322 12.27076161652651 -2.153104444427902)
(-6.257908161812818 7.94040273467326 -40.16066464818995)
(4.117068770964141e-05 7.302378180394426e-06 -2.997888393195521e-05)
(8.182977624505224e-05 -0.007592363611754268 0.000445206602935432)
(-0.5981746378030951 0.7745729598039672 -3.545915977495115)
(0.004210872302586236 -0.007347483852748273 0.002431296018296229)
(0.001714360024910684 0.00021494768666413 -0.001129408440258398)
(-0.005272562141541124 -7.125820865333673e-05 -0.003827909449382575)
(-0.0012363884369958 -0.002955691703430544 -0.0007228669716569948)
(-0.002010234029697062 0.001067904313646367 0.0006706198575242622)
(0.000657924033489976 0.0004614634087145575 -0.002906937885548062)
(0.01060675863762261 0.07301336997551779 0.01842059951960492)
(-0.001848386155953044 -0.001576523320970238 -0.002115341424922421)
(2.752009954011514e-05 -0.0003508300781914339 0.000214703291617834)
(0.0008365573596518334 -0.0008891859717409092 0.006668321978271595)
(-7.392581649302366e-05 -0.01170619213481936 0.01071368699477517)
(3.758677711444508 9.636913776252074 -2.704591288310058)
(1.84306491153867 -3.550285543031618 -1.665837948464372)
(-0.6332180224265576 -2.874301538426871 -1.170608154556164)
(7.303704938309988 -3.036860554137855 -22.60133528773434)
(0.3143320088304082 -2.434131374765269 -1.679993954498952)
(-0.00151234403971629 -0.0009723419427702151 0.002298103825690632)
(-0.03278172637897136 0.000411747112165451 -0.02719884159561589)
(-0.001121275507276938 0.0002838525846642955 0.005162588343904746)
(0.01678362975826675 0.002330243449172831 -0.01884300919248868)
(-0.4914600699082192 -0.1452495270933942 -1.155063137617828)
(-0.0005619413548696891 1.648129618984454e-05 -0.001059087985167699)
(-0.00506276326311867 -0.00357866152023425 0.004193415802493506)
(0.0008610331019887878 -0.0008590721120868749 -0.001590514245092243)
(0.1089526055230282 -0.06738289643999486 0.05874379068683996)
(0.0002414425801868517 -0.0007308712488510167 -5.64158355475285e-05)
(0.003920167392872551 -0.006564170448737164 0.005569002060480879)
(-0.02037547741453431 -0.08209848245899602 0.1219188439569579)
(0.002314564429604259 -0.001541343471925013 -0.0002047051049812276)
(-0.003332795331829778 3.089960023032164e-05 0.003340700853225642)
(0.0006798257449428913 0.0002147095070709897 -0.0001249774116191469)
(-0.0004859138052451792 0.0004422931929475055 -0.0001001973952327205)
(-0.0007208648184839282 0.001229692585426988 -0.0001490717072527425)
(2.017794089790873e-05 -3.010679940043207e-05 2.273445892034492e-05)
(3.128662110091796e-05 0.0003955816319527424 -0.0003779254727669809)
(-0.002710149819747465 -0.00883610311686807 0.0003506563757169305)
(-0.0005460210148494236 -0.0002717345613511311 0.007825944548123106)
(1.809956693703907e-05 0.0001315519644100191 -2.856868751328393e-05)
(0.004136694233332804 0.01173848982157698 -0.00985597097441035)
(-0.001079759554413435 0.000510390864209393 -0.0002443589414964316)
(-0.0006922522469339418 -0.002549277285316279 0.0006204228684800029)
(-2.239031212928706e-05 0.0001498239731677141 -6.185992402710545e-05)
(0.00107285939333544 0.002453457137077368 -0.001040927047852681)
(0.01204064757786899 -0.01307020746813593 -0.01832962069052058)
(-0.008901043400864218 -0.005302425711664687 -0.09077424012472013)
(-0.01193927929252055 -0.01179176731444067 0.0002804378241406275)
(0.0002093988959724855 7.406390230829495e-05 0.0003349775257200454)
(0.0001194314674231895 -6.961135347584394e-05 -9.390040015111567e-05)
(0.002591350054194117 2.274018764750332e-06 -0.00190288720585369)
(-0.07477545939994334 -0.8189516514467146 -0.02155316386355288)
(-0.0005672404084729414 -0.0001540206045763078 -0.0003978404086847619)
(-0.1044837222925843 -0.04517176946928764 0.02013954000181859)
(-0.001252698783190604 0.0007467521118323684 -0.00201862702310704)
(-0.009326985221149931 -0.0004091470802226584 0.003759480762966617)
(0.0006621316069532844 -0.0001183196383353784 -0.0005484919735815388)
(0.00319916475364428 0.003984785062906976 0.0009701029654846048)
(-0.1490425900876148 0.1473550188717458 -0.1216198866048505)
(0.01612405608407381 0.008979625481369567 8.246337052123144e-05)
(0.001961068861483447 -0.0003469764900350399 4.977069372885299e-05)
(-0.001348396434398333 5.080555970581356e-05 -0.001692700070898624)
(-0.0005228332596654711 0.0002106118377753833 -0.002452436206192439)
(1.895094381897688e-05 -2.107129157101011e-05 4.910945848544192e-05)
(0.0006836793785423736 -0.00341388703168704 0.004328949058348555)
(0.000187869245189521 -2.41653067443509e-05 0.000258560178715588)
(-5.486012869876994e-05 -0.0001974204286469265 0.0001375564253442776)
(-0.0006304814590846356 0.001047102904306806 0.001216004546440557)
(-0.002147335087328918 -0.001982006486004509 3.433498687786384e-06)
(0.00291186865734996 5.687075253394954e-05 -0.0005166524566680641)
(-0.001164511015154101 0.0001968962319162106 -0.0001439087168802848)
(-0.005160405326503611 -2.509895714015032e-05 -0.0006259469024187163)
(0.002589780100370782 -0.001097993176657238 0.0003296773536086143)
(-0.04012680186259124 0.0145971985252278 -0.01667622505710388)
(-0.01628346904936503 -0.02530762242083652 -0.02916943450235984)
(0.005540461771096317 -0.006985446397031364 -0.001864740711463251)
(-0.001893381770448252 -0.0006391410284181531 0.000330239820521975)
(-0.000270697060667227 3.276355993805824e-05 -0.0002003999425696928)
(0.04350996225849482 0.1132726599508076 -0.001737603714357237)
(0.02185448285196399 -0.01075149790219438 -0.01449330088603744)
(-0.007503877762098977 0.0218854761605514 -0.0127569989848993)
(-0.001288957401268912 -0.004455505637189306 0.003354359322215463)
(0.0005972725797556027 -0.0001962820783629421 0.0001136054236348832)
(-0.0002631421680145781 -3.664770996010976e-05 -0.0001859093687064771)
(-0.02201342090756954 0.03213495447163615 0.04967351804962234)
(7.3480586865098e-05 0.0001964566225401853 5.598922369528865e-05)
(0.004591401597513292 0.003989050820319605 0.001958223413967075)
(9.754566972733331e-05 0.0001949976761043381 4.505118498190173e-05)
(-0.001879298818149027 -0.0006956075124940011 0.0006669846442030276)
(0.0009928041456098101 0.0004173440770632653 -0.001540143007900985)
(3.243013968211221e-05 -4.438071260285483e-05 1.443932172293537e-05)
(0.002618563216282278 -0.0001855424842174963 0.07343005193540827)
(0.00136151856307957 -0.007323896749476662 0.0002227962015342361)
(0.002134155199846174 -0.00153943280176284 -0.002246595860239127)
(-0.0003876867408422696 0.002529829422789359 0.001980395354216332)
(-0.1306746935879581 0.334101930640345 -0.5475814825671348)
(0.0252100581294539 -0.006627682663542768 0.01640347423381824)
(-0.03547802488739121 -0.01429997294278148 -0.0529527802989723)
(-5.129014957518993e-06 -0.000228579382637094 -8.598665213516016e-05)
(-0.01048389925943001 -0.006033088104895324 0.003474459236365272)
(0.002324025251167212 0.0002675983035165281 -0.004863886949445085)
(-0.002941988486973203 -0.01049185191048444 0.01068726560743819)
(0.000161459358441284 -6.975974735624467e-05 -4.923073177078339e-05)
(0.0005608509579758658 0.0008687340901108356 -6.152029417060023e-05)
(-4.856341415570179e-05 7.59549492747525e-06 0.000126215940984923)
(0.0006082893244207983 -0.0001301301749010972 -0.00120505151659742)
(-0.009599326779778485 -0.006618019437216429 0.0117641131455349)
(-0.003405164942139017 0.001933056199496917 0.002079251856236472)
(0.00805595863479824 0.000549999722231978 0.003709890266583555)
(0.004445231657834899 -0.04032202173334486 -0.03740740393943416)
(-0.0002110278962867407 4.326001562980289e-05 -0.002594226455492957)
(0.01098685710718697 -0.009431017981600358 0.00718301631096892)
(0.01781791106261518 0.05527933898928806 0.05359337681805747)
(0.03494750306598664 -0.01491417857484114 0.02252267455000333)
(0.005079730820016956 -0.000487282241697363 0.01426028904374761)
(0.0004165204162048116 0.0001507240077634503 0.0001138399625617195)
(-0.0005482425600621963 0.001049863584567053 0.0005013444317690182)
(6.390841665903658e-05 0.0001708415645114524 4.260501523774886e-05)
(0.006062463942957071 0.02938239250802429 0.02005555373493799)
(-0.0001014629019950989 -3.408671734317166e-05 4.661704290089444e-05)
(-0.0001903679645820606 0.0001137404193529507 -6.649146546083094e-05)
(-0.0009884447233378473 -0.0005311073697611757 -4.99181983411627e-05)
(4.325362565051573e-06 -0.0002955907618573825 8.04875267104283e-06)
(0.0003095510465309743 0.0008083306908326653 -0.0003114231874659758)
(-0.0004782817188280582 9.591892581251385e-05 -0.0001573885303801496)
(0.0009458349843956663 -0.0008494086443037742 0.0002005562143158719)
(0.2191852513610529 0.1390087150584099 -0.1614141042249235)
(7.986699434866055e-05 8.005421924130788e-05 -0.0003403541775754788)
(-0.001243833934362594 0.05091737725333251 -0.002995027879069128)
(-0.003644209480915508 0.001915008885830499 0.008457970493673094)
(0.0004288139188697449 -0.0001058473841960114 -0.0006550488921495297)
(-0.002241237807077509 0.0004849620744519641 -0.001349400414111088)
(0.0001354369524863336 -8.478151796602421e-05 -0.0001323173411959448)
(-0.0759969227104485 -0.2050008896899211 -0.01147052029404681)
(0.002715503923015495 -0.002478559932637315 0.002514576533666219)
(0.004339593127920486 -0.01595380297277189 -0.006743053877650896)
(0.007243463975902104 0.002524892539950543 0.004457205789743485)
(-0.0001235320861830048 -7.510721714689195e-05 0.0002520898396034617)
(5.256683417108684 3.660716455696647 -8.299527417404208)
(0.09910949963767907 0.01068434969754599 0.001802188881711385)
(-0.0004839689784472958 0.0006184547802936811 0.006261749956892901)
(0.02321196003310093 -0.01659853123183067 -0.0008317368308460309)
(0.03811414426651329 0.03517162599065188 -0.001632040054261029)
(0.003809099935646283 0.001267781106179735 0.001679480758062126)
(0.0001863844101827925 -3.834916090003635e-05 3.409434747252837e-05)
(-0.001719171739583595 -0.002845168267434073 -0.0008949076448484692)
(0.009185059827259472 0.005741771476017918 -0.0005761917825549876)
(-0.002738083977816482 0.0006643852930692387 -0.00321954626691312)
(-0.001796540859760993 -0.0009424353393705174 0.000721055340919098)
(-0.001694684954888817 -0.001026503005076665 -0.0005184768962623208)
(0.009508681147686691 0.03084859856973957 0.03637433818164692)
(0.001329874232198082 -0.05696403504102657 0.04850297235539688)
(0.002410771142250685 -0.003416456492126012 0.002154461000969174)
(-0.01498905122612271 0.005698775325691497 0.004175745280466842)
(0.03475444922239979 -0.004379763597882794 -0.01911855458076594)
(-0.01468042126836461 -0.002036221410343994 0.002703984184031328)
(0.001759403136690027 -0.0006486210496114833 -0.0009465740931998156)
(-0.0001627612365873013 -3.366965320086473e-05 5.9121558679179e-05)
(-2.573808745476966 -2.127282235254778 -0.03865864407972669)
(0.00195446084105855 0.0007116233797038048 0.002958395006439382)
(-6.13607623744763e-05 0.000590632310938683 0.0004294349990751752)
(-6.415874026149131e-05 -4.522238177545699e-05 0.0001953417088599323)
(0.005430739804036898 -0.003288242863301758 0.003350150859561305)
(0.0001524266669432445 4.078977193353861e-05 -4.309365710455497e-05)
(-1.417333640333086 -59.54613111482505 -2.009704824148794)
(2.163322842131599 -54.18732906940649 -0.3939641389722586)
(-0.2151445027736824 0.03050139465917977 0.05052251133773301)
(0.0008525007798125569 0.0008483638174268657 0.0008028089556691563)
(6.871127470140372 -0.2254702879658153 -3.347860567193927)
(1.703930829222627 0.5834682284930661 -5.287362066394015)
(2.322208866363075 -55.35065520008656 -5.316351873781881)
(-0.004128046317353458 -0.001090754759912686 -0.001921288119112206)
(5.929207227885283 -10.43082096912686 -5.005632032935721)
(2.962700883054954 -6.510489248753822 -68.0329879626057)
(-0.002886344732804479 0.000227165641679147 -0.004804247741783966)
(0.02024221424285604 -0.0002271063286646349 0.0335096660281812)
(0.1131587336684131 2.489726918964918 0.2346543445737579)
(-2.443887904664359 0.1167096515007915 -47.27241726174444)
(-2.633088989198002e-06 -3.681057657011719e-05 -7.233361172254397e-05)
(0.001294465731315349 0.001482921075985788 -0.0002290384854285591)
(-0.1458546705519219 0.05374411951698577 -0.01725076837350925)
(-6.901424288268917 -13.64440290601085 -7.87417536105845)
(-6.375453697486615 4.739567389544487 -8.578250958478446)
(0.008908550702497088 -0.01439501007830136 0.04677365090149431)
(-0.0003937548863806483 0.0002299698784526812 -4.623057214136788e-05)
(0.0002122751854500839 0.0002058639061893925 0.0001500350379088848)
(0.0002382363862706219 0.0001267607555090519 -0.0001378149700840275)
(0.00373490486824365 1.783680631511518e-05 -0.0009821712608771445)
(0.005888107272026439 -0.002675615139575092 -3.50315519749625e-05)
(0.007409084908688355 -0.01300762641579857 -0.000828391426014128)
(-7.559581637434261e-06 -0.01215022999702602 -0.0298068296104347)
(2.120475032947239 9.080299647146072 -5.245003838123516)
(0.001201295905753032 -0.02794498480613053 -0.008865589560441887)
(-2.554867900618827 5.265202964891124 -57.04724954294826)
(-0.001215403384836098 0.0007334365555639352 0.003575688084062637)
(-0.6179868732088658 61.82892974624618 0.2170572612769122)
(-7.750995885907602 75.10730657304794 -16.76332180897533)
(0.002480772307866264 0.001288983613856083 0.001013917057993022)
(2.806953980498552 8.327767140772636 -6.290465629578669)
(0.000525183916566721 -6.745736491621485e-05 -6.160230802988004e-06)
(-0.1119938396114439 -0.1623814775668342 -0.1997764418465298)
(-0.002330150369050695 0.002203118016573467 5.681304600202853e-05)
(-0.3049884550880905 0.3675953126561788 -0.5965410836066483)
(0.9670660069673356 43.52533227451308 1.78094967580256)
(-0.005011738019274976 -0.003702060616514372 -0.0004083495991876311)
(-0.0004357505947662362 7.682330266191576e-05 -0.0004443178350113185)
(-0.02467479128157575 -0.01185691976039103 -0.001213575900558408)
(3.197471596701366 -7.182143727695474 -3.745226302484507)
(-0.005517058857032431 0.01228777717990358 0.01337201362440587)
(-0.001771909094650848 0.0001232217750333784 -0.001009429868338507)
(-0.000342356909988781 -0.0004834942317742616 -0.00020668612985904)
(0.0004275100583046318 0.001343567343628218 -0.003038888291908451)
(-0.0005779586776907203 0.000186025991506871 0.0001708356309210555)
(0.008806229790409126 0.002520185419463915 -0.0003648892961868237)
(-0.007466183690957777 -0.03756637375493036 0.03685447163278539)
(-0.0006049312428847125 -0.0002603407777928014 0.0004665215017067302)
(0.03005562784555435 0.002184867493966855 -0.007945919011751672)
(6.521179065925475e-05 -3.395463645456423e-05 0.0002960391138917385)
(-0.03185069377022952 0.004259611117874693 -0.06615120643562344)
(0.1208598227409308 0.2002835992043512 -0.3100983505314957)
(-0.001626748967957583 -0.0001807215793390756 -0.001366879786258267)
(-0.02602406432206897 -0.0003678618179866677 -0.02066451212506069)
(-0.002181971840058792 -0.009763861602394104 0.009435715265050397)
(1.128085338318451 1.117084212839631 -0.6655655303396332)
(0.007623606125702474 0.0007815405727617593 -0.0008015624159496918)
(0.001943882981500043 -0.004131869482651379 0.000273496494902162)
(-0.05470520906423961 0.2754289779789155 -0.3321142517856605)
(-1.516236576151427e-05 -0.0001096303069160961 0.0002313585325559234)
(0.0008219441793410273 0.0009454949767309046 -0.0004036357149453032)
(0.0001382090239542975 -0.0009294240348465023 0.0003811109820787177)
(-1.503134840178799 27.36934100104949 12.20229470651182)
(-0.0003530644677055802 0.0001145920167257245 -0.0001097622330271088)
(-0.001363589488617529 -0.0004929420275405346 0.0003503641128910867)
(0.001658691489442028 -0.00129028840126098 -0.001251616892322733)
(0.03776357592040373 -0.01920962882644952 -0.1134409958649205)
(-7.491666912362838e-05 -1.008228209914111e-05 0.0001596383163864219)
(-0.0006335058653208202 0.000257589711411716 -0.0001953290307376946)
(1.701944614307815e-05 5.290160417876636e-05 -7.37600185074548e-05)
(-0.1138566550657271 -0.03058283725118687 0.1108933545127151)
(-8.450797557176349e-05 -1.768519211812382e-05 -1.428026617953081e-06)
(-0.0002146661163262136 -0.0001162926703085784 3.453966756024837e-05)
(0.001183417727483555 -0.002943201367917732 0.005620496582815332)
(0.1077434914772033 0.1614711277302357 -0.02926730797686534)
(0.0001034960173529088 5.710690713475478e-05 -0.0001696089261025359)
(-5.453573794982849e-05 -2.158310333486179e-05 -0.000116362776879346)
(0.004960276584613874 0.002876894312405774 0.006571341944037392)
(-0.0004591282052274264 -0.000260511996740823 -0.0001942785411232912)
(-0.000452417228815991 0.0003248407918970103 -2.899706264288465e-05)
(-0.0002592933333955291 0.0005514659348007279 -0.000167139326934721)
(0.0002085411228183738 0.0002041996596759096 0.0003557120009259509)
(-0.0002520074630156311 -8.721734118706813e-05 0.0008811780393170525)
(-6.053921201256362e-05 2.709707286250294e-05 -0.0007729376917815467)
(-4.409517419681908e-05 6.72569510040577e-05 -7.006037374019323e-05)
(0.0005770891835840578 6.207146585812852e-05 3.049972297985583e-05)
(-0.0002547534116289483 0.0003048906912749327 -0.0003439919394795806)
(9.147045162982417e-05 -0.0003168938305107402 0.0008780366431928504)
(0.01353208902309208 -0.03746455037786323 0.09836158621308173)
(1.708742225825993e-05 0.0001458922516594117 0.0002526193228197256)
(0.001903548299151608 -0.0004317000946747536 0.002035728042162365)
(0.0003328492869514574 0.0002850859306918438 0.0001795363224609827)
(0.0001024895380615325 -1.618109293351928e-05 -5.276425712033149e-05)
(0.00597156680058343 0.005560314837721961 -0.00151770083499806)
(1.615281668454571 1.08116555253779 0.8853442709922533)
(-0.006688206015727783 -0.0006256930531012382 1.825077777518728e-05)
(0.1773418080029855 0.01223918540810794 -0.01005980491273685)
(-5.99388010829391e-06 -0.0001478322528572852 -6.140770421488008e-05)
(-0.04894234568443813 0.03462443143756992 0.06310941296895631)
(0.0003522545829864547 -9.882068992583812e-05 3.692733919107697e-05)
(0.007195787199585729 -0.002321357173939963 0.0007980875216995026)
(0.003335733423276881 -0.003841031650149861 -4.467787632051043e-05)
(-0.005058439773990757 -0.001441218985550806 -0.001516019381205536)
(0.1460933987087974 0.02078030309016274 -0.00335145548849658)
(-0.002549102068278354 0.006883306909195917 0.0002626060548561935)
(0.005588279033383981 -0.004086829549862696 0.001335065926803982)
(0.0005867033169982195 0.001357368708674326 0.0002353943940632643)
(-0.0001079376913130361 -0.0003158350263175321 0.0002538393451307828)
(4.014508923019526e-05 0.0001040018456984755 -9.297916697938187e-05)
(0.3850957124940156 -0.9062867289257245 -0.3764420318639959)
(-0.001396681044647231 -0.001491895962450158 0.001930833871883446)
(0.004007029916318898 0.0009653469422964051 -0.001006412588929343)
(-0.0001728518340168703 -2.842990278399075e-06 0.0001246413960458314)
(-0.001478444789445875 -0.001295364763662513 -0.0005653806892089558)
(0.004885066400330875 0.00124952075050169 -0.007630486449755837)
(-0.148801166113984 0.1924725314314776 0.03849248867448703)
(7.225105665189662e-05 0.0002411236002616077 -0.0002128931904697843)
(-8.315258781746153e-05 -4.297110344604199e-05 -2.950164071928092e-06)
(0.0002601560699478002 -0.0001162668520554756 -0.0005721333948893345)
(5.624578101619624e-05 3.511971903925546e-05 0.0001528076006757187)
(-0.0001945262815223956 6.279021536108439e-05 1.972660756633385e-05)
(0.0001492340819646902 -0.0001441279326292636 -8.95127917954102e-06)
(1.721410445695536e-05 -9.217612044878745e-05 -0.0001329602794902952)
(-0.0002393011449409437 -0.0002498307366848271 5.203224306784366e-05)
(0.0001443413548233094 -1.604861720142799e-05 -0.0001100751429097936)
(-0.0004634755285059364 -0.0003261771557693209 5.26477993336821e-06)
(-0.002627945178895618 0.002772226244450608 0.0001706499297932918)
(-0.02383610729923005 0.02484854570131645 0.01106497352597791)