/*--------------------------------*- C++ -*----------------------------------*\
| =========                 |                                                 |
| \\      /  F ield         | OpenFOAM: The Open Source CFD Toolbox           |
|  \\    /   O peration     | Version:  v1906                                 |
|   \\  /    A nd           | Web:      www.OpenFOAM.com                      |
|    \\/     M anipulation  |                                                 |
\*---------------------------------------------------------------------------*/
FoamFile
{
    version     2.0;
    format      ascii;
    class       volScalarField;
    location    "2.1";
    object      p;
}
// * * * * * * * * * * * * * * * * * * * * * * * * * * * * * * * * * * * * * //

dimensions      [0 2 -2 0 0 0 0];


internalField   nonuniform List<scalar> 
19631
(
5.834535277393408
68.3761050410384
1.772283977121362
1.495206798141502
2.26530259465467
1.916572624973719
1.978936816069725
7.58901535575416
7.240759541805307
2.493959558412647
3.094467675989829
2.239178155102135
1.278702276802876
2.307482113610322
2.315882867928026
2.14021387497835
1.715080229792226
2.28430993516137
4.146775395290293
13.29456473110581
9.267299544306971
10.25397949600109
4.848746668906149
2.485971954879765
2.214853895094443
2.32753189590307
2.137124084443618
7.159772998503239
2.433838465958342
2.287763784226545
3.497346731103264
1.589723005618009
62.54352883441441
2.265363553749489
1.631879157169837
2.324575904296004
2.06532426758201
3.429264643422474
2.147198044291426
2.435603209593701
2.388642007268892
1.898018072642585
2.005361176454099
2.194187930423441
2.05529956779793
2.233931937557254
1.769747249918907
1.608734518260542
2.071373763893629
2.216554254108939
6.091962830159908
2.12552734568582
2.135047208129856
2.072100054801238
3.025931676308371
2.81764842839394
1.861276266265738
2.096333824627266
1.97692412304849
1.99773722926512
2.127854604169139
1.923665884362923
1.382206258007468
2.154721752856036
0.7701108599518623
2.0416421155536
2.271223663895817
6.433653525484487
1.55714604335221
2.962113777328915
1.352453279900826
2.293843619158321
1.830494776173735
1.631423134659362
1.828189419568256
1.890049062209718
2.999455305710381
1.703214854574576
1.259575126426243
2.06393560852745
1.296092565727982
1.498774336298051
2.827753939159463
1.812525446226374
2.135774083083888
1.866855829528866
2.068279434398509
2.105232081004118
1.978700383386177
1.783083261348448
2.162791042449449
3.505297561000565
1.877035995633581
1.738822995759594
1.814441711921386
2.276898540613629
1.599372943107515
2.21681393339806
2.062443732669948
2.160026623000214
2.354992284062656
1.931604254989143
2.205976861218905
1.26270599158867
1.932886733774198
2.013470257253895
2.159619896479923
2.06592211371952
2.29164462036904
2.446839526821036
1.649983800646625
1.474610727619797
2.306621230964315
2.184863458870773
3.301079399976138
1.61627671600736
1.526960787790682
1.855005984273794
1.758196547139936
4.847695296407159
7.254164024553567
2.500652813107312
2.429568221721681
3.089274745503737
-4.523169265244882
2.300278307599861
3.749479159094629
2.263180222135552
2.277143213125174
2.040466800827507
0.8586291513197516
1.602561178350894
1.612659805200553
1.988452977492359
2.424219978071074
2.134658201920785
2.124410418797439
2.972361789729299
2.452405235187631
2.081603768599201
3.008453643993799
-2.613686068570351
2.274817904609402
1.930274505118878
2.042116650730301
2.12044499579257
2.164070153495557
2.372901265115624
1.602299317006728
1.998759607195637
2.524491877599702
2.178733499858416
2.059527495032691
2.134309742354334
2.567537910057243
2.212460104588459
-0.7032272329289724
1.77514525456631
1.774971529199521
2.215264876951541
4.37356100547088
2.641168164360408
2.073491125767926
5.383557898132903
2.126193499918296
2.255500195659615
2.319833456678479
2.273742759064675
6.757712709825062
1.586067857834394
1.649247753301866
1.035592789700888
0.7503102095639641
23.78717580603448
2.016647521536205
0.5624754563224846
3.138860685744163
1.780835096656917
2.151512635008302
2.143474828386222
1.69661284184165
3.979767764480417
3.178582366491091
2.037642029609354
1.417383291116233
1.564416730775848
0.8319429368002081
2.757953807897153
2.073621506192898
2.331195094744973
1.496290021275082
1.574385490562516
2.567005992517093
2.168634205770008
1.556848240241226
1.658048319433327
2.682940006753836
1.94885454912404
1.04254957285918
2.386888924032908
-177.8327640045491
2.446275372448637
1.76839804825989
1.725461550244968
2.398807796284539
2.782082501742018
3.053929845322548
1.215305303340751
5.78215476266855
2.387473547605971
2.07074649004464
2.599377061356968
1.590760806884628
3.624751622459377
2.388825805794916
1.80133753246342
1.699054482089306
1.550952841738634
6.784305598067726
2.255641852509492
5.273845565226134
1.55805257293495
3.784489735689647
2.581319214034771
9.466951390425272
1.019376169755714
2.176042180210624
1.913677284834298
1.621703864573855
2.098375535105478
2.005206662819057
1.665328665562567
1.261249559208719
1.984204883138616
5.966605575698624
1.869913918610796
2.132815739210774
1.964490396040706
1.649121718187372
1.927647484731669
5.645609350576025
1.749718347919475
9.344315344754893
2.795789269877251
1.562048904898537
1.811841580251274
3.572950608342606
1.833398700650894
1.301542080554957
2.059897361391078
1.704022189054694
2.074564409518339
1.858642569164361
1.627724437518027
1.86508417834165
2.062402293516034
2.115041809417176
1.849701232754708
1.376393579534841
2.175970679633084
2.512607194038861
1.396464286241337
2.020559440041416
2.135176126412642
2.836214204105953
1.955411605519717
2.446693728638765
1.256113863507407
1.238720099219313
1.97582847131117
1.731990745363203
3.017054317504425
1.589404634772445
2.977403014366967
4.040856848409514
1.843672606788775
1.633701827240504
1.51077943208462
2.10288996158075
2.396378794770244
1.302118234824861
1.627743554505432
1.584020762551912
2.058508923364432
1.678916180709003
2.219423409995633
4.201939960355644
1.772605790415192
1.744888469747234
2.719624816573111
3.36974380102935
1.912967356183955
2.322527728766776
2.150437956081838
2.3231428875431
1.204677237517741
1.865655235113985
2.055085915437904
1.465193759161191
1.6999340665746
1.906815503758267
2.983147436555488
2.84598790932422
1.659750953144163
1.949179078570755
2.190996719847226
1.303356460587946
8.501929242196804
9.501690512927182
2.384093537030936
3.27663098985496
1.727481239498482
1.297409158970517
2.047189330698363
2.073831502647132
2.656539174394314
3.735496777435762
3.486942543824767
2.257699294268037
4.000796697637219
1.915480128215487
1.541996433495387
2.374396381360099
3.866557092677562
2.167827951859601
2.000707524481136
3.078089444298471
1.49846993743788
2.255674495763044
2.331337694789106
2.477085489341351
2.041141795940823
2.163732464843688
2.319379361888766
1.07993193858063
2.951081728109296
1.099886314450554
2.362199266146318
3.964597300361714
2.013610844640814
2.200291880828085
1.60321348397919
2.194460365079623
1.748590723037965
1.702945810460586
1.486958752776014
10.94983987321394
2.672753920331646
2.149106613285454
2.283133575859889
2.115579794974854
5.886480902258926
2.597417937007694
1.208626814992298
1.844435951335525
1.701626076923348
1.981328922479315
2.074865820274216
1.585339534586963
1.556915253833194
2.042765313073728
1.589809766578265
2.131540047018593
2.228432463163481
2.770213981706003
2.134526330317818
1.549209572782485
4.233690756959483
2.293660054593517
2.183277647859466
14.90681409726148
18.13425421403018
1.259971874467134
2.351384658485262
2.263348191374464
3.318842388899142
38.67411407899099
2.107458192244361
1.839152107219451
2.159374922425076
1.67709050082443
2.202704326585927
3.050547419136508
2.284826366308039
1.825843162590673
1.299109466220142
12.93040919959094
16.32475988359253
13.0567985550937
1.175532543811604
1.502012344935975
2.288846708066684
1.64995119421741
1.661724944632592
1.978988969386122
2.115515228095526
2.319557937335443
1.471594784820917
6.882274514543524
1.704223832052105
1.8591304982384
2.455324791928273
2.377100810249799
1.285480431176442
2.030627241865335
1.136095077072944
1.508997148379804
1.70915728488364
1.263666926811921
1.514346802155126
1.402664054213173
1.692080829746891
2.26618571710468
1.782857198714708
1.830000660529756
2.165675097530357
2.081589898429919
2.12203353012728
2.150438726108918
1.818751092116774
2.159942395919903
2.527127674414749
2.703357579308046
0.5031914013360484
2.573333546856798
1.935342687722299
2.027922120271515
1.884515054436789
2.063696929400484
2.277872638667572
2.871864157327047
0.6978606141305322
1.263695750301782
2.722366785162914
2.121695206984393
1.452053757581845
3.80445931375975
0.8649834208479328
2.0733207172975
2.202210331484499
3.572582951080923
1.75458921550219
1.214474442144687
1.968473573530178
3.008029301628762
1.66425188055626
3.796844194509632
1.63663107494386
1.392169232416621
2.201783980076541
1.685374979197531
1.308887574176531
1.268472300970361
0.4393249979049827
3.000004235607314
3.325536419583096
2.664089652603717
1.667726673972475
1.934975222716385
5.85272338205758
3.010517760543596
5.714648457108096
25.92117936298142
3.102146660285187
4.475818722473019
2.122996043997027
1.610187601781705
1.609740263359961
5.691409681466965
2.945104766529123
1.90024242085254
2.403597204838511
3.089775642970721
2.255136166806978
1.557338601554646
1.777411877359631
2.652448119271026
1.693492791801978
1.510099274486194
1.357530695248583
2.258873576593782
0.2841725793158808
2.77054859824207
1.398975274451458
1.627627708674364
1.88020673531899
2.588804098341672
1.820080916199629
2.014345284034277
2.624249875430431
0.5110022651159547
1.80556297290223
2.523392323767771
2.864389372336275
1.697917597784227
3.334017385784442
2.309359135684989
2.334695993068855
2.204983312821861
1.676053049925824
2.226996581111884
2.462230123684304
1.947062723589602
2.325611426760994
2.17661682379921
2.804159209181071
2.64407098520038
2.538671268445261
2.277441881252543
3.492742725030411
1.631588450700814
2.769614571208336
2.222633883838984
2.115633357345038
3.517773415338961
3.467985587286928
2.09177985750486
7.510934496879112
1.570421454682266
1.734221292469855
14.30383332378277
1.708257260730687
1.922845624185394
1.928430568728041
2.613172682505386
2.192796040919081
2.144641134085599
2.355453502347292
1.650039689414554
3.335945770749279
4.360276813056643
4.369963841168464
4.004318547897532
3.996670763212007
3.245352555528413
4.583358545967541
1.850783856651101
2.182025737199357
1.783655551003323
2.034965151205781
1.964222470299205
1.969811618502087
1.907710406151857
1.419520933485634
2.106618729528341
1.580270125056503
2.683046382492071
0.8161607301840343
2.091531717661774
2.680951177493178
2.174838941067148
1.982729617653839
1.842752371429746
1.654069422684418
1.554131590122129
5.725711575285389
1.572788083499636
1.976077305991042
2.291981187560077
1.789765664117105
1.813062249582996
2.176005158721221
2.002075590871931
1.259244101618258
2.250229904043177
2.075157020558326
2.20407717405925
2.642122305225239
2.274037604904292
2.089386767881719
1.519932124899154
1.027648277279682
2.013525100647881
2.06560138375233
2.325146530079054
2.597954701981854
1.687679002741685
4.966903718151529
1.585956740253143
2.514359714113239
2.333347245071001
1.288152538263192
2.600282210925764
2.010931352889644
2.280049495688352
2.254931696459132
2.096082699991811
1.938302173137336
2.066714475880046
2.063302159648214
2.298810202301688
2.130209614346092
2.728700132423377
1.373388260235161
1.19534334375441
2.23888011972741
2.233983437097661
1.907128991307474
2.066570078147856
-0.5371934412110386
1.552456806060878
2.220939614108695
1.199357775645458
1.241474319183256
2.83156197688594
1.587513053085834
0.8257479735323126
2.118495708693795
3.164823654970277
2.588849968338884
0.9933389951591848
1.793184822206151
1.7355484078152
2.509680589818696
0.8219638687193273
1.979720855777283
1.88873029244023
2.177598375543939
1.780897094280865
1.712323332176843
1.607834712403335
1.920138803418731
-0.03797803061560646
2.19214678496196
1.055023520927707
2.028829217051201
0.6280338024208856
2.562881125100118
3.068589567719098
2.787929806036078
1.713756360132797
1.351908130178076
3.574664758247835
1.356890194953774
2.034668025972378
1.267619300709778
0.2246388356050052
1.774345508699668
2.202046412356851
2.002060979131295
1.859401605184547
1.217679068399173
1.74188052100266
1.182731570810647
1.655523154072395
-5.877077553647144
2.128688896953701
1.862364336366673
1.793806023428058
1.50567586109454
1.757749495993234
1.823291943751637
1.700564020255326
1.553570025763754
1.913380046643543
1.687009842587731
1.676746365956462
1.846317492792044
1.824656495654743
1.664668459356158
2.45045784107328
3.161471531760877
1.53340877497959
2.271789971056944
1.791530070033692
1.509806677708788
1.503998506438571
1.35874910610025
2.490663925716996
0.6344907970865677
2.027624932804536
1.576999916271939
1.795151825651651
1.697473495544216
2.146145951694988
1.675066188444211
1.774433728829368
2.027603802364567
1.679960894959249
1.636002392615806
1.430895161005722
3.741820576110231
1.803983495526066
1.513127228840529
1.891739059221735
1.521336925206576
2.522455558323565
1.50380606350154
1.577240470845304
1.660772854205448
1.941229839787835
1.985384957617794
1.609298945243361
1.973094258877797
2.069473072663468
1.203880011662794
1.839079362377705
1.732260383043126
1.700651959570319
1.374154904306295
1.912809352653549
2.571440446817142
2.464016307524509
1.137247727556963
1.904447033434654
1.424115285597031
1.923624438253062
0.9511362036249292
1.925750364839292
2.297552833656764
1.470453506559624
2.869278272731498
1.579551598678845
1.921694278754647
1.943612663784017
1.722534972602963
2.470342243638959
1.566419290212401
2.859454002683985
2.219432606085666
2.406531192093062
1.88841646855053
1.999224748959912
2.102448125990986
1.714661440879058
1.795832368101284
1.74341990801999
1.636050254029922
1.840768306052204
2.106060808453401
1.847502620582017
2.520012193623068
1.798674221321799
1.574096595354797
1.931825049233218
1.819978841068202
1.577645754637341
1.799974185743278
1.878632420994079
2.066913655480657
2.658827192939575
1.678036955626146
1.522642320423031
2.022560811746162
1.856914266231968
1.77198575968337
1.83847656242329
1.674130788669824
2.173770069256701
1.244858536843483
2.190260422019099
1.30336426854977
1.441568396346241
2.83684313832857
1.960744687780428
2.139161543753369
1.662383744689211
1.242945008732304
2.038278332347878
2.389837228079421
1.857662827330646
1.187153325189912
1.529082941401014
1.843830338881946
1.570347805857869
1.912384824622804
1.376455021375165
1.752704318179021
1.900088082754762
2.264250814614332
0.6472307270960169
47.37616199828593
3.294969234819665
1.714897539348018
2.447999096883965
2.687680672768926
1.304912832481063
3.555014067349524
1.49386548729148
3.441565865597998
1.580793322327765
1.928794904585442
1.157266156382182
0.7934265954545439
1.210473050390192
2.237637866377647
2.602330369456224
0.9701734851198621
2.113844989973241
1.598119042215663
2.091382778044141
2.185829410207651
4.363562208705424
2.273306130011955
1.237945219176795
0.7281857400739008
1.776152002876261
2.03753153469399
2.331762493661906
2.029508776355783
1.893597616332523
2.720526087588988
1.920086725005979
0.9771074565269658
1.912843774830804
2.005287327328421
1.8383888677263
2.311064186950074
1.742793105862421
1.833591960183667
2.979726640138987
2.147298652206759
2.79379446373948
2.384548772839078
2.071715682842811
1.9712829214043
1.757204344057015
1.992937172967559
2.197127755668725
3.019925949341965
2.032059467453156
2.324153970518329
1.562141967185193
1.672016742623407
1.697583515279265
1.804579981670999
2.14529749653457
2.302893771266834
1.078143702612494
1.41222857297617
1.13579649665707
1.829809575035013
2.336670109982498
1.781424589230083
2.139980114822473
2.673060159613095
2.064748032064127
1.769683388062984
3.008369136249191
2.942817339562999
2.663601088003131
1.892762344958867
1.544844242451914
2.084687700910723
1.94025894303186
2.317049353952203
1.722472859428351
1.801812729134161
2.706305926414672
2.286567478181688
2.366035412712993
1.535643747105597
1.491652241467448
2.439108265889102
1.912193445056159
3.742421418253474
2.002624322619007
2.059650100082553
2.054833499775002
1.931765241089759
1.755266948175351
1.764654869612325
1.644887008497537
2.036407981499684
2.261313227749163
2.594794692868966
1.843864901348589
2.430926062945006
1.527790760164062
2.0132234849505
2.19873545734807
1.900584878271358
1.650246505883988
1.873594587100005
2.097729838075557
2.201238139887672
3.010175306110298
2.210094902360251
1.669170468182531
1.839021273754505
2.224844888175589
2.154888137769274
2.581581272844407
2.022559003967134
11.49696271475825
2.263355518176485
1.599340024752095
2.652046817448945
1.618533745094378
2.350409106742415
1.451784212151037
2.053461651017751
2.085240126512184
1.775040151353722
1.439189510156161
-0.4001230140038035
1.652461138328484
2.140811812266528
1.734233427797759
2.491112610216395
1.572492993670376
2.190896949470772
-0.8819420544465054
2.038246681345753
2.216498088652239
1.661146575012336
1.568235042527001
2.577072286106049
2.162046054539367
2.022485593754558
1.625100321523332
1.460539990626006
2.267826275740487
1.810380787852232
2.037576036656467
2.04186421178844
1.897022045280239
1.775442269042091
2.419084444892991
0.4288809023116069
2.295861485200803
1.784799612213571
2.232544536988806
2.063134136955625
1.753317813287537
1.839570636547798
2.231487167269426
2.015388683038718
2.02609898852662
1.435604028953609
2.417718231298835
2.193378598623381
1.581222761773378
1.738816509019705
2.021520612541857
1.819220933303744
1.762977150382448
2.332254481321772
1.447460191471212
1.76977267089157
2.20663409088264
2.25145742923136
1.870406850452753
1.556894054319876
3.295263620255605
1.850014785548447
1.595889231006949
2.421572215201393
1.690763357131061
1.59132076334891
2.121546140666803
7.499790073332488
3.600463543128267
2.764587082794802
3.512166315310514
2.012004890952491
1.738104966808676
1.297739066924009
0.6713905948504761
3.500864211104621
28.84871922658252
2.495128140196876
1.952532957725304
-2.806461673860594
2.338451135467724
1.92907411441207
3.1930892453706
2.463713154483798
2.642241336202867
1.851617730052706
0.96920939172262
1.715467524159664
1.846902926865918
1.810922279451869
1.023420112929652
2.831203788389606
1.936069091193825
3.597857278377651
2.087234409319672
2.381392419188995
2.480761210534296
2.165400320572177
1.960528279927777
1.576895805079527
2.550591413426076
1.954805072790758
-0.05340734170910203
1.764928521250195
2.156021894215983
3.045594618122452
1.782339842089222
2.188919016941051
2.150696641025462
2.079623210136506
1.759023909074847
1.903411101239622
1.980830910795543
2.29109006950703
2.0179147887813
0.5540337583490659
1.448327752240276
1.665315924221803
2.027539459267551
2.142879353159187
1.919211136392725
2.078776259687001
3.113782800192116
2.585664265460322
1.542390568988424
1.987535314283371
11.5031015705758
3.349467579520191
3.540419807404115
2.44158152528588
1.974434144254385
2.243771257909264
2.440518124388667
2.010058608865741
3.03664551602907
2.119315811146502
2.098593341417081
2.886278686852
3.075069609364913
4.781930835436524
2.422595844471176
2.060653340633972
2.247169366273509
-0.8368107304089327
2.052625934642044
3.411417575199928
3.175564408391319
2.249656141051795
4.335968187518446
2.659323707358153
2.122666147758371
2.541657153140845
3.299980519895451
2.106513098703619
1.767248692156018
1.929244797492639
0.9216696392950511
2.539019339030723
2.463872268438649
2.122689029031128
2.15331031419103
2.250223151959904
2.855850140984473
2.321255793834866
1.484416560097076
1.471584283587117
2.159430277797532
1.83796250773651
1.625373865393011
1.756235252174853
2.557168635667032
3.456499870463004
2.488811062334042
2.351428099825418
1.414046030681898
2.344284824191692
1.926277687122718
2.296487423203699
2.231889618136282
1.358834791957922
1.154939309628205
2.056109331794683
2.007246940577458
3.16887725880163
1.845381100931849
-0.410700893699355
2.12356406019179
0.7655409896918989
1.492183776852799
1.579281797723822
2.373201264000531
1.990946177157781
1.974513251201259
2.170955081980614
2.079344412348148
2.317180543277693
1.189319144480206
1.17945830225112
2.502488777919973
0.7342841619274448
2.22382182395417
1.671303134818251
1.951527167031246
1.685292742835169
2.396733490537849
2.099748895046985
2.175635823676664
2.478544036048606
2.740118657786235
2.161176816516681
2.447463023274192
2.806421788188965
2.029406475846983
2.602203707873106
2.635933671617598
2.517816911489135
2.520712962334035
1.90282029712995
1.889747554406854
1.775403563572435
2.021127401258884
2.595931132095314
1.765992863626368
1.679973456363283
1.852771322512035
2.668660146338479
2.30174872582355
2.228491402603046
-0.6979933331528868
2.797051589895966
1.882140461393884
2.086672648928338
1.88081612785076
1.352099921877586
2.169963591774993
1.504154604864038
2.288948167889441
1.664648727611842
3.417520433984378
-6.524773283309127
1.946869140896878
1.459478765643714
2.379905595130617
2.733881740927612
0.5910947701141878
2.509586551941664
2.20908495051169
2.223952182544094
2.066719856685509
-0.2405437511527062
1.936717720066097
2.949238720345343
2.882612803968675
1.978836703883295
1.887054598959756
1.840581136030186
1.922918874396319
2.266366151591558
0.8761540127527198
2.296184623750169
1.247507383690405
2.584477588835149
1.633861567212666
1.870922752322241
1.686716698151088
1.745717129433566
2.969234261237233
1.979522285012345
19.32094445335324
2.0139424413288
4.679860446284888
3.585228463461304
3.694789495041943
5.545433757220617
1.068075134193893
3.276765115298349
2.961725291745187
1.79584830766549
2.877363220809099
1.863867541353257
2.768895496107246
1.531746103126852
6.876617505608055
2.11336331134762
3.123509513971138
2.068100951805786
3.732435174387563
1.25225876821071
1.308933555300117
2.118961361708223
2.101310828967608
3.011960225125167
1.924327374297198
2.130234546978075
2.687358434574726
2.139859191569152
2.828512533699542
2.170934696978673
2.454864367698019
2.656507550838341
1.783746324786613
2.760598224449976
0.8127305345816808
1.573513654267899
2.355158449696483
2.334740585014906
2.261905811819813
1.424940609602823
1.269982910211216
1.487814523176963
2.161504878723695
2.644518705534851
3.439885077678626
2.926731726922026
2.740829468007079
2.163733951361687
3.002502156072325
2.02108071035068
2.444377848785269
3.735383176502194
2.617192201968648
3.180057017995919
0.8848822188328392
1.32311578231968
3.019683945639034
2.060872716080489
2.225218915190941
1.830585046099725
2.085393306215881
2.628506465698811
1.080410874749066
2.043967034570842
1.333902986554337
1.927736254699806
1.034226090430153
9.18295021968598
1.586347522028808
2.217449043324322
3.721437000898984
2.65490903807618
2.691971054448582
6.644166037781033
2.360044635302623
4.122421726578439
2.138344818558496
2.513101528819143
3.249344719324905
3.141244155572281
1.44278829183116
2.822899487484379
2.324401552366886
2.668083471957789
2.514167367428768
2.406360615839556
1.010318056947495
2.512349912581824
1.502487447278971
1.70139313715982
0.3342430190247573
2.231383574708214
2.181569945379701
1.432308348743469
2.801086866141818
1.482698532839886
2.493679057140346
2.854454683819166
2.966758848049858
1.823410543602026
2.301602989304288
2.585097685952896
2.719013821490756
3.12517180726671
0.9015625685804263
0.2576829530601826
0.9467669153191809
1.364178649654332
2.570172005499705
2.734236345414339
2.207715108354077
1.549822466682327
1.96433680208638
2.180227960361375
2.638013957811852
1.402481751239842
1.932399070661447
2.688368143148944
2.128706545759787
2.533059035954644
3.005831255519635
-0.313902280731453
1.645706518896335
2.667943608203428
1.564875121537257
2.247820218176065
2.073473192087322
1.512346781473519
1.619136541492097
4.571199411076858
2.423119073333367
2.221697803746257
2.249204206108126
3.172118606145192
1.99765349242468
2.376701188356897
2.373311383356562
2.490668369500692
2.263895336595443
1.454443603498076
2.083954081778385
2.065817940708608
1.952024799646285
1.650928249304771
1.221478091824454
2.516770567252142
2.114673683727881
1.300235910965652
1.872618837807162
1.4887303293856
2.609684331388651
2.358821578949693
2.299107221745513
2.33689095035156
2.596441934428599
2.317690297098272
0.9050450149125129
2.274608018764111
3.138197678332828
2.370303126025573
2.830117483859595
2.450640930825148
2.359298526730964
0.8842335396675461
2.676380814230148
1.440578363752276
2.288311838663783
2.241691687141272
1.420285872082633
2.238048469157357
2.876926210966917
1.078798054663015
2.546479254305865
2.3577452587265
2.382330063871099
1.041014597500674
1.147210832616175
3.312829882227166
1.381504315956198
3.730558065507952
2.375665374813769
-0.2164424018330366
1.68552863707856
2.521728883581346
2.247362334086713
2.747637114221781
2.238127122279135
2.331632907096949
3.860352160296747
1.70254527117196
1.934219632949602
1.997818657870397
1.880928430842199
2.156519107205695
2.474326491744792
1.326548534467003
1.108679179201986
0.9998328992278375
1.191818192475816
0.5139713482507499
2.224292770093566
3.008863925769504
1.696144043357569
3.30013703494456
2.160292666368099
2.088653473801064
1.417966807991605
1.117527281471929
1.895532064366043
1.730345326889647
3.819963624140686
6.551605713304911
5.041950527873415
3.141454115257431
-0.5171791447159202
1.917806827387711
3.400538928318501
2.918409933271529
3.405919212398465
0.8849744914344059
1.389617976251512
2.938671407859371
2.792366439747151
-0.4953878861391143
1.569153804687124
1.22443279487352
1.205440695828014
2.419153063559386
2.229009276560793
2.766346415980676
2.446617691890585
2.664458548612724
2.965739038202299
3.398690058198014
1.808384110545275
2.185183328680463
2.994147536995273
2.891230979243374
2.112414453385628
0.85845897070209
1.453016291277936
1.228824717607583
1.982067989542673
2.921843426617242
2.265417102261391
2.33168366831967
2.751098773163459
1.21737760576951
1.435013628075948
1.307391951126226
2.09269439854943
24.2310764625717
1.945806723284631
3.152276892018181
4.678090072671572
2.895961304452725
3.128848265186833
1.519194994661125
1.34385421795231
1.890480253607431
2.24390613319374
0.5772897412584744
2.249603937319958
2.231228568343459
2.807857721475687
1.848674230727862
1.806814491704614
2.568262957467852
2.234766372003778
1.73073501047888
2.168951045478319
1.886016577632921
1.468827213636911
2.167326133714816
2.552344030580308
2.555604276805347
3.213887814395276
1.564189343243469
1.031687024881928
1.881579917954474
2.360333342242367
2.64629002625033
1.621904121143663
1.672902104351415
2.533983135922053
1.913030901760795
0.9840211511089136
1.186996902653489
2.0479665480269
0.5277818953357777
1.830228711855248
3.663940397268381
1.486142612065142
-2.50174265474376
1.357793367508734
0.8580900987918392
1.877307059057309
1.664090540416789
2.797296974783395
2.935960514769437
2.653951275240685
1.922554974795862
1.416892569915086
1.819291990485385
4.015681690145164
1.842048290513999
2.215889389541591
1.535022448029241
1.686580718291934
1.827186108343265
1.663607506419251
1.602358504915591
1.277747632010985
2.209616187490511
2.237256487567618
3.447993055793988
2.578487586831923
1.568938232620019
0.9443303182630313
2.968944827881598
0.9354053219929651
2.53383935491762
2.265007614267993
2.042502263527317
0.879447182320476
2.751824993346511
1.513758614429296
2.309210749166509
2.312059370174278
2.843840708800767
2.883607649078861
2.417379557540241
2.167286725110516
2.934434529948124
2.646622269104089
2.789336432703738
2.842488685583472
2.086565165883213
2.163576630046723
3.238211806587123
2.472113482730425
2.375873640510013
0.6544201746708894
2.623615336079391
2.528670388679737
2.443000538377466
2.489741886676912
1.939589580183397
2.515044530241016
0.8740223522142407
0.1952141348529454
1.126939379855434
1.857258858269758
2.718584289968115
2.396408256004876
2.583531472235639
2.2549994512998
2.272390893441612
1.573733198294482
1.969496171205856
1.428533686277633
1.12178986651451
1.551477481991948
2.426043499593604
1.816344862897674
1.626343622908988
0.4166025890088058
2.418693710745754
2.931659566318914
3.109717424924837
3.375111597158638
7.841536276670476
2.302811126794572
3.39037584486252
2.826647854471961
3.080746398587003
2.707578156162929
2.343292756191687
2.494843355057473
2.770744170472785
2.878603076784023
2.866937899463989
3.103836800147198
2.500471692611486
2.031632853585132
2.677503939169187
3.159412564603117
2.134665872204566
2.647440898043496
2.451110355725679
1.255828913217553
-0.0466662719703229
2.086620049356125
2.347002097637105
2.69665986950517
1.757016344922817
2.53943775511725
1.869046483925063
2.242179945761583
2.605419056038286
2.615450298068759
1.521335833396898
2.558147739520575
2.378281090355805
1.775592714297795
2.389828108900635
2.871222272305265
2.648125420398639
2.255527426432551
2.924124456879486
0.406484908715837
2.404881340813744
2.347135232249165
1.776906218177497
1.344747228557523
1.90316843167583
0.7235788611912604
2.203528743697271
1.583985588172476
1.881191864324046
3.173008900671076
1.780681982584638
4.158174681524574
2.250053929878158
2.337054784593923
2.308168726053681
2.486582851753977
2.444117201372721
-0.1265922477100866
2.520992060296888
1.953277313401309
1.748876098562507
2.098599639777201
2.737030198953701
1.542357693559633
1.285255628250288
2.374377054228239
1.590310464431718
2.23769047712962
2.657156567675421
1.752330611751445
1.967817192757811
2.048577403872134
1.509368168681429
2.288371938856319
2.209985522661957
2.342991203451382
2.23025781786465
1.631801452867253
1.883144623217914
2.160362881538939
2.067732371661465
2.236957176524393
2.207886313020219
1.776688962288779
2.170557021108597
2.015837214882854
6.980005560199002
8.520834185115
24.75971211208224
2.382890814769321
2.00562284108363
1.447441050921706
0.414618192605899
0.660993530554241
2.364231148231861
2.110578546423101
2.381903644844699
2.487547148332164
2.473199574758997
2.804328411252718