/*--------------------------------*- C++ -*----------------------------------*\
| =========                 |                                                 |
| \\      /  F ield         | OpenFOAM: The Open Source CFD Toolbox           |
|  \\    /   O peration     | Version:  v1906                                 |
|   \\  /    A nd           | Web:      www.OpenFOAM.com                      |
|    \\/     M anipulation  |                                                 |
\*---------------------------------------------------------------------------*/
FoamFile
{
    version     2.0;
    format      ascii;
    class       volVectorField;
    location    "2.1";
    object      U;
}
// * * * * * * * * * * * * * * * * * * * * * * * * * * * * * * * * * * * * * //

dimensions      [0 1 -1 0 0 0 0];


internalField   nonuniform List<vector> 
19631
(
(4.939118426328712 0.05264373660248877 -0.01254355879990626)
(18.36708881004023 5.846102213656034 8.798840990241199)
(4.644628773955279 -0.2264962136758681 0.5577683834837751)
(3.519876938996283 -0.1731245033996633 0.05552282302019774)
(4.961629467449475 0.0001099770145392931 0.009739611603389639)
(5.079421365676049 -0.06597069168025065 -0.02252961910312331)
(5.035097907075073 0.02041316006978785 -0.02208153580814554)
(4.535409386256881 0.1937642299628821 -0.4943041454389856)
(4.91838248774915 0.1856169858112001 -0.02561085283988657)
(5.039570906481979 -0.0264135697108924 -0.03936502525723418)
(4.93939219663553 -0.0213143080151121 -0.0590557011854561)
(5.033307999749372 0.06437714840754019 0.04038732575514445)
(1.940530267784425 -0.2010650470591454 -0.1298518707397418)
(5.003549136008709 0.04693699996890614 -0.03805671345128635)
(5.022352913009334 -0.01041079739912327 0.02903014569793518)
(5.027012491158447 -0.01408373364858133 -0.01802805765695828)
(4.833304437092028 -0.02236586955419777 -0.1232804813110643)
(5.026024302449653 -0.00270055882397764 -0.0006674991884079177)
(4.935874690422939 -0.04510978675707844 0.01718787770100979)
(7.406929744026096 2.82101460984075 -0.1307916635326656)
(4.836739636364196 0.04186274378563085 0.1974219828326324)
(5.366026015611162 -0.1019371013135154 0.0317563581571207)
(4.781462662884537 -0.008540751076869765 0.08043464901226619)
(4.719056235530719 -0.01970728013051885 -0.03665111015866269)
(5.045470158683794 0.02252654075413033 -0.007059025543990036)
(5.028049065654277 0.02120496481528538 0.02039099608851879)
(5.064957515379899 -0.006888645489282777 -0.002880206194052326)
(7.214313407238433 1.182705946031845 -0.236143278133059)
(3.920859668494039 -0.2568009350861724 -0.01078036892316686)
(4.989522172542388 -0.02265705190480397 -0.007969182023996362)
(5.018591481404922 -0.00729666134815738 0.02132543926082326)
(4.935945674707143 -0.02480088812135486 0.02900848183606655)
(0.5847412197577408 -4.347963906047 -2.307701854645227)
(5.033596067417636 -0.005254582677615736 0.0004157330412937794)
(4.961426710803195 -0.08006965211476673 0.0005000693543624197)
(5.034889014901839 0.05646017182934809 0.04041204854127053)
(5.004052824709521 -0.09615940321644013 0.02619095471507824)
(4.929726463548333 -0.1500026031226463 0.1197878426073568)
(5.045866562111419 -0.02240127537869115 0.08718350346644296)
(5.03125283703013 -0.155940317091929 -0.1455654221353359)
(4.832123741601312 -0.129430527898645 0.05305044372909488)
(3.825759874052576 -0.1139842784976761 0.2035661985657576)
(5.085400206455112 -0.04032593901691471 0.00210192336275208)
(3.473919631698188 0.08654089002689554 0.02350215885163296)
(4.705342925092418 0.01391500846533051 0.2627511588370534)
(3.172298430014682 0.1808639677705918 -0.02411409706132267)
(4.523468480865657 0.09460035802006896 0.3091906052945101)
(5.057072134186702 0.2681249542172528 -0.6512025841654701)
(5.073295182324195 -0.04150633905426104 0.01876646645068821)
(5.01323619749033 0.02200268445704553 0.07052107629181081)
(4.889945775674124 0.003803355368497608 -0.04239698379072669)
(5.051815919398085 -0.003817053825315127 -0.07656656171633949)
(3.855924044241446 0.03628451437449919 -0.09705781819306644)
(5.023284321364183 -0.1108835137434559 -0.06010537406353147)
(4.969817141076523 -0.086153148699693 0.0571469475235866)
(4.858880942482777 0.06158375678889616 -0.1490294003658112)
(5.098765374755557 -0.08873580609308444 0.04519846752233514)
(5.03273198268023 0.02412603233677599 0.03580741865444054)
(5.00775880025857 0.1351746497087705 -0.06242570806632607)
(3.640250666110103 -0.1931538997777537 0.009959612087768577)
(3.562835518353585 0.09993479465517952 0.6443329230211199)
(5.116366620536557 -0.1414564521387609 0.2830398537292142)
(4.81816746321153 -0.1566221062846711 0.07580814857340003)
(5.089163712356885 -0.07749936080419897 0.0042844765433178)
(4.03248487816913 -0.5448900631249841 -0.638808659596712)
(4.98613328724227 0.1361392580446242 -0.6289714454290245)
(5.041422727256527 0.02294651020108932 -0.01718137877264053)
(4.842971850449737 0.01143141951602883 0.02584033328103735)
(2.999902452407712 -0.3817447396762488 -0.4507005079191267)
(4.985280234826438 0.06520399811794876 -0.04232330028054828)
(3.481948740438047 0.002171819856113827 0.06737387115951116)
(5.108685185156808 -0.06168160442614937 -0.08402626521230681)
(5.11412395526862 -0.04961155212694439 0.003654189434771017)
(4.323341387145097 -0.06397699646520076 0.2004074129189528)
(5.046795232453218 0.05710041745490937 -0.1797670524125147)
(3.599919872199735 0.04701438560074781 0.1443690384513104)
(5.073031640557563 -0.1211641540255963 0.01701981294025665)
(4.695608547039311 0.3738523323623646 0.2669742407061202)
(2.191184835563091 -0.008868453784263826 0.02980583046879539)
(5.080195916242773 0.01474247508017075 -0.01005935460796078)
(1.794058323134391 -0.03112490214969389 -0.04784348579843403)
(4.43919394830598 1.72004430779899 0.05202599360264108)
(4.093842392528023 0.06490407194031408 -0.1535749581800283)
(2.89970790722713 0.3089966892392222 -0.06167535286276314)
(5.09120057575368 -0.08715919024487204 -0.08074441277825671)
(5.128750640299292 -0.07620592328107419 0.06628244383645518)
(5.080858505867237 -0.05634319964502003 -0.003483879258988644)
(3.211287487411072 0.3044824488198601 -0.1532231279215249)
(3.498927185648961 -0.1463768208515832 0.2296510001385055)
(4.354742793611633 -0.3522500178406625 0.4751495224989055)
(4.915596651142653 -0.0175130531459134 -0.1228189325756789)
(4.019494135788228 0.4712784795066419 -0.3444432616384569)
(5.105362806970887 0.570631512538004 -0.529550756963257)
(5.07352759287508 -0.1229255757631721 0.06640308472211538)
(4.978535931521194 -0.1106545568067184 -0.0506893296333176)
(5.091224293541946 -0.08020705463398964 0.02380683232292289)
(3.414897988920494 -0.4298795426211649 0.2191931869826036)
(4.9689961971461 -0.005688758729370703 -0.2405099085232355)
(5.09023272490748 -0.09180754046586094 0.006719360761105644)
(5.064417036618685 -0.06607266031185863 0.05136219583129829)
(5.023607831755841 -0.03023200541207485 0.03359995886480467)
(2.906762067172312 0.03113053685811785 -0.01349533750167897)
(5.032281998266763 -0.002192633176465221 0.01698145413847285)
(1.414732069253018 -0.1459484480303669 -0.06486903743534403)
(4.665784606639471 0.09141529188924713 0.549798535653971)
(4.852406629373966 -0.1336681607209755 -0.01534532710038607)
(5.057624427194656 0.001729282871717829 0.007256421486749549)
(4.0216019472958 -0.04894427304536703 -0.3358532399513283)
(5.029509101377302 -0.02065320884580042 0.02740045607344185)
(4.927976402195156 -0.04500556381264511 -0.01661094103399661)
(4.983246630768249 -0.02196632145979617 -0.01480976890991014)
(4.335303983539911 0.03966323622904172 0.1765689308259756)
(5.016661250326108 -0.009211691865577671 -0.02083184138875134)
(2.382998816813678 -0.08111315467814897 0.1535731442470312)
(2.687853126547528 0.4382962407991482 -0.2454479751080092)
(4.950872011155838 -0.252276327488185 -0.01548621203525082)
(4.632823711046424 -0.08704151290427925 -0.03554341117332015)
(4.978079148971116 -0.0282960019776631 -0.1321707976338423)
(2.513766862982221 -0.1512094970101694 0.2162443971840741)
(4.915276151042505 0.06445696162990402 -0.0004926030600232752)
(5.077301365569206 -0.2861298549500232 0.3067294560172946)
(5.025929864935075 -0.06516592894691377 0.006600126612475615)
(5.025703622970567 -0.01413047693374594 0.0006883149801035958)
(4.861258713564032 -0.1097953869291621 -0.0905433626544376)
(8.727859014953864 1.203633920999047 5.360458240225161)
(5.04134260418242 0.01594362548065515 -0.0129760404661088)
(4.26344391697648 -0.1232620650024104 0.3347403070266024)
(5.024885488945646 0.009544816977572061 0.005788319726788511)
(5.022074708108023 -0.01630507799398611 0.027199487684904)
(5.047696906667493 0.02722974423653573 0.06145405401128794)
(5.252397712390871 -0.6435855297318488 0.8022715753491654)
(3.88151035782825 -0.04678499419407485 -0.03472827022970919)
(3.200731688616401 -0.375957733895263 -0.08514834840040202)
(3.169719419792894 0.2144176730041467 -0.2099480163487753)
(5.033510059809628 0.001290380080384801 -0.03198368270323095)
(5.063234816797416 -0.002368936036727327 -0.001666285209698052)
(5.029567181677437 -0.090301531670121 -0.03378510425763415)
(4.360109916458709 0.0858769739082577 0.1445168092304474)
(4.996609217132087 -0.1369894499733068 -0.06311204818042664)
(5.067704264812937 -0.02010445731098303 0.002454402785585555)
(4.797306410315519 -0.05379381004510439 0.001860522127949503)
(24.37038371740733 14.37390351595776 2.14771892367465)
(5.001784885223848 -0.0301014474744099 -0.2677065993296367)
(5.155451916711447 -0.1013793967651616 -0.0168158280209738)
(5.05356837522046 -0.004901284854660791 0.0791283779568227)
(5.035772206934297 -0.01755588712916178 -0.07478606023996098)
(5.019486218292023 -0.01288791254839267 -0.04455291943650562)
(5.028416450587699 -0.03943207511825825 0.01637203187813785)
(5.121604223962977 -0.2264563227689054 0.06959488670566465)
(4.304181108740736 -0.008970931773798615 0.1540649828134358)
(5.005619474472702 0.01555905539096354 0.001460461227293523)
(5.092521957924186 -0.02426255415662155 0.006722127804742949)
(5.046281595498902 0.01157176523968006 0.05676601500069232)
(5.052724241857653 -0.009882809001953784 0.004553601117491665)
(5.002525977833387 -0.006955071682004578 0.02195379595034407)
(5.031033239056388 0.004518193519400373 -0.02709020607293392)
(3.109124445048517 -0.1111773030847386 -0.1270596755692008)
(5.046607212584234 0.03010164519261518 -0.07868107781221113)
(5.072906509414843 -0.03641855213369442 -0.05749153522071788)
(5.051145850488003 -0.009978827282378958 -0.006143027497997134)
(4.992472400695838 -0.008594566277650872 -0.01960191619178104)
(4.945110348667369 0.1053050663376494 -0.0231264238321865)
(3.237222447133842 -1.995401903711276 0.899140718490677)
(4.846786381566597 -0.2829630213106056 -0.8380002836744848)
(5.03406846810083 -0.005325714674243737 -0.001130905122469077)
(5.028226325440394 0.002740482958464866 0.009369055419007686)
(5.02493722767549 -0.009972418570874865 0.01147927085920067)
(5.02573864873494 -0.001356024269396528 -0.002681985291026734)
(5.241152625454148 -0.1434154502249345 0.1288526960969166)
(4.122115735571512 -0.1537796484144629 0.2493654194240034)
(5.054041582243526 -0.08913159200286662 0.02469733704448743)
(4.821970569369125 -0.1217563766022961 0.05600593097257914)
(5.00774380222756 -0.2048007683774352 -0.2058290472267911)
(5.38102920008248 -0.02428740553794268 -1.412064894176673)
(4.90551613470186 0.08342348657956628 -0.4329555125066531)
(4.494967050612165 1.075674609907501 0.2440506052432312)
(5.001614854503416 -0.07027063976723487 0.06377365239944179)
(3.554684358667824 -0.005545752657616688 -0.07707535426979982)
(5.043739472012562 -0.03872005221393352 -0.0223732917615548)
(4.225637643481235 -0.1483911762468272 0.5558988605214636)
(5.108204183015089 -0.04979764199882059 0.02574645387409065)
(4.972668521259133 -0.04108002989174311 -0.05009035464924947)
(4.746735598955242 -0.0211116255384336 0.07543686609696414)
(5.069271535489434 -0.1279119414288927 0.599356147887824)
(3.447351906827523 -0.2396730000515662 -0.1338878321246398)
(1.953737391420509 -0.07156211731278236 0.0403146777630905)
(4.173153976114652 -0.06242619410415801 -0.1754217137733415)
(4.96280318694666 0.007007479939526965 -0.04676727256720502)
(4.710448877619023 -0.1062013170764757 0.4283193633185745)
(5.025476398027561 -0.0280404081519775 0.01932066824397255)
(2.443683640585596 -0.04323238470507264 -0.03010569053888554)
(5.053488321065307 -0.0246281266373723 -0.01454072288499297)
(4.760950141145728 -0.1435683574634224 0.06322359647846261)
(5.06767295987035 0.06853324471131636 -0.0117361837312814)
(3.531481868680239 0.1795349267651403 -0.08319510580129748)
(5.073218499082548 -0.1313883305797849 -0.1331057217604673)
(4.998864158229751 -0.06582470595696138 0.01702751236639258)
(4.633158635506621 0.0188061099947112 0.1943355077482563)
(2.367704309486133 -0.7038105552166628 -0.07812923800620616)
(5.06385443476501 -0.4325185402999226 0.3862882127938494)
(-7.808280789635003 -0.3877091840170657 13.42031781680819)
(4.966806731931199 0.2150624032268922 0.1779232013785089)
(2.276547611543202 0.1373974892245939 0.296543347185961)
(4.211959763847286 0.07109882022069208 0.1539769464585682)
(4.980515781205494 0.08227472337836332 0.03032204875207152)
(5.00157722886307 -0.01078300500445238 0.009659005762050381)
(4.905046717500334 0.02120903529811691 0.02187235835540071)
(3.546102655075106 0.06989600046144225 -0.006502766338798109)
(5.039024716582768 0.1794450744933178 -0.3808330226024709)
(5.027778293491173 -0.06695804468542096 0.1041467933625315)
(5.064367558680964 -0.03110869823300488 0.03465781222537479)
(4.917086567699346 -0.0561498264390825 0.004818940165081895)
(5.054800472759211 -0.09796911612604534 -0.03346127016464695)
(4.918256502229251 -0.01699557880985599 0.05121107102872673)
(5.093777479090661 -0.1276663189263367 0.0519208513781159)
(4.344543119023802 0.01168015351651256 -0.2439839236266474)
(4.797084353755717 -0.1726898927521521 -0.135191019467151)
(4.835769213089996 -0.1200991885831607 -0.1010504796248603)
(5.225449930596491 0.191489838488753 0.5410950038684935)
(4.890131801393205 -0.1470680367165233 0.1363767690559982)
(5.000457719553494 0.00757227021255798 -0.033981383079005)
(4.915812335939609 0.01663349266772935 -0.0523346364464902)
(5.136037603159634 0.4973749205641996 -0.02790470601787583)
(4.917667179818216 0.1763401360465748 0.2398907726800583)
(4.311102142259927 -0.3565088373947113 0.5813058209961153)
(2.891520617527074 -0.2487547569985737 0.2574785876463487)
(5.064072404697451 -0.07023558696125995 -0.003569558711438483)
(5.084348231483575 -0.02351673603228552 -0.05670788688794037)
(4.546512352126269 -0.02629681443683204 -0.007144022071640065)
(4.640999234372891 -0.05717750990940324 0.005446554901374083)
(4.712738205538601 -0.153899864815133 0.2178844443456194)
(4.793022603466804 -0.1784073084025254 -0.3039701051360619)
(2.490054950475078 0.1280705957074545 -0.2162173681485874)
(1.836385350719183 -0.100676287200744 0.04937496702913045)
(4.864952048971424 0.0003297322240866917 0.0372837699449395)
(5.072790630501074 -0.05894773014866554 0.1409909928114111)
(5.061881179828162 0.05543035977122331 0.2775927851377022)
(5.087393114186574 -0.07182398431463607 -0.01938253468041754)
(4.026144089159879 0.1267120102595568 -0.1072432094685268)
(5.111034886811917 -0.09007669760198624 0.03619961651909392)
(5.027623262093237 -0.02441288774665701 0.05778093174161474)
(5.10664039162965 0.04303177320674852 -0.01278253831191163)
(5.542790460688995 0.426616905117932 -0.7889871356579354)
(4.988031090565995 -0.003303137565342707 -0.00509062252033165)
(2.566744994067146 0.2523511345006416 0.2847871401602113)
(2.389120333790177 -0.07555144792485799 -0.009029929616651588)
(4.975502490926465 -0.06732447162300474 -0.04327329476821219)
(5.126109649281887 -0.06656649651240344 0.005571527903895692)
(4.230838877676334 -0.07082546340259749 0.06136279248450756)
(4.415861311429472 1.217087309174684 1.064822989752241)
(2.394159254019609 -0.006103469982801259 0.0342027801218071)
(2.73240244612226 0.08438861728005201 0.02614349738593211)
(5.142026781102083 -0.1026477135297887 0.2071413823696378)
(4.859102687056151 -0.06804630737682794 0.06594885265615713)
(2.257647332233559 0.1726068966175197 -0.3024233329257165)
(4.750896491984179 -0.2581976523891849 0.3203187338722719)
(5.052544514874814 -0.03025777868547825 0.0879997162821249)
(4.156975268532649 0.1923085301846889 0.04117195146470384)
(5.156874175306325 0.03524227394098896 0.1431282519021155)
(3.938065102257826 0.02354622935108434 -0.1008404447639982)
(3.815474789364514 0.1428634721878599 -0.05471513737590727)
(5.075712686917305 -0.1673002029399582 -0.3507117923253194)
(5.096549089276738 -0.09271870815088987 0.1311921591148082)
(4.940577820003191 -0.6179298711038458 -0.02450250685748302)
(5.287054641784944 0.2747150205002734 0.3401302624073115)
(3.950291705004945 -0.05756943098118886 -0.1057447307973227)
(4.337000281349347 0.08533767774459082 -0.01609632751274044)
(2.788690911017307 -0.01008039108769319 -0.0996574799649088)
(3.654545356278925 0.05383894703924155 -0.03212606331940074)
(5.064856994349318 -0.1626116669574822 -0.0528910354190797)
(3.945961592003227 -0.3639321215337783 0.3238654078972886)
(4.777390649857023 -0.06201823907076897 -0.04610488113977074)
(3.369452959173861 -0.1733967100826957 0.1690420658075478)
(4.732424341572288 0.02495122868375623 0.04158019524653007)
(5.121122693379422 -0.1392695640199747 0.1301821833620635)
(5.126234471504702 -0.01693155024230257 -0.01579464394574677)
(3.639897204708189 -0.1065988639939128 -0.007275162268001395)
(3.09533386752281 -0.443126123693006 0.2032903049655167)
(5.047712617259306 -0.1032415849921478 0.05388281226261124)
(4.971772250264928 0.1562884258112602 -0.05713969971857152)
(4.23351165195665 0.5243807609131671 -0.0182027482133897)
(2.733214123083395 -0.08694425170850818 0.05849551772209564)
(5.073531273080768 -0.0470416797650894 -0.007382064106210673)
(4.976361085074045 0.01565111212906804 -0.02929384905372861)
(4.598309029281825 -0.3102593245987535 -0.1282434803692908)
(4.991583927420178 -0.02048487341477009 0.06773768510726723)
(4.985844692341594 0.0006207826303196224 -0.03052572663321394)
(5.073132282571175 0.003382598779572462 0.05091056803558175)
(4.787598343884483 0.1832654941320852 -0.004436031342460289)
(5.05084651971257 -0.04663585928863261 -0.05464961252582111)
(4.72068387707839 -0.07385406775737362 -0.2304354653371038)
(4.515439873423562 -0.1860535174544275 0.1111829218379738)
(4.993136772368026 0.1556388064233881 0.08356707088413665)
(5.036749635522399 0.009474192427103087 0.01849487643854183)
(5.003093352718081 -0.006114258621562468 -0.001707215323448383)
(5.108472249739745 0.001491497072602804 0.4177325905869104)
(4.635892476684738 -0.1343142158430338 0.2793359720643833)
(3.986912197952662 -0.2151366645479984 0.1002154940501513)
(4.504281540774736 -0.05173485696142441 -0.05107315761439749)
(2.675354573431867 -0.03564413498267713 -0.1944973769865253)
(3.703216125527558 -0.1849699912070105 0.06253927375056471)
(4.883798429240349 0.429776694396514 0.1396082429706907)
(4.904774350698123 0.02720812641443933 -0.005664011617345899)
(4.794050875357803 -0.2170027454714277 -0.07241990764669842)
(4.358750538368525 -0.03811062600608964 -0.01115000456851484)
(5.049327407724078 -0.01608500727836644 0.06196642822044585)
(2.093086584004389 0.02283362301164669 0.3323778018195397)
(4.927603139019713 -0.006058897808863717 -0.07483132855000686)
(4.89638502216422 -0.04229615377626805 -0.1382322684039661)
(5.03463171959919 -0.01532475207266695 -0.01613078591413232)
(5.028446384645511 0.009369848962819305 -0.01166493302214044)
(2.629876218963547 0.1411529310447326 0.2792818705254317)
(4.565943428147528 -0.08573673993222036 0.1725413600983458)
(5.08468393470583 -0.04913189290507494 0.03476024533623009)
(5.044137036376075 0.01611126163789129 0.03006497567049859)
(4.971733561499528 -0.07814740966695358 -0.06416927526128345)
(4.969716737521321 0.006668763022902297 0.003359670555568363)
(4.972908009353442 -0.003126743045755737 -0.01470410903818735)
(3.622254204203134 -0.01119800337108781 -0.04922855826847127)
(4.973088204906897 -0.006581911474189831 0.06215476258449396)
(4.840305922068307 -0.07384950006254624 0.00621849857167448)
(1.19035133773692 -0.1382596602865978 0.01323866116984319)
(4.976845040158135 -0.07131948681813707 -0.1570534767500662)
(4.512639706089377 0.1562757590773854 -0.03216437659558646)
(3.606091654468109 -0.05389403547845667 -0.2542098836968011)
(3.676963882558846 -0.03968247465853496 0.1446994004229488)
(5.005840233479423 -0.3088967673615583 0.06989226910270431)
(4.019444644739943 0.01615555317172989 -0.2011376489043188)
(5.112704520176243 -0.1296523522098014 -0.03916045484605222)
(4.995396755267375 -0.04533311020346929 -0.06470888337115299)
(4.999551720519757 0.01420498865424821 0.1315279787076078)
(4.990973769167822 -0.0354975911758962 -0.05338427085014814)
(5.022900231955268 0.03731997995700891 0.09306096789781652)
(5.007198299797624 0.03917072225882755 0.05637390296558746)
(3.977495445677991 -0.05577641847713993 -0.1108427859767989)
(4.997059495598542 -0.004329745287502695 -0.1007867259415937)
(3.459239844996135 0.06725347332194373 -0.09476203219493629)
(3.859283763999798 -0.001075718667713521 -0.2119796292789693)
(4.87412222040701 0.01473593249279312 -0.06662582464777571)
(5.081896308853683 -0.04250311783008482 0.03192975678902098)
(5.032893594110191 0.008196392280227416 0.04499942861817991)
(4.51774732122016 -0.09745198323192372 -0.1191204060902811)
(5.057337012180879 -0.03346006321763754 -0.01009322989114293)
(2.38446373775348 -0.1557298277424021 0.1048553371949857)
(4.664818204822274 0.06880353765267308 -0.1794068471759028)
(4.175391957065431 -0.2267503268224333 -0.09366494106574424)
(4.871632417596446 -0.01191496554341042 0.2394177406351316)
(4.96467102468373 0.1056728961671835 0.277463507552171)
(5.06624715775177 -0.0456099258582349 0.04512072416742843)
(5.05222840219686 0.2129438393340712 -0.1222806437208433)
(5.049690893140494 0.01647346611391484 -0.04128877901330193)
(4.388674682611118 0.5815218333482677 0.4890500308360443)
(3.05560472784482 0.06283225974964085 0.07641660900554721)
(3.299380930652919 0.0387675487776228 0.112399161953487)
(5.090131043029134 -0.03469799894796067 -0.02516049883351298)
(3.542544991583293 -0.2833227993948617 0.05217111742991214)
(5.059780567843984 -0.001663160083997981 0.08917541592546714)
(4.214570861269009 -0.03114384041683366 0.0854471735243737)
(5.15992820717096 -0.0388526967356605 0.03123333202534585)
(4.76529717472927 0.04057959491406829 0.05868622091563581)
(5.08538137372203 -0.04340634954264008 0.01293312133848398)
(2.616254287412355 -0.4135293512578874 0.3065025210859677)
(4.969504640726276 0.1580060671086052 -0.3304062732320294)
(5.122501841117581 0.3046016195617252 0.2480717606721858)
(4.9246265366734 0.2919633928385536 0.02811418012687994)
(5.061176053228801 -0.01933031151480003 0.04012869097131373)
(2.884487672031871 -0.1183938547414443 -0.02727200972100628)
(4.447101385720565 0.1906260926066434 -0.4309391268549469)
(5.048547713754386 -0.04747842197816014 0.0133596539763244)
(4.535133042107587 0.2371711481415071 0.1265380490404563)
(4.908255916672358 0.5862397734596548 0.3171539928417372)
(4.523679119109363 0.280179902127599 0.3447380783757724)
(5.070512772915425 0.03598318833219363 -0.03997791332882884)
(4.999359617353851 0.06607494825776689 0.1372053760185173)
(5.084587743998958 -0.04189193065480485 0.04938587123321864)
(4.999215406219969 0.003953642913261749 0.007484695252170034)
(5.464442547962076 2.416451197293835 -1.180888581340065)
(5.023454911713917 0.01162095909010355 0.0194257939597437)
(5.065157718202121 -0.02599059671619172 0.03671140591140917)
(5.03598887711514 -0.02443921239174497 -0.003549464341005264)
(3.36060249324357 0.0435695847959254 0.05669253503978398)
(5.021460732502169 0.01747112964375249 0.01347529717594425)
(5.005162071758377 -0.03707751152095979 0.05397173079966355)
(5.002561799915592 -0.03389578872992998 0.02652356248812315)
(4.462985633954412 -0.2284423120715443 0.06440773714504647)
(5.245633970971587 1.198649445824073 0.1822350193427236)
(4.609191758687354 0.03773581859228927 0.03922605064515726)
(4.743013039563422 0.1494296524538284 0.1098611901512916)
(4.761926239696684 0.1659163923991352 0.2311815415834714)
(4.377303504837404 -0.0842110305417528 -0.04556182318305432)
(4.637021682914273 -0.3894114940678964 -0.2772161572228689)
(4.981650220352788 -0.1000022196596066 0.06108928243643077)
(1.977783317395663 -0.1495375179371554 -0.03990539125375531)
(2.158311295853717 -0.3614668917528928 -0.1880824851400023)
(5.055696734693175 -0.03039550554719454 0.0792406224648439)
(5.009489586568773 -0.007584854208083209 -0.001867708292892778)
(4.982430352552748 0.01502624384892008 0.004118586988147733)
(4.555119608693269 0.05238399500390205 -0.01353100689891972)
(4.242147957197858 0.5625186868956779 1.961463772300637)
(5.078599174617566 -0.001109439122407453 0.1982169060341821)
(1.738117340239378 -0.04115484485314736 -0.08808138506733476)
(4.786542279301758 -0.315522258463481 -0.01735413053208217)
(5.144931704022102 -0.2109821006992446 0.1127494798189809)
(2.103407340065618 -0.1709500261409274 0.01771789300172143)
(3.921051908326474 -0.1882706031926749 -0.1505627034072717)
(1.408209944698898 -0.08446163805398349 -0.1731954422544534)
(3.901693067362122 -0.03354152672645955 0.2223453339045081)
(4.704714154239696 -0.154779096172594 0.03536570534002874)
(2.159700329043485 -0.03780427730642757 -0.2710155291482645)
(5.085204155498849 -0.1998284427261858 -0.1285774406209211)
(1.667969407526773 0.02334068296069057 -0.1406326622796089)
(4.336152994861591 -0.2495657553097386 0.1804425196673841)
(5.029668732153345 0.10257232962385 0.03795039249419468)
(5.108048095672928 -0.09328702275710161 0.09579337268318838)
(5.080878412263578 -0.07732324870394074 -0.07222199608896371)
(5.080052567203669 -0.1171671636501686 0.09097807028385926)
(3.93355440559018 -0.02209041860023792 0.370153276889525)
(5.077982135860512 -0.01264903468180996 0.1294318995279479)
(3.49438162364658 -0.7899872756203802 -0.8965499098481832)
(3.919111461912257 -0.08683231791794807 -0.005615486691811796)
(5.133995946182823 0.2026399257747171 0.1107529077090754)
(5.013914107591478 -0.02019377434051337 0.008481463388160523)
(4.888418375983941 0.4384722311719181 0.008972167718067862)
(4.736518955953878 -0.2040558643272987 0.5345412273678177)
(4.97642289170202 0.07325256014071334 0.1382772311746714)
(5.090393890680772 -0.05948828727426154 -0.06476704870754306)
(5.099549203196285 -0.02814676020964359 0.06552897855809869)
(4.743489674082712 0.008043356987189965 -0.187465769553969)
(5.029076019657457 -0.02658129779583883 -0.09746997053674865)
(5.050713743342081 -0.01442647458234674 0.03217451610723152)
(4.940798114008636 -0.06384353238971598 0.1013135917122566)
(3.524100815395468 0.1264782400789721 0.0900100959510904)
(3.621635664569386 -0.005817831632778377 -0.1259068307112364)
(5.012452284357285 0.02454982067226993 -0.02373307487635363)
(4.991620579373235 -0.08993244924840155 -0.2326429166652246)
(2.019614065207473 0.1703548242620882 -0.4110845278955126)
(4.977253311015703 0.004851091838574679 0.03543164862388212)
(2.739687302130202 0.2222748891883443 0.3753845879271729)
(3.415106127142331 0.0587111291652997 0.07445858506704733)
(3.052298482331 -0.1438308749615051 -0.4234709363647365)
(4.993474128239152 0.02111729431090159 0.02454067632069435)
(5.059658572637321 -0.05992302186808236 -0.243454610150253)
(4.611714855864882 -0.03420969772762578 0.1882642076711164)
(5.08196878009907 -0.1189068941159298 0.1616221404396806)
(4.986563942902955 0.0211010508636202 0.001573412175560619)
(2.469240900215679 0.1967478890420449 0.1199962450195611)
(4.932884786141987 0.01867279791246089 0.02603348245015563)
(2.304282149205657 0.2443775540338552 -0.1975772598492182)
(1.98829519712557 0.08016187986251325 -0.1655592402055832)
(5.05606937296778 -0.01294670638565739 0.00677329898200566)
(5.07569828052733 0.02480694077146359 0.07419994645750391)
(4.765751069618314 -0.1777780271135091 -0.05116416082847713)
(2.038979605033417 0.08051823349177246 0.1223997973780495)
(2.645262358026821 -0.139848310267926 -0.08608516940223809)
(4.951335578881112 -0.006497000590755374 0.01138952485226781)
(4.961449712051628 0.001191954966312514 0.005136326379948313)
(5.02170433256132 -0.02888947460760223 0.008448356048848556)
(5.001602378779539 0.0527296199861683 0.03822001004475611)
(5.0444442265783 0.111813578493198 0.08241939639002815)
(5.446787918500805 -0.4481669516443128 0.5337890645436896)
(4.681000398017848 0.01510203413741845 0.1551440215111552)
(4.792695508401873 0.003796164470464837 0.2341177763283602)
(4.433859278642772 0.1370251769569632 1.014546498542387)
(5.0268047461958 -0.04689141633088864 -0.02310237887559386)
(4.953654363604562 0.6607161033275786 -0.3608506080696212)
(5.065248067890927 -0.03255760078136324 -0.01037734508358215)
(4.246545875803118 -0.07704575199974657 -0.06483305635014855)
(4.38408307439067 -0.2278566690521824 0.178900413188077)
(4.86763751365895 -0.03571130367281833 -0.03356700120548272)
(3.427452279122143 0.1301485812731658 0.02242830950205682)
(3.655411794804829 -0.04295845787002218 0.2023531703560849)
(4.892961910806333 -0.03556199712615621 -0.1461570660789238)
(4.996400876779516 -0.0470777001281612 0.0460792002201514)
(5.003016490476307 0.005944628741618337 -0.001772612637892024)
(3.175187319843924 -0.1031609145678732 -0.2269253840450945)
(5.119387594200966 -0.06177665826548746 0.04390954151263973)
(5.069899547546102 -0.08484027259527066 -0.0618283290652155)
(3.794947991586296 -0.2120580067897894 -0.02780510883011153)
(2.89324492888595 0.08842550907645969 -0.08977834853984476)
(4.709505615741389 -0.002312517645233796 -0.07813138874487797)
(4.497531479198785 -0.08102041940311262 -0.008697288479177587)
(4.376716422512176 0.06077615997255646 0.07294542892364034)
(4.989599959422823 -0.00547092485014372 0.03112318609727957)
(4.481833183440281 -0.09243263856523853 0.3659324334698892)