/*--------------------------------*- C++ -*----------------------------------*\
| =========                 |                                                 |
| \\      /  F ield         | OpenFOAM: The Open Source CFD Toolbox           |
|  \\    /   O peration     | Version:  v1906                                 |
|   \\  /    A nd           | Web:      www.OpenFOAM.com                      |
|    \\/     M anipulation  |                                                 |
\*---------------------------------------------------------------------------*/
FoamFile
{
    version     2.0;
    format      ascii;
    class       volVectorField;
    location    "0.9";
    object      U;
}
// * * * * * * * * * * * * * * * * * * * * * * * * * * * * * * * * * * * * * //

dimensions      [0 1 -1 0 0 0 0];


internalField   nonuniform List<vector> 
19632
(
(5.018699980185953 0.005588544995085455 -0.00925431883201526)
(5.000146603563562 -0.005453773321162437 0.0001791764309897874)
(5.000673357911398 -0.0004027013978798049 -0.0003241148161752468)
(5.125541763513024 0.1330425763886094 -0.2396703617286219)
(5.000623679037622 -0.0005348713071994043 -0.003391740962633135)
(5.000698223024322 0.000107155002886053 0.0008214480720777169)
(5.001674143203189 -0.002639863285409304 0.002871372175302732)
(5.000191498947959 0.0005170264796408494 0.0003674093418279124)
(4.99989381921784 -0.002079576039190655 0.01965651823027805)
(5.156000429814922 -0.04143378262313809 0.1650408535923531)
(4.796493365265783 -0.1826965508118746 -0.6189457113120611)
(5.002175216713446 0.001315270313348872 -0.000504158058610664)
(5.000411956079205 -0.0009544950787037991 0.0004225860872064306)
(5.001439239484788 -0.0009344782427616843 0.0001370907207899756)
(5.014138787847084 -0.01458837402807629 0.01776996713296997)
(4.98971739305034 0.0001134858449244917 -0.0009002611906929883)
(5.000152536753161 -0.0009914637932087534 0.0005037074685960283)
(5.004066037569237 -0.000474983393198356 -0.0176895242896924)
(5.000141294077638 -0.000175730572387464 9.816365087724555e-05)
(5.000769329077086 -0.005271315986263074 -0.0002444831073822191)
(5.018819471891885 -0.02823842240206213 -0.005591186298525829)
(5.255396798752899 0.08514188334877702 -0.175708813013804)
(5.001346959219198 0.006808346873172474 -0.01893165077220875)
(5.000895633442584 -0.002923509523217648 -6.887608681449118e-05)
(5.000218262018721 -0.003111300288907241 0.0001172043184999471)
(5.000066462717529 0.0005493281276858141 0.0001743844795279717)
(5.000528755995606 -0.0001702626809424392 -9.646745967501185e-05)
(5.12194686687468 0.03730531840556288 -0.2971667008245141)
(5.007817012654725 -0.00980195215950774 -0.003919174705357302)
(5.000414891861153 -0.001250829545211539 2.745809145569449e-05)
(5.000202568808652 -0.000273333602637833 -1.113282766851919e-05)
(4.99972294493108 -0.004550400513384746 -0.004746663213736933)
(5.072042006190768 -0.0246019104032707 -0.06430893967103653)
(5.248588808447738 -0.03531572674688201 -0.2736340219830317)
(5.002094104779273 -0.0003162949916649473 -0.001761476576889295)
(5.000424637291491 -0.000680652192148095 0.000102378422166626)
(5.000884706878819 0.001935976318849218 -0.001767979215446383)
(5.000474611566045 0.001586782921199593 -8.158809853534295e-05)
(4.999894708555336 -0.0004238611784696153 3.826506380066798e-05)
(5.019077051656658 -0.01107506169363244 0.002020189150421469)
(5.000000139703027 -0.0001234668364581278 0.0006309176483716587)
(5.000733109574663 -0.002621830501735899 0.003081380044822021)
(5.000454875445175 -0.0006439189742858572 0.0009361816417658732)
(5.00065569696643 -0.05454937040788513 -0.009559016443263766)
(4.999097502240945 -0.0004952041518725779 -0.0006178145225608478)
(5.000196168396749 3.84670093003883e-05 -0.0001059945514837549)
(5.000292410027578 -0.0003455319905110843 -0.0001305276721275753)
(5.000487372766544 -0.0003082785915919518 -0.0001104952374608211)
(4.998604784710398 -0.001576137436530386 0.001277751588023735)
(5.001953438813032 -0.00321364259286545 0.001746649355552693)
(5.000336790972862 -0.002046496851949708 -0.003392828517724596)
(5.001933853413061 -0.0146350708336223 0.002099509413181266)
(4.999419424446096 -0.0005415935113085655 0.0001500802797701843)
(5.003400531774793 0.001564393317813589 -0.001385720535102541)
(4.99944906123165 -0.002481518208293237 5.86006781998581e-05)
(4.999458993882789 -0.0164625166707996 -0.0001563302834061701)
(5.001904187463259 -0.001735041502396116 -0.003674869596743759)
(5.001207035683833 -0.006986169883664356 -0.0006646495698375621)
(5.000889208895282 -0.0007271686958285102 0.0004467467440651781)
(5.023823384054998 0.01093402006951488 -0.05676561936230182)
(5.00016565447504 -0.008075618982830723 7.499379324871436e-05)
(5.000155280291056 -0.0003489233970583294 0.000245760859694967)
(5.02993683383338 0.2860131095870829 -0.08634039252529134)
(4.545625540398884 -0.0395424336067435 -0.04642017500388067)
(5.000583009142134 -0.0001309287631045456 -2.284974935204291e-05)
(5.150324869545345 -0.1550127281688051 -0.2630169534704075)
(5.264282596219653 0.08338978287374969 -0.09370862107829067)
(5.000964215779129 -0.003309447197397359 0.0003709600505885084)
(5.000982484270094 -0.0003775162039932791 -0.0005834306578171991)
(5.001682473108239 -0.003056693782598716 0.002095280807558335)
(5.008743740659097 -0.003415448806149112 -0.001165725243230093)
(5.000624045125271 -0.0004135210459347668 -7.54226197305811e-05)
(5.000615052934788 -0.0001262000149476245 -1.555144907291923e-05)
(5.000638869751925 -2.594790506542286e-05 -0.001480448812142442)
(5.000273325215356 -0.0001906221820377556 -0.0001006813894565852)
(5.000029792396378 -0.0004624729736891223 0.0001456213371758374)
(5.000271901858122 -0.0001025796668318186 -9.003200226582935e-05)
(4.789143186621491 0.06115843092200623 -0.006279650465884325)
(5.045110820377083 -0.001321879347118261 -0.02360813737036282)
(5.031134594733358 -0.006195994620420769 0.01690415564652757)
(5.04963941817919 0.03953451188121454 0.0433103073110394)
(4.967810646826578 0.3522280585674555 0.3142534402842354)
(5.001732641744644 -0.0004048354788838413 -2.485737342762773e-05)
(5.000433286690025 -0.0008421523711548201 0.0003740376723489101)
(4.999423711245617 0.0004463519851898263 0.000407467618454996)
(5.001003427018928 -0.0006724427798829667 -0.0008254938754434488)
(5.000820305132272 0.002312478732219033 0.0001224719654222989)
(5.000345056380733 0.001370089352425626 3.168181328734129e-05)
(5.002003155597572 -0.0002267168449567838 -0.001745448006089428)
(5.003577222085302 -5.908792697086792e-05 0.0008972515127973961)
(5.034779184676977 0.008250486507862035 -0.02116308361595808)
(4.999874488391179 -0.006882403047109118 0.0003999995676297804)
(4.998747857310954 -0.003691466713397848 -0.0007333814518062423)
(5.026361998782781 0.007573697811852872 0.02881087843674649)
(5.000506314849561 -0.00540368406480031 -0.0002434438723848845)
(5.004007967548484 -0.0004631058152046395 -0.004141810988438859)
(5.001571091238218 0.0001954684396508028 0.002889505828350775)
(5.000875819698499 -0.000667421753293386 0.0001385293553666759)
(5.000194305518679 0.0001234523508171091 -0.001214983716488831)
(5.00007157497104 -0.006762841398907451 0.001188581672459603)
(4.645438300854555 0.4109722761585962 0.2580103362098466)
(4.999942312561595 -0.0004344662976858495 -0.0002828339209476892)
(5.010574843185489 -0.009281218020113353 -0.004088808281997951)
(5.000274493548734 0.0007657071230086133 -0.0005227989953758067)
(5.031168692778285 0.08144720404854693 0.1801080806900217)
(5.0829497012556 -0.01216381079430174 -0.007986391603045649)
(5.040398391896964 0.05423776648226708 -0.09952100346186234)
(5.026984979766309 -0.02616345682818711 0.006975091745197965)
(4.999908419152412 -0.003079339478186014 0.000604642736302659)
(5.001281001744014 -0.002079324003415658 -0.002722843204701726)
(4.938916621818334 0.2953389501390182 0.3704636619982537)
(4.99857032946005 0.001359565006235999 0.0001396045729902519)
(5.002260863226324 -0.0002661898926289168 -0.001234619327200153)
(5.116935420080862 0.195457767352882 0.1373664963783635)
(5.000287086433073 -0.006807997649424803 0.0002738046873137772)
(5.033051248046108 -0.01568063208550875 -0.0100596052772497)
(5.057992664396923 -0.01357641456743826 -0.7477956350560951)
(5.117170952956309 0.1479498039001796 0.04390873648077714)
(5.000389756266367 -0.001817308854231292 0.0008576087778977307)
(4.999941074010879 0.003257253517429106 -0.0009030197503267143)
(4.999804262524008 -0.00434960257165979 1.201629994261902e-05)
(5.003242184278783 -0.0004524276348238658 -0.0002264258946107827)
(5.00025765920847 -0.000989904142419062 0.0005570930350717737)
(5.000410627824318 -0.0004085052860318833 -6.505318788592576e-05)
(5.239952775097646 -0.1829868228068986 0.0001894973443294332)
(5.050266850079533 -0.01075741420792875 0.001922667288422285)
(5.000530546959862 -5.328066271715096e-05 -0.00034611818622651)
(5.00610304781475 -0.0007761164069246501 7.119037165007744e-05)
(5.001875865639312 -0.0009883140605503749 -5.817384978713939e-05)
(5.000085398503271 0.000464954057224187 0.0003926632772369972)
(5.000222617626143 -0.001093739966681861 0.000291913535983384)
(5.000061323465125 -0.0005992475476202497 0.0003287763283403821)
(5.046583163693707 -0.02910147635469174 -0.001153046275166885)
(5.000413226501365 -3.026790554362643e-05 -8.4158307145411e-05)
(5.008564500926573 -0.001037891527419467 0.000396712910097993)
(5.018178893665353 -0.009757433866964489 0.003197500545794143)
(5.005853389420882 -0.002521291807362433 -0.002262231485946471)
(5.00318816830022 0.002017460263614518 -0.001333520557138138)
(5.000490492974643 -0.0007224983643311091 -0.0001619655578676557)
(5.003052628950504 -0.008320552424209239 -0.004780432777132451)
(4.471200442884925 -0.1588547670295787 0.4172642965859512)
(4.953733698913357 0.8026030954940668 -0.1734223425293857)
(5.275190474053006 0.4955096701147199 -0.1441172042522889)
(4.333134969485138 0.2234785436402865 0.1557544782878187)
(2.933624276080508 -0.7381388489784724 -0.6241561942020137)
(5.000336066007433 -0.0001366647069677738 1.090008078812051e-05)
(4.994809110508639 -0.001141455573592623 -0.001266150029668365)
(5.003395184465552 -0.004827124812477746 0.001393616209686898)
(5.013341052951986 -0.001019929648362946 0.0002947188305266364)
(4.999866136335394 -0.0001051322478142026 -5.873302403224835e-05)
(5.001775339313685 -0.00141991131131682 0.001407972777666877)
(5.001741306216306 -0.001770686916024601 0.002190519097763478)
(5.001794931320106 -0.001009380470980488 0.001403514377526939)
(5.000563479607839 -0.002275839198822783 -0.0004705142263946193)
(4.963509365256606 -0.005654770306166081 0.00372700387276833)
(5.001982841185526 -0.001434709794949661 0.001767496381840155)
(5.000377719139239 -0.0001457989831893971 -0.0002102130531993591)
(5.000585955991498 -0.003848841799257463 0.0003862725143539234)
(5.002678916118129 -0.005329672229931028 -0.0002558855918193862)
(5.092467832098258 0.04042885927671296 -0.6463088606902035)
(5.092102202438479 0.2228569408259791 0.3179766095234521)
(5.090530425425851 0.2324664261169332 0.1077075473842178)
(4.659157270737299 1.378414685829447 0.2381956351288104)
(5.264928187354574 0.198499375575364 -0.06963421837672314)
(5.001291775410678 -0.0005249701425637785 0.003067150943705849)
(5.000819448765402 -0.0009407504214291805 0.001092265011918633)
(4.999733699345668 -0.001127479738835675 -0.0007348267618901616)
(5.003949297292029 0.005343861379961405 -0.000485647051733821)
(5.160879065297578 0.2983275478043423 -0.1915122863965784)
(5.002452995847577 0.000135049004000737 -0.00143601275348103)
(4.999707778894663 -0.0005622891216143638 -0.002809309683483512)
(5.010254475834953 -0.003538120988885136 -0.003738074006849593)
(5.001524966289578 0.002346836132916744 0.001360527742613045)
(5.000181507890674 -0.000725444023157438 -3.874612194309263e-05)
(4.999829976145319 -8.19954521130258e-05 -0.0002469961221379213)
(4.944074394386768 -0.01127888134705743 -0.001265481395430064)
(5.000765103933913 -0.0001012978511970634 -0.0001199969430438077)
(5.011468300878661 -0.0004685702107434933 -0.0003854770096764894)
(5.000735333718932 -0.0001684775286494588 1.989412798792531e-05)
(5.00051197621515 -0.0004115973146073039 -0.0002244372263297978)
(4.99993728178491 -0.0001140250964345179 0.0002823428114521896)
(5.000574797396051 -0.0001917594363718249 -7.816560691065644e-05)
(5.000575566575 -0.0003498053648431171 -0.0001437878832024083)
(5.000309206702438 -0.0002892546172556992 -0.00194393562026385)
(5.000649473252501 -0.003827587714318074 -5.937545315673434e-05)
(5.000306646274223 -0.0002526539393206437 -0.0001741763656111697)
(4.997035784170003 -0.001678359049914085 0.0001292927521432413)
(5.000298213880273 -0.0004170425461204053 -0.0006104661547010816)
(4.99981850061863 -0.0004171853219969215 6.984661629934436e-05)
(5.000639834294325 -0.0001458453197030213 -8.258438029484004e-07)
(4.999682249519735 -0.0001429536442257802 -0.0003222243153289713)
(5.014384214805616 -0.002390976075211354 -0.0009978700384315011)
(5.027090376302256 -0.03245311059538614 0.007564829457025095)
(5.00143615629448 -0.001730248021377168 0.02631717902698478)
(5.000436059138005 0.0009768582040560084 0.0003067725721777359)
(5.000840596474569 -0.0003304117416973709 -8.726150812456109e-05)
(5.007483949155866 0.0002230598420897869 -0.000363151082793092)
(4.975078314390492 -0.1143683091803773 0.09731463977538105)
(5.001759476464228 -0.0007983316568167175 0.0004392769876743347)
(5.00017611167802 -5.610025188379398e-05 -0.01016104244872846)
(5.000538130738076 -0.009078530975689917 0.0005116442719155421)
(5.009474752914614 0.0003028655463233222 0.0002833322952046108)
(5.000227331219583 -0.0005263520784283933 0.0001704595224769623)
(5.000921177469146 -0.0002825523487338221 -0.001508385085956002)
(5.000670517691033 -0.002714158169364735 -0.001503023298267012)
(5.001919292452512 -0.003585848665929101 0.01686512509880614)
(5.000032535754751 -0.0004758723369356218 0.0003494583003415275)
(5.001460352593185 -0.002106175615715886 -0.002180918325380329)
(4.999926551287269 -0.0003165883763044187 0.0001073210250544401)
(5.000572089409846 -0.0004109148919626366 8.902250021924918e-05)
(4.996788807430948 -0.006776518934577131 -0.001775881238782781)
(5.000569819972968 -6.412154984366442e-05 -2.457140708431077e-05)
(5.000130657051735 -0.0002635105516834135 -0.0001109103235251145)
(5.002597358287895 0.0005779706501362698 -0.002814986259208347)
(5.000303000393744 0.0007480316178982791 0.008884984422226509)
(4.999071498204144 -9.671662991452191e-05 0.001199324376762277)
(5.003509953405731 -0.002805889654579081 -0.002924047901766052)
(4.999849310786726 0.004180160021478441 0.0003145370218029129)
(4.999896832228094 -0.0001913977325921582 3.703895340407651e-05)
(5.000806448581332 -0.004509481456247339 -0.002991650667650565)
(4.997237654384374 0.003575207986139278 -0.003171415584632041)
(4.999400799567292 0.001343976158877516 -0.0001974611573676955)
(5.000283559134018 -0.0007314462338679697 0.0003821815727536792)
(5.000257658451719 -0.0002298090598217404 -6.612039613143004e-05)
(4.986866778164881 -0.0019566347358724 -0.002309909133415852)
(4.999437100811976 0.001483221794674954 0.0002413967648553193)
(5.000492681345126 -0.00165721816063666 -0.001073964544379193)
(4.999178660446994 -0.0014980487274717 -0.0005648478570111521)
(5.002092936797808 -0.001152879366204276 -0.0007660948851169003)
(5.001496095506273 -0.00058430639685048 0.0001808417948004926)
(4.999407219764946 -0.001416909566748381 -0.0001495496129939825)
(5.001850443861684 -0.0003670959699767226 -0.0002065440082143809)
(4.999584500805459 -0.0002667286642860954 -0.0003969024296623178)
(5.001550739205112 -0.0002537590880445652 -7.5229277837466e-05)
(4.999266019698799 -0.005658884520703447 0.002442377314847778)
(4.999039630999786 -0.0004977694236444988 0.0004547938231306737)
(5.000272446088779 -0.0005554413567050703 -8.469817999406549e-05)
(4.974682554855661 -0.004501169085447556 0.003808804874040341)
(5.014367654019455 -0.004983299416460509 0.002136105340663025)
(5.000499459862747 -0.0005722433451280102 -0.001965402396428472)
(5.000358765244506 -0.000118582114462315 0.0007532313258526537)
(4.973383737461081 -0.02274027796579621 0.005383067336266882)
(5.016891013879438 -0.01295804561495619 -0.01048388407063752)
(5.000434884577875 3.202788308252573e-05 0.0004614745090998476)
(5.000763858348515 -0.0006304585060851857 -2.143334201192997e-05)
(5.000216517359914 -0.001460200944419686 0.002500171888653628)
(5.000558999823583 -0.007330976290635718 -0.0003643890960132335)
(5.020813031586838 -0.005445591492847438 0.001930333020061278)
(5.000334296401371 -8.885264101546431e-05 -0.0001736930069258293)
(4.999794429162465 -0.0005010233340990805 -8.309783900255326e-05)
(5.000494218806399 -0.0001140925417513208 -3.84755078170722e-05)
(5.000118022712964 -0.0004186358052481801 -3.162114820273246e-05)
(4.999495189282041 -0.0005223289606769373 -0.000695898561639301)
(5.009391802645583 -0.004433472335834884 -0.0009060555814063738)
(4.999928935856529 -0.004112613003530668 0.0001517747604197953)
(4.982131597718294 -0.006965663109223333 0.001965623533544136)
(5.000120742367734 -0.001140434155419709 0.0001129726099055025)
(5.012968621472042 0.02857531097245915 0.01903875440369274)
(5.029489373472662 -0.01164986970508612 0.003694692355020967)
(4.998881496251919 -0.002241323152903115 0.0004509254003070603)
(4.990307729938835 -0.007373233043808773 -0.003958001983691645)
(5.001138567490732 -0.002978701256038459 -0.002058605703580178)
(5.001056940906057 -0.0005664867896176613 3.227709009377203e-05)
(5.001012105205391 -0.000549119306979693 0.000154280157009113)
(4.999437176659119 -0.0009362497725105701 0.0207286125026168)
(5.000957496388115 -0.0004564401579320831 5.429506015291598e-05)
(5.00103988054938 -0.0006312339137504262 9.064765301156994e-05)
(5.000939232628558 -0.0008074384852889972 -0.001040472166611953)
(5.00076123931655 -0.0005809365053212295 0.0001663154277161)
(5.000134207959139 -0.0002627283202069668 -3.724007694822393e-05)
(5.00120599165477 -0.0004071953486747061 8.725066872496826e-05)
(5.000118087095268 6.949716604538693e-05 0.000369137791696512)
(4.999722635624017 -0.001003168640668707 -0.003330435905469031)
(5.000301604041376 3.666609359811429e-05 -0.0001735400707427426)
(5.001147423617043 -0.0008673821573779262 -0.001381478860226291)
(4.99943628630076 -0.001316076821817437 0.0004986390314015783)
(5.003435482388361 -0.004041030762603979 -0.002412389191675974)
(5.003118716808138 0.001614437792959826 -0.002727088863910724)
(5.000394470698261 -0.0002539204328511571 -8.464127877165071e-05)
(5.001806462906177 -0.001018638043062074 -0.002549210041525349)
(5.000632654755555 0.0009215631019479381 0.0007678737599132873)
(5.001492416413242 0.001132281430948301 -0.003588741809156559)
(5.000551719686238 -0.002596328529615541 0.001443520475497779)
(5.000690736776986 -0.000795141565624381 -0.0001452886734621927)
(4.605638255523012 0.825755352818943 0.9782148922235565)
(5.002521172905047 -0.001381159822850415 -0.01144568118946955)
(5.001084956965502 -0.003344424043974114 -0.002323830379330177)
(5.000463282040172 -0.005129896679607282 0.03274568665889906)
(5.002084526391977 -2.561705452764699e-06 0.00345117993426276)
(5.000417910430234 -0.003793004003363638 0.0008172872761625042)
(5.00083302533436 -0.000349394516096507 -8.474017227937145e-05)
(5.000553362151647 -0.0004723057197406651 0.002138702283396058)
(5.000224817612338 -0.0002465699343947714 0.0002418655267860953)
(4.999639795932716 -0.0003999313894973734 0.000138699381208916)
(5.0004042661624 -0.0005633203867885194 -0.001944920701732037)
(5.000288244565293 -0.0001830469326667028 0.004501620120925927)
(5.000097182627254 -0.0009329457316678199 0.0009165578102198569)
(4.981705433611412 -0.004175585772555623 -0.001143406380438843)
(4.999780447237739 -0.0008397910899288768 0.0002090212235899169)
(4.999301619920309 -0.0007146799968127792 -4.147046490895482e-05)
(5.024103589438416 -0.03528259308497815 0.002101618331835866)
(5.000755839234305 -0.0009729401715998149 0.0005881353062019411)
(4.999794778071085 -0.0009649549781236272 0.0003889215950665452)
(5.000270306096977 -0.0003223957409059253 -3.855694933870627e-05)
(5.070687120129245 0.3286214950371579 -0.3383772806485059)
(5.00105445126724 -0.002927612120553542 0.002964393513916382)
(5.000712856710081 -0.0005022218840265752 -0.0003733586119049928)
(5.000432806619328 0.0001105263105984763 1.837237074073792e-05)
(4.9998709675471 -0.0002052629792978358 -7.168393290996523e-05)
(5.000454400220426 -0.0001061935495040227 -9.71183701713485e-05)
(4.359594336261726 -0.07191287895663569 -0.2485213852990507)
(4.013195107092567 0.1485082095849835 -0.2486057621830663)
(4.434703081625273 -2.153016988930131 0.4617926128383336)
(4.997934301009999 -0.007760862545029321 -0.004133745496965656)
(5.121210400979145 0.06282206730601836 0.1746315419425059)
(4.122901429489549 -0.2299343720690812 -0.1328693805297929)
(4.066173112201452 0.0714111967584881 -0.3586070233671023)
(5.000058729185225 -0.0002348451823406589 0.0002631143532757261)
(5.275706340942945 -0.01173802485988811 0.7782440553113916)
(4.899393772774185 0.06871079876442732 0.5037315276426294)
(5.000242551206279 0.003934049920180437 0.0008963427061157817)
(5.000265532695192 0.0005597818662186884 0.001402844081447903)
(4.910875900599684 0.01340946605430439 -0.06089115120854652)
(3.313048385669232 0.6877494676844449 -0.7048307610185368)
(5.000315364993423 -0.0005549684483681175 9.941529621315461e-05)
(5.00141260629641 -0.00657993850976259 -0.0007742603709086477)
(5.000616315178577 0.0006960728910443739 0.002742735883075271)
(4.759763878808588 0.918621409623308 -0.4099940928685323)
(4.872168788983251 0.8412421684726881 -0.04151859378657446)
(4.970128895250075 -0.00674766078538827 -0.001227157088644881)
(5.001499520889694 0.000105230202635561 -0.0001033228776106543)
(5.000192962569096 -0.0001243283290721843 -0.0001229078462130424)
(4.999979889749578 -0.0007041537184551837 -0.000357773041362159)
(4.99956349672355 -0.004563088339297909 -0.005637651232952083)
(5.000806102461404 -0.0005987357834480524 -0.004191838325178526)
(5.001659248428756 -0.001023698496902293 0.001847163751250317)
(4.998482645114626 -0.002046275537887768 0.001547269895106918)
(5.213935445534355 0.1948248464630603 -0.4604013247874217)
(4.984437507966953 -0.001951877991986429 4.588016154121966e-05)
(3.90403113456244 0.9468649684424649 -0.7292733836782118)
(5.000384774455934 -0.001780563403755432 0.0008684555199097952)
(3.014697857668749 0.715888245107587 0.287666411976732)
(4.145887843671814 0.3323475451444886 0.1287289441743278)
(5.005338815931314 -0.002336868506452093 -0.0009345323910704799)
(4.416889585902831 0.2045034202749978 -0.1178620261118665)
(5.004233210709311 -0.001917280728268175 0.0004078783403661375)
(4.880537607454005 -0.0002763022608039243 -0.02477528160773333)
(5.001850183270322 -0.008855509260910761 0.005175513684285726)
(5.028289551723859 0.0004068285014246717 -0.002125488385510911)
(3.576277257588107 0.1603262217754332 0.03848308620963901)
(5.000505486208858 -0.00288377437984659 2.284130781305015e-05)
(5.000146950473901 -0.0008275240242984238 0.0002210546375827559)
(5.003903576435349 -0.001213657527283574 -0.009996812743326621)
(4.182978896345265 -0.4351415249781895 0.08021070965067129)
(4.999047992182667 -0.002894261326624654 -0.0002064678526227723)
(5.000308747837237 1.974648580191822e-05 0.000140297371849485)
(5.000312041796118 -0.0004706018367343981 0.0002748229055046521)
(5.000206681602424 -0.001381499522584613 -4.766244297287103e-05)
(5.001215642317027 -0.0003109324496885738 -7.142077910975227e-06)
(5.000158812749755 -0.00317751234529999 0.01137861385752251)
(5.043379149346195 0.05381737625999517 0.01267318796072291)
(5.000186532301237 5.232025355114206e-05 0.000214012171171325)
(5.021874114288483 -0.01992678200754381 0.0125618787023102)
(5.002014772104214 -0.001503522134010151 -0.0007797446783003995)
(5.015763463999408 0.003566777336900739 0.001362576388626001)
(4.870465281477723 0.007353370906511496 -0.003534706263413646)
(5.000582652494687 -0.001080173127068848 0.00034193531009597)
(5.019964484066835 -0.01177983913837937 -7.482646543875964e-05)
(4.999721586639804 0.000254334099526592 -0.001310027486950759)
(5.01781935916506 -0.007673467404796007 0.001210176935908558)
(5.013844112770428 -0.01325005225832569 0.003203181572459216)
(5.00030920420967 -0.001580843335470768 0.009452960320881679)
(4.922684869484297 -0.003058156608252184 -0.0001468538258628817)
(5.000811874003264 -0.001548649402570514 0.0004722372395529814)
(5.000733538562675 -0.001961249370845148 0.0005832596345693954)
(5.006065439693725 -0.001711813853894903 -0.0005248532574792944)
(3.977942545866985 -0.01780015419142264 0.2025304107180672)
(5.000316210087083 -0.0001439682201107114 -4.978610764519933e-05)
(5.000295029919601 -5.504722013483777e-06 7.870949732072977e-05)
(5.000655682136941 -0.001755031967073347 0.0007322300716895888)
(5.00711451062588 0.05721159742950067 -0.05375388774150707)
(5.000629301739765 -0.00056627293155647 0.0001731530140584334)
(5.000871679045372 -0.001794459812693731 -0.0008638475417543937)
(5.000293788916006 -0.0002792510860511223 1.001879966162977e-05)
(5.02617256544225 -0.02340902904247913 -0.002442642148078314)
(5.000618555444299 -0.0006348254950089781 2.371806017130405e-05)
(5.000241250468094 -0.0003987196107713313 0.0002537799781989422)
(5.00057282041626 -0.001531041179281354 0.001384044108341389)
(5.03443201284063 -0.01101217769543014 -0.01723858297351495)
(5.0006300954084 -0.0005907570422958795 -1.15496995795535e-05)
(5.000710351967096 -0.0005688858352700852 -2.025231537752218e-06)
(5.001089890459599 -0.002489684620568676 -0.0001933233156224654)
(5.00091997089332 -0.00214946482620066 0.0002776496343282106)
(4.999954591780356 -0.0004712203719356447 0.0003076407732151128)
(5.000570473316237 -0.001331137607529252 0.0003371071813076613)
(5.000771300177606 -0.001327011661028741 0.0003235158240377077)
(5.000709990873674 -0.001240862614195918 0.000354699700330474)
(5.000562670644216 -0.001511658759482206 0.0002089821917644658)
(5.000254944818668 -6.495563006572211e-05 -4.220852864505906e-05)
(5.000108846461637 -0.0008280550036177562 0.0002493371379082291)
(5.001099525933373 -0.001645072588396932 -0.001037613273146086)
(5.000979633565063 -0.001711370704899315 -0.0002409252313053225)
(4.988854052531488 0.002340893075328098 0.001229957991510672)
(5.001011535143208 -0.001238489558654268 -0.001507279914590366)
(5.007903866703642 -0.001242847434015231 -0.0005584957048982301)
(5.002581170455278 0.0005215124566218406 -0.0004989914031384051)
(5.00065795688065 -0.0003064000748354113 -0.0001002746086742983)
(4.999505345036567 -0.0009446672354061215 -0.009987479923555942)
(4.682041690557979 -0.02276197955428641 0.07312776744577587)
(5.00051789198577 -6.883311969473463e-05 0.005740922623471932)
(5.026083183244788 0.001925946985951045 -0.006429233664757771)
(5.000600993629355 -0.0007757510554076223 -0.000305520452383517)
(5.053336632825634 -0.0271350520865822 0.0317520691687906)
(5.000735522994974 -0.0009024337688999381 -0.0003372343812114813)
(4.998960876759904 -0.003474948459383253 0.005660815655387136)
(5.000285702924145 -0.001880635309155162 -9.036127588554067e-05)
(5.000747065942319 -0.001970571121088691 -0.0006416910386800814)
(5.001221023127437 0.05992939371978984 -0.03389762125716278)
(5.000709815917125 -0.002225193289808626 -0.0002675965825979523)
(5.000120381660708 0.0001207257025234488 0.001641684616256101)
(5.000854063597457 -0.001952714832077767 -0.0005466293080749705)
(5.000701954484791 -0.0008871417275000007 0.0005890024214870534)
(5.000390404677841 -0.000258864709232641 -0.0002780027924285668)
(4.999613113506173 -0.0001897292394190216 -0.0007951502177083463)
(5.000043805647821 -0.0009546701574121128 0.000694425243538107)
(5.000279038598956 0.000332445012819207 -0.0006351544903209436)
(5.000264154076275 -0.0006388688550783451 0.0001283312258572203)
(4.999804279192937 -0.0004659651788403921 1.449050597983276e-05)
(4.998721249573499 0.001180169255858408 -0.0003265437212754939)
(5.063505061387261 -0.007007162141325773 0.06084625300053757)
(5.000330883338072 -0.0006017647107589791 6.591109158489757e-05)
(5.000278182158786 -0.0005910813573245774 0.0001635498056135386)
(5.000300876600758 -0.0008773564022723647 0.0003791924789552167)
(5.000268107644271 -0.0007067157781141585 0.0002153121815592096)
(5.00054152440025 -0.0004811292009115016 -0.0001634292421412436)
(5.000575385913394 -0.0005708420076650017 -6.068827177642364e-05)
(5.000244802668503 -0.0007318797902658622 0.0001153276910843854)
(5.000435910919059 -0.0008516422323178388 0.0004362382590956582)
(5.000498001883426 -0.0009328849005670204 0.0005574368091503277)
(5.000394454027713 -0.0009197667635440491 0.0004379681281644563)
(4.999758403883003 -0.0002274297662551946 -0.00524154558198042)
(5.003278637180768 0.002774375076764439 -0.006336344368815384)
(5.000439183347226 -0.0007323408804273963 -0.0004903030246597778)
(4.997898269328539 -0.001174906547016842 0.003865687148066538)
(5.001996124602237 -0.001171333945717734 -0.001367761660413375)
(5.000106349652505 -0.0008388145277393457 0.0001965613656275152)
(5.000345793129219 -0.0003339901572187329 -0.0002669686651010135)
(5.000612732638166 -0.001086657137436628 0.0009077880259901571)
(5.000725040281821 -0.0009157405103153912 0.0003218398461345196)
(5.000704840310615 -0.001035544441406386 0.0005249430428219841)
(5.000515259224698 -0.001273628906357433 0.001027656129525584)
(5.000396626767423 -0.001090553692712433 0.0005386538181501852)
(5.000570542336204 -0.0003482433132846333 -0.0001202022274180038)
(5.000632526781275 -0.001356386424573311 0.0003585929819171878)
(5.000857084283493 -0.0007770393024431322 0.0004536452880637095)
(5.002138017077272 -0.003246675992064126 -0.0006970128586295516)
(5.000296373289665 -0.0002215412243098969 -0.0001424424237839181)
(5.001157793966155 0.0002380708489112994 -0.0004984312727141766)
(5.001457480010449 0.001056415931462526 -0.0001970070109685093)