/*--------------------------------*- C++ -*----------------------------------*\
| =========                 |                                                 |
| \\      /  F ield         | OpenFOAM: The Open Source CFD Toolbox           |
|  \\    /   O peration     | Version:  v1906                                 |
|   \\  /    A nd           | Web:      www.OpenFOAM.com                      |
|    \\/     M anipulation  |                                                 |
\*---------------------------------------------------------------------------*/
FoamFile
{
    version     2.0;
    format      ascii;
    class       surfaceScalarField;
    location    "0.1";
    object      phi;
}
// * * * * * * * * * * * * * * * * * * * * * * * * * * * * * * * * * * * * * //

dimensions      [0 3 -1 0 0 0 0];
oriented        oriented;


internalField   nonuniform List<scalar> 
37503
(
-7.32173236924493
-11.02482099265296
26.12572755101628
-7.779174189065402
-10.52018094439725
4.552393960451738
16.44116028910567
0.04151710950427249
-0.6465055331287113
0.8672091575319583
-0.2622207339091127
-0.123568243825782
0.1467643691852487
0.01072550513304703
-0.03392163049615709
12.38736358336613
7.176760930876311
0.6047110327058005
-0.02101436741915834
-0.08932764811406953
-0.4943690171779036
0.08598223846340208
-1.6060120554488
1.571069147787432
-0.0510393308177795
-0.3923772025350268
14.40717459977431
-14.01479739722774
-7.677607946663723
-5.80061277905015
-7.836196526259318
21.31441725201312
1.779229968838899
-3.118560931274264
1.489102312137734
-0.1497713497159263
1.471556410645026
0.1912982630546262
0.420710217790516
-2.083564891481882
1.704973207196063
2.108443676742373
-2.698745066202319
-1.114671817708645
-0.02996782680283939
-0.01081297513303613
-0.04886434221771835
0.08964514414906734
1.105394420670879
-3.567713708424544
-1.015043368667037
3.477362656470671
-0.8902292989441039
1.954146080718453
-2.761399978632104
1.697483196888284
4.261653659840307
10.58587417802316
4.497176022384284
-0.01371173847225754
-0.1626304160033539
0.140929258898344
0.0354128955679025
2.081982858234773
-4.632243345383374
-1.984248040562036
4.534508527754768
-0.4879354500589202
-1.272771088496919
-16.55399140056099
13.04798738746771
17.96732726137323
-6.669835449662924
14.1654509313328
-8.093010496255513
6.994471728117761
-8.280887814679742
9.379426582835663
19.96689895928613
-25.73285521769512
12.05370028816529
-0.04720234756383172
0.4720394633986789
0.01667730334307086
-0.441514419182368
-0.4470745454236136
-2.172771910957779
3.725240877080909
1.38714229762847
-2.658901850890908
0.3815302543396422
-1.439380843518829
1.917666098914498
2.193884082528842
-2.67216933788367
-9.832939226434853
-9.394161268257935
0.2874448900627419
-0.346228682282437
-0.06933970307717395
0.1281234952848159
-2.288341369132776
0.425600867918993
13.07695987042286
-16.18364290006547
-23.74737993128248
26.85406296088252
-0.1525197073272746
0.1273690963812011
0.07721383777469341
-0.05206322683551673
3.499937416750515
1.919923950358963
-19.9303139148233
-1.540163628821912
-0.9994597296057184
2.092548813041835
0.2258383918698771
-0.01571471191346068
0.2080861950595194
-0.4182098750276096
1.322814063421001
-1.184062832610743
0.5119235352612825
-2.030956807608356
2.703096104990552
21.434965627752
5.075896091179422
-4.451135934911455
-22.05972578397298
0.05001840970909489
-0.3090872905690391
0.1215262238875363
0.1375426569627297
0.292261674578713
-0.6044499794240706
-2.14399593689598
2.45618424172134
-0.04307908695556004
-0.2336706415218351
0.3881501021009249
-0.1114003736317475
-0.06673227516055562
-0.05142280416551936
-0.006776337374875287
0.1249314166969186
-0.498301958733168
0.4457075183770433
0.2972144098177539
-0.2446199694710077
-0.05715953112440091
-0.4168152096016087
0.6677450047864184
-0.1937702640764863
3.997622893109606
-2.560752763814288
2.451834037161738
-3.888704166456497
-0.1648303675610285
0.0417478773131132
0.02571082702178602
0.09737166322105535
-0.03765185596934156
-0.09072234968762145
0.03133224118084341
0.09704196447024657
-0.02273313908197577
0.1129599694971216
-0.1408182289924617
0.05059139857191314
1.947906030251448
-0.9664021118787011
-0.2487780150286192
-0.7327259033497776
-0.6621517422150021
0.1832731482949622
0.3212481186636266
0.1576304752321916
8.887384954870285
21.16691537236745
-27.50918455058011
-2.545115776653506
-1.249309582358731
-0.07990209035081842
-1.369533393481086
0.4802526586077144
-0.1257284367685908
0.08268824994240341
-0.437212471785793
0.8242220562706272
-2.148426250065459
-0.9641371753176288
-0.2220808489926247
1.541050326286254
-2.106842463650498
0.7878729863384745
-0.1548479584766211
0.2132582976421495
-0.0009822609730293303
-0.05742807819957781
-0.2322599339003918
0.1234220850400904
0.1629424895030862
-0.05410464065075274
-0.8978055528929831
-0.5227311133935922
3.152217386159464
-0.04947629143717502
0.322235021091583
-0.3162989023456841
0.04354017267894199
-0.002624841837711514
-0.126834395620676
-0.02698872842118754
0.1564479658707277
-0.008810854696132433
0.06460225928851894
-0.08994234796906558
0.03415094337160671
0.005728188836351746
-0.1333544802058941
0.1232575629930396
0.004368728369300554
-0.07205761719813626
0.07378926384344585
-0.03910041948676094
0.03736877283814447
-0.240985442051642
-0.2194211903916889
0.4546077662447859
0.005798866184462541
-0.1734494306243917
0.1045731487221865
0.05472208783416945
0.01415419406214414
-0.1063813819931245
-0.004622550018897989
0.09797785828275936
0.01302607372363447
-1.923270685299049
-1.15002137020921
0.04345072934534668
3.029841326209368
-19.97981309569505
19.91428572502608
0.06552737067609282
-0.2103880419924822
0.05120858592097233
0.1086415490834459
0.05053790698120949
17.87810017795346
-14.75233863413831
-15.29309159475872
12.16733005099013
0.1060188312970012
0.02893711725121255
-0.09731182548486962
-0.03764412307220335
-0.1464932596365211
-0.4897600650232493
0.4342501393532229
0.2020031852961917
0.1239342004342372
-0.5803903682426984
0.4815729951216927
-0.02511682733595074
0.1483471399708451
-0.07818565346000569
-0.09795429036532398
0.02779280384608666
0.1933406865863805
-0.2215996935445491
-0.1519415578679394
0.1802005648145008
-0.05793751347708612
0.170000264965428
0.2227790930384429
-0.3348418445348415
0.8323821323467202
0.6232086780624753
-2.185376690004816
0.7297858795849018
-0.01511262159440568
0.129360029182944
-0.05342696478002958
-0.0608204428156174
0.1136990394450586
0.01284524318845838
-0.07558912920897967
-0.05095515343043323
0.8086656411777235
0.8385864178038225
-0.08975141760460455
0.03490657664325696
0.0548448409588924
2.873535421390023
-1.735649695256806
1.018368095870386
-2.156253822013126
0.2537226717163649
-0.1115291255579246
-0.116387985745863
-0.02580556042299629
0.1319112346809885
-0.02958747721842141
-0.0675456403171678
-0.03477811715039131
-0.07414197648059426
0.4418440828447317
0.3990781212349072
-0.7667802276172742
0.2507983543585343
-0.1858721304292796
0.1592597514223958
-0.2241859753562579
0.1195579265266413
-0.1693950216860458
-0.2448596698585379
0.2946967650074267
0.0753367101137648
-0.1513235519448876
-0.03481055513926772
0.1107973969662399
-0.1250350252044381
-0.02353153012538712
0.02499831150183998
-0.07702245698497577
-0.1241389752608647
0.09558425885722577
0.1055771733822854
0.1910789086430293
-0.108459280170021
0.01875266308823459
-0.101372291563718
1.058325639039662
-0.7395623641965984
-0.3627433618419361
0.04398008697395485
0.06102230595498553
-0.2769162909866588
0.2997851186994324
-0.08389113368068754
0.2519332064602918
-0.04053663847138015
0.02251042978731764
-0.2339069977849925
-0.06102399125295978
-0.2394405185624516
-0.1878193336600958
0.4882838434723286
-0.03095606376585542
-0.1921736580062274
0.4081567475501323
-0.1850270257846774
-0.1457755498867641
-0.353373005955917
0.1241558227667797
0.3749927330691384
0.02933535300066449
0.1439129905281167
-0.1957963922507312
0.02254804871267128
-0.1088285337374521
-0.08807613180849569
-0.2433178650214067
0.4402225305611862
-0.2049735061958321
-0.2791213319422074
0.3430193929489909
0.1410754451859937
4.786369532727785
-1.509409388575851
0.07659768070553338
-0.07830599895703595
0.001708318247736255
0.9809035011339439
-2.207229428379958
-1.43257592362707
0.06117864335881126
-0.04344241465747105
-0.01773622870368682
-0.2026244660089999
0.0556563957635381
0.02035849254332351
0.1266095776958926
0.002566682758906836
-0.06449547172692878
0.1585542853532191
-0.09662549639344471
-2.317891821909128
-0.8153552204742059
2.595437158637347
0.5378098837802423
-0.04315709921808562
-0.0929905041921581
0.1562326953272544
-0.02008509192253664
-0.4320682794729271
-1.170148308214763
-0.8674013584152259
2.469617946110287
21.2132268589004
-0.08259959911421115
-0.3254216344763157
2.903247039975175
-3.761888238099784
0.07762431929944796
-0.1224931121014046
-0.03868435291365751
0.08355314571154261
-3.052753420578243
4.839832314518826
-0.1372889302505468
-1.649789963730973
0.1766454644101611
-0.08760493697966006
-0.4251077452471965
-0.3325810184219338
0.552087464680253
0.2056012989802932
0.1900213766470236
-0.1002895649419074
-0.02711819701559462
-0.06261361469413083
-0.06778197518731165
0.2574408796075277
-0.2384558004306663
0.04879689599656107
0.1858259448591841
-0.2883477840897621
0.3009588628884047
-0.1984370236685701
0.0524114067793972
-0.02488027256406569
-0.07523280180929293
0.04770166759055253
20.18996703027166
-18.63672240454992
-0.4134968056261495
26.74965525842018
-26.72853565530797
-3.337663614533754
0.2322645577237218
3.855262806386954
-0.749863749545126
-2.03836710845729
0.3382968116608803
0.9152258008629346
0.7848444959346584
-8.028578500840474
-5.138554207671475
7.021533359820999
6.145599348599216
-13.66665726497243
-20.95964717272668
34.62902971672649
0.7631134990007472
1.578296729784854
1.383830648320778
19.3896367591072
-11.0154068463772
-8.374229912734791
1.195425899278407
-2.354059273746539
-0.05291559619005959
-1.727580881307413
1.124340371625772
2.31637412760669
-30.2369629160828
-1.006116430199461
1.248265993964091
29.99481335236599
0.1107191785488676
0.007831441690989647
-0.1409449821211809
0.0223943618734417
-0.2233718703345779
0.03609518071625123
0.1872766896126234
-0.1265127672230512
0.05102035780014374
0.1493126595743854
-0.07382025015837948
0.5335555486565505
1.421761706312278
0.5381397183205674
-2.493456973242321
-0.605774238737559
0.2055485157416647
-1.76112543833597
3.097271029894395
2.059927942701153
0.8295089343480949
-3.696706560074161
0.80726968300708
-1.880692097537163
1.90560938020236
-3.141885504267556
3.116968221657206
-0.3825965762822104
0.1988014168722004
-2.018734527298982
1.708032512076838
-9.689848873171924
-9.044265395445555
-0.05802523660508314
-0.1517626965069784
0.1154527880727763
0.09433514503237644
0.1154760458023601
-0.3403994155509278
-0.3490558859707381
0.5739792557029644
-0.5145070715093832
0.3589726095534733
0.115410508035906
0.04012395389656325
0.4602427034710065
0.210044516276199
-0.8224305644513706
0.1521433446923502
-0.3562830288955311
0.4834770097904814
2.211819417198195
-0.1507482290777325
0.06277687411122798
0.00606882573983643
0.08190252922472468
0.01131808500664086
0.02064903840606595
-0.1297871410833296
0.09782001766777032
3.125972754681146
-1.083028313953792
-2.559149414638425
-1.162791147102255
0.5998081307626342
4.740296310303263
5.575197455838731
-10.91530189688753
0.2015355637009129
-1.007652496680305
0.645545575173684
0.3621069215041374
0.07440031565936771
-0.2733151071684997
-0.215513593125496
0.4144283846229231
-0.6390410178000379
0.2514710479368595
0.5433996978332307
-0.1558297279815525
1.797512992744256
-26.10819632695125
1.858821629913133
2.886327318991427
21.36304737806324
-13.86662458714672
7.878789756218603
6.587642961734295
0.20657883575051
-0.07228824439368479
-0.143070236905944
0.008779645544281645
4.812112886946069
6.565854475569081
-28.8166270602869
17.43865969783441
1.653241317874556
-0.7694431138892577
0.2840013764669947
2.66825686522073
-1.756832342384091
4.063467431594209
-1.723354709109933
-2.961804232450233
27.66229366510009
-13.62801907040376
-14.03427459466043
-0.0956101086496669
-0.002266451004424629
0.1156165726405646
-0.01774001299168341
2.361688874229735
-3.651247684022376
2.225884627300376
-2.166091289901432
2.843453702603954
2.408646573982263
2.279613292187234
-2.32657099191603
-18.68554333920378
8.368853458051614
-8.673875857275149
4.407003652402895
-1.572756210481962
4.505497919500729
12.4933753857921
-7.703437220566993
-4.258497254172394
-0.5314409110875158
-0.01899985394944535
0.1005202204398784
0.008466182057097628
-0.08998654855427798
-1.283899193580275
-0.7359005415478126
-0.4539303885023717
2.473730123605169
0.4008590566545591
-0.2167076020974255
0.1169689506392961
-0.301120405205856
0.04616645884938016
-0.06201707728148238
-0.2164093154741114
-8.122068208862217
9.069455285106857
5.292965012969218
-6.240352089203685
2.709095266200129
-2.068407682181174
0.7124004165302666
-1.353088000581961
-0.05702067589102311
-9.010779079444259
-1.758183638440834
10.82598339366888
0.3151965986948918
-0.2052489698939874
-0.1099476288039788
0.1698850727718269
-0.3032610973351803
0.1333760245581384
-0.06735811450020297
0.330506033086626
-0.05234993882802818
-0.210797979764955
3.696823298174752
-21.78263596971041
-4.117347792994561
22.20316046456345
-0.1489734522646416
0.1534637494919995
0.1697055439183741
-0.1741958411572677
2.618496001229041
-1.263823530035988
-1.786740750657386
0.3328639616305065
-0.1629788888630213
-0.1468686871789744
-0.05280731388734389
0.2316131711727215
-0.03193717011608724
3.003951232400622
-3.541335452253958
-0.0364427597819574
0.5738269795937331
0.3644530742448816
-0.02600500933750889
-0.01942859720577085
-0.3190194677284679
-0.02029063257282866
0.019590885199399
0.1259079455012758
-0.1252081981341343
-0.4334875173421197
-0.1088565208243625
0.2658017221516898
0.2765423159981752
-2.314057115658865
-2.110106746521639
-1.434703995608478
5.858867857801158
-0.09451041701178403
-0.1662450059635839
0.1117775597627901
0.1489778632087131
0.0950686164409292
-0.2682711746696472
0.1732025582216222
0.07682583136069394
-0.02671491339705023
-0.09162055516660848
0.04150963719607589
-8.088411219082316
-0.1339796809160665
0.007630545316624051
-0.01724294074176991
0.1435920763318722
0.03268067649184941
0.05614689438487081
-0.08882757088376655
0.03107664924615036
0.07985294558564886
-0.1256768486040913
0.01474725376606328
5.86024747465911
-4.05421209515172
-5.277083607391346
3.471048227833136
1.973755933526185
6.062920341558184
-2.388192379328389
-5.648483895775059
10.44918451536199
-6.654544922946157
-20.97347865655667
17.17883906417903
-0.1021887828971912
0.07068043032536049
-0.1180508440823417
0.1495591966453969
-27.52931494489559
15.28506863089049
-4.309745086549856
0.7180718420996174
-0.3508573527469873
0.6846224291214836
-1.05183691846588
0.7213711628055725
0.1496997743100613
-0.7154313511753507
-0.1556395859500583
7.367367538393411
-0.8934825743076008
2.068411766076505
-8.542296730178517
0.1012236872644808
-0.1262756042876109
-0.3349246177613387
0.3599765347762109
17.05274051286866
-13.02228525937605
15.35918150561232
-0.6398640707692962
0.1812435041558357
-0.06809130479878001
0.1099420964425743
-0.0418507916473614
0.060921202471806
0.1258566244990699
-0.1736526777608484
-0.0131251492148025
0.1210959371175566
0.02767021199914841
0.02265468256131222
-0.1714208316890039
-27.11365127203251
14.92916811691742
1.194666421495478
10.98981673368554
0.31473674049614
0.4561102521188922
-0.3770042189102717
-0.3938427737124496
-12.68445865696747
16.40250987130735
0.09276890556901943
-0.3848632056517786
-0.1260799008118365
0.4181742008796192
-31.29825037132027
9.24860744240844
6.740836777763968
15.30880615117269
-0.1619530402953866
0.03620677107953641
0.05620533167923233
0.06954093752915735
14.40913271827228
0.04186674656005135
-0.1051981640513468
-0.01328507230497028
0.07661648979094182
0.4446150100907454
0.06465657529491615
-0.5433036715025895
0.03403208611523441
1.417477796394621
0.1602281486109217
-1.015312366626193
-0.5623935784047069
0.0100382750942191
0.4132843755576014
-0.1292357994659517
0.06805284121555749
0.2095414738653457
-0.1483585156238922
-0.08473007405152326
-0.12845002993261
0.01643536542283046
0.1967447385572856
-0.2239690084865432
0.0234599879419117
-0.003648966554634817
0.2041579870900579
0.2013351363864518
-0.04916330094430353
-0.1521718354488518
0.03104591850081185
0.06791593055606093
-0.09896184906109556
9.878949504774683
-14.33703312380099
4.458083619011863
-0.05921250530140478
0.07835546950562979
0.1793764025689581
0.2137550655280924
-0.1399877321996842
0.0001185833997542753
-0.07388591674168574
-0.1015615013028851
-0.3070680970069433
0.8289895522930846
-0.4203599539905344
-0.156793185254819
-0.4307803487022316
0.2182788724297239
0.369294661512402
0.2031799883681096
-0.3858694641376084
-0.3655737620533293
0.5482632378177368
13.54052815178707
-26.13809244732057
-14.51608697644521
0.9250611005840094
0.4208359294780964
1.751973356163598
-3.097870386235199
26.78416793417748
-23.78414433564747
6.916361692602486
-9.916385291110686
-13.18182129946002
-16.10841114573017
10.14028634123408
19.14994610400187
0.213163879487907
-0.05819177601773558
-0.1549721034795277
-0.03849360274602361
5.51462146455026e-06
-0.1771055057951259
0.2155935939097572
-1.328666988150045
-4.78384189535343
-1.020091969824946
7.132600853323918
0.3948851285305789
0.09618447598043606
-0.5684807996884166
0.0774111951743459
-0.06018765096765179
0.1783704401210244
-0.02222885303839451
-0.09595393612270603
0.05066144481974486
-0.02431827309295504
-0.07681744165635006
-0.05457219294836507
0.1329202572033014
0.1410792375751058
-0.2194273018412882
-0.07734757288676172
0.1612703695223131
-0.08392279663979597
-0.04827188682784844
0.0520261180241665
-0.1275315101936606
-0.06005412330580765
0.1997099229324482
-0.01212428944341779
-0.09560740649612649
-0.06868656811951813
0.1642939746081579
-0.4477813990923142
-0.04879025170017887
0.4154720925503813
0.08109955823335847
0.1951149331996141
0.1793982343782378
-0.324494757875558
-0.1777681254480222
0.1057551004446815
0.1051072892474492
-0.03309426425203841
-26.3680575589579
25.32082171047997
-3.681616478041746
4.728852326572754
-0.5656956141812468
0.1161497669266132
0.3797192068142526
0.06982664042545833
-0.4961276880712738
0.2001585204573255
0.6247761203811762
-0.3288069527773701
-0.1660157444689584
-0.01306703277360785
0.1036986763293783
0.07538410090555916
-0.06173830110598363
0.2780544564228701
-0.246473921782129
0.03015776645452207
0.06934779261621463
-0.2183704111057562
0.05937716916208678
0.08964544931866145
11.31149566579674
3.092769308583425
-1.107250814085934
-13.29701416027635
0.1507828215005998
0.03876160112397441
-0.1318705939772036
-0.05767382865677725
-0.09890518232509991
0.2399904444672424
-0.04394834912994774
-0.09713691302098308
0.1602493321509697
-0.2479279592578509
-0.2155824702344274
-0.05252497112326607
0.04641438087267089
-0.06106554261024998
0.0671761328556468
-0.06084781410861748
0.4326729314896141
-0.3100807981255521
-0.06174431926222365
-0.0350136897861
-0.2708003363658874
0.2556070257060035
0.05020700043563511
0.16201051409887
-0.0602839664116229
-2.362910481778601
2.261183934056799
0.1741269310274665
-0.0303753445210304
0.04090344310657407
-0.1846550296199277
-1.399211033743053
2.058646443770253
-0.2176935875192504
-0.4417418225095419
-26.66226229705444
1.500025592890743
26.88966431679179
-1.727427612604066
0.07636375451505123
-0.3173132613037545
0.3282413758109833
-0.08729186904035087
0.1358940642383184
0.02389634429766757
0.09985340384699554
-0.2596438123902537
-0.1060484600267039
-0.03080933656390974
0.1105384436818238
0.02631935290450014
-0.5261698999834862
-0.5965271226846851
0.5891543901039634
0.5335426325609642
0.0571314994472118
-0.2605406291477014
0.204362616080238
-0.0009534863928206844
-0.2138919790249549
0.0305310023474917
0.2401393729092302
-0.05677839623818104
0.03766381072851344
-0.1398409084328391
-0.02765760269951737
0.1298347003994622
-0.3752935536984534
0.3683334111346527
-0.6635017084588927
0.6704618510065343
0.2552354299970692
-0.003787132892223149
-0.6491172843504565
0.3976689872128688
-0.07248993058892346
0.1546196735159767
-0.05515205446080478
-0.0269776884718193
0.141254992675328
0.26985223580082
0.01613325405958774
-0.4272404825419133
39.27066969368343
-25.14205097991118
-18.14806994175118
4.01945122799453
0.3441888857215796
0.1039489507550608
-0.1628773457174764
-0.2852604907693908
0.008507194690134421
0.01525979633414529
0.2189806174233767
-0.2427476084573258
-0.6493293086108064
0.1288490337139644
-0.1032211553297593
0.6237014302154237
0.09061544219818433
0.03930386184270147
0.05362061036831932
-0.1835399144157707
-0.05596513139021583
-0.06126000952768253
0.02628084771439642
0.09094429319915791
0.04906272434265903
-0.4072031364370468
1.711967254371446
-0.8411705947112064
1.270938611340425
-2.141735271028584
15.50650587533305
-10.95147796523711
-0.03949305727469064
-0.1309161191984713
0.1329552915943678
0.03745388487169651
0.0001148001454061949
-0.1345024887024989
0.02043943658664945
0.1139482519654542
-0.1612809784020186
0.1541635297567465
0.05409896779975475
-0.04698151916083403
-0.2614659932281143
0.1115043623187827
0.352166495474405
-0.2022048645756901
-0.1257267868935746
0.04701063403324023
0.04315146349345354
0.03556468936204875
0.09563487958441974
0.04086500484772037
-0.008261152511389992
-0.1282387319282843
-0.0744654056292576
0.05722464435347618
0.09778459517614749
-0.08054383390677633
0.5859087983471213
0.6793811120999538
-15.36852576170454
14.10323585133318
0.1605826297691887
-0.1694163751377578
0.005900141461136995
0.002933603900792788
-0.1835192754335183
0.05654568053279967
0.04275211844221962
0.08422147644992098
-0.1889534904761577
0.3405417222995371
0.1334697659599796
-0.2850579977978954
-0.07468271135145056
0.07100598558676313
0.003676725760568572
27.64837928868709
-28.50150986198912
-8.475574867074849
9.328705440356895
21.56205569760152
-2.697556254632615
-22.01638306582904
3.151883622857883
1.959079856470242
-2.177061160191187
0.3106876944179607
-0.09270639072406819
1.802037526786665
13.09823577667187
-8.38004996581788
-6.520223337646154
0.2269966902711574
-0.06455862978297941
-0.1624380604957396
-0.006159571015983187
0.01394764142364691
0.09081688833155865
-0.09860495874137547
0.2805196124553084
-0.1190344954558973
0.4331173940075503
-0.5946025110165862
1.81938295480045
-0.1420276417003547
0.2888345230056183
1.210379991852691
-0.4502887326483024
-2.034074002884803
1.273982743668394
-7.31602615507842
-0.247232845988955
-2.480180616801377
10.0434396179417
7.671903068362907
0.896728658728125
-8.238194077486277
-0.3304376496312778
-0.3850069160991785
0.1595703093023078
0.1674990933133187
-28.75984931010024
22.2579887827859
4.483891486485167
-0.1132809140348514
-0.1588566292213245
0.2411814794860541
-0.006364927243445935
-0.04421949645241933
0.05058442369351248
0.0926326461565363
-0.04641644285650242
-0.1485724706494184
0.1023562673446502
2.73245909859854
-1.748423392342753
-20.15863722606193
19.17460151985523
0.7786904742756899
0.1149042904377459
-1.019199149396647
0.1256043846723283
0.05466594275526773
-0.05723322348302148
0.1725675456877456
0.3628350276686538
-0.04761658168230889
-0.4942984684840319
0.1790800224940265
0.1615121896020635
0.05737982900356554
-0.09840331090825397
-0.1204887077021427
-0.08871952928183938
-0.4152531350604343
0.1993999347860488
0.3045727295510958
0.2657226864688786
0.02486209660031388
-0.2611929925285798
-0.0293917905524587
0.03516970344147761
-0.1950054218504625
0.02933626407594869
0.1304994543180031
-0.03193249412109219
0.4622297217064127
0.2617394278908765
-0.6920366554878059
0.1968125723890116
-0.2516058857702611
-0.2718664155686621
0.3266597289347436
-0.0616405410791805
-0.2881453238360268
0.3029078189675686
0.04687804592637018
-0.04151455152932099
-0.1668362684553278
0.2083508199774254
-16.85863802953361
15.53655407811632
-2.623196194377453
3.945280145735147
0.09875050092381669
-0.1402650524558769
0.1373695807494862
0.0872378900476202
-0.08329008520998064
-0.1413173855926505
-6.842437811128179
20.00732454365788
8.270078895259402
0.7129082344382696
0.02089964672963738
-0.4532882687172496
-0.7989447308039724
-0.3153359477445715
0.6565251207287057
0.4577555577976165
-0.03332119903240749
0.1217471490309371
-0.08333839346315995
-0.005087556541604727
-1.047525975367454
-0.4080468828907775
1.348455976168185
0.1071168820522553
0.0008792989298156066
-0.01779894825666766
0.06933105610375744
0.1443131858635572
0.04702564884032885
-0.2216191953746624
0.03028036066424733
0.07735362518734823
0.1657100615974661
39.16771380472512
12.23292608230209
-37.2582950955403
-14.14234479144363
0.0446173628435692
-0.08632934561158244
-0.006092470049166741
0.2825538553072898
-0.4814348914584541
-0.3467576247947251
0.03869181055055993
0.3541948533867588
-0.04612903915444371
-0.2720215917693424
-0.2691134402377294
-0.1688973124555829
0.7100323444450667
-0.1338577045620682
0.1800697937029582
-0.0889868913350961
0.04277480218709034
-0.8239140514901542
0.705723377540451
-0.02225465148268073
0.1404453254259471
0.09242829608048207
-0.0004774182309371998
-0.01918973924768537
-0.07276113860909361
-0.6482215753230182
-0.09686881341034391
-0.1577815485548459
0.9028719372906371
0.1430242127366465
-0.005650753188750711
-0.0409247665653994
-0.0964486929889178
-0.3617517140301733
-0.1076529971888741
-0.04510236030363227
0.304468911634278
-0.1993935740843422
-0.1050753375555753
-0.03965288577443177
0.024065225485449
-0.1187949816051698
0.1343826418860462
0.03407043104091654
-0.1176028687854988
0.1055035198500991
-0.0219710821121288
0.5358821046437809
-0.7315181332198548
-0.1221000619649675
0.3177360905291933
-0.1163138163763214
0.1585559148707866
-0.1130249817733853
0.0707828832694103
0.1375451544090932
0.06882583237638476
0.0003275106077528574
-0.2066984973998013
0.5873299295028064
-0.3666000627167339
0.03505984058923187
-0.1548049314885738
0.1101329890864049
0.00961210180425201
0.04405139480311662
0.001276885021701612
0.3335276569378737
-0.3788559367750026
-0.1363243598466854
0.01935943028259616
0.01091646953411898
-13.69340311474846
-2.097251287197158
-3.515903338564196
19.30655774052262
0.4613602669993843
0.08148103933358787
-0.003839161585700554
-0.5390021447500912
-0.06862927153666828
-0.1887592393734506
0.1844936166711893
0.07289489422714075
-13.29316911331606
5.289099168551061
12.96043451165357
3.297575576332505
-29.55117920129809
-0.1313429245902447
-0.03828031023367717
0.02275454763821127
-0.04817097392378585
-0.09536918141592297
0.1859700404513084
-0.04242988512058892
-0.350140688695978
2.243167934291172
-4.262591058055622
2.369563812478679
-5.652338712441135
15.82779104746509
-8.373414808228445
6.791077351207506
-9.212966199146324
15.14352195124375
-12.72163310329323
3.223067986863187
0.04328157584682046
-0.6669986266559808
0.7638939824106771
-0.140176931613469
0.0830395952104324
11.01512991218139
-4.652679784247023
-6.445489723139244
-0.1716439795037825
0.01061291805465005
-0.1096412993659262
0.2706723608014615
-0.6255848325470823
4.037362406312758
-5.135132282893221
-7.720563366687487
3.325411152373908
-1.184852918048971
5.580005132359201
-6.653643405650269
3.899434359844108
-6.812629420130915
9.56683846589822
0.0005144305272901625
-0.1743835437278253
0.0387212192306333
0.1351478939638144
-0.02808878270652019
-0.3419107030761789
0.3607639260154092
0.00923555975696554
16.90147030423028
16.4567257826387
-12.45706759389544
-20.90112849295181
6.429454161990876
10.47201614225488
25.87730237649088
-6.612736271096859
-2.807840322737506
-0.05070820700020441
0.1932480452687804
-0.06847608431166496
-0.07406375396395196
0.1498348741399196
-0.1014874520798918
-0.09905562906653002
29.75234022043423
-40.44116198387655
2.958921202524234
7.72990056093104
-0.1030343544253229
0.09772827964039447
0.006604246897031627
-0.001298172122135669
-0.04958320535999338
0.1344454965748118
-0.08486229121910024
0.1358507059935704
-0.1716217989034612
0.3280017227336102
-0.2922306298386277
25.78553690111072
25.90368482786028
-0.1030234025740428
-0.01560423460412228
0.139393564172254
-0.020765927000614
-14.19944394709474
14.20134829591028
0.1247925808905826
0.0192384956093495
0.02706840216931978
-0.1710994786796531
-0.05982485770111994
0.02619965738060181
0.03362520031660638
0.1654271383301164
-0.02066772540113459
-0.1753550681310845
0.03059565519797709
-4.709309707134993
4.738332854911787
4.74746723122282
-4.776490378985521
-0.03165439254799844
-0.08671155020738648
0.03490931419050237
0.0834566285589967
-0.05704738454408941
-0.0542010194753143
-0.06737376162994092
0.03571936907996925
0.0315315296793206
0.07172833286494538
0.001293306786670897
-0.1045531693350573
0.07232472637802001
0.1181392473625449
-0.0242845001405441
-0.04308926149168213
0.06783896696692894
-0.117295436671189
-0.1004442865647469
0.1499007562621085
0.09271098267256177
-0.04638903902692375
-0.04632194364944866
0.02326067275371042
-0.09460929457193532
-0.1098833875969123
0.1812320094060538
-0.3028656607497811
0.128356588313627
0.3163741024445755
-0.1418650300353943
-0.7379405535776336
0.08954951104637086
0.4821094213143367
0.1662816212087805
-0.1030968287189197
-0.2013806242454382
0.4213731539900776
-0.1168957010431521
0.3130149504783615
-0.0414901162298306
-0.4982618613791994
0.2267370271282382
0.09738362171632911
0.02264498664656505
-0.02328338665873892
-0.1368187435304774
0.3255400382362182
0.0977809430762836
-0.2865022377989891
0.09699559890683984
0.06938657916404084
-0.1663821780747609
0.1085982993943602
-0.1283103288011382
0.08569318300807728
-0.06598115360653882
0.7871509164461583
0.0142600692849314
-0.4638643196409006
-1.265728515849947
-1.288562579695912
0.9232126539425646
1.63107844159938
-0.1118396967633804
0.03655771204661251
0.1103418253022049
0.07960783291659458
-0.04005924202341252
-0.1376777551430048
0.1008159869539826
-0.01589396197433439
0.05275573015175265
-1.160327663632945
0.7434168907979777
0.1934935763990204
0.2234171964143787
-0.3523476066194274
0.3604408144437306
0.06239485251057077