/*--------------------------------*- C++ -*----------------------------------*\
| =========                 |                                                 |
| \\      /  F ield         | OpenFOAM: The Open Source CFD Toolbox           |
|  \\    /   O peration     | Version:  v1906                                 |
|   \\  /    A nd           | Web:      www.OpenFOAM.com                      |
|    \\/     M anipulation  |                                                 |
\*---------------------------------------------------------------------------*/
FoamFile
{
    version     2.0;
    format      ascii;
    class       volVectorField;
    location    "0.1";
    object      U;
}
// * * * * * * * * * * * * * * * * * * * * * * * * * * * * * * * * * * * * * //

dimensions      [0 1 -1 0 0 0 0];


internalField   nonuniform List<vector> 
19631
(
(5.000595180437681 -0.000144538847856223 -0.0003537704055199195)
(4.999935077101788 -0.0008687663431670235 -7.892782685077296e-05)
(5.032356421293611 0.01518389060050493 0.05164420477756049)
(4.952985877330788 0.1169529990624238 0.4307067164933729)
(5.001804590485612 -1.722159123949831e-05 -2.794261346411332e-05)
(5.054264174639138 -0.04594756737953175 -0.002914439567959083)
(5.011204361391754 -0.00496329158939245 -0.00316480330187186)
(4.993564122801023 0.003121742509891459 0.0007004641130032166)
(5.00020305628933 -0.000158330107697993 0.0005185461307136514)
(5.006119176397968 -0.006741284699875349 0.01865069974946409)
(4.985168944986734 -0.001101257054472616 -0.004472101291110421)
(5.01175910006825 -0.001999002452645245 -0.005932088564863647)
(4.497673568535942 -0.6642165765112225 0.2594276946245149)
(5.011190847610258 -0.002895027668367609 -0.005689614965826888)
(5.007137461830363 -0.004932998000896386 -0.004751181088882662)
(5.000272146911009 -0.0001355551681021331 0.0005033846818743463)
(5.086716147581165 -0.0646775083044115 -0.08037496814017729)
(5.004732556920504 -0.004250734895956784 -0.002494861175667344)
(5.00019610889662 -1.72577472412324e-05 -0.0002673555852584266)
(4.999864846212181 -0.0005565609609089893 0.000605577358505434)
(4.999957048590211 -0.0002011099577867354 0.0006201175750686459)
(5.000904770418298 -0.001756450437545647 0.0008676061705013092)
(4.999102890328081 -0.0009594760694152378 1.127607522784779e-06)
(5.096618580516256 -0.08774816398850535 -0.007773855305702026)
(5.009452032390722 -0.004488759736554166 -0.006060096227419725)
(5.010842557333487 -0.002138172571699493 7.410328462825175e-05)
(5.015295351256363 -0.003234602915521591 -0.0002592683994815034)
(4.966909648282431 0.001656573457972149 -0.0001476857044944969)
(5.069324250825294 -0.04849577712706043 -0.001159398672226736)
(5.012020089502369 -0.00287554294118639 -0.0066093391061014)
(4.998868155566677 -0.0005348050077395895 0.0009177263296508541)
(5.06170776162873 -0.0316916885929208 0.09655141782944313)
(5.000007103875787 -0.0009549253304337767 -0.0005487914431172235)
(5.010311493408339 -0.003468235500418106 -0.007595256668390676)
(5.066196399287916 -0.06609291480944689 0.01481745487824759)
(5.011060712165203 -0.002740777557375448 -0.005807575005349775)
(5.013252753990391 -0.003064909505398114 -0.003341423576777241)
(4.999775750837607 -0.001241882790433628 0.0002648259251448134)
(5.031039405691097 -0.03348269739013864 0.06970452703467196)
(5.019498337640721 -0.006576872257110405 -0.02759711124398476)
(5.128606642512139 -0.04184470499016416 -0.1252708214588024)
(5.064002153296884 -0.07970673113215637 -0.1827596231132656)
(5.039594419987512 -0.02516633804869303 0.01553619425931199)
(5.013828405055964 0.02621998274806737 -0.05819273753628031)
(5.001850763059331 -0.007671567455325413 0.02101282533642633)
(5.018703882815474 0.1480296577264401 -0.02947295817869484)
(5.091977473927813 -0.06799936895730584 0.07431019965420407)
(4.988988286127062 0.04729327645959786 -0.3676904076219667)
(5.0261792384243 -0.01895547731609525 0.02248480098928957)
(5.015998184556527 0.006219911952234429 0.04535315401285493)
(4.999598735804037 0.0005014594129830812 -0.001045262961703937)
(5.009879910089995 -0.003920358841068626 -0.001025836801804221)
(4.965447826802084 0.0412476085924882 -0.01698088468175242)
(5.012922331191721 -0.0040289952421891 -0.006195516376440699)
(4.987184446317054 -0.006590685696882667 0.004253942692957549)
(4.99995282684114 0.03871681340787353 -0.10200955835978)
(5.049193825438725 -0.08906946332986196 0.03432727898761165)
(5.010479778592874 -0.0004280649886100104 0.004828353127524426)
(5.021980385661695 -0.01962454678066957 -0.06156822044380811)
(4.979783692841244 0.1296782494287173 0.1423531928513606)
(5.070504214234925 -0.009990144960489456 0.09729384116070001)
(5.120255743114511 -0.1785472442478605 0.0992621634842217)
(5.21298722778356 -0.1692296314953986 0.2908571521050599)
(5.039884906290853 -0.06331191486281185 0.117327042846579)
(5.075644139707683 -0.1242729225413193 0.01539969156590237)
(4.965312776877094 -0.08206319270939696 -0.3313664652340366)
(5.014891039281248 -0.01026959692234961 -0.01237819311992451)
(4.995870336551119 0.002492836234675608 0.0006339860934771686)
(5.031938628813254 -0.07232188884835798 0.2079566656863209)
(4.998977970555829 0.001169934553022541 0.004952932397289591)
(5.059936536498813 -0.01621625526598089 -0.01541906347707517)
(5.050851190579535 -0.01312858874844918 -0.05403526260133767)
(5.034871194996903 -0.03577710492124068 0.0116238032563692)
(4.868577168562694 0.05603023266669657 -0.3100330111488666)
(5.027535173169828 -0.04816868093298514 -0.06259855866775052)
(5.026752534430607 -0.05086715815850285 -0.1654234659378317)
(4.991715795354271 -0.005734997810514926 -0.01401472470959922)
(5.08794144061706 -0.1025137698120587 0.4264176006457295)
(4.588745315214304 -0.09701670322585484 0.204486732101833)
(5.011271586181857 -0.002528974698661787 -0.002578839257085809)
(4.508218260013839 -0.2189511332916847 -0.3434956076780289)
(5.010597101498585 0.003610845025658572 0.04031663669142839)
(4.817169483977648 -0.05705473186830189 -0.1001426303014859)
(5.003858258743556 0.2312927051032797 -0.1678658510257694)
(5.025623056067969 -0.01160011526272542 -0.04523833672717986)
(5.04404467273716 -0.05077580345255193 -0.006614127225235133)
(5.068511451672538 -0.0367154570912665 0.09060807253921399)
(5.023402314980489 0.1058248959560314 0.00251082286674604)
(5.032248105979051 0.07185787381838631 0.4781593977115132)
(5.0619558238122 -0.09067563791770329 0.01347470787625343)
(5.040303271254346 0.005099108480816485 -0.1130201438879485)
(4.945693240722517 0.00167337991229693 -0.01191851133904616)
(5.070958969746558 -0.03126808535250585 -0.08005677281858485)
(5.066906007792663 -0.04281140111314363 0.08295928355409674)
(5.028783153839166 -0.01961689552286581 -0.06928493793741834)
(5.06560768620092 -0.051926942040169 -0.04778743075875391)
(4.942305461242213 -0.07553305311641477 -0.07564675835666633)
(5.017006212466684 -0.002964680978588149 -0.1473839069618989)
(5.05306231942506 -0.02150736088514448 0.08077700404264229)
(5.042576178369685 -0.04297817506201348 0.006810512933897198)
(5.009289036157409 -0.004303851577444127 -0.007805072064720922)
(4.761993734760397 -0.3605638993405745 -0.1030555636196811)
(5.008401051846028 -0.0001980106369584299 0.0005474880097818179)
(3.871197180570404 -0.3006895697739905 -0.1142981823275056)
(5.082033453952053 0.03025735435291042 0.2808187004970422)
(5.074857950104284 -0.06687871927178092 -0.07647313814482283)
(5.014384072844821 -0.006871288343781619 -0.004853718213157099)
(4.775673144112472 -0.151316398987169 -0.07121830291611438)
(5.008529574664522 -0.006582349626674574 0.009531024689035566)
(4.995110715283377 -0.002127292300735381 0.0006912087322192343)
(5.014618260079756 -0.006792360399127083 -0.006727074617949258)
(5.031710386482835 -0.08260611256924712 0.01512690269925719)
(5.006034115310521 -0.004470089951461019 0.005140728711413682)
(4.618772305865612 -0.0830474815146011 0.0369034021571812)
(4.884712319075174 0.00355598368994073 -0.01454640742417542)
(5.091848331917243 -0.1191091454870645 -0.2964562278396877)
(5.055697773131417 -0.05969337062531604 -0.03982802084003647)
(5.027143129757584 -0.04244057208140042 -0.03361102481177923)
(4.924534647495299 -0.1883403987075072 -0.03526254394476815)
(5.000222901450462 -0.0001292398849243262 0.0002869954058642316)
(5.000249664533349 -0.0002743769263718512 0.0004386755961360467)
(5.005826724075043 -0.002274498850313863 -0.006591483064805037)
(5.009797994809325 -0.005679594802754015 -0.003708832921265241)
(4.987492475049134 -0.002377363543692925 -0.007428425459563434)
(4.999756368634729 -0.002747596877430126 -0.005940329006319756)
(5.009482916612659 -0.004828600903235242 -0.006801896188607304)
(4.989759086392873 -0.002067487340881929 0.002154604001319766)
(5.01182979300118 -0.004683603325422782 -0.004838362932261255)
(5.006797746202867 -0.003399254757627725 -0.005063317852116009)
(5.011508030735571 -0.003769264720378163 -0.0008867550902446037)
(5.000135437256273 -0.0003998935027638051 0.0004301990085334604)
(5.081368021517111 0.02072981827262241 -0.09371209046781311)
(4.751526056469199 0.07516859167876846 -0.3901601734558641)
(4.976060820162907 0.2322664165709671 0.2204829527453677)
(5.01113521410372 -0.01017700323283308 -0.0140575842460452)
(5.015022998831486 -0.0058619748440067 -0.003306552100893232)
(5.011582820844389 -0.004383649989924274 -0.00646764568049701)
(4.977106753140678 -0.0005432080469863173 0.004807696589653906)
(5.017338029162135 -0.006002671254598566 -0.01063317997731461)
(5.015610589662887 -0.007765313730941549 -0.006252616660533559)
(4.988705316113622 -0.006637570465295069 0.002966318809573759)
(4.974119588307569 0.0006860651421909285 -0.001033051810888733)
(5.036995846062283 -0.02791700627936981 -0.1555839032860645)
(5.048655589632181 -0.02435701931722927 -0.04573425412748542)
(5.028941970071688 -0.05088558127707887 0.05589065639602554)
(5.038659335966287 -0.01199951639228566 -0.02278485767739896)
(5.028020130817832 -0.01170765108474071 -0.03254966435537034)
(5.010634593394005 -0.0035886540969686 -0.005696378794028146)
(5.216079579790979 -0.1099647367942281 0.2068526560490654)
(5.034545360468094 0.06059142573614099 0.130963396272627)
(5.002655827133061 -0.001025594140425945 -0.002225750271506898)
(5.012013789207656 -0.004093274336814247 0.0001796862915770544)
(5.008129940411775 -0.001865604502935989 -0.001199153390536761)
(5.011518651116198 -0.005859228319837994 0.002880201869100215)
(5.005859215513048 -0.001600238138601714 -0.002710898166636045)
(5.011815318281994 -0.006651052682465598 -0.007137397620294358)
(4.773025848259955 0.02422110844704194 0.02913503556897815)
(5.034210193869479 -0.05291308790390459 -0.05059001222641801)
(5.050164192720145 -0.06022050263210477 -0.01535227108813958)
(5.011791694281486 -0.003245046784344099 -0.002278554988785491)
(5.00014766837144 -0.0002235425459506965 -0.0009349507705345814)
(5.007568939341763 -0.0009385423542834075 -0.003113427999259039)
(5.139234680753935 -0.102242403157613 -0.1447801958359003)
(4.99948565232689 -0.0007506664267820114 -0.0007688535655406783)
(5.010705927792737 -0.003054349488951649 -0.001377390148781924)
(5.010357229018145 -0.005344664166461347 -0.00558494306619454)
(5.008076407741573 -0.004576567903014625 -0.005264207998144543)
(5.006327844488207 -0.001632776766552254 -0.0009027994948036337)
(4.994850381420413 -0.0009671087620918992 0.0009736174125626364)
(5.084680535949073 -0.02967646125058821 -0.02075257709098229)
(5.013536236580283 -0.002298817309318052 -0.005450773271608709)
(5.0126717776008 -0.003097043396673855 -0.01264928113321524)
(5.012247951307505 -0.002894545847785859 -0.01075343979666219)
(4.992141722101293 -0.001900793848520644 -0.001915834358153729)
(5.01098478836134 0.0004279832350005824 -0.007838382952090588)
(4.963734689067904 0.001532591551960376 -0.01053125732079808)
(5.002881241146881 -0.0001802573227383053 0.00417166295209469)
(4.51727415587962 -0.03847555026818907 0.1570562557776914)
(5.011237388428065 -0.004739866757421192 0.00509617664812134)
(4.860942527264132 0.08503142570215209 -0.09321092882785621)
(5.055491835106434 -0.09003195492659473 0.01712326539667415)
(4.996890673264778 -0.0009065446503651636 -0.004138032105709893)
(4.988931219819943 -0.003309125709055557 0.002344193990229049)
(5.004530183662744 0.0004670491078080027 0.004221233192411351)
(4.845779591435603 -0.04334121566225962 -0.08808924064793515)
(4.701865098542121 -0.1161292498862284 -0.1377950038589441)
(4.943020315627326 0.106320137271926 -0.05013756780700275)
(5.000057295233915 0.0001586596292851906 0.0001114014836079431)
(4.888542828233462 0.06851998007133205 0.2263934515438409)
(5.010880777105639 -0.007433416590377744 0.01249337336860751)
(4.840310555891764 -0.1171204047608 -0.1739180098577966)
(5.05559736161242 -0.03455693456847979 -0.03387151406753753)
(4.999471987544369 0.0004598028885190499 -0.01655914041362201)
(5.009664072831434 0.01039653064756925 -0.02575002503529885)
(4.647774721659484 -0.1447392485321339 0.01428277976317278)
(5.102810633219081 -0.08995491916624493 -0.01485182166129376)
(5.00040497757349 -0.004111010654842027 0.01089150080303393)
(5.055409137528065 -0.02014096165532417 0.1465701172561739)
(4.313880553119012 -0.03812703136180358 0.1181026816593482)
(5.250926370343991 -0.5947080207101404 0.3627493049810311)
(4.995196238117806 -0.001008803552759702 0.004878443102663911)
(4.978823601089689 0.105697441824694 0.1386252393543091)
(3.359711151045802 -0.1726580937095696 0.3143632275595848)
(5.047000500819628 -0.2181487356352774 -0.01661931689526221)
(5.007828529095248 -0.002208661381968797 0.003365174650702917)
(5.003941484966024 -0.002106708266114395 -0.003697709084536812)
(4.999573544398491 0.000674687743974846 0.0009895661506025496)
(4.681408026245156 0.00631110859577907 0.0652756110492602)
(5.000072863614678 -0.001058340326044425 2.215736189535671e-05)
(4.994224010807588 0.01348155738078416 0.07183437363809902)
(5.028877131625101 -0.01702529537830648 0.02584659894441695)
(5.010635381145988 -0.005805412294329288 0.005552380195108795)
(5.041386576144029 -0.06139301070684158 -0.00991844800141255)
(4.998269493153376 0.0009009469771456513 0.001240838328806904)
(5.031591140199708 -0.03160770408920838 -0.02231750866547148)
(4.706880725007365 -0.1248047592316968 -0.129701884526909)
(4.983893555060373 0.016346452882797 -0.2582525233865759)
(5.06032440837432 -0.1186724655707864 -0.0292362743175975)
(4.999441545572496 -0.000594599626102888 -5.230968815005181e-05)
(4.91592996487208 0.05767579734308895 0.1290268484045609)
(4.999619691704142 -0.000411265049876785 -0.001325469395790709)
(5.051918515860691 -0.08323951608307528 0.02827838598802388)
(4.999238247451575 -0.0004254092380184823 -2.687077796172827e-05)
(4.958982143375907 0.1755938560390494 0.2031731975157024)
(4.989577715836202 -0.003673345229242989 -0.006102862195509333)
(5.203316102254287 0.1799504603046193 0.2308571306364625)
(5.02978655595518 -0.03198076568376898 0.04127090537852874)
(5.021771282828174 -0.01210175300631137 0.01223604139564646)
(5.027191197129216 -0.05131844888211129 0.03316085928929209)
(5.061048725303231 -0.03903222900231613 -0.0678508421294996)
(5.046728740221307 0.03040798724649871 0.1191608752774309)
(5.059430143368425 -0.08127644718350868 0.03155375761699724)
(4.470307873298966 -0.277107745885693 -0.3676593863614844)
(3.370743793257486 -0.1908526433659375 0.242141326569682)
(4.991958097066117 -6.395026967680813e-05 -0.0009938945767710751)
(5.032623094265416 -0.06237992872649398 0.06367083216189255)
(5.068185342940244 -0.06497838608942791 0.1121581065674493)
(5.064067813491197 -0.04813338840996978 0.01796575628996894)
(5.109735501117176 0.01051036240293992 -0.04454003544504012)
(5.038465687278262 -0.03359660085572938 0.03114223930212649)
(4.99964518096048 -0.0004937519222450843 -0.0002779896762416552)
(5.006228082112036 -0.006513905962077318 0.01271406848804978)
(5.000672726618909 0.0009837578841639376 -0.0002258550892298219)
(5.001788371210261 -0.0002988029917589862 -0.0008690003944838067)
(4.831992671688884 -0.1311506862969377 0.09469354438602745)
(4.832648297762867 -0.0477594741098726 -0.01346044832434565)
(4.993465993849386 -0.001412983574044187 -0.00687686649010951)
(5.054556759927919 -0.05496896922566086 -0.002017123187276893)
(4.951350026529276 -0.07248777772317823 0.02710181861226472)
(4.83774675708654 0.4475157338750578 1.42797684183641)
(4.79084496120743 0.02067243262117777 0.03081606011339529)
(4.377914115290083 -0.05381983660342536 -0.04633347886286627)
(5.154178077426681 -0.08523286432449644 -0.007345190325970807)
(5.07473547943269 -0.1143708340529033 0.0308818580109687)
(3.539980279491544 0.1020383308162478 -0.2219459412285709)
(5.074092401705388 -0.09053574696917717 -0.01661458763318789)
(5.034747350311425 -0.03135936749099143 0.04996982169791175)
(5.090455933669584 -0.1318530096731526 0.01215351819229581)
(5.000192446815739 -3.092129397358833e-06 -0.000232148316129546)
(5.042473013782517 0.0006520544767094063 -0.09139058606867474)
(4.951729032810349 0.02923867290472982 -0.01692930058925333)
(5.053269630353936 0.02387802829346472 -0.2008067429816051)
(5.079023874421319 -0.08743761369048425 0.04379481964429391)
(5.037590483180689 -0.009651095036773348 -0.1448387062118808)
(4.99996182757635 -0.0006948278497230302 -0.0003151023098604295)
(5.027159271392518 -0.139480950531271 0.02373447394679291)
(4.81944313616032 0.03778860511576024 0.1261342600116527)
(4.8328727840608 -0.09283270347064093 -0.02507113886112403)
(4.520598263360061 0.04577908331583529 0.04351917802237296)
(5.074950959058567 -0.06320568010924697 0.05088953369846718)
(5.088725463994114 -0.01432357483236408 -0.06467757325519477)
(4.967911180928909 0.004902119940786562 -0.01437437734593262)
(4.72054749984054 -0.1058682777346184 0.01050233941434075)
(4.979295704765113 -0.008061589528361243 -0.01674746507687279)
(5.000331964430496 9.045068054618968e-05 1.497908742147356e-05)
(5.036975587785581 -0.03304521917251266 0.01780204361998028)
(5.092532482990477 -0.07709652015356934 0.01118773071383039)
(4.94216918523999 -0.5158880708000646 0.1768416746136278)
(5.018965835748314 -0.007219593142452786 0.07852892190222692)
(4.968013448392616 0.1309470484870175 -0.05041551441973)
(5.150828199101686 -0.0805273891638669 -0.004700857209003109)
(4.901530114711461 -0.1867036486518172 -0.04174054747466655)
(5.044558347511487 -0.04987194776482148 0.003755059644238149)
(5.033905828031994 -0.008953708280374431 -0.005047675008126116)
(5.104609372269541 -0.1348523654560279 0.07082328319459569)
(5.035408971098867 -0.0142581715677691 -0.05343975419464047)
(5.00049783430048 -0.0007418701195430162 -0.001827088446045583)
(5.044919398399109 -0.02581462781509719 0.02831478555496814)
(5.05492572963413 -0.02284662523576771 -0.0460835990087777)
(5.010072243699723 -0.009046045510773829 -0.0466192515777877)
(4.944706292123856 0.03248397798902431 -0.1686096531229417)
(4.941709095618214 -0.3273501166699975 0.132077277639558)
(4.988384090160323 0.05125396215445797 0.06597683689939612)
(5.012567097175149 -0.005406293397605034 -0.0002067743442698363)
(5.000985966641753 -0.0003537525323242427 -0.0001231439429633302)
(5.293872258104157 -0.1717917459277534 0.3968765311459982)
(5.070769652890626 -0.05626740436042488 0.1231302093149807)
(5.068796212523919 -0.06417152527941507 0.005523231011625966)
(5.07892949035011 -0.05963945385403312 0.005506450023181354)
(5.079991229687639 -0.2680765111857389 -0.1482580860005457)
(5.075439232625487 -0.05663685770720014 -0.071126456525438)
(4.915921888183911 0.3410739593147918 0.1173187346589159)
(5.000478773329657 0.0003396360331871318 0.001539323136567047)
(5.029828036785357 0.01287413116920226 -0.2184338586966822)
(5.086310304991457 -0.07918045306251258 -0.05920168368464052)
(5.027900247684581 -0.01434676672960316 0.02519064230110833)
(4.356218053211109 0.3280392878438308 0.8190284550480472)
(4.999974664404721 -0.0002467108715724948 -0.0005021079572776206)
(4.998776007419221 7.72573478579246e-05 -0.001180968507347787)
(5.004565775978852 -0.001711443582549761 -0.01545883945211701)
(5.000543961608116 -0.0004037901377231685 -0.002532629545023031)
(4.219382741255044 -0.006291028631081814 0.02869858622167458)
(5.168449275841588 -0.05617485653212328 0.1846165590917633)
(5.030913243577451 -0.03235328475866461 0.00576229140221464)
(5.014147320127798 -0.003300335952436535 0.003453645919208206)
(4.965722064134108 -0.00106149017226641 0.03393381137368701)
(4.997024387763426 -0.00091264732696793 -0.001161910683107045)
(4.996066405049867 -0.0008487635771416638 -3.396260819081856e-07)
(5.012205288410879 -0.1487614124042562 0.06058345015657105)
(4.999486690212569 -0.0007437464684559449 0.002152540896898549)
(5.078302045674177 -0.06291619164042626 -0.06227349276526179)
(3.332789684920446 -0.2855851172553027 0.01168608278437795)
(5.016839009765674 0.08530020811819113 -0.1618800096020861)
(4.999583614728945 -0.000689639132668641 -0.0005167693533261722)
(5.078790812294745 -0.003911560381483965 -0.05320195732354269)
(4.881707715603516 -0.1158135664269647 -0.1226633722696901)
(4.948148439508913 -0.02755935082742358 -0.02792220287922753)
(5.176504163153329 -0.1070122865036282 0.1471675399927951)
(5.054908125112046 -0.05772234349397831 -0.04744811971155086)
(4.980313206819738 0.03438132428747973 -0.2006536762019639)
(4.988028330549656 0.04489168183010544 0.1103514613133832)
(5.024211124540112 -0.01283676513776842 -0.01740308971100776)
(5.001898207400913 0.01161363791444581 0.05778395912026698)
(4.998469464729896 0.03905906946544783 0.05920217289528156)
(4.708983463326929 -0.03704746746507787 -0.1440034773858536)
(5.003356661173124 -0.0005457132699693979 -0.003018086964645591)
(4.240389315949205 0.2549183774351281 -0.1092198583261543)
(4.995324298983891 0.08567513389388207 -0.2201483812703492)
(4.99955325194766 -0.0007684731882230268 0.0003615872152779321)
(5.032411587673638 -0.03161388087160549 0.008594454317432644)
(5.020876411664956 -0.006922011008304405 0.01832596846407902)
(5.07675457337771 -0.0456260168140622 -0.07188426425879876)
(5.025428743134327 -0.01695863333835154 -0.01311879906104314)
(4.899618391520829 -0.05677504286847943 -0.3087221587309428)
(4.922279766307485 -0.1199120821773054 -0.0458235293735194)
(4.688125903587068 -0.2040923396183419 -0.04358869858345504)
(5.000342326951394 4.178643848767803e-05 0.0003583357796613229)
(4.985503516522707 0.08366631395630927 0.2683076092925157)
(5.035559805551161 -0.0362804408151528 0.009863704745765313)
(5.030263727154503 -0.005741712474580551 -0.03877525252620027)
(5.03195525159249 -0.02671310807558936 -0.02441301340401111)
(5.069573566843899 -0.04196814418061191 0.08356747759067586)
(5.035442608872344 0.006407414944033762 -0.004725918578680596)
(5.07452390310144 -0.06329028716347165 -0.1266008205673196)
(5.024160490027367 -0.006420186445145905 0.05056557765905522)
(5.096657652928087 -0.1302548279480356 -0.03584129145736893)
(5.030212027322927 -0.04142734067038777 0.06771326855821477)
(4.955870758849251 -0.09426739384387944 0.0634484782600503)
(5.0867647198975 -0.1062537963741624 0.03169773896847321)
(5.063144799752575 -0.01771367016510253 -0.04201332261628928)
(5.036662137307991 -0.02958342927688169 -0.0105874087792067)
(4.785506772909986 -0.05067949440244932 0.1646144902651702)
(4.966526182407272 0.09031053489181642 -0.1847568169924829)
(4.995520203100178 0.01202101398681311 -0.01011716833850299)
(4.97732530784615 0.1457337325493917 -0.002910049660770761)
(5.029019037013268 -0.0239422762277598 0.01334362023225689)
(5.017643225331685 -0.3376175143829231 -0.05243856265051229)
(4.999751902297705 -0.001091165400539964 -0.0001958094335037036)
(5.017732633978748 -0.01131796231220401 0.03486920197888928)
(5.038046105621831 -0.01513562757768345 -0.05054405937354002)
(5.000047661884131 -2.840298772898823e-05 0.0004141135651544815)
(4.999947084005035 0.0001467164047530805 0.0002850517087640502)
(5.061465982723722 -0.03438433300605152 -0.03377320428445144)
(5.005904281064514 0.003171943946884037 0.09208653739396581)
(5.008282194149113 -0.004268560044836433 -0.003837521780162949)
(5.000941534373076 0.0001435499673909956 -0.001938845443451449)
(5.000329931510129 -0.00154689762760132 -0.002232100707763849)
(5.010770769167648 -0.002997084770966652 0.004300745554605981)
(5.031804934378588 -0.02507154655178194 -0.01414849524177909)
(5.004138850634367 -0.0008390140890198845 0.0008888972419953886)
(4.779654716460274 -0.05739148545010758 0.07028144673378499)
(5.011152186084313 -0.002041242556504617 0.00121660989827411)
(4.999325055864333 -0.0003971760594745151 0.004603364635547153)
(5.003088258621674 -0.000401153378154737 0.0004891023431016729)
(5.113725358085561 -0.09660763151292427 0.1325869755397004)
(5.103536760548492 -0.08877646037230398 -0.115616985053374)
(5.000132070831151 5.005326106422583e-05 -0.0001657825569213136)
(4.990794300049221 0.001753822032938293 -0.001232552462682403)
(4.999990698834598 -0.0002576213042221742 -0.0004584290477313127)
(5.095129364014354 -0.08313147471212273 -0.01730295078383565)
(5.08004776659843 -0.02044423975828057 -0.004653174470817376)
(5.000395537591944 -1.702576494105845e-05 -0.0002061628104428431)
(4.548260694649503 0.322356542658665 0.4912360710765605)
(4.794886148605901 -0.1908222265679958 -0.07290413337368336)
(5.045743060255438 -0.0652402228901004 0.04675323427111393)
(5.000434829444177 -8.594392017402214e-05 -0.0001340491461318915)
(5.001374392944845 -0.0003729546831800857 -0.0004718010628047035)
(5.090187251240825 -0.07465318026067944 0.1002570369803866)
(4.989988470088914 -0.003520742717093571 -0.005631818208823627)
(5.057686834517554 -0.0974674508036206 0.06558347540469099)
(4.339751281059476 -0.2102584822059017 -0.2200153823382113)
(5.038578512043302 0.07081757791797301 -0.1241008870402996)
(5.001755161414141 -0.000601992533295444 -0.001736772417682087)
(4.813536948663648 -0.1518492486109478 -0.1981731327696617)
(4.475724981738075 -0.1818690958817233 -0.08854337031896495)
(3.665665802696128 -0.1944396153910435 0.2183376767211956)
(5.088071526725362 -0.1409457007027718 0.1462568805038361)
(5.051105872292856 -0.03305355047419205 0.05182259476684847)
(4.491149129133533 -0.2802369054621675 -0.3457044607900582)
(5.073451219741363 -0.1613768217432521 -0.04210241587977481)
(3.659079085754633 0.295048736434399 -0.06340900264436025)
(5.088058410026028 -0.08833822727084087 0.05940465774891962)
(4.983413767771776 0.05345823981894787 0.02476205763991586)
(5.077000547172496 -0.05781281915327065 0.0294818120357592)
(5.046938831183117 -0.03462184865347067 -0.03420512333493128)
(5.060555052144752 -0.05916850543175908 0.01982426152125354)
(5.08406895260403 -0.04728613777059231 -0.03059533028405065)
(5.056444544946757 -0.03505444073945396 0.05229156788140862)
(4.757837089087534 -0.1924518410041573 -0.2669388931011681)
(5.089219959101915 -0.06102895364096989 -0.05705789411869749)
(4.997810024886255 0.03357690408335959 -0.03296855132652453)
(5.004747273576711 -0.005122564737728698 0.00891792685270835)
(4.98743029231966 0.1538592859935562 -0.01000821995206785)
(5.087603800402879 -0.2298919752477993 0.5207573910263245)
(4.966735706481032 0.06330899436333849 0.09701931522631263)
(5.02392141129959 -0.0108412013293466 -0.006591516324275517)
(5.080425377113773 -0.04809436648040689 -0.00056475043745859)
(5.042463700438815 -0.05056118282611397 0.0001109617328225489)
(5.01634224667851 -0.00364608725677119 -0.02127720470044279)
(5.02082197189861 -0.01509312741562516 -0.01073871765835022)
(4.976174124673412 -0.003877764268212631 0.01248678221200068)
(3.750096264808043 -0.15659186689673 0.5051188201427931)
(5.036885856826679 -0.07937343137386911 0.01910169536171554)
(5.006358122766208 -0.002896582247413568 -0.0115099516385855)
(5.074712316993799 -0.1338002646838204 -0.09412020650437511)
(3.460156334752236 0.07542352911317847 -1.476817361758779)
(5.000130594400182 -0.0003818205198175328 0.001562754004078234)
(4.524493239813529 1.033766617846657 0.4359111083627334)
(4.94472924950542 0.1577672259269956 0.0712161919618271)
(5.066255953111131 0.02422061627748296 -0.05027645654204934)
(4.999523200572249 -0.0006425835969764881 0.001298105862102645)
(5.07264064334502 -0.1411275252719552 -0.08660021315672853)
(4.870306491695794 -0.1989333953205431 -0.3136637054506022)
(5.102447889609759 -0.1399190965141012 0.07121129754891259)
(5.000569657687513 -1.907718211334135e-05 0.0001760012302263677)
(5.067434556204654 0.1922612756910557 0.2856208103595033)
(5.000292038798727 -0.0003155431464368095 0.0002050671173785971)
(4.978387074564215 0.1185732382156618 -1.008021141832137)
(4.334968447482841 -0.02169917720905246 0.0513624093177982)
(5.015526081510751 -0.01500399416465691 0.01944002627136808)
(5.062928187507154 -0.09376161892898359 0.06139619459106416)
(5.069286240768091 -0.05427556347864358 -0.04982870112787999)
(4.558913968692523 -0.1228213531781891 0.0793241790180466)
(4.823877424005118 0.1095860002375962 0.07199405573216092)
(5.000508448638445 -7.224983194394129e-05 0.000199487430824381)
(5.000263388329546 -0.0001662406490576242 0.0003297589429554061)
(4.99404480321141 -0.00501216972313153 0.01989710500829073)
(5.060328024487048 -0.04653224030713298 -0.01894151811428735)
(5.041949772596159 -0.05711617650941585 0.02531314219859139)
(5.000498361926466 -0.001386540810377285 0.001954182251294339)
(4.979995260959261 -0.003313030908101979 0.004207250895172979)
(5.000637436300095 -0.001002945739325396 0.001063834301781607)
(4.999502625969448 -0.0008633650502149414 -0.007795600566835276)
(4.990672387309171 -0.001516670423488368 -0.01321731772610022)
(4.948198711189902 -0.0101767772015151 -0.01848087211960813)
(5.028553783997747 -0.02193930197070587 -0.01496569771929766)
(5.07342024542539 -0.0296506926056095 -0.04172627137553613)
(5.218370843456325 0.02008158177954409 -0.2419721217284422)
(4.992973582509922 0.002735953689660184 -0.001126972274964113)
(4.926625105800599 0.04111063437211174 0.02697686125673999)
(4.806947173095803 -0.0232605479400662 0.08312014958422478)
(5.068727771763111 -0.07541431465621332 -0.03864546627785403)