/*--------------------------------*- C++ -*----------------------------------*\
| =========                 |                                                 |
| \\      /  F ield         | OpenFOAM: The Open Source CFD Toolbox           |
|  \\    /   O peration     | Version:  v1906                                 |
|   \\  /    A nd           | Web:      www.OpenFOAM.com                      |
|    \\/     M anipulation  |                                                 |
\*---------------------------------------------------------------------------*/
FoamFile
{
    version     2.0;
    format      ascii;
    class       volVectorField;
    location    "0.1";
    object      vorticity;
}
// * * * * * * * * * * * * * * * * * * * * * * * * * * * * * * * * * * * * * //

dimensions      [0 0 -1 0 0 0 0];


internalField   nonuniform List<vector> 
19631
(
(-0.0001651166701561531 -0.0001670549824993604 0.0004244116300935509)
(0.0001861372148315552 0.0007806077721525511 0.0002352373806544805)
(-0.03565434265288709 0.07090758521673028 0.06273358028885997)
(-1.559523420686156 1.215926873355899 0.05714168209080617)
(-0.0006931791670569137 0.0009536361638517136 4.385037724703998e-05)
(0.0538556584728971 0.01979830659246875 -0.02418985386540275)
(0.0009878335175819931 -0.002605080632261446 0.005788739616550889)
(0.003218355602267309 -0.004292786250408136 -5.711426787042242)
(-5.648996682802097e-06 8.455107511669734e-05 -4.028330160942445e-06)
(0.004859653562389227 -0.004354747335744025 -0.0005023137589854573)
(0.002799479343925986 0.003266374748727918 0.01063101237675673)
(-0.001514647616046978 -0.0001326548791083385 -0.001383317497417721)
(-2.177562178398469 22.92556262663315 6.94456345514694)
(0.0001576717222070913 0.002689355078291485 0.0008689575176758482)
(0.002653094140455347 -0.0009089742165311063 0.001674741967185966)
(-0.001181876432017274 0.0003988847270293168 0.001457151755297455)
(-0.09051808057325123 0.02952416416333604 -0.06778061201982626)
(0.0006699948621150332 -0.001148579468626614 0.001609988900705637)
(0.000120080955802631 -0.0001090869824211017 1.879989797533954e-06)
(0.0002121030454489065 -0.001142896228561898 -0.0005951260615498204)
(0.0001826878967955571 -4.10578055152437e-05 0.0001166309233371616)
(-0.001361946067416517 0.003944972969261464 -0.004814549535319645)
(-0.000264011813522484 -0.0004280473749759409 7.601279184112819e-05)
(-0.009264014925839129 -0.2301569021695836 -0.2285332526177725)
(-0.00165738004779224 0.001097543269945391 -0.002626167320354299)
(0.002110633164533866 0.002368242450697285 -0.003191898147730884)
(-0.004664509837874721 0.01174052357734986 -0.006229902480014555)
(-3.790375180305882e-05 0.01014366406736242 -5.934931098546834)
(-0.2828828403900653 0.2518242211019504 -0.3925083677229759)
(-0.0003076735100097793 -0.001364035210004225 0.0005214285017398643)
(0.0001046247640777273 0.0005671932330969839 -9.496175683664732e-05)
(0.01499961476302506 -0.006415435126763985 0.03757636426311928)
(-0.0001355284503812665 -1.760954672043209e-05 1.621221152170908e-05)
(-0.001073715236685337 0.004768872008583841 -0.001227290132307373)
(0.1701107838246859 0.1316486347640373 -0.08803720152628684)
(0.007216888696273937 0.004965065052228761 -0.002851422722668905)
(0.002251116111084472 0.0006328662507003738 -0.004258917610690119)
(-2.618223513903777e-05 -0.0001250779878046302 -3.482021428432284e-05)
(0.08809637329619309 0.04231886558435313 0.04197030231372793)
(0.01332135149587939 -0.0148662110378846 0.003243891394256523)
(0.06662019705525346 -0.04577322751144891 -0.02533224792047654)
(0.1912576633409747 -0.05224068339468951 -0.3363988909143696)
(0.02980208302802926 0.001848392108042333 -0.01321270690555397)
(-0.1748595406463365 0.1750095831745663 -0.1645705605609026)
(0.004505063238992224 0.002681360869503406 -0.05853317124441775)
(-0.3373640195239854 0.4783325765074518 -0.0285904323246482)
(-0.3557920492668364 -0.101544857996475 -0.05421226342642549)
(-7.166703888633634 0.7944039594610359 0.1372552031798671)
(0.00216540124529414 -0.001013355895850162 -0.00892517769951047)
(-0.04656348637186706 -0.00114062703033093 0.0169849509571615)
(-0.0003561582386932739 -3.158964889322938e-05 -0.00221447524094121)
(-0.001201627812911226 0.004952192479887456 0.006391015809884256)
(0.1708912575032464 0.09727904770212303 0.01324218210856681)
(0.001803719141277232 0.007428307530818534 0.002561819775012352)
(0.0001467154550021386 -0.001969440395511664 -0.008103537471638451)
(0.06890708402792259 0.09638874799685304 0.02645655569629322)
(0.07674862141186557 -0.07381620421282716 0.09724576042510771)
(-0.003287159175561463 0.005259237887962629 -0.001330782685344661)
(0.05269376376450062 0.03704608947127765 0.03695229732151892)
(0.2582280116721006 0.2536728309916022 -0.435928247565563)
(-0.8603070945148888 -0.09573999660757371 0.3336033144880408)
(-0.1355479822435797 -0.1562858409352951 0.09794743689865118)
(1.255213260735617 1.39125676803109 0.3913799363012597)
(-0.01915691741553038 0.08375708764053143 0.02747526582796175)
(-0.173712444848357 -0.0965928014212819 -1.320317004231047)
(-1.579026076378735 0.7664409359936787 0.5257828398586228)
(-0.0001861428713448099 -0.00240796614160959 -0.005841881019797487)
(0.0009107614009512692 0.001029344073987619 -4.743744772639828)
(3.82244078357123 0.4811597696123541 -2.549736614680254)
(0.005301199032389129 0.009701958831965025 0.003476596467894725)
(-0.5563494111760575 -0.2571066374331121 0.2497470183477524)
(0.02089146763173903 0.2172601805243819 -0.08238355918579562)
(-0.02586471739625586 0.001364653965668537 -0.02004380556925722)
(0.1841359375837452 -0.3316431627381986 0.3976234152252559)
(-0.07815438797974102 -0.005639141628229025 0.04608830465587932)
(1.45354104698988 -1.064295294519833 -0.4311227458059435)
(-0.00229966996542094 -0.001251941030204311 0.003587925506591303)
(-0.5811004961326163 -1.355153742429001 -0.1488391982499846)
(1.968622897313034 -19.8462320009647 4.937901346486135)
(0.0003525727021582301 -0.005527135191268278 -0.001274395470047136)
(-5.45342190921756 -66.1346853302781 -8.147987028130705)
(-0.01009837948145103 -0.02391690049475928 -0.1251798905198644)
(0.1591615254411743 0.4425937236395048 -0.1221506288017968)
(0.01356028248749053 0.2525234824455787 0.345905952766042)
(0.01328815166102761 0.01283454047623163 -0.006966896532484905)
(0.08697075040036566 0.03749860537629866 0.02566522515863765)
(-0.03615387304932535 0.1982381615423928 0.01778619766841677)
(0.02438889578861932 0.02646682423090205 0.0806986193421606)
(-1.91904896098605 -0.5810005901510725 -0.526870072692688)
(-0.07182236165046021 0.1434236553176702 0.1672025414869636)
(0.001875899703302132 -0.03126376102129536 -0.1075705458539152)
(0.02357383598478913 -0.00528653294070632 0.05407287568345265)
(-0.07441373831285177 -0.06010625747242551 -0.002148090301264886)
(0.1586601678721435 -0.1159252402870129 0.02351458346918426)
(0.04886051016975219 -0.04038252214687573 0.01567407443332507)
(0.003079596361186175 -0.07367297352205343 0.05467136806769268)
(0.7915162117984778 -0.6291873096750944 -0.06507982285920305)
(-0.01309746379216833 0.2041960433082379 -0.1151926755220235)
(-0.01324971904981031 0.08108561661509364 0.0611810598180251)
(-0.07972128303148293 -0.0396174618800799 0.0290824988721486)
(-0.001140715066068236 -0.002798362352484985 0.002170642672640691)
(5.550749930393396 86.0528548573983 9.959656050100214)
(-0.002276997707472085 -0.005265667708437678 -0.0008611562199734417)
(5.169234786586652 80.54713958825313 -9.716526276899089)
(0.4595321571614922 0.3332577093549282 0.02884454642550849)
(-0.01414343882390058 -0.003895254855796587 -0.05282610714651651)
(-0.001366773170982765 -0.005312254066931411 0.004579860786624884)
(0.1194048638871285 -3.325264009633269 2.774331389250483)
(0.0002615511481818829 -0.007310176840785105 0.004124028353670012)
(0.0009419271054606355 -0.002104228190182277 -4.593161679605065)
(0.006025403158007729 -0.000425828643883925 0.002274841186520591)
(0.9031638139575665 2.465198192593406 -0.5503173421937174)
(-0.0002444493324725327 0.0007861397299526156 -0.0003689370028918913)
(0.4811264685149962 52.68539802609589 2.737632407239024)
(-0.01823401493672352 0.0232705628277171 0.05082472028420295)
(-0.4880675147943432 0.1198052048768861 0.02420263005192469)
(0.07732267975681069 -0.03480636035576853 -0.05689612038584117)
(-0.05448352315479302 0.03079333591373951 -0.02316202776240963)
(-2.562712930868869 16.17859954140194 5.34284818167222)
(7.661725578420289e-06 -5.295170074701308e-05 0.0001020813364944413)
(-0.003201855188316699 0.001869526259470392 -0.005317594807670681)
(0.000484319538495708 -0.001819283491244099 0.001303339242995076)
(0.0006449306157630908 0.006392284859603223 0.00112081107884898)
(-0.002213224545943868 0.009846139637990891 -0.01408108792659653)
(0.00081796238271742 -0.00233194903409663 -0.00315285848412801)
(0.001378920868584184 0.002346336024263786 -0.0004379631157673215)
(0.004011828468250212 0.002640329190493598 -5.672172012754204)
(-0.004194002027693289 0.006672024970778723 0.0003117900211459263)
(0.002430130386000629 0.001600666034908874 -0.001642271659114548)
(-0.0003321835926880028 -0.005564020370892583 -0.002775360072783907)
(-0.002575041627393919 0.0009073767407499374 -0.003707521731632425)
(-0.1814358285434159 -0.1401347398548125 -0.2078768037724978)
(-6.016861822060672 -49.28784313045171 3.517917253237432)
(-0.3626541999780406 0.8538401820785223 -0.1770807508809741)
(0.00295473954539062 0.003350804501820963 -0.004120056381646017)
(-0.0009501110014611884 0.002579582750008896 -0.001752339045538394)
(-0.001962291009354958 -0.0006030129370389863 -0.003756700265095332)
(0.001386318736904803 0.002141006519836168 -0.009480580189478907)
(0.0006903296353304796 0.003741331327272121 0.0171195924796866)
(0.0121816782750284 0.005423319576580361 -0.007520871913640636)
(-0.00178075992671519 -0.0009383913589154168 -0.003040203570122262)
(-0.0007093278175777921 -0.003623122720314688 -6.095298891570472)
(-0.07463403210450922 -0.2687935930434328 -0.5261251930539783)
(-0.03682676380068426 0.0115147809041489 -0.008145012420941579)
(-0.06625978234373278 0.06980938885612033 0.07975405019900267)
(-0.00184190438870234 0.0096325570362687 -0.04642306040150068)
(-0.04376937222641283 -0.0370567170451137 -0.01524536112953173)
(-0.001341658354726107 -0.006044242861610576 0.00410092537948045)
(0.916958193353101 0.2069461412728445 0.1136415838392124)
(-0.1666030471559025 -0.04680114579155636 0.03780163248500812)
(0.0003015603048698246 -0.0007616531775117375 -0.00151273327483508)
(0.001535016731361318 0.002949876393636119 0.0006594078123425633)
(0.0006422556749866597 -0.00335848017954952 0.004135557925234633)
(-0.001444473599107492 -0.003261030680181406 0.006238462204574987)
(-0.001525606089674798 7.84707451446081e-05 0.002729927142565924)
(0.006214896702735614 -0.001614779783863065 0.002242900090603326)
(0.301888556922134 0.005057588204013551 -32.68892245000399)
(0.03089386853237416 0.04441213574549567 0.03734222617816273)
(0.01237352771383702 0.01083481148939281 -0.02937038807245843)
(-0.00256324143612363 -0.001752850543895197 0.005355005177061592)
(-6.299114283059163e-05 -0.0005160408019984651 -0.000330451355206638)
(0.003069637422584274 -0.001143639096493108 -0.00262168147605542)
(-0.02194682972219442 1.061316055078923 0.845778847276045)
(-0.0006409645107955975 -0.001650617963020586 -0.000682891249800407)
(-0.008358121235788711 -0.002445217509160566 -0.0009737015229977393)
(-0.0006947015792013681 -0.00269616268615801 -8.817309223053352e-05)
(0.0006176431398176147 -0.002545227521011671 0.0009872827356405814)
(0.003376645015142809 -0.001201454273673087 -0.001385908400605504)
(0.001302970360560307 0.001908891185816459 -4.204947175207697)
(-0.02489756271635751 0.5574946962410676 -0.1873699874777386)
(-0.003132680040309617 0.006872125964051309 -0.0007341323250865945)
(-0.01358331910747762 0.01823680869318969 -0.05574295378153026)
(-0.006381755392902451 0.01301714339057946 -0.05274806468227088)
(-0.0009317578118027403 0.008994846133165757 -0.006680604893609904)
(0.007224824219854365 -0.008361262832595156 0.0009643289824832809)
(-0.03070328509671379 -0.001361109888844889 -13.28310788972578)
(-0.001453136980783812 0.0009228518641525542 0.001223499741636709)
(4.141741618162679 -5.541043784932919 -4.797679283633732)
(-0.0004093510584286992 0.001930363944946932 0.001033187680187137)
(0.04173141537325993 -0.03472424341551694 0.1563024000042627)
(0.04152914942208653 -0.130015139686977 0.05109053735926675)
(-0.0003956904964639488 -0.001691737514257318 0.0003052919772994343)
(-0.001318308654305589 -0.002623295095841654 0.001610249019202986)
(0.0001797782949960883 -0.001480972725663158 0.001136821142466539)
(-0.2090746149176266 -45.75469852730615 0.7083214734960356)
(-1.805680804239457 -41.44406924864006 0.1447909326038991)
(-0.07617800019617124 -0.02096201567564389 0.03417281019837903)
(7.093300714512118e-05 0.0001787842004679825 9.443975780170001e-06)
(0.1990387800005377 0.2079724753940657 -0.0921641746989476)
(-0.006277216147427816 -0.003271631927121437 -0.0004304183644496685)
(-1.098496012052312 -41.76877350255936 -0.4129437308191448)
(0.0394706609101524 -0.01229103694190216 -0.0512649810821102)
(-0.0007912061557722263 0.004501354658460707 -0.001125694433796556)
(0.04634904556573053 0.02515199500580296 -0.02009374597833329)
(-0.3886206593595192 -5.984936176899551 -2.626438898825675)
(0.1440780954069529 0.1158624673826458 -0.02472367039845065)
(0.001789162630434726 0.004367350674961345 -0.001636638558112014)
(0.2384640127115089 -0.2210465965041212 0.1559005509547935)
(0.7580931757330818 46.85039457604096 0.7747869407503633)
(4.42092914539789 3.984816734330862 -0.8231986902023537)
(0.00120564759476031 0.0001811873844262337 0.001513492272767686)
(-0.5440868535031732 -0.2560894245581217 0.2473793925129378)
(1.712100761332343 65.81089600070088 3.150341433267294)
(0.3171475054194753 1.589707514780373 1.206386860652968)
(0.001208332685602234 0.0003792326765459979 0.000564370892249158)
(0.002133347603789402 0.0004364158428173329 -0.001364323961098846)
(0.00101004808417199 -0.0002625515129836883 -0.001460438392757289)
(1.656202538036131 5.278156216252899 -2.997299165050019)
(-0.0001055416416881895 0.0001323143329975412 0.0003240164509237703)
(0.07643569145074652 0.04136006998341718 -0.02413764287783636)
(-0.01584041797748151 -0.0006877934526132307 0.00617538273898084)
(-0.001358314095841773 -0.005824724751231749 -0.009335248858018988)
(-0.1075210239501064 0.06174425336124163 0.001179670244939039)
(0.0002058978671833312 0.0003675267722206077 -0.003045927818311663)
(0.009338201196263638 0.00256924398028335 -0.01789346735376225)
(-1.301572623719823 -69.4713253796026 -2.135086397450322)
(0.1031245822025163 -0.282350493338987 0.03297840104144034)
(-0.2039057180969361 -0.252669089910462 0.0193718964050888)
(-0.0001048538815873186 4.68383668075877e-05 -0.0003163176823185644)
(-0.06270608647907912 -0.0881195732459371 0.1543899227257158)
(-0.0002930978060266773 0.0007139816304463065 0.0005212563124335272)
(-0.02171902173793008 -0.08102360206276266 -0.1116771764365959)
(0.000786362101467924 -6.345556916049195e-05 7.02984325052316e-05)
(-3.62218465411591 0.1594315559114469 -0.6261054148471604)
(-0.005896288344286151 0.01423492464197189 -5.705007588955831)
(1.308702797890781 7.572334826353452 5.410533939510112)
(-0.04020229702722904 -0.01940572079854639 0.01112690584514749)
(0.02880241818951451 0.008598268937184555 -0.003210305294644205)
(0.1128512951689327 0.3090541034851979 -0.01098028979163872)
(-0.1437115070504129 -0.09624340078106765 -0.004094014878958496)
(-0.1490275810488586 -0.1014728206515104 -0.06449020959017877)
(-0.0502883872686645 0.08754842896340362 -0.004386656787903658)
(-2.994362868788821 -47.7386317569159 -0.152439812177888)
(3.137014418513676 82.38194077246089 1.364804306186926)
(-0.002661394280295923 0.005479292959394763 -5.99073714957268)
(0.05826441849537035 -0.0880104559239297 0.002997682152850647)
(0.4149647803595641 0.1972584234513014 0.1001487734155908)
(-0.008792156100104927 -0.01786064573279137 -0.00345565300827601)
(0.5687811093931556 -0.3541299642811179 -0.2533696414949815)
(-0.008409489702016807 0.05589791981143806 -0.03793815302971443)
(0.0001110104788225279 -0.0003441303681704454 -0.0001494257901578912)
(-0.006341725741892583 0.0002260245572390858 -0.001041911061501989)
(-0.002121363730853374 -0.003556829066936058 -0.003592262722879325)
(0.000376099180018067 -0.0002989400611165841 -4.177753837325502e-05)
(1.61769795300408 54.16241850758638 -0.9905913265435153)
(0.1656937892221383 5.535252921204978 1.013731342986129)
(-0.003190895137285593 7.247685292404945e-05 -1.120525359121923e-05)
(0.08953732478030034 -0.02556565401048473 -0.012755158558562)
(0.322790653572823 -2.727686370385589 2.07270161183919)
(14.83673667868139 11.22848706279477 -1.334920421524338)
(0.4925858173042493 5.987616524169785 0.2201988460815376)
(0.16470390192399 -52.33866655850984 -1.813592334234795)
(-0.05883932722417287 -0.04974869702365647 0.05159088350191488)
(0.1543392768074501 -0.04162498190968018 -0.03879356639771232)
(-0.6777631468867468 46.29628004906141 0.5808164118159634)
(0.1289192598367945 0.1806527367934957 0.009648960797788821)
(0.01378249564145984 -0.01997109400294796 0.004647762250872614)
(0.3144481319365338 -1.196522459536 -0.06177919501621085)
(-7.629941476404e-06 3.515671717506422e-05 6.910713002660343e-05)
(-0.01673027725484512 0.1121860028136697 -0.1331369972667475)
(-0.01277881204299284 0.03516676464127391 -0.003125755778512408)
(0.3646348790284202 -0.06977119257097297 -0.2307311152101908)
(0.1180126409842664 0.05728509376097526 -0.02309289813775642)
(-0.2285443810040764 0.0422431231090605 -0.1269223972814978)
(1.147901956244956e-05 -0.003251145485689903 -0.002036884948523442)
(-2.23193488937282 0.7458891005942176 0.2980968167526323)
(0.06052296183877104 0.04968577760191856 0.2560033976604826)
(0.2711189810992634 -2.395371534251981 -0.8478345187187565)
(1.518473273572455 9.39720037406658 -4.659391209906957)
(-0.04340085833699173 -0.05491399490103117 -0.005187030693406227)
(-0.02030719796350333 -0.138844031027624 0.4060151916449823)
(-0.005358911702644536 0.008359587259112188 0.005378749918215732)
(-5.64065790750856 -4.889837785566377 3.441597149261991)
(0.007555066158722962 0.0001297207311436715 -0.008762321952835279)
(0.0002441326077118424 0.000161105563620781 -0.0002511522154746865)
(0.06229891110995445 0.02005295155432578 0.01222440420872587)
(0.3337245133058201 -0.7918808564372781 -0.3815997110059476)
(-0.7773725519670922 -19.53351366925078 1.781621683843917)
(0.02709523986958045 0.1042539013319811 0.04478946587770963)
(0.1588244816290102 0.1998048426508446 -0.05517381105693126)
(-0.1059335576082069 0.09830811886340451 -0.1068090576507308)
(-1.389552601197975 -2.898874682906988 4.591351143002156)
(0.01144955176416982 -0.01205562997717493 -0.01163190602025525)
(-0.03331650844680548 0.00555099640227902 -0.02249332097628496)
(-0.7844794999027951 0.1124105685371865 0.2434098632076531)
(0.03080863369317449 -0.0492525951129764 0.01901851262948799)
(-0.0002564205992546654 -3.552728024401566e-06 0.0001360420794903664)
(0.01658779482144324 -0.007922016552760671 0.0127400847293423)
(-0.06831277600635678 -0.05793953307829296 0.03537846212009034)
(-0.008654835812377765 0.003678397709039768 0.01297242751589195)
(0.5463434984615856 -0.3290691507991128 0.09863839461721086)
(0.4118795766494482 3.862675253373857 0.7763701948052917)
(0.1158183497894651 -0.02553552929890711 0.0478354837614818)
(0.0008814418771610415 0.0004233534434012428 0.001590169982578471)
(-4.638231884600909e-05 -0.0002493834924088342 0.0004945516252139119)
(4.623709361365385 5.711239860381027 -8.702637011345848)
(-0.01494050010936143 -0.02153058059421079 0.1319799775130931)
(-0.9210784802443508 0.09435840800279541 0.03411638122263566)
(0.03474904429451431 0.06555919405867124 -0.05499779148697771)
(-0.177117980111588 0.03823506802245746 4.178083273350532)
(0.03545389627410275 0.4475337927922343 0.03681395567601017)
(-2.401023825346176 0.6048563476040747 -1.151819701048488)
(-0.001146737270369246 0.0002870077464630358 -0.003486544689021525)
(-0.3948658654163835 -0.3187408684924719 0.06640747199638022)
(0.1302809844518564 0.05918364726406326 0.05774210638778755)
(0.01380880024174237 0.01611906197043578 0.0463118530587972)
(-2.789740026901494 77.97804706403254 0.6571705697669774)
(0.0003735806034971106 0.0002354253917011269 -0.004026118433447076)
(2.706871181544141e-05 -0.0002138898248340442 -0.002414617458816584)
(-0.003371008562875862 0.005681082523488354 0.001844846815101892)
(0.0002876894255575655 0.000114086743763085 0.0008400643333852337)
(-0.8192107099915977 50.47338053056076 -0.6520305572306599)
(2.005100741406777 0.08258425882014642 -0.1490388687342772)
(-0.001238862784589201 -0.001263000486286454 0.0005709499480245506)
(0.0003279324148622426 -0.0004204443424255522 0.003988531346383965)
(-0.005074638426813244 0.03694387312305577 0.03847820212732953)
(0.0002059947350407396 0.0004083562494421217 -0.0001888491967483195)
(0.0001749008105730069 0.0002036429985230011 -0.001377704961318416)
(-0.1004234882567312 -1.097590287078208 -0.09451957999743918)
(-0.0003092248104388819 7.227341328661861e-05 2.350104373509538e-05)
(-0.1274573143795703 -0.05392631703494755 -0.01897733788890399)
(8.522034894917015 82.15662106180604 2.767749052123565)
(0.3533457645201853 -0.08583419553278722 -0.1588476820310537)
(-0.0001093803880664764 -0.0001214465235695368 -0.0004877140378606022)
(-0.03663520553730197 -0.03508655881717196 -1.274586518039964)
(0.3584008739346579 -1.348768821536166 1.943213527102554)
(-0.006487493276505113 -0.0279407985427147 0.05300670856318098)
(1.014577933245966 -0.5092545051505697 -0.5857463542675283)
(-0.05853037652088366 0.07133542229457873 -0.03945372390605405)
(-0.6493651648429998 -0.1888698373333891 0.1046430065066455)
(-0.1338507907081743 0.02505965585537503 0.08596323734605689)
(0.01965458047941566 -0.008670828748040201 -0.006063319140347311)
(-0.03711314870302164 -0.003824105007934037 0.009794890118857737)
(-0.05862490921849103 0.00590826075948369 -0.08290489706947833)
(0.1641173761483178 -53.72736344686298 5.042034130598788)
(0.001398473955326547 0.00399443919572005 -0.002206694735410755)
(1.622449020054591 -52.89790838774154 -0.8251640806111412)
(-0.4352155913223995 -0.7697460555113963 0.4476799862174718)
(0.0001288440896246859 0.0005122115015793339 -0.0005153151775986842)
(0.003334929962566981 -0.00343097866283926 0.01502997992925435)
(-0.006728600915790438 0.002296913567035597 0.004696308233332624)
(-0.06837790021860615 -0.03934429152869907 0.06635341455676982)
(-0.003624143246121989 0.006395779276962761 0.00147780230127483)
(7.880506890783922 4.034823752163619 -3.090179457990654)
(-0.1211446115044298 -1.053442411741879 -3.293425781783741)
(-1.428256361025468 -3.535895505831268 -4.34828626957389)
(-0.001402560951777924 0.001058850241529672 -0.004054498230056486)
(-0.665016262437779 0.1172264588920923 -0.1241407934482159)
(0.01011638732956457 -0.01497729810756249 -0.02764134789106985)
(-0.04623675711069697 -0.01781044772509064 0.00798609090557136)
(0.005269128665766403 0.01714593451705907 0.04734492770055613)
(0.1456391468985494 -0.02249124001244366 0.02526229153293343)
(0.1029952748893077 -0.2509240767605102 -0.8036716807633124)
(-0.2141796671639539 0.22916790583461 0.06060074307482867)
(0.008859598366477529 0.03596264481616354 -0.02150466482996475)
(-0.5775297085020893 -0.7885203572523989 0.124551330425634)
(-0.02673364095782647 0.01057350192571038 -0.05195688781562856)
(0.4105277044140349 38.92849724655287 1.439349235723957)
(0.752688239373401 -0.187742406414669 0.01229827687061263)
(-0.1648119492583961 0.06226817647741117 -0.1343444893307568)
(-0.05321954677319307 -0.0002250855363987239 -0.011785051970619)
(0.4254572196020963 7.765196591548017 -1.841945983943054)
(-0.2999730586899847 -0.2502283144670193 -0.007707261575604529)
(-0.03812290131998881 -0.0382936666273636 -0.1099325062947755)
(0.9044557431234267 0.00908414653705375 -0.1910668048493709)
(-0.006061027157988617 0.01156346951698921 -0.02745987195048537)
(3.732839712132377 -1.454220895776824 0.3853973937483703)
(-0.0002766663491257316 -0.0009404105877048423 -0.001198603159945989)
(-0.05518946861739844 0.03201850382056922 0.02656226279123201)
(-0.06224580446932647 -0.002795501083981161 -0.03563646288133082)
(-0.0001865589615012694 8.780192640887367e-05 0.0001705263399908229)
(-0.0001201282581484686 -5.023962324810234e-05 2.52565938486264e-05)
(0.009180800757615015 0.0154809592136177 -0.06152258565256702)
(-0.03696141036213285 0.05435251071364239 -0.03788875272353251)
(0.003118316124368235 -0.006448004714968004 0.004283845520702561)
(-0.0001315083904620312 0.0003381391006642513 -0.0002632176145903286)
(-0.0001751605294134364 0.003447061138717618 -0.005149481244563194)
(0.002844891080636758 0.001797512850871817 0.0001163506332505885)
(0.008674033645980687 -0.04124087731327897 -0.005268603868502607)
(0.00106469289687987 0.001562775088525516 0.001276688646458875)
(0.1763330853008451 6.260444152002433 -0.7873596883372844)
(-0.001764733749299537 -0.01245218853087104 0.005379488266331557)
(-0.0001701568613354129 -0.001655366872848363 -0.0007271961022675349)
(0.000486920684737054 0.00019813328101123 0.001037841034932136)
(0.76333071863202 -0.575141004517715 -0.004937625182787092)
(0.09340134265517513 0.3084189522987452 -0.1215151853586833)
(0.0002340082525122105 0.0006450348480423701 -0.001972020896529397)
(-0.002503208713155236 0.00538917677540619 -6.571868321283489)
(0.0002191417162229716 0.000387835192882103 -0.0004644561743608485)
(1.777654705437176 -1.170673117435639 0.3476935404605341)
(-0.171659062027328 0.3702999715477306 0.1308201140804152)
(-0.0001280465431061108 3.690186783308931e-05 4.822793253910279e-05)
(-5.780440002543299 -6.69500436462503 -4.498815905358388)
(-2.542618767261758 -60.28057642637388 -3.579284320925838)
(-0.06346350196559172 0.04470531346418968 -0.01481492299897914)
(0.0001086438175328613 8.039346016435883e-05 2.060463375905834e-05)
(8.336107007303871e-05 0.0002035150004352442 5.057213147851132e-05)
(-0.4110678742729557 0.09902117982422567 -0.3086075751530903)
(-0.005395937193957261 0.01423105204207408 -5.629152850865462)
(-0.3000601229590745 -0.1348345988168059 -0.0346996380986369)
(-1.674943701062731 -98.0088929949313 -12.9307157623281)
(-0.06675172861890011 -0.06445094046020466 0.004575313770679389)
(0.001955790374502665 -0.006125574260913529 -0.004793136673752607)
(-3.670893187803775 -14.00130657208936 3.879652446761526)
(0.149450263763893 -4.253796918829311 -5.584435087268542)
(-1.302148136254435 -84.32961705383357 2.193545307430103)
(-0.6072024666870677 0.5797373615471785 0.3919902937984397)
(-0.06777975124669275 0.006308229590829786 0.1724057725844879)
(-5.665727254078202 -94.51488299459959 -3.827815560149488)
(-0.5644209726913271 0.06190737558532942 -0.149544273198168)
(4.522956637604651 -65.98837074280335 -1.982972971564754)
(0.05443717618968094 0.2236944179019583 -0.002512675121379516)
(0.05088595031583571 -0.004650472682558322 -0.009569286295384616)
(-0.06090884936934608 0.02904397309207906 0.02963554029449175)
(0.04566727172143623 -0.02824660398271399 -0.01466883301512731)
(-0.04659728551468308 -0.01247620180226583 -0.05176944158136586)
(-0.2542996491208621 0.4142101619734851 0.172960259200223)
(0.157495617137961 0.008760932805152437 -0.0223898847711819)
(-2.503103432578239 -61.75120548147113 5.313681406549755)
(-1.013425969475684 0.2612940376735099 -0.03323349196700794)
(-0.015039566242144 -0.0009060793559461273 0.04490648158959902)
(-0.008619428821883993 0.006528061727367398 -0.00579257509834318)
(2.313263291999657 0.4677138132733126 -1.155235252289414)
(10.93229053093418 99.37718856738711 -4.398360090443047)
(0.1140958487116256 -0.07833843878230605 0.1155608252211846)
(0.01440417976334198 -0.005928659031559182 -0.008835811804170066)
(0.03277439190845168 0.0101746235642225 0.02636806704976619)
(-0.01864197805957096 -0.004186590128359785 0.03835569986258467)
(0.02546332089631797 0.004676813793300044 -0.001757471226002977)
(-0.008878136929654787 0.007934781369779598 0.004353676206675679)
(0.006498379551717177 0.005135435264990362 0.02073016297443858)
(7.761197566847787 87.19286270177399 -2.788179000654498)
(0.2130954314052635 -1.09663310559438 -1.173670312363253)
(0.0001826206941570151 0.0009739453987972816 -0.001873091088556178)
(0.01324649815214962 -1.334423246502644 0.02321025064451486)
(-2.113909152471502 16.49316448131603 0.3130307659263813)
(-1.020534568888629e-05 -8.729062311689631e-05 -9.829237982514642e-05)
(-12.01236137172436 -19.6107762417629 -1.033917760970049)
(-0.06052672640030182 0.03859004499510302 -0.0490455784949555)
(0.2050100716824454 1.184498614227056 -1.858555311312875)
(2.291502961112266e-05 4.520712759971139e-05 0.0004457322177654485)
(-0.2854409255349315 -0.01150435048310422 0.3006158016874715)
(-1.121103607185018 -3.998772704709041 1.150422089844052)
(0.2245408908400403 -0.06556084835705171 0.01297773223731645)
(0.0001310790200475685 5.137887288581721e-05 0.0004129238267293627)
(-0.4192073036721499 -1.764513004015211 1.28170332704656)
(0.0002080939968693806 -3.697724062071439e-06 7.357946429410763e-05)
(22.04234635347547 6.503661890698391 3.881054838676716)
(0.2676392567163219 1.822423206625381 -56.87382652922812)
(0.005220316490780896 -0.01445839996533246 0.007642891054087405)
(0.1646454856959267 -0.08800750937639318 0.08690039866689543)
(-0.2009927665365462 -0.05531170930427524 0.07665123405239031)
(0.7101406125524624 5.75670879221725 1.857212457112232)
(0.7089450145230819 -3.016566078161492 1.152118995432659)
(4.037614424787932e-05 4.330002092437074e-05 -9.404507916575334e-05)
(0.0002064736553493554 5.283672418996743e-05 -1.759688056823647e-05)
(0.01688789121056836 -0.01987464389033446 -0.007713680264894921)
(-0.01335660393450134 0.02754133130237606 0.003258670946730088)
(0.0133449628019942 0.03507015009858804 0.01532805868809719)