/*--------------------------------*- C++ -*----------------------------------*\
| =========                 |                                                 |
| \\      /  F ield         | OpenFOAM: The Open Source CFD Toolbox           |
|  \\    /   O peration     | Version:  v1906                                 |
|   \\  /    A nd           | Web:      www.OpenFOAM.com                      |
|    \\/     M anipulation  |                                                 |
\*---------------------------------------------------------------------------*/
FoamFile
{
    version     2.0;
    format      ascii;
    class       volVectorField;
    location    "1.2";
    object      U;
}
// * * * * * * * * * * * * * * * * * * * * * * * * * * * * * * * * * * * * * //

dimensions      [0 1 -1 0 0 0 0];


internalField   nonuniform List<vector> 
19632
(
(5.011866368852933 0.02395626007071087 0.007222213895695381)
(5.000076446413104 0.0005499652829603568 -0.0002098782766480862)
(5.000459866666707 0.0002375816264438469 -3.649458109347223e-07)
(5.00077081855401 -0.001224082613614524 0.00275798604080692)
(4.99980125406794 0.001168037028270614 -0.0002664828289190594)
(4.997164478582832 -0.005613333886733324 0.005238307920941718)
(4.99752224577887 0.01488217158390587 -0.002364797126188349)
(5.003464959047584 0.005376294036798145 0.003576730901143861)
(5.004628067491306 0.01098000266117109 0.004807839912136195)
(5.008888913037337 0.005407237038753373 0.002459470715109847)
(4.999725376080069 0.01070726743627044 -0.0002728749516465623)
(4.997535892961348 0.001882850542576093 0.003086169432987273)
(5.006979340821726 0.007493895937029346 0.003867657826834777)
(4.99964630462761 -0.0003913342304001929 -0.0002665539130606591)
(5.000078298715663 0.00124687808350997 5.832420350451828e-05)
(5.000017692519932 0.00159752706479038 0.0002592361454512202)
(5.0002030036025 0.001806054577013745 -2.770780343487705e-05)
(5.000257621808413 0.001167937113699206 -0.0004994672776703019)
(5.000287122616564 0.0003751056546489114 -0.0001396225047487935)
(4.999789601023766 0.003669861983954195 -0.0002564636643871441)
(5.004026850329933 0.004127858528499412 0.002349955781437025)
(4.998707054236386 0.006781375044577176 0.004549517081082022)
(5.011876266503882 0.0101623229994499 0.002785356612174281)
(5.000294085355923 0.0009793201613714885 -0.0005521444067076915)
(5.000729071431797 0.001142516800076954 -0.0002402132501794061)
(5.006591121185507 0.00699208204276688 0.005649655344093153)
(5.002966330278716 0.0085669032920515 0.001550199213745758)
(4.99985298027623 0.0009657979404831955 -0.0004165883119047481)
(5.000741222332883 0.001110566418498895 0.001913798665801997)
(5.000218015770151 0.000443738947610898 -0.0001617465707441031)
(5.00022252090135 7.203075908468495e-05 -0.0002893360820828324)
(4.999605243306907 0.001745091849023246 -0.001982605431153394)
(4.999581863888149 0.001239548437829741 -0.0009878136890207885)
(4.998942866873476 0.001395884327863731 -0.0001044455600720553)
(5.000160674569166 0.0004501350700384223 -8.577116570096172e-05)
(5.001284364078666 -0.0004546293532158771 0.001881246865284966)
(5.000379528614645 0.003295933994874229 -0.0003878735504141868)
(5.000071934146042 0.004227608990983035 0.0005743650152200715)
(5.003704604324206 0.005018199997057027 0.00433711830403282)
(4.999633044071257 -0.001230735730334398 -0.0010902061509699)
(4.999734331421381 0.0007245322119846274 -0.000922102731566231)
(5.006079294838884 0.005604190141421661 0.008102651623041393)
(4.994929855301574 0.004864728414607996 0.003217018695567136)
(5.000069087162046 0.001168874917353736 0.0009915557843579597)
(4.999955272267274 0.0005512743433918059 -0.0006108719480128736)
(4.999358852328878 0.004643935612421736 -0.003370266405017653)
(5.000802874333268 0.001760774057209213 0.004386144478380485)
(4.989567083682714 -1.255651881085991e-05 0.002966599172121624)
(5.003236272128016 0.003067265728679477 -0.003250799638270094)
(5.000524493564721 0.0002248086415032206 -5.545716016087768e-05)
(4.989834870627826 -0.001350639868908146 -0.006445408617324771)
(5.000376052640672 0.0006697745479621018 0.004278612676000387)
(4.998555819887755 0.005793277713552382 0.003034653764151425)
(5.000703700653005 0.009166196066091118 -0.003547274917079141)
(4.99699732701898 0.002853436598977866 -0.0008463178010836361)
(5.011045851815841 -0.0021062709019183 0.003412993534852866)
(5.003841060095416 0.0003742675812096252 0.001222674839599304)
(5.001455710958145 0.0001303382044680105 0.0003535436469760875)
(4.995863181879964 -0.009700284582460618 -0.01199107546535035)
(4.999998689891791 0.0005056367580322201 -0.0001765472932706304)
(5.00050749651318 0.0005621120270707024 -0.0004997651365542548)
(5.000723731534809 0.0002609592645820809 0.0004515804240096226)
(5.000261034312227 0.0004385234227504122 -0.0001755269014993394)
(4.998804212077657 0.001085387103603275 0.003880682938029594)
(4.998225762586655 -0.005459539350152758 0.008168055123052664)
(5.000016884072211 -3.849237000239095e-05 0.0001912766189727273)
(5.000950120779406 0.001206173931552903 -0.0002734381543300418)
(4.999245511324545 -7.369683259511385e-05 0.001495088319452502)
(5.000414941396959 0.001250855939309845 0.000902100063022574)
(4.996093483107372 -0.01584957310839627 0.01939850354544869)
(4.9999041176563 0.0005439480284740552 0.0001532013453832384)
(4.988193629757944 0.002945297101370062 0.0004221414463825201)
(4.981185532580245 -0.001401961747534327 0.001838873698000669)
(5.004717664634373 0.006376778044192819 0.005787201969036325)
(5.001004728256006 0.0002094293298137453 -0.0004111509844113565)
(5.001835193593998 0.001758731715745598 -0.004638263082237281)
(5.001089430594511 0.002680009544733892 -0.01605072691763229)
(4.990266748559398 0.0007312955496013363 0.02705108771391004)
(5.000094211126104 0.001374249407022914 0.0006576915482954439)
(5.000005567948327 0.004548139235647522 -0.0001910423930500356)
(4.998928423324645 0.004935643569228499 -0.008522928495048116)
(5.00284428763343 -0.0008526886000122656 -0.004228484310316837)
(4.99899776278754 -0.0004749658281766784 0.005477550649377642)
(4.999498373268773 -0.0003612044421753084 -0.002168281805453579)
(4.998570406775375 0.003764026700813829 0.0008789159269037238)
(4.997044855543762 0.002609320589604064 0.0009553861464721944)
(4.999246941056387 -0.0003955404830129955 0.002205001440732506)
(5.001639635677669 -0.002500703794518431 -0.01359845805964108)
(4.993229891458359 0.006454456098309679 -0.003625200105475616)
(5.000046722110769 0.001300655967694607 -0.0007391534117817591)
(5.008457603039499 0.009694979293853797 0.01282211164603911)
(5.006193346062683 0.01302934818734259 0.006324923559112735)
(5.008750398236221 0.006372850335863744 0.004377549742944027)
(5.000154823966919 0.004003126305177141 -0.000494944110524586)
(5.003516671042694 0.003447267136802963 0.002260083915177017)
(5.003821173638736 0.0039481613156524 0.00636176626310568)
(4.997109612434621 -0.000448088564902178 -0.0004040733011121053)
(5.000074496574876 0.01462785955346167 -0.00116739710997456)
(5.001931167297189 0.0008559610145175557 -0.002488305175628651)
(5.000085769651919 0.001052729739497686 0.007006811420483202)
(5.000306804248639 -0.0001402575793702315 0.0001889755832322212)
(5.002626112581839 0.003101524693288297 0.002239343929143654)
(5.000877475646729 0.0007223986270953281 -0.0009538113519627022)
(5.000584160048932 1.240786962629441e-05 -0.001044129250327591)
(4.990913562640097 0.004254634183433118 0.008383151176310213)
(4.999829133594369 0.004262465545861992 0.002888858875122497)
(5.000066781066669 0.0005940572072390361 5.978628540238604e-05)
(5.005471319182911 0.005036885444112792 0.007412246837464644)
(5.002211218599332 0.001304485309079946 0.002507055320533286)
(5.000136369595925 0.008170964200499991 0.0002702084332629643)
(4.991892535889044 0.002177430685407663 0.0011731159577533)
(5.007459296454779 0.003409154885850253 0.0002036514145879521)
(4.999683841840866 0.003209346781871705 0.0001334368539357691)
(5.006142975521332 0.002562712998137678 -0.002644178904737026)
(5.008459765350657 -3.767494214078826e-05 -0.001570881290805886)
(5.000493403841735 0.006277195903251251 0.009953886783688682)
(5.005629338837365 0.003874814699130646 0.00189550918497867)
(5.007292599903272 0.003821885013772738 0.001618696451854315)
(4.996793193832648 0.006330598088895403 0.006962807274878284)
(5.002747965464879 0.01103281697874978 0.008121427928142235)
(4.986559876222453 -0.0009465956843874387 0.0008639696134898734)
(5.004828203910218 0.007080074072480905 0.006776715307828919)
(5.000073862768936 0.0003694187239228715 -0.0001611999796449918)
(5.008157573737106 0.002615803831501507 -0.0016120746382931)
(5.008196801508653 0.002442329436501202 -0.005962186665525071)
(4.999172322530086 0.002261459099133703 -0.0004859061151933181)
(5.000652737599673 0.008056592899526751 0.01004695125729456)
(5.000608693902703 0.0005333787808489361 -0.0002018705324283178)
(5.000637722382818 0.0002382848255163987 -0.0009787912961493716)
(4.998525037416119 0.007947519908339183 -0.006330297258725314)
(4.996308994048185 0.01016892737263766 -0.007279309397758222)
(5.000486320979828 0.001054316209123174 -0.0006333737843730087)
(5.000027145322718 0.00149106458630637 -0.0004631440730782281)
(5.00046338399614 0.003423678473696313 -0.0006344196942531391)
(5.00258616607037 0.0006794803217416046 -0.0008044216818524098)
(5.001842291105236 0.0003055869322417645 -0.0001205268159128897)
(5.006819105843226 -0.0007347869777147239 -0.002010370502533504)
(5.002056222696135 0.001149423101907101 -0.001332995178117644)
(5.000507467514156 0.0001605130025148639 -0.0001326201974040537)
(5.001113630022495 0.001387132139457043 -0.001251636873298364)
(5.00143617630536 -9.672473261623843e-05 -0.0009332641020721236)
(4.99707860779238 0.003470666943627567 0.007904945995615698)
(5.000506297454427 0.0001394960336306838 -0.0001172854690165575)
(5.03739184477941 0.006130719734355738 -0.02285170796483051)
(5.000862993787663 0.002501815031400976 0.0007440710246339955)
(5.002227422578464 0.003059054625466728 0.01753868232771705)
(5.000593003749928 0.0001055986006315664 -8.594533005682247e-05)
(4.999146966146937 0.001320490385314417 0.00105631775504563)
(4.999260502199395 0.0004180502954897106 -0.001110617035454355)
(5.000601589516495 0.001942319696294749 -0.001226010363765788)
(4.999874395592802 0.006204039285930031 2.20599828209849e-05)
(5.003446017513153 0.0107261975928928 -0.0004400402222513955)
(4.999477297222668 0.001190479424259099 0.0005805848433728386)
(5.000323966310474 0.0001311733769346322 -0.0001034450789230565)
(5.02249552681939 0.02708294943688889 0.01752678929587871)
(5.00606608869505 0.003442076102520585 0.002139937270425129)
(4.990036806472989 0.01225753712406625 -0.0005096399115950087)
(5.002808957503476 0.001063166584511282 0.002565188313575092)
(4.998049833093168 0.00493068969502284 0.008006788596164384)
(5.000455460664557 0.0004801961732447857 -0.0007678153496272125)
(5.007200755124911 -2.080917407346959e-06 0.008644009656987634)
(4.994314423085661 0.0006114223355230475 0.001204022596659911)
(4.996558488059036 0.003267414610897067 0.004483334451449889)
(4.993254497563599 -0.0002868204060720307 0.001090581523995907)
(4.998608691591151 -0.009155965406889158 -0.001803415640764026)
(4.999842798076216 0.01340718462393532 -0.01237485229509103)
(5.000511562414813 0.00167480058648909 1.718513465358935e-05)
(4.993163184576972 0.001882324148222411 0.00154990956279446)
(5.000304591401544 0.000275678241620776 -0.0001499980639951599)
(4.988897041422208 -0.0001138205800267984 -0.0001506898851412235)
(5.003798686690857 0.004934159151331407 -0.01522386430034977)
(4.992000925496745 0.001001204059383519 -0.001184739298855377)
(5.00028948912433 0.0006330487837906923 -0.001517430069033063)
(4.999417618530883 0.003412810556683386 -0.0001868294830167622)
(5.001186237594738 0.001590668108700978 -0.001300239147278587)
(4.999992196880658 0.005421136612370822 -0.01029386396415662)
(5.00051359079074 0.00502132385893651 -0.009922592391230778)
(5.000289535709038 0.0003399237696902543 0.0002881886314831271)
(4.985202475999183 0.00098249647416363 -0.01496729091615167)
(5.001134834661265 0.001503182853727425 -0.001545847671896763)
(5.000453352712709 -0.002326964874296681 -0.0003098620403477427)
(5.000435981358514 0.000123707092757363 -7.142286325363571e-05)
(5.000060139293353 0.0006431706120889517 0.0002587699185266624)
(4.997446294469354 0.01036377799462047 -0.003620315004308425)
(5.000657282960287 0.00161752900005992 -2.456654605717929e-05)
(5.000471983143671 0.0001344426586819184 0.0001901868312167945)
(5.000415284782055 0.0001367192250524799 -2.377791762812644e-06)
(5.00035346724342 -0.0004430389381313473 -1.661682089044198e-05)
(4.99608104130935 0.01131482265067557 -0.007555019506986331)
(5.000387704922313 0.0002355837874414302 -0.0001952477647934442)
(4.980424294412049 -0.003619059886040517 -0.001962224281613262)
(4.996151718059572 0.001377291917662132 6.569049987827329e-05)
(5.000203958356621 0.000697147864914909 0.0001673303526306894)
(5.000361724791819 0.0004945251960009983 -6.613975443438401e-05)
(5.000558130860443 0.0008461394226378128 -0.002637984689662088)
(4.999876708383691 0.0007849047043830287 -0.00133189778639708)
(5.000466283193317 -0.0003971257958629305 5.786403085632474e-05)
(5.000175992892395 0.0005783631805495981 0.0002605008572667086)
(5.000475623436996 -0.0008052154708938811 -0.0004640625683700042)
(5.000798914879061 0.0001734402921548565 -0.0003071712007475669)
(5.000178041559125 -0.0008479848007729505 0.0008574593378571238)
(5.000339276791065 0.0009912464784658599 -0.0007212597504021456)
(5.000553935043317 -0.0008057977200799872 -0.0007838965222135459)
(4.994685456347505 0.000936521321985686 -0.001360200510448246)
(5.000738631561205 -0.004756407525649469 -6.853081453502855e-05)
(4.999703635284083 0.0005803858793713526 0.000244828914577994)
(4.956807797478866 0.07791386697090633 0.1320117904012756)
(4.996402828328288 -0.0004461893530835707 -0.0002210923789557985)
(5.001199071952026 0.0004154335074708453 -0.007210490870893563)
(5.000577847344042 0.001348294146957386 0.001015219522791345)
(4.99977949128217 0.00183350476022374 0.0007469802650440308)
(5.004967451582381 -0.001172350217896201 0.009156875702087681)
(5.000536525631717 0.0001756017248748929 -4.53195849908006e-05)
(4.996395189761538 -0.0002574804372933361 -0.0001270403427870158)
(4.999536537220907 0.009798817437633533 -0.002802364733567043)
(5.000076261678174 0.002346180805556889 0.0004465897953446775)
(4.998980039793227 0.001206030789877479 -0.001389513408401406)
(5.000900513447562 0.0008930531635984603 -0.0001892947765158666)
(4.991649184836637 0.009758220281413012 -0.0002440060352199619)
(4.998909380398824 0.003536189897734469 -0.01086201248276873)
(4.999795966628002 0.0005438249364412773 2.818458891103747e-05)
(5.000878280192351 0.0004954557675968432 0.002132793676775021)
(5.0008767947277 0.0008804090202702405 -0.0005300471062872096)
(5.001091113637837 0.0005982051409914525 -0.0003899513222480514)
(4.999611237032861 0.0005229535833203812 -0.003082543831497565)
(5.000357495852231 0.0002696934575031483 -0.0001100605128318023)
(5.007114358233433 0.0006187982403035362 -0.00247481494264679)
(5.00017690013438 -9.864017793891167e-05 0.0002375788093011786)
(5.013547092769291 -0.0009190494946988235 -0.0005932714695017738)
(5.000265103641774 0.001601675618363688 -0.001712222917321536)
(5.000029454875537 0.00100383541390602 0.0001055163064289455)
(5.001699591818726 3.862889212118098e-05 -0.00031551846369731)
(5.00050602341111 0.0001544734847903967 -0.0001102709596642123)
(5.000103858874925 0.000950526117493081 0.0001926738340594385)
(5.000063485166065 0.0003502077295355881 7.331040255579398e-05)
(5.000569047184562 -0.0001845995501051481 0.0002489452575926055)
(5.000825477743379 0.001035768654887689 0.004225237703578264)
(4.99875137154383 0.003975157680978834 0.004998873560367562)
(5.00001805303145 0.0005079274437067875 0.0002595670565319479)
(5.000572877182139 -0.000519708903458935 -0.0006997921402142124)
(5.001939949984575 0.000160029372497761 -0.000100429939372442)
(5.001134825554908 0.0005634374491811265 -0.0003661139805850418)
(4.904048397752789 0.003591421526129275 0.09015416526500397)
(5.000491677385964 0.001005827859813671 -0.0006823491054389356)
(5.000239373364784 0.003610135636492554 -0.0004633648820352525)
(5.000309304580512 0.0002119261600613462 5.323057046540019e-05)
(5.000571896735685 0.001194714659342273 -0.0006354322542888517)
(5.000445709636156 0.0009377297889561168 -0.000609047862304101)
(5.000663333765219 0.001666013198675827 0.006473609258053312)
(4.999456846336142 0.002011241198079453 0.0002263239435193236)
(5.000390016587185 4.020416467746523e-05 -0.0001559505652068124)
(4.998817781375164 -0.004587748187977279 0.02837412381799417)
(5.000393216170539 0.0008374080213231778 -0.0007760429027795911)
(5.000523241452798 0.0009334101848189438 -0.0008601464749203355)
(5.000114685740476 -0.001660119884736648 -0.001960178336261397)
(5.000648211862006 0.0007718573798335945 -0.0007587715621363317)
(5.000282595977763 0.0009059206848313951 -0.0004502321017473855)
(4.997112083697185 -0.0008067590954167343 0.0002387569155458762)
(5.000054917150934 0.003574672004043736 0.008958688248431632)
(5.000594190573829 0.001150996446242214 -0.0008414642003798995)
(5.000919315648843 0.001408090027990188 -0.001005992625431366)
(4.997316255087813 0.01041198811328882 0.009412379104386352)
(5.000682538125975 0.0008669821705766816 4.313001843700452e-05)
(5.005047783753298 0.01194831435810633 0.006263607933493377)
(4.999789825362889 0.0004743601110778351 0.0003210785302498698)
(4.999742918986103 0.002146442347663763 0.004722946585766104)
(5.000449155857073 0.0009139667551624459 -0.0006556520191094317)
(5.012189896094953 0.002901954770700047 0.00821245220652897)
(5.001573958073733 0.0003262380854679999 -0.0005995096401194832)
(5.01084256140988 0.005746370845892688 -8.393662664235612e-05)
(5.000571971165149 0.001257645136474046 0.0002131306719483995)
(4.998361871826583 0.008719335440502492 -0.008437088757053597)
(5.000740459814589 -0.0007442246403351192 -0.0001995978859131607)
(5.012095302900966 0.008863256284512318 -0.006342659936981338)
(4.998616405562607 0.004682763517301629 -6.996858930650899e-06)
(5.005712901108499 0.003298922327683669 0.006049806748989661)
(5.000877680580335 0.0001342135856454096 -0.0002607580024108743)
(5.000963783204872 0.0001955868160848342 -0.0003361623099340278)
(5.00370050592715 0.003608470566233332 0.004689015975612415)
(5.002124876335555 0.005859600419937203 0.004687350705505834)
(5.002258362501716 0.01190009118671115 0.008901733068930821)
(4.993056800958646 0.001046807371884492 0.0005197721582502128)
(5.000347608942921 0.000299832532972781 0.000110107235660625)
(5.000411551459875 0.0006646978790402177 0.0001449513238413135)
(5.000407259912487 -7.017925555768044e-05 -3.395058103770874e-05)
(5.000187878335807 -0.0004204976032355358 -0.0007177848898347191)
(5.000055929990036 0.002569443576887387 -0.001543596869203554)
(5.000985884991115 0.0002527841417852699 -0.0002725244862678961)
(5.002556990989214 0.02714937264598766 0.03440454962391289)
(5.000367013866887 0.0005787340130762041 0.0005197455158013226)
(5.000331483749136 0.0003426192566930466 -4.545343390110649e-05)
(4.99967337896324 0.000251584690596137 0.0004300736093546378)
(4.999970626113502 0.001611242378200367 0.003228188264384383)
(5.000479566611332 0.0003935158100021031 -0.0003538194677561528)
(5.000490967488193 0.002307376522674514 -0.0004311921979978991)
(4.998060552540398 -0.0006745923956353004 0.001857825890585432)
(5.000307746224997 -0.0001220108668080567 0.0003178288619198965)
(4.980889970596509 -0.001729237318790337 0.0009371408410859886)
(5.000221121700134 0.001684042241104037 0.0002697303678668548)
(5.000462781336256 -0.0001476060869379918 0.0003016611295548674)
(5.000437986610939 0.003123099692660651 0.00968220596433457)
(4.993057324859397 0.004671801477091243 0.01023171039150477)
(5.000150135138391 0.0007610921227820001 -0.0003741164503274722)
(5.000517781814997 4.820403816999093e-05 -8.818640676375365e-05)
(5.001035444231943 0.001605815478517272 -0.0009834705498609397)
(5.000134388446541 0.002196811203334017 0.001064757456287061)
(5.000507808214873 0.0005072645488082185 -0.0004071072255968852)
(5.002844791075386 0.002525049529264117 -0.001734909164361924)
(4.998452839578527 -0.000579567376602143 0.006434603811842006)
(4.999610075556142 0.001252968686235222 0.002314429010666169)
(5.003273862938535 0.003401611882584256 0.0007176394860690373)
(5.000010634790702 0.008024540941977513 0.0102481018051296)
(5.000789261295368 0.001312117894413897 -0.0009191464899455232)
(5.003909790285693 0.006006785258912073 0.004515293767023349)
(5.00024873041667 0.007563343310685297 -0.001160167113327096)
(5.000598487902548 1.222878686755169e-05 6.691946399880487e-08)
(4.997882470203029 0.007932299379010016 -0.008439544852837466)
(5.007643111755973 0.004064083681192477 -0.0008271726299789954)
(4.988960152141807 0.007678090806701157 -0.006644166870523298)
(5.008194093435178 0.006734253950230401 0.003122930997903863)
(5.028502633896781 0.05356803277064185 -0.006011816427071461)
(5.006264266050491 0.003782584264972394 0.002855214901384429)
(5.006391868236186 0.007114411626219825 0.005047399640658424)
(5.005777082725464 0.004336541704061672 0.0007255526392052617)
(5.00074742828658 0.002462353062566785 -0.002308126574745178)
(5.000365748980928 0.001647910407243216 -0.001654291431999682)
(4.999882653416658 0.0018228203387076 -0.001953240066886016)
(5.000464725993895 0.003092069034170118 0.0003613124593548133)
(5.000770308802715 0.0003774472718813313 -0.001515602270478987)
(5.000306381669231 0.00129145746180549 0.0001243382398773023)
(5.000475434347641 0.0005710959215455583 8.676286244729953e-06)
(5.000596737613253 0.0005845485108704759 5.232400865955809e-05)
(4.999905674611937 0.003302469949941464 0.0003465027696345799)
(4.999188315624818 0.0025140004042822 -0.002392401909024762)
(5.000364613038776 0.001448022289059886 -7.912015578321355e-05)
(4.999726136921117 0.00271911764328333 0.001119328340807475)
(5.000036957657387 0.000527849124383159 -0.0002109183989586538)
(5.005586494815659 0.02153955152067378 0.01113467262506756)
(5.000233063874619 0.0005257793031195598 -0.000224259027861818)
(4.998303800523985 0.0008601828613550195 -0.0003981263524917732)
(4.999541213662586 0.003322346349031421 0.00147092979191191)
(5.000559077405069 0.000530371108475726 -0.0009467117854146838)
(5.0010295306433 0.00452686231688601 -0.002061006589347335)
(4.993289549481068 0.0005473620790795601 0.0001956262626347208)
(4.999573913595937 0.003688384977105451 0.001495729543954372)
(4.988657688246008 0.002778848447219531 0.003430710101120213)
(5.000410686887334 0.0002591744384521381 -7.980540577164461e-05)
(4.997159617661386 0.003305872796934744 0.01107376281416366)
(5.000463041181389 0.001683354436208572 -6.660115129212345e-06)
(5.000465404261414 0.0009356726194261953 -0.0003060209108867068)
(5.000980307704549 0.0004872940052045042 -0.0004860773114110012)
(5.002123546290052 -0.001415310751283175 0.007975984663933771)
(5.000198117662114 0.0003892247456227402 -0.0001819178614171321)
(5.000265046304848 0.0008474619695564399 -0.0005434168739389366)
(5.000682801372845 0.002142751183505883 -0.001847536298041187)
(4.99832084577356 0.0004505052842977177 0.0002001689911756416)
(5.000351790462155 0.0002500932727807031 -7.946185960816791e-05)
(4.999617382373691 -0.002167844593842576 7.51300176515864e-05)
(4.999581457802866 0.003633228045253807 -0.001136912292145086)
(5.001674109319088 0.001499918458470856 0.001372260480090394)
(5.00100017234675 0.000542652848170751 -0.0004504250510083888)
(4.999918541060616 0.0004123811672321727 7.093077879883572e-06)
(4.999819930769699 0.003899019910160135 0.001597577992006299)
(4.999667234962646 0.001092139899431931 -0.0006442834472198301)
(5.002882563462729 0.001612178988513983 0.0003149696726834063)
(5.000309609816754 0.002548255576383998 6.253313714211485e-05)
(5.000265242252005 0.01093377999250266 -0.0008200959182736631)
(4.999910046918051 0.0009385053804785068 -2.840707390902157e-05)
(4.998854782566724 -1.550911223173994e-05 0.007930144707169772)
(5.000511425356023 0.0009101561079458865 -0.0006972737704840525)
(5.000699780421665 0.0005994533556979991 -0.0007917383408743416)
(5.000139334497636 -0.0001300569225695327 8.826520563407438e-05)
(5.000746515362288 0.0009895224338632349 -0.0009183639151177115)
(5.000846391347057 0.000223147858834129 -0.0004282474149747535)
(4.999889984529128 -0.0003074614756406995 -0.0003687256389742166)
(5.000331586215348 0.001203489263270301 -0.0007757043239098744)
(4.999720168774941 0.001084441370388446 1.764907862429845e-05)
(5.000293929944629 0.0009003664936976721 -0.0004551623072403719)
(5.000846757301177 0.0003469418457588539 -0.0006412709363618217)
(5.000212518209618 0.0002758503368520961 -8.069616136588311e-05)
(4.991932019743082 0.0002049819956446177 -8.215110952464769e-05)
(4.999888741278997 0.0006442814661207849 1.350258807509946e-05)
(5.004001315997042 0.003364186756195391 -0.001895333819820843)
(5.000407925012133 0.001521950565723105 -0.0008949662349387505)
(5.000236208441962 0.0004563528815103128 0.0001042018853796113)
(5.00179987617476 0.002905170388981419 -0.001301414359907662)
(5.002187521062851 0.0007556709619296931 -0.001365215847116717)
(5.005849588846176 0.01304498876469918 0.003735209769601163)
(4.973834615437268 0.002156093331057781 0.0005013514550016466)
(4.999824990090513 0.001856189121362975 0.000670363650798902)
(4.99956906667903 0.0004612612478756105 0.0006188307659218196)
(5.003067001029064 0.006326179297933667 -0.007773948642471143)
(5.000701629614125 0.00254571554433818 0.0001904767596641644)
(5.000224356708197 0.001532494420821307 -0.001268366701016098)
(4.999073953864177 0.0009603277812504472 0.001379690697099026)
(5.002908285311745 0.001111928312799427 -0.001283571864165611)
(4.999953817934236 0.003084299984279136 -0.009330820765334208)
(4.982150671625234 0.001431623478510281 0.0004054526990223015)
(4.999872886564209 0.002001406247088611 -0.002133305043078899)
(5.00003386495344 0.002463569196322727 -0.001373062948242799)
(4.999556937951286 0.001926340270319507 -0.003260518378779027)
(4.999822594797728 0.0006525976109528985 0.000307451898888488)
(5.000000776961439 0.0004695519052029955 -0.0001226195002892466)
(5.000001886579309 0.0001069829664719229 0.0004439169503094312)
(5.002013704209612 0.001971742002426713 -0.0007243385583933149)
(5.000251057097734 0.0003503767076396515 -0.0001514309318521201)
(5.003076526123431 -0.001681392234152962 0.003526391078828052)
(4.999935117348509 0.0005352566187817409 -8.339295206554954e-05)
(5.000704965985229 0.00156235729385454 -0.001097306669944945)
(5.000197120653977 0.002363265066919907 0.000608630619199086)
(4.993401775241282 0.0005601148685773172 -0.001084786101865847)
(5.001117689949019 0.0008872755664585276 0.001093714002006864)
(5.000289483350845 -5.344915381956469e-05 0.0001217582688372292)
(5.000465375086364 0.001199363242953619 0.0001090806382697179)
(5.000952859010347 -0.0001313811848564991 0.000199810795002139)
(5.000253895376115 0.0009964906612917818 0.0001388616865825728)
(5.000469675827793 0.001087302087619628 0.0002394957744407632)
(5.00009913582187 0.0005991712710779201 -0.0001546202254302249)
(4.997810990028311 0.004966253333786898 0.0124562254798683)
(5.00235743895091 0.0001342588116142541 -0.006322608604467998)
(5.001710611967275 0.0008787715010918953 0.0002197954287316758)
(5.00052965815354 0.0009722984826065534 -3.306949417008101e-05)
(5.0002659986652 0.00243475192973722 0.0002747905699528783)
(5.000472370072671 0.001031701671055177 -0.0001394191703075572)
(5.003300218683354 0.0002762512984796952 -0.0003254681552468359)
(5.000631366083383 -0.0003383326590877902 -0.0001041659934294247)
(5.001946892758225 0.00105572382730003 -0.03383063962212852)
(5.000257652961547 0.001288580856817319 5.874937576299657e-05)
(5.000441977338818 0.0008028690385695949 -8.206361605060902e-05)
(4.998675015488431 0.001841631682919531 -0.0001924549029784093)
(5.004006532825418 0.004749751269406932 0.006388161853993671)
(5.000418080415603 0.0007852141726202261 -7.058467848436655e-05)
(5.000779653220008 0.001072397782110705 -0.0006143284809536677)
(4.99945322659961 0.004596201076533472 0.00119746241627181)
(5.012248951739807 0.0197330164853846 0.003671519047538034)
(4.991228070455491 0.0002998012451108868 0.000945965886248267)
(5.005374880086499 0.002416333006423604 0.001971270916989748)
(4.999535387011639 0.001168292371483664 0.0006402236732185127)
(5.003713543348676 0.001438796213670763 -0.001983575031647978)
(5.000483508937847 0.001051621572587215 8.265542429222776e-05)
(5.000461863646702 0.0003046326977727009 -0.000277855811924894)
(5.000279023051796 0.0003538316461447309 0.000643315457793752)
(5.000378499813231 0.0004621094245405505 -0.000197165475559229)
(5.00029000028881 0.0007104377324669607 -0.0002921350074861287)
(5.000304726122218 0.001212056336842785 0.0001870755181112008)
(5.004096736699447 0.0005360306281784273 -0.00077293789734012)
(5.000623348373555 0.001095140341892079 -0.0001948186714629854)
(5.001004339670009 0.0004175623829241468 0.001182323745776758)
(4.999896098074601 0.0004804925047121045 1.63253033886576e-05)
(5.000353185641109 0.002750729675190863 0.0002162507386216781)
(5.000273180956124 0.0005117313409677118 -0.0001906885939235738)
(5.000159462977781 0.0006784761379055697 -5.314542613325284e-06)
(5.000408288338565 0.0001228621608023024 -9.53622068302988e-05)
(5.000711401462313 0.0001356571986980456 0.001483281645812617)
(5.000521366907609 0.001132539821661105 -0.000222279902278086)
(5.000045021043804 0.007847577621775417 0.0007123488449499384)
(4.993925666313057 0.0007178898890762911 -0.0002531152019280464)
(5.000137737198795 0.0009009459360920192 -0.0001800309494779269)
(5.000531237514513 3.090255933960817e-05 -0.0001883022149095307)
(4.997894346599383 9.466683059955051e-05 0.0005917893470615683)