/*--------------------------------*- C++ -*----------------------------------*\
| =========                 |                                                 |
| \\      /  F ield         | OpenFOAM: The Open Source CFD Toolbox           |
|  \\    /   O peration     | Version:  v1906                                 |
|   \\  /    A nd           | Web:      www.OpenFOAM.com                      |
|    \\/     M anipulation  |                                                 |
\*---------------------------------------------------------------------------*/
FoamFile
{
    version     2.0;
    format      ascii;
    class       surfaceScalarField;
    location    "0.8";
    object      phi;
}
// * * * * * * * * * * * * * * * * * * * * * * * * * * * * * * * * * * * * * //

dimensions      [0 3 -1 0 0 0 0];
oriented        oriented;


internalField   nonuniform List<scalar> 
37380
(
-0.3775367392422765
1.002713673965805
-2.774548950484932
2.149372015755675
-5.161967608564817
0.8043437236686345
52.37101150118372
-48.01338761628671
-18.28146921809164
21.92165087186028
-22.79635349069375
19.1561718369166
16.79526275173418
18.26478764141678
-18.54267662372895
-16.51737376942222
-5.078425466634334
16.72749076493249
2.822302734841265
-14.47136803314057
9.392696092322211
28.05246218311164
-20.95389765533174
-16.4912606201064
-10.19234606117947
-24.85790752207192
44.44294967557187
6.96849767970253
-2.977246901842318
7.608352938782633
-11.59960371663096
9.64980069272897
0.4371722912782686
-7.435748992428648
-2.6512239915855
-8.914494114457776
7.613745974205784
-3.178577357409456
4.479325497695311
-7.539263460701737
-7.298451275154183
14.83714931774974
44.35660360474998
-10.6416423315235
-22.34152271235466
-11.37343856087418
0.8375530351559705
4.851517514767036
6.943703580714505
-24.12823017762219
12.33300908214019
-14.94175027433226
23.74742417353286
-3.415452477140307
-5.390221422056933
-1.497353507090363
-0.9632892782711794
20.45512580380107
-17.99448301847197
4.407792298111299
-0.01661361426424335
-19.33292895817914
21.1259724560743
13.41301867531011
-10.79156695785255
-14.16029368155989
-9.921604581390714
-1.58119963185378
25.66309789480015
-17.94974302508782
2.311482380097356
0.3191056310831402
15.31915501392548
-0.08039954078378743
13.5950881304702
-6.546190909969545
7.276305378980078
2.769374793566509
2.519438333290869
-12.56511850574554
13.59004099110759
-1.527021297012712
8.275850485707702
16.64778208359126
-3.797660113229842
-8.330079797301471
15.13555360370704
11.09973037450042
-17.90520418086542
-6.219928834321085
-2.199829516242716
8.856930641861387
-9.728495921561455
5.606659679722763
-6.404713877662108
10.52655011956077
-3.232750207043321
-15.90579077646241
0.7833542923899001
18.35518669112087
-5.092714932742154
-16.72925636225311
6.42718687716115
15.39478441783237
13.99466924265797
19.53494883243432
-0.9041293417390837
-32.62548873335284
-10.1522014751163
7.738418161732805
3.934928905444639
-1.52114559206242
20.81328768002963
0.3773492746781235
-24.42338716175091
-17.58912349780867
-25.3449167513785
19.08117185123579
23.85286839793565
-14.33518989239203
15.42470630948473
19.72377126293405
8.562321051784609
-8.748482716466158
12.97374218882872
-12.78758052415053
-8.054270859392508
10.60442850916493
-12.9153969596375
10.36523930986234
-23.75662814787021
7.421502587649774
-9.020975654124838
25.35610121427975
9.289614864748042
8.778290859845859
-18.06802080353103
4.580110787835574
2.629546149979685
-10.18690383964071
9.074020937135678
-7.309145601082085
7.52473952869393
-27.40612200861267
1.955756052146215
24.24272826620868
1.207637690265018
1.462765039166138
1.293775257407644
16.38362031953906
-12.80061683873153
-3.13202931134438
-0.4509741694643065
9.113184991294446
-23.36632343431943
14.85808001177565
-0.6049415687505955
9.211288661830421
-11.8369328918623
28.1313524687808
-25.50570823875136
19.29804114884274
-8.684572036678226
-8.236960448827928
-2.376508663355557
18.89114434169585
-18.96474420126882
-0.8266597922120393
0.9002596517721395
4.819124398853231
6.973629931837171
8.367779846466755
9.443228874130048
-16.68248215240307
-1.05467768230663
8.293930960571911
-1.891796998598302
29.90213452885334
-2.919091005421382
-25.09124652483876
-15.572631377275
-9.504894972440628
10.24174982873346
14.83577652097934
-0.1408292411995763
-12.27761854335452
12.4184874436477
27.85992462383241
3.222260020016985
-10.75960601692543
-20.32257862692465
12.31826464370343
-6.315952265895698
-4.656576798043981
-1.345735579768318
37.09245114958554
-25.5512036380609
-34.52496943245464
22.98372192091635
0.1519655100840029
-28.54709226543638
-1.042353494725672
29.43748025006909
-16.12020460182991
13.55806717880536
6.850565874826292
-4.288428451777397
13.93602913877349
0.3534009117841744
-17.24167106601251
2.952241015433162
-22.19642680901726
15.41466793654932
9.941038110114622
-3.159279237653426
22.83370055200246
-22.06639551622938
-15.38047409825697
14.61316906248213
0.3901214437268959
6.646570713420196
-23.83864900546137
16.80195684831175
6.200004421981149
-8.321685537338542
-16.82264417198629
18.94432528734193
-22.64074613102173
2.170259914036322
20.07332164110531
0.3971645758848538
-6.760518321010006
-11.49139080514147
25.64287485204904
-7.390965725898674
-28.98561082797706
-16.99894111757962
16.95478741246415
29.0297645330852
-21.77882882733124
7.073159418882888
0.596590113143376
14.10907929530366
13.88195268257748
-21.00451722182456
-20.28355746935138
-11.08703685433914
16.29837526925549
-9.213990195198191
4.002651780281198
13.58139105252301
-18.67644473815647
14.90837031037841
-9.813316624752618
-21.86394975595976
30.73984173319514
-24.92995929043233
16.05406731318632
23.17825773787951
7.010829990807051
-27.70204360322718
-2.487044125459092
-16.79329849350382
-3.718624440859309
12.21819802893963
8.293724905420037
-1.323560950663776
5.207381400564622
6.173467667442504
-7.813285713917488
-0.09970408848444708
13.08238068704497
-27.28246185317976
14.29978525460283
6.982592162327091
-16.3164442265475
18.82431186439624
-17.14972502485045
26.88141417228014
-9.731836104617992
-11.31141720875176
-10.427647503013
21.73751577845079
24.59309671059656
-10.46869312447945
-0.242450903537275
13.54317747486012
11.3407770812656
2.6249138523396
-27.50886840847006
-20.93119224618047
8.145521950970712
6.577614880847941
6.208055414293604
4.421331365468177
4.843347670004416
14.41305331506188
-23.67773235053142
-7.849222529624931
-12.41636961352023
2.353613513013495
17.91197863009151
10.46131993392511
0.78444140479923
-15.84774457001588
4.601983231296189
-33.11980973935039
-1.716377279095771
8.335384235491132
26.50080278299005
-24.3762987535414
3.870179099574442
-12.6136900853771
-16.20845880869439
-1.053934243560154
30.44417572772342
-13.18178267547041
-15.44389652412656
15.93781998872373
-0.4942766071515897
-4.152059500503301
-12.64139137236934
18.44678411385607
15.51928347488244
-3.140069008488577
-1.415724963716532
-10.9634895026676
-6.605072384936472
5.868007907892126
-0.968401638411904
-4.920338257692711
-0.7163324888159037
5.889187220593771
-0.2108339361308143
-14.557169818413
15.03527628212094
-12.69940421661446
12.22129775290481
-0.8078610902876211
-7.703990572765012
6.232650295088987
-11.03885313754336
-19.34500786490241
-3.463832111738181
6.600381167945816
-14.25345917787641
-0.3038879918864616
-3.368370938840094
7.939121244776689
13.10289838056845
-17.67364868647275
-0.4340342952864536
18.54393855472355
-18.11001228642831
18.9540161767431
13.24607282328326
-21.82630306068081
-10.37378593934807
-38.06862012631627
0.07044561370220637
20.92776075569941
17.07041375691153
4.404008023152758
-30.71962330732896
-1.867220607488231
28.1828358916608
29.21043012007075
-25.17434160852826
0.3679195116082683
-0.09974857599034086
-14.36818855519345
-10.74876125634389
25.21669838749697
-13.38923289942611
-2.60184386187639
18.28428778697323
-2.293211025671202
-26.79494934726512
23.42850529462273
-30.65503179969352
34.02147585232875
11.85842650957656
-5.76535838291216
21.20793179900427
-18.58925431326191
-7.693160695560087
-7.460262902801174
15.15318787384201
11.24506918540161
-13.51427329201871
13.95156594645312
-11.68236183983946
-20.18224245649423
11.56509862473272
5.856043632502967
2.761100199279124
-4.959773274442655
20.5632432791141
3.256182398674984
-18.85965240334148
-17.00860261770329
12.54645164045376
-5.14090544380858
9.603056421095623
-9.911061946721546
0.7860149498377771
-3.100655151918996
1.039607945938809
1.000190812462398
-7.257569413144689
5.217770654742198
2.466948740364896
-5.917484179242231
-13.23596821842464
-17.67409988700801
29.31988181192766
-10.17334118555323
-1.472440739372783
7.061672826755836
1.202360813953122
-7.224425694756719
-19.52518991765816
-12.22062016671927
16.89696375935668
14.84884632501615
-1.720014525575531
8.156962957035745
17.77534144198491
-37.3140858051612
11.3817814061391
4.981412523705875
-3.327375845652414
-9.170088975842386
0.3055816125746034
6.808013999912357
15.0633225068611
-14.13570084323085
-7.735635663536722
1.567897140448277
-7.554245344839582
-15.79940593466569
6.971424403805812
15.45691825838479
-6.628936727534243
23.13617756571771
2.758154975890832
-18.85794267315276
-7.036389868458548
-6.829890540236046
-0.5772898036466335
-13.52401190233794
10.77339823712476
0.7883487096339968
-5.740458279052186
-5.821288667691299
19.00465448421282
-18.38890777280776
23.11453272280352
-23.73027943421017
-6.078488905696656
-12.15733427730616
1.551178068282753
16.68464511470788
-0.2501920806800963
-13.09478048572238
13.34493510132591
17.28758283780452
12.66255122754713
-6.991090731540672
-22.95904333373701
13.11927605578887
-1.799206625105802
21.67661628635966
-32.99668571704637
-14.51133581108826
4.26501079901785
-18.36182931200393
14.12132441182971
-0.02450589876407515
-24.70639017887426
-11.81009833117532
-3.022796838216708
16.66573520183657
-12.8463934200576
-0.7965449435401414
20.67070447534407
-16.43578147786403
8.884353058306125
-9.058272322303232
9.128525269037347
-32.44345781694742
16.83876588044009
10.60682183908641
4.997870097420074
1.722220201252147
-2.556596590474609
0.3499413266151025
0.4844350626089514
17.56371580877671
-10.62435541292665
-24.70005103942737
17.76069064357673
-6.414479024133604
9.626218953140695
-17.67303498919565
19.61176160001015
-11.56494556395577
-8.708584314534253
7.688097184739953
-27.69800972439404
28.7184968542104
-7.714867456851725
23.54287810268334
-2.679863986002297
-13.14814665983482
-9.710255146017406
5.747257389722816
-24.25567953691335
28.21867729322402
17.96096263207745
-9.182786724384563
-21.1212467159777
22.23201257941779
-18.32366477074201
6.241671595320662
-25.72752958175541
26.09246856584235
-6.60661057940294
6.519935832816291
-29.95138642024747
7.881063629815616
15.55038695761605
-0.4553318770735841
-0.3869274568056272
0.9198741645802361
-0.07761483062246743
-12.1332123701357
5.747810026523609
7.949985389049576
7.833670612914247
25.31049843752828
14.21859177242125
-19.64484501310417
-19.88424519685627
-2.106560840013097
1.366480223144296
-8.318191705422302
20.27958873456593
-0.2741589321372206
-20.00537909778473
9.232406297113712
18.00635271665129
-12.97245982453016
-14.16376408593093
9.129871193805277
-16.55931923217378
-2.207163772708696
24.42398870216291
-5.657505697283003
-8.660286754934344
12.22880586383851
-20.1278383410803
-23.45103636594034
30.49361390894978
-2.765667391330541
-4.276910151674772
-2.666921553403053
-5.046591886918542
-1.64791821428238
9.361431654605775
-1.311849157581691
26.73545210136964
-25.42361562893823
-10.65677798678286
-29.7432014786201
16.94894309946043
-10.13497272148827
-4.883901810432716
-6.271266575613391
13.82059422062408
10.37373230727538
-20.82315576758926
10.44908039624906
-8.876706319002645
20.49013676691815
0.6198749141332209
32.51091327644234
-15.57728163651318
-17.55350655406491
-9.76400903394496
19.87765429221533
-10.11384510183148
-13.1353293929017
28.2036765565457
-3.627089757470774
-10.07610061312386
11.03626881720176
14.93226076235168
-9.899502496615455
-2.379545301295173
-2.653212964470421
-6.420801893034894
-14.34119651647081
21.67080698810076
-0.9088085785954426
9.379520572646129
9.184250280585855
-5.75172853753699
28.96266663120997
6.007990116004819
-29.21892820963701
-24.53462736920029
0.138513466946083
24.39620164525193
20.10901882061882
0.7464839069828365
-1.535915255040291
-19.31958747256253
25.52175251847433
-16.99825119238038
7.126576561238687
-15.65007788734301
-4.096270113805972
13.52258858111308
-4.424890839043776
-5.001427628260578
16.71538781554646
5.944895065546961
-10.3421457515578
-12.31813712952716
-4.119043475140382
6.516624499461273
15.1210176974285
-17.51859872175026
12.44119317068926
-10.80059069327265
22.36713951623657
-24.00774199365379
0.02476365793640633
-0.03296000990113008
15.52528520335758
-15.51708885139542
3.173796351987647
5.920649277944486
1.678952607194681
-0.01599547025405557
-20.1045956489008
20.10285078786908
0.01774033128525326
21.66832219387726
12.89998759268493
-22.75573402526701
-11.81257576130456
-8.418064336180972
-7.637342441682421
-2.013441701139288
18.06884847900214
-6.438804180694653
25.17493772775416
-15.68084870375306
-3.055284843317076
-11.31705847714938
30.63939370250786
-11.40213393536092
-7.920201290008627
16.20276513199748
-15.2234122625996
0.7297412476677592
-1.70909411707523
-1.920629576123272
-1.296289704981479
19.4196844130958
15.93740114746673
-22.13288605861662
-13.08783908605088
19.28332399720114
19.12242506087928
7.098169802625581
-23.69767588062043
-2.522918982889991
2.964773746551874
-20.02288698889153
17.05809403606552
14.30501071949747
-16.59843545954519
10.65032091265996
-8.356896172623754
22.3586735245967
-0.6315475585150745
-22.31270835246196
0.5855823863795779
-19.05336032874082
19.92821481495993
-2.795484062350264
1.584730726305429
-17.93765339534542
15.86853282525524
0.4843898437887143
16.73024023245446
9.197447458050519
-8.932127816320211
-13.09961312962687
13.16156432952679
-0.06170139625986421
-18.66649591424851
5.595046325836931
15.0418581004464
-1.970408512035552
18.90126546667053
-8.66643228492881
-10.24400230995682
-9.66212482825234
12.8429318301187
10.36080934338543
-27.57997560486291
-3.254702809137203
2.759093719207529
28.07558469476691
0.02191635505674321
-18.50862468075931
18.48670291049794
15.00338436083779
-26.44082527058154
16.83021968508521
-5.392778775343428
5.762015503343838
-5.466685492721108
-15.20167959818658
14.90634958755622
20.10116208838231
15.08521016233166
-14.90678351614929
5.776449632426196
1.724183730550924
8.698536491960207
-24.8810466414965
35.73268237953479
-2.816003059193896
-8.035632678856071
-14.62246489767578
35.71717702340373
-32.57643139619294
11.48171927046402
1.187431379176421
-21.71062772767931
3.000176074591973
17.52302027390905
-13.56908577003817
-9.101401503555341
30.79677549250753
-8.126288218908664
8.740537391420828
8.052187469480184
9.227040335789155
8.26125560426784
-17.48888679611581
-1.433578548097538
-27.39083718441577
29.43690666706249
-0.6124909345503861
21.78264031770814
-0.1417570199920022
-21.64084916365703
-20.02640229686936
14.20377457873632
6.508009707027861
-0.6853819888589889
21.05932513178665
-20.3517182217019
-11.68644859079459
10.97884168070976
-17.93420522954835
-15.30743215829103
20.12542612455839
13.11621126328062
-13.92217084932999
8.625447300899417
-14.84197265886198
20.13869620729279
9.970933294823437
-21.72116890666532
7.764511872840886
10.31787810425936
-12.23574826825337
-5.846641708848747
2.408209889235781
7.854455256187737
-25.6104733605816
4.947468732070639
1.181633708561602
19.48137091996106
3.84139629370846
-19.31427066543661
-5.636653552854056
21.10952792458642
-12.62150605425548
13.23885614433586
-15.15207406244545
14.53472397235726
12.2771249174625
-12.13365611127388
8.662473804716123
-8.805942610914805
-14.82658350412101
-5.607189076273926
6.249554845649084
14.18421773473857
-11.69638433502723
7.38355012771737
27.44901177302544
-1.670584131759369
-24.76507091003161
2.476926184485485
23.95872885729935
-15.5028660895305
-0.02043326718207485
15.5233030201137
-1.473171871261597
13.47146082736069
-11.99845194644919
-26.44459498049728
22.41680419654608
-1.091050748337707
5.118841532287251
-17.16267884950645
0.4910875125275018
17.42522447641505
-0.7536331394421116
-20.98674216083879
0.06961820231844471
10.77655600961192
29.24705392291447
12.45381241639436
-25.61570352066663
-16.08516281865375
10.21375748541182
9.102165866341627
-15.73410571333603
-18.36958131442691
10.79438982027974
23.30929720747903
13.44906860777183
-15.94436077952226
10.25980404458912
28.09871871947117
-22.28095905339593
-20.22521885271735
14.40745918664068
-17.59242644324434
-10.16146686373147
14.35817740752675
13.3957158994633
9.506122265664745
-22.24313350097513
-2.997094478032735
-10.31575556190655
-6.429697001148114
16.74512388486708
-12.74777432656161
14.96724357442643
15.61483602717018
-17.83430527502452
0.3857388569539273
-0.2393782142416934
18.6910504996033
-18.83741114231694
-18.84711194941318
0.1278368542840814
18.7184949457198
-1.309575733999809
-14.93307749506987
25.74877549472656
18.74057212786936
-7.346025084776137
-12.70412277710448
-14.930875585138
11.4786012681895
30.28149697468793
-23.01952611502626
-18.35527757367198
-8.58736832746713
12.00956840606536
-8.745562949526214
1.838077897386983
-7.072026917856205
13.97951196999503
-21.37232261110646
10.7716259024144
10.59998458115894
18.55556322347299
-5.853224574999941
8.057214810675832
-20.75955345915083
7.515836150471056
34.54076359819256
-3.032350964819411
-39.0242487838164
-1.013271192667651
-3.43246807929502
16.89988466928029
0.8522170803705751
-14.3196336703594
6.129131329585469
-2.433481491658736
15.89021890555155
-19.58586874346891
-15.78331190466171
32.07533874836993
-2.152885457562273
-14.1391413861464
0.6332471988670801
-0.8609544680128475
31.20789475904515
-30.980187489921
9.621863218504794
-0.5465336253413131
11.36326522073158
1.71484424437961
1.752020936480478
-14.83013040159684
-3.950075485265989
3.272911934780451
6.56635077108696
-15.61492633953305
18.68278850647752
-1.358490287359986
-1.709371879609922
-20.64558698093348
22.51325371469403
-5.734310560573578
18.53742124307439
-19.54310266757227
6.739991985066597
-1.44527380782676
7.117061541105613
0.6430339046363071
31.25754008671754
-3.274087630869461
-28.62648636052572
-12.31464637590348
1.018987040892686
13.61767647291503
-1.123483567321691
15.24310403565514
-27.73729694127092
-25.19319467942297
10.81581658434665
1.963166536978317
12.41421155807085
-6.889857171112658
-0.2749089668754325
-8.709634058809195
-9.745864963980997
3.862234603567668
19.82799530643328
-4.289280520153273
-29.54178117769517
-10.95705255214688
10.85816535528773
-0.2462795340777837
-17.17338996221155
38.8781778632228
-21.45850836694072
-33.27102150910427
17.80693307813859
-1.965837151525838
17.42992558249264
-0.06462663643548189
-20.25662313845006
0.05740547141093473
20.26384430347354
12.85484923571755
-34.89515507649184
12.76513520305982
9.275170637704415
-17.62652088606704
6.051002679544824
-15.27932487126819
15.27949686475968
11.45138889434416
21.97969020912375
-25.95145237566311
-7.479626727808914
0.08702363140591605
-22.61243182467684
-0.07593920599376518
22.60134739926107
-9.743158606956809
25.23577911395703
-26.14099993945434
10.64837943245325
2.87593155995499
-15.38261178772446
4.664685528618131
7.841994699138333
1.452901339631969
31.16233537707244
-21.16384782236277
11.99394952082176
-11.29025117324561
-6.573680524091401
5.869982176513884
-5.7045403970362
-4.051005202469485
24.56523075062455
-14.80968515111843
-35.54535412209861
5.730336915028722
2.52761542963847
27.28740177742944
9.386007044331967
19.34503833462797
-9.319130113666271
21.98313406055899
17.99572873671535
-25.68713294577217
-14.29172985149366
15.17263430666732
-15.49433637679856
-5.240272550943468
5.561974621074466
-11.5119307451852
21.37840144942676
-9.866757756789502
28.22582428865049
-23.06481452223531
-21.76378506420837
16.60277529772816
4.907092953845184
-18.99674024627408
12.44462627663644
1.645021015791583
-1.033736087253276
24.01058799191431
4.121571733100983
-27.09842363776315
2.136382950051034
39.72262200748489
-14.96728239608566
-26.89172256140629
-0.2669602722685896
3.019756865035811
29.06735150744121
-31.82014810024291
6.598900110667913
2.752680117472439
-14.70549796665968
5.353917738518718
-4.891760763749746
15.25853463336612
-2.196794133546315
-8.169979736133149
-15.97857415261782
-9.645601738316062
3.317808865646054
22.30636702528997
4.744514080723818
-19.71989887289847
-5.448598490749026
20.42398328292403
6.9208793172133
14.10119066852129
1.080393350623937
5.343942155072109
-8.530896345696016
8.681364002256055
10.87207108732935
-0.6721725460133638
-18.88126254357964
-0.5352223529974948
5.449855456565966
-6.634647629141798
10.51107032601806
2.937864152292353
24.48470463901034
-16.05226465275522
-12.48603940593512
4.05359941968181
0.775403797004748
-0.7975133011235357
-23.50893620000229
23.5310457041073
-2.66616397905291
11.11574000731619
-13.13475765264404
4.685181624365235
-10.26907651466902
34.55067787600163
-2.613279167461857
3.973853328130395
7.673739245320674
0.07428174069346678
-0.0826375552793928
0.5821481659409878
-0.573792351314071
11.65145727936386
3.672405987661433
2.838145847897726
11.19090482906595
-0.1625470990495325
-1.425301308926029
19.3852148607576
4.866552989934028
0.3116138122503093
-24.56338166289148
2.840733262953382
-7.434994915062277
33.1598276703831
-28.56556601823804
-4.909758541615074
-17.14729360886237
1.085146650021835
2.720585616174116
13.34156134266155
17.03681236471112
-0.8919017843492876
-16.14485348458042
3.541289659833633
-17.68118541863592
20.90849591103276
-6.768600152248609
-14.88048487780757
17.20089034076378
16.58743338265694
-18.90783884561953
-41.74766341463445
-10.32973543994088
24.4461022623291
27.63129659223643
16.50058992301833
4.592933326881567
-20.72810213839421
-0.365421111545062
-37.29159245297792
27.87526163364237
9.628137743735781
-0.2118069243196843
20.14263136011057
-4.183777122457466
-25.04400730197453
9.085153064319574
16.98700115737377
18.8826299460584
-19.36904118049089
-12.05907636929607
4.932407635921465
-11.36661230803703
18.49328104140966
4.307552827300816
-3.66146042964245
-1.734123139823615
1.088030742253264
-34.26318394938274
37.49439720256018
1.373931303829618
-4.605144557005928
28.97311226759954
-21.62841203632143
17.29356390735562
-24.63826413863789
-15.24608636596754
7.561748260836224
24.67133926246806
9.963222435076073
-16.27600593837369
13.52956415504834
-7.216780651752018
3.41337777437064
-27.07751985352902
16.82554968424535
6.838592394920582
4.770713532338364
-3.690989782729545
-14.04118775389592
12.96146400429111
-12.26911757794988
1.615964538858037
18.94594243609475
-2.682114545399098
-24.08275090791621
7.818923017221287
-6.932631900205741
-20.23042175831332
0.0657088708223845
27.09734478769446
7.336298159895965
20.67298941186507
-9.063345135672833
-14.32538860204809
1.902363967261231
12.42306854374398
17.58700251357865
-18.51736443812447
7.405677769103341
-6.475315844561616
-24.03249801551171
15.73983497138521
13.30153338771761
-5.008870343589541
-3.670349557980434
3.06484501969656
-19.2517025057584
19.85720704403696
0.6908771209103087
-12.16216588845046
6.598679982537875
4.872608785000293
-15.66852926083841
6.515510931951368
10.52693079697904
-1.373912468091943
-14.47582152452049
23.87372487648243
9.987311508804872
-10.09123380821104
28.04947591011957
-9.524019829542679
-8.434222272366847
-5.270001149925459
4.025441530636587
24.46211092942768
-23.21755131014613
-32.09385829336217
8.292001242163884
20.65879691313547
3.143060138062294
-24.34821705385823
0.1410622534046364
-10.16553637271404
34.37269117315296
27.55321452040208
14.94074303094464
-14.46437450154311
-28.02958304981082
-1.567380168596693
-7.685406538070212
21.56931522891156
-12.3165285222398
-9.506357530078562
31.50833257619593
-21.39030039494557
-0.6116746511729937
11.74025435782705
15.50679262512943
0.05386606170556438
-27.30091304467322
1.664139391049845
-23.41382175854238
-1.57684727862429
23.32652964611593
16.1664282680437
-13.27938928881716
-18.79282975568741
-0.4445118378739788
14.2668016275489
-13.82228591156469
-22.15141052349301
11.00256941144488
11.14864794482748
12.12412500175228
-22.62928000687651
-7.732233240227343
18.23738824533934
-16.71738145008865
13.86640340228051
2.850683788940564
-9.076489045149181
12.4308688945898
18.07699266921557
-21.43137251867066
-15.99361779940785
-2.810966007923587
17.50829410233947
0.7999484309043403
11.92216820715382
-24.30726850368374
11.58515186562278
-17.64592309686075
12.74075255229094
-11.08844725484774
-2.989587794745205
1.248314046965205
-18.42709963750667
20.16837338527716
5.783736675936246
11.84582782091993
12.9971747945934
-30.62673929145672
18.75149738907063
-2.132653781752475
-8.172139368286798
-8.446704239021159
7.499111581957168
-2.471217737036015
-21.39122253088209
16.36332868596066
8.913886930640629
-28.68242477101675
10.69204879521692
-4.791062543094787
-13.04036153524932
-2.723634873100038
20.55505895142783
-8.002079591349203
19.09275110228146
1.88712633596796
-12.9777978469035
3.01970998425741
13.85277055952279
2.048549070784089
3.932093842929166
-23.35622015231409
15.16097834433432
4.263147965047573
18.80044941733182
-15.08848885272469
1.552269413854397
-5.264229978461203
-14.4647935780063
1.143809344905238
-2.054292980461101
15.37527721362222
17.3989883047043
5.841269004219694
-19.06230242598316
-4.177954882944559
2.645325041364046
5.131475177223862
14.46951671453273
-22.24631693311452
20.66863682943475
0.1880512785326153
-25.4647894386508
4.608101330782842
29.35483840522145
-18.74822033742824
17.99128306804989
-28.59790113582723
4.613427043222599
11.3954699798995
1.779004348469245
-30.02456188394547
-3.233029964094336
20.45969181899184
12.79790002903083
-4.142851997970657
0.3542936420762422
19.24023116871269
-15.45167281281932
6.918494652864867
9.386696288617467
4.813088540417921
-21.11827948190306
12.15130197698474
-7.086747186447319
-18.07767193416391
13.01311714361811
-18.49506636834682
10.04298099198437
16.12806238494707
-7.675977008586258
-18.56896898699048
19.8826336531395
9.095174073281623
-10.40883873942857
-7.960531334114517
25.57104742728399
-0.4034046707495987
-17.20711142241428
-21.07046016415647
-3.369783791222845
22.78626118920094
1.653982766173878
-2.331943257724126
19.3064859300763
2.827207415872954
-22.38830279657952
-6.829282050364342
3.607111486377148
-26.92703008815421
26.25608953294618
-13.80488096929549
0.897221903195321
-41.85449368676908
6.877533886887802
-18.67180601089722
34.57813482978708
-22.78386270577936
17.70869430597457
-41.64947432390907
-13.7003267423206
37.64110676025222
26.4423769141361
-3.630626896919359
-22.39910043669791
-0.412649580521312
4.326641516785894
-1.432988516925484
27.70096965293749
-30.594622652801
24.21563938088217
-26.40137996886484
-1.14260715275894
3.328347740740885
15.54447178382674
-12.51567136680187
-24.4144317218767
21.38563130480952
-5.595494398202217
-12.9156812648604
14.29753460622727
4.213641056835309
33.38671394593372
-16.98954107005205
-19.77254293240025
3.375370056553488
-11.47080239862279
1.620847239964106
12.46541938891039
-2.615464230240251
8.00547241896353
9.723464593712167
0.07172724168195674
-6.27930810525839
-9.83480613257789
30.85901477076229
-14.74490053292787
9.918606675991295
-20.30860198209512
9.020055246314101
1.369940059790364
-19.44787704685963
25.25465219939835
3.44315800691255
-9.249933159445284
14.29312042158326
20.46778882960847
0.8241874444727627
-35.58509669566294
-27.20657871446018
-8.571649492504836
-11.61593589205183
47.39416409898867
37.76285585646239
-11.31518186424337
2.567055871272735
-29.01472986350274
15.63117388574997
-36.03078910741569
-8.401350868549207
28.80096609020955
21.48552956309854
-12.39388134975371
5.974825356279982
-15.06647356962971
-20.32604866745782
0.1147300046126112
-3.002615598164065
23.21393426100425
-21.25018428981775
0.08308653199739166
7.469148744380037
13.69794901343686
-10.9470506990691
-20.11155489311272
18.79228839661607
12.2663171955488
14.02410548420715
0.2319623751341675
-14.25610441825494
-14.45126581611636
18.7855557446588
33.42856592792358
-18.06434092462237
26.02875462019419
19.38133191239731
-27.34574560811672
18.9039984601909
-0.2273481858021055
0.2773659023535692
-10.63357802235093
-9.69361071651835
2.448559026242016
-23.02863969511829
-6.626498045593066
-21.15706999301963
10.52011300424741
-0.3100937103036692
3.463624837691602
14.96055681530243
-17.2367502738213
37.00404389397467
-16.96486901455301
-15.10168091099488
-4.937493968473873
-4.206708934972988
10.89674340774069
-26.80158936589063
14.21390025204508
3.807340552406243
1.698279429289965
-19.71952023375049
1.286381671037287
8.794538061786419
10.57867847265535
-20.65959820544916
2.260860193359274
-3.67326111209962
0.5433389525260985
0.8690619662100746
6.403632045915826
13.00620609748082
-1.270581349024848
8.746159571379229
7.966232958847802
-0.3287722106878979
-3.648465177981598
-6.720099258252715
20.16584449181774
-9.797280055574674
-42.6932296675999
9.545280210234306
15.08360853266069
1.652881579370402
-19.6874799608917
0.930339447916919
17.10425893357834
-10.83559626017806
20.94500182322646
2.361079011503042
-12.4704845745402
27.01076137919174
11.5447386631866
11.1610131577082
-49.71651320010221
11.34020882416084
5.469684603877419
-15.80997611828602
-0.999917309751532
-23.5327078022923
-5.929657207827844
1.334466636555399
28.12789837355623
1.215418249312503
0.5867589164066219
-25.33488496801876
-15.29877505861388
-5.593566677433368
-8.042507515415036
15.43186115095235
-15.93629599090793
2.157316419295405
16.23772264813897
2.758145047968855
0.8614392317340179
-19.85730692783939
38.53929119007037
-20.81240190394884
3.58361523257798
-21.31050451870051
20.43364535125792
-27.22423580236576
6.790586074824756
-9.100496057427222
29.68503542054715
-1.455789790360905
-19.1287495727601
-17.34835172900756
-5.428800943967463
14.93725318462805
7.839899488343552
6.84250781856451
-6.660745580127887
-2.536087694892896
18.29258503682457