/*--------------------------------*- C++ -*----------------------------------*\
| =========                 |                                                 |
| \\      /  F ield         | OpenFOAM: The Open Source CFD Toolbox           |
|  \\    /   O peration     | Version:  v1906                                 |
|   \\  /    A nd           | Web:      www.OpenFOAM.com                      |
|    \\/     M anipulation  |                                                 |
\*---------------------------------------------------------------------------*/
FoamFile
{
    version     2.0;
    format      ascii;
    class       volVectorField;
    location    "0.8";
    object      U;
}
// * * * * * * * * * * * * * * * * * * * * * * * * * * * * * * * * * * * * * //

dimensions      [0 1 -1 0 0 0 0];


internalField   nonuniform List<vector> 
19632
(
(5.010830044396193 0.01743020959408344 0.007020989736394559)
(5.000081113894002 0.0003465694887363621 6.432431507530205e-05)
(5.000350531763821 3.54164328832078e-05 -5.921444340189559e-06)
(5.000237081575984 -0.001472275022859262 0.001830945756638924)
(5.00019061580258 0.0005693671981385935 -8.134069788599171e-06)
(4.998773070401543 -0.001296720283821086 0.005535139693173366)
(4.99967638929543 0.006570812776006776 -0.001391844764828969)
(5.003894449231444 0.002020216104499159 0.002208741224061451)
(5.00547729764258 0.003581337817281924 0.003341486120089341)
(5.006873948161637 0.001232945489902673 0.00190168796025084)
(4.999755568189324 0.008549677886036642 -4.389203849539968e-05)
(4.999446873443785 0.001540919568377803 0.001824258248442558)
(5.006122032431617 0.00182325044428829 0.002464731038984674)
(4.999803066659231 -0.0003539331661070539 -0.0002482424605337047)
(5.000112364345099 0.0007157178046876031 -0.0001021891011931087)
(5.000317187396845 0.0009286863608852225 0.0003146379745962252)
(5.000140024749174 0.000890869520740945 -0.0001397113851442524)
(5.000207758380116 0.0008052194592151988 -0.0004840543868252568)
(5.000227129802957 0.0001511745381185484 4.124763517885382e-06)
(5.000425767760275 0.002930375481028406 0.0001971660588579759)
(5.00435062201338 0.00415098064789833 0.003185320347731765)
(5.000360490439177 0.002141834881480238 0.003140356179141293)
(5.00866285343078 0.000150664695342797 0.001951142145519512)
(5.000269465249653 0.0006910891767850946 -0.0003046344336291058)
(5.000781416888453 0.000493142130439682 -3.040619980612424e-05)
(5.006851694734888 0.001984761740672229 0.003734981121725413)
(5.00414764957209 0.003915116866899905 0.001738817122432888)
(4.999732037026969 0.0007008160900486721 -0.0003646222653486837)
(5.000543299970621 0.0007981314195781445 0.0008911953152677261)
(5.000144568495174 0.0002565639802539812 -4.394265456894743e-06)
(5.000269833800195 -0.0001470747594534965 -8.612156157538019e-05)
(4.999682132670928 0.001048009654462539 -0.0007175164869097214)
(4.999933534168227 0.0007395814560800512 -0.0002525421188603221)
(4.999626356331828 0.0005779536939324837 -5.521012542458261e-05)
(5.000197593301471 0.000229492725622817 -2.679268767071746e-05)
(5.001169184423384 -0.0004209943372759506 0.0008311595934086032)
(5.000984759444041 0.002234029818111893 0.000384844123975014)
(4.999758722254813 0.003184626102583209 -7.242660571384352e-05)
(5.004046485758882 0.002370146453886954 0.003308190494565987)
(4.999737796074301 0.001409787973542666 -0.000248969414791483)
(4.999932367159811 0.001257593112808115 -7.129410400104582e-05)
(5.007854122478967 0.002527705737042113 0.00471174304312456)
(4.997587558722879 0.003654451084421556 0.002001820166525095)
(4.999817542284073 0.001036263486093512 0.0004310757697930361)
(5.000103778823235 0.0002531481963538201 -0.0002413786533053378)
(4.999078401700562 0.003804236148923769 -0.002010007287193313)
(5.000026069831256 0.002974337420658348 0.004957514146721618)
(4.991557706034766 0.0008747859874887134 0.001261021407081467)
(5.001994334568825 0.001060210034229936 -0.001226367903750676)
(5.000432985269394 3.660542891354113e-05 4.609982696985987e-06)
(4.993180100506303 -0.0003553627110138141 -0.003385246465576399)
(5.000485880778411 0.0001341587014945722 -0.0004304260369078866)
(4.999623576573629 0.002906593171920288 0.001242981290181571)
(5.000763493566704 0.007688161296113732 -0.00362920914428766)
(4.999639762648854 0.001270969195138078 0.0003704297702789199)
(5.005101325057758 -0.0001580379696840352 0.001603926407195705)
(5.004418002234415 0.0002890002591234972 0.001221366001981941)
(5.001061276546981 0.0002032681308359315 0.0001470128661710223)
(4.996497465417438 -0.005350743602561366 -0.007420433927500062)
(5.000030882960378 0.0002417784314170931 -0.000183919630390421)
(5.000184302288009 0.0002968363089678097 -0.0001510545507438953)
(5.000385467202783 0.0001677056097722134 8.47295824445874e-05)
(5.000272826413372 0.0002342786829163038 -1.199074396400697e-05)
(4.99954795822638 0.0007113773496902505 0.002236801204101363)
(5.000123826630131 -0.001585626940233163 0.002949195988215595)
(5.000059947734512 -1.249810033076687e-05 0.0001872409364481617)
(5.000344994614672 0.001051075427368556 -6.993474569480045e-05)
(4.999624923896175 -1.000782241381571e-05 0.0006853437683548157)
(5.000500665682057 0.000317170486712826 0.0006086084773748384)
(4.999445727881663 -0.002525099005280534 0.005952389749192709)
(5.000089883252795 0.0003455800205088072 0.0001776115551068599)
(4.991389334134922 0.002684993179671143 -5.827894367746718e-05)
(4.98657665451115 -0.000472158545394687 0.0008187059061150613)
(5.005354494820265 0.003126928652870115 0.002498143501910228)
(5.000902557345138 0.0001293777671070138 -0.0001512515069887062)
(5.002016280346052 -0.0004823483392563722 -0.003225308268071664)
(5.000391222268733 0.001061873386947187 -0.007023230435607365)
(4.994553559899246 0.001109634454363006 0.02915249689516207)
(5.000062411506851 0.00157572040524746 4.226560987161572e-05)
(4.999099314801766 0.002006632243935348 -4.906529404270154e-05)
(4.997457503656881 0.004512166022573029 -0.005402785260623939)
(5.002621070245639 0.001115116332243884 -0.001717809972129344)
(5.000499840744348 0.0006040326067594268 0.003085432094308332)
(4.999578554211182 0.0005417707466119212 -0.0007247595226970263)
(4.999534536691565 0.002579405915953611 -0.0002178863329967789)
(4.998929134423744 0.002546995613389493 -0.0003022015837799097)
(4.999799827175544 -5.245397253011026e-05 0.001238934657359933)
(5.001158095995129 -0.001226865091743887 -0.01052628405896291)
(4.99445477911252 0.006265002645681601 -0.0007702181498329106)
(5.000026602885966 0.0009101489585029546 -0.0003394966884193203)
(5.008354077000051 0.00224068032537147 0.007492329413060749)
(5.006437416091553 0.006931114966959278 0.01134018128054336)
(5.007433362526333 0.001410224887054987 0.003875303164778429)
(5.000160141003951 0.001433709446133346 -0.0003583187570925065)
(5.003712030874857 0.001510920189328905 0.001943380195925622)
(5.004092679823914 0.00192263079705119 0.003486951734689072)
(4.998001126853763 -0.0001932272035308492 -4.077563550964921e-05)
(5.000078307060309 0.007847135125510886 -0.0004693144235409822)
(5.000988087443226 0.003247306145614256 -0.007741197491798991)
(5.000293977422794 0.0006775155218246303 0.003507943728579085)
(5.000137694908253 5.573774573568802e-05 -0.0001702466326237923)
(5.001411703796629 0.001616206592347345 0.0009058377548616042)
(5.000354304391371 0.0005519332016654611 -0.0003440203903476961)
(5.0001308936599 0.000299066912456414 -0.0004281407059095364)
(4.99636886743375 0.005331850292382516 0.003412734032065058)
(5.000540998362296 0.001904143078159881 0.00107462183957601)
(5.000134152998385 0.0003327719824677941 4.684124638678198e-05)
(5.005905875262006 0.002882502711968531 0.006356690177685301)
(5.001645537643284 0.00115026603454888 0.001343182987534234)
(5.00015622038708 0.005765385087510492 0.0004716823613279483)
(4.994144847132898 0.001424943572019969 0.000759717910487094)
(5.005907193223038 0.001413615796942265 0.0006317200685404536)
(4.999290390528697 0.001770475937602074 -6.545539621222598e-05)
(5.004940329084139 4.425342248472765e-05 0.001391931151393208)
(5.006965806075504 -0.00145084588531068 -0.001746001407152666)
(5.004128040271036 0.004656381557380515 0.01116308756296971)
(5.004777819013349 0.0009595525979338721 0.0007912920729872693)
(5.005436915345763 0.0007030686746799027 0.0008040459410444247)
(4.998915007879499 0.004226311895310373 0.004026487932817052)
(5.003860531143666 0.005456346461759752 0.006077808386606762)
(4.990488755335731 -0.0003714310787951521 0.0007602111816158218)
(5.005338444041979 0.003134011177006465 0.008195825179079453)
(5.000119666738716 0.0002119946831929571 -3.791739991027891e-05)
(5.006164753281794 -0.0003685446069793004 -0.001500984328605482)
(5.006439044132533 -5.682409543039699e-05 -0.003404708935521892)
(4.999814980718302 0.0009963281240223871 -8.411489466655212e-05)
(5.003690765432225 0.005911249775452653 0.01142319302114607)
(5.000527950372623 0.0002259707535511565 -7.193090002165182e-06)
(5.000408915984519 0.0001360418127311616 -0.0004777996826863094)
(4.997633205442189 0.00365118269862614 -0.005130269234541298)
(4.996454190985557 0.009571303619322975 -0.004728848992462162)
(5.000431821025954 0.0005406953052734895 -0.0002849785700246368)
(5.000004326699822 0.001007839839129391 -0.0002424931766498859)
(5.000291157489965 -5.447041030366955e-05 -0.0001574649106808258)
(5.002049316814697 0.0003322555355910737 -0.0005989914147901366)
(5.001128430562536 0.0001914273329329258 -0.0001270613443920165)
(5.006311542615451 -0.0003660842071217497 -0.00103018705669907)
(5.001718955552516 0.0006349877957780227 -0.0008202873035052177)
(5.000417111903172 -1.1278858909207e-05 -6.279753614808677e-05)
(5.000983574815087 0.001014659628206551 -0.0007837817550666675)
(5.000568879505191 0.0001487003623151971 -0.0003013372015589397)
(5.002635961988852 0.004307863325427114 0.007847393081401227)
(5.000335072497624 -3.447203045914122e-05 2.817226009185623e-05)
(5.028833166290481 0.005521458115515273 -0.01690665551076717)
(5.000569028554436 0.001172734323997055 0.0002826272787986045)
(5.004497797914605 0.003033283056121491 0.005565896146286236)
(5.000402930282464 2.269442719250596e-05 -1.299444614679133e-05)
(5.000616446452624 0.0009710143846307409 0.0008212402545863175)
(4.999666043623845 0.0006059985495512439 -0.0002822194636659127)
(5.000627467086426 0.001417812201257801 -0.0006969206532239304)
(4.999984264588307 0.004696313593552633 -0.0003503322221737785)
(5.001948370752315 0.002615387111462508 0.001419737121601435)
(5.000032624651572 0.00101408748420886 0.0003801057126187934)
(5.000271834035493 5.203971642082666e-05 -2.858850063374255e-05)
(5.015274085603737 0.02308427655195481 0.01432073220162933)
(5.004939535394501 0.002236362876275719 0.001298739411893415)
(4.994347376120379 0.006984056706198164 -0.0002461845637026513)
(5.00314810491615 0.001355221263834844 0.001634009785183197)
(5.00207524518533 0.00495925453685672 0.0114617788495531)
(5.000295705067955 0.0002262307749984027 -0.0002239103323176168)
(5.006295572525038 -0.0003610193007945803 0.002866665415695607)
(4.99605627016283 0.000498609547129227 0.000638854269845185)
(4.997869711592068 0.002112141901554557 0.002096159730161266)
(4.995572331320321 -6.731852588679691e-05 0.0003827110751540326)
(4.999436961289145 -0.004338208388907731 -0.001138776239519833)
(5.000949209252683 0.01473421170463774 -0.01614207413654876)
(5.000381937318854 0.002281824747778289 8.414332580484981e-05)
(4.99531036949763 0.0007857517213961205 0.0007219658524330534)
(5.000268436745027 5.055641628723806e-05 5.302155408100859e-05)
(4.992778903590876 1.599542765088119e-05 -2.189336153810635e-05)
(5.001983649563219 0.003577348533868781 -0.02095142218944309)
(4.994644587898346 0.0008245791022136374 -0.000591094852167767)
(5.000842692758515 0.000721464070317172 -0.0008100961827806631)
(4.999588527866498 0.002590433871373029 -8.634411807042666e-05)
(5.001652049086911 0.002280638527098007 -0.0007258230700741761)
(4.999933712955797 0.007694323505050889 -0.006092292317559652)
(4.999851210915494 0.005326721786755835 -0.008339114522590335)
(5.000199510501592 0.000237660510854278 -0.0004430195044244317)
(4.991601368866579 0.0005618758879723743 -0.008496016126298515)
(5.00100232682769 0.00127489587342722 -0.0007047942297992699)
(5.00034079045145 -0.0009800227384584388 2.452794446297828e-05)
(5.000388980740741 -1.821005098861151e-05 2.155476580085597e-05)
(5.000218268350841 0.0002876221242690786 -2.675916299752847e-05)
(4.997522600722716 0.007953537087221463 -0.003502957948041332)
(5.000925591997832 0.0008784358537838842 5.383030753863497e-05)
(5.000318433735385 1.452883775127533e-05 0.0001120915932215433)
(5.000318665363134 -5.955866833135209e-05 -4.972275708180482e-05)
(5.000260056406082 -8.771653190860375e-05 8.612675421259308e-05)
(4.996277826798267 0.009580568128584063 -0.004674166566300031)
(5.000264668030878 0.0002997371564908251 -0.0002597068749417564)
(4.984492485230352 0.0001105316834041831 -0.00133558311287715)
(4.997292748215286 0.001012715951954343 2.498861386111823e-06)
(5.000326488182262 0.0002104342178552755 6.022282891390891e-05)
(5.000339293860505 0.0001990964839024073 -3.936234704407058e-05)
(5.000488961459665 0.0007627644420910667 -0.001167254346529835)
(5.000300629764524 0.000573287573144381 -0.0005664595261979593)
(5.000319777932116 -0.0001045942180220067 1.537082623151111e-06)
(5.000178252528216 0.0002882703986895839 0.000192056626538949)
(5.000330392630279 -0.001270161055471264 -0.0001964662948583363)
(5.000593199177988 8.098852106755272e-05 -0.0001762676461100121)
(5.000097773832363 -0.0006254181971247702 0.0005393122268749009)
(5.000396608070525 0.0005545951299484758 -0.0003768359553070116)
(5.000427907840707 -0.0003764499218956182 -5.951026215766745e-05)
(4.996800292804922 0.0005191751512916598 -0.0005657779342693134)
(5.000394503769322 -0.003313320802899153 6.986193697168187e-05)
(4.999915989790723 0.000259650639284586 9.836861599772392e-05)
(4.978441841530142 0.02590707694770728 0.06885695411900736)
(4.997500361192529 -0.0003832650136653306 -0.0002230915582320857)
(5.00139679082625 0.001164739126393592 -0.002648413766670669)
(5.000140132647351 0.0004402406990197004 -9.990079362995052e-06)
(5.000339980346346 0.001153705529677072 0.0004300179100214911)
(5.002956175126234 -0.0005966555955139 0.004566890419231742)
(5.00039169514898 9.999163434633738e-05 4.288398181179349e-05)
(4.997506953127019 -1.976278220029591e-05 -8.658425052995049e-05)
(5.000632041154295 0.00460777059763144 -0.001309720823111138)
(4.999993319887404 0.0006348189118561508 -0.0005728106725264137)
(4.999717620291626 0.0009534439266690464 -0.0006674375439491622)
(5.000872597498743 0.0005587597654733652 -0.0001725106990646712)
(4.995048180618495 0.005792338338666655 -0.0001361429065886202)
(4.998995259315055 0.002418028370037953 -0.009297235601774635)
(5.000031206846914 0.0002464868908443185 5.923291001775376e-05)
(5.000627398104317 -2.96258832722126e-05 -0.0009010692161285272)
(5.000835125875779 0.0006266101384931274 -0.000260563778870703)
(5.000421500910638 -3.587238843129745e-05 -0.0005813278939553336)
(5.000235621287803 0.0007256345311191629 -0.001071576718483363)
(5.000318021886856 0.0001669573408674249 3.214015175867457e-06)
(5.005544724664962 0.0009346199439119664 -0.001337476937166377)
(5.000208020794134 0.0001808351893876667 0.0001723551593340503)
(5.008635718627736 0.0001485689225355327 0.00136509024390762)
(5.000511475621851 0.001464701440212322 -0.0009044335151186739)
(5.000147318152994 0.0007763118950354583 0.0002524186837496371)
(5.00131822296031 -5.324875806394997e-05 -6.724063718221713e-05)
(5.000355750601666 -2.028082083248219e-05 -1.998110958941597e-05)
(5.000359739520068 0.0005215268883130814 0.000153173616103952)
(5.000115756942303 5.793134462126861e-05 6.806601542231415e-05)
(5.000514968076502 0.0001312122143648775 0.0001942763525524345)
(5.00031757022847 4.740284180744504e-05 -0.0005721973811428304)
(4.999391118621019 0.001869756470020571 0.003176659203795991)
(5.000092829387361 0.0002224700061000404 0.0001418963504575742)
(5.000297093258517 -0.0003020815715042503 -0.0001466403878647645)
(5.001567003451868 0.0001453209941079963 -5.119995193390094e-05)
(5.000984422962307 0.0005041340285746341 1.761277621794471e-05)
(4.9497565599867 0.001530552453706546 0.04740076111817191)
(5.000431332328364 0.0006955752633571669 -0.0003646065736158076)
(5.000257109052543 0.001467216365626691 -0.0003143933196377101)
(5.000345552886642 4.565595175429303e-05 -5.102126461003894e-06)
(5.000541959165806 0.0008649603519490469 -0.0003290516403234871)
(5.000475391266491 0.0006642244493131361 -0.000338060142616093)
(5.00034807967557 0.0005148294541415957 0.00298624553610716)
(5.001027009241154 0.001034320320068365 0.000374205564360094)
(5.000321375479635 4.393506825254042e-06 -1.16470894738239e-05)
(5.000281407706024 -0.001318235987429485 0.0090873844113707)
(5.000386326481021 0.0006305753389196878 -0.0003051100296109627)
(5.000412926258306 0.0007169192718348961 -0.000480348935102421)
(5.000245420717121 -0.00299451791665514 -0.002596899875363832)
(5.000511639531656 0.0005005172156724259 -0.0004187220281467178)
(5.000368940192452 0.0006216572229994046 -0.0001555535632480744)
(4.998043150429785 -0.0005258998812121246 8.475638642106306e-05)
(4.99996745595119 0.002147499963069665 0.007082096660627525)
(5.000614029387794 0.0008001888529803185 -0.0005174067907883854)
(5.000750299000797 0.0009417775620991367 -0.0006936869241103546)
(5.002995347331323 0.002268514051916246 0.008299821145475802)
(5.000706981912152 9.078270063070678e-05 -8.714128666434754e-06)
(5.007406334969282 0.006311159350655984 0.003452573051008311)
(5.000001916979649 0.0004552334252327087 0.0002186136022664342)
(4.999829425750298 0.001060776916336082 0.001829692017120965)
(5.000540519765103 8.485188810260539e-05 3.898175929254736e-05)
(5.00867149918211 0.002596752978231581 0.002678093747054055)
(5.001334671227727 0.0001357360599055309 -0.0006147013631646825)
(5.008090670516846 0.002545955037227928 0.002336247310163661)
(5.000658111484288 0.0005353188246179842 0.0002583197373095968)
(4.99776449871203 0.003213951256185153 -0.006041433454366626)
(5.000391233773096 -0.0006442690245248919 -5.306602801704907e-05)
(5.008060366243421 0.002961942895731944 0.001762963743710573)
(5.001252580670533 0.002281290784649495 0.0003944120835906993)
(5.004898201270443 0.001404957539172536 0.001635755568224878)
(5.000705391300516 5.193006473310829e-05 -0.0001034075260663458)
(5.000786511806815 -7.694049020654251e-05 -8.4736147204595e-05)
(5.003864170537814 0.001510460449667955 0.002969785092235843)
(5.003204534567471 0.002457195438176838 0.004265189917044455)
(5.003480618621711 0.003295268704698252 0.004787445606252625)
(4.99511402213071 0.0006512205330568661 0.0003445450433467074)
(5.000317256297003 -3.733266494084351e-05 -1.160392064340638e-05)
(5.000390035475251 0.00041546441715378 4.691739397281497e-05)
(5.000304827011202 -1.061956680062417e-05 -6.307857761633217e-07)
(5.000192332036815 -0.0002907339236734308 -0.000155666838204518)
(5.000328219616374 0.001918990092514956 -0.0007378229247544613)
(5.000786406861149 0.0001834434415510023 -8.687539413408745e-05)
(5.000853966550253 0.007195569116651333 0.00795055584644244)
(5.000303501020273 0.0002105087713979406 0.0001887104097723697)
(5.000270978174418 0.0001052084771218954 6.420408987345649e-06)
(4.999835124621907 0.0003110200856777301 0.0003137696786221221)
(5.001878450417329 0.0002006739009099277 0.002528721486786333)
(5.00024647562313 0.0002265584911404113 -4.453916733691974e-06)
(5.000519229100447 0.000625786798998736 -0.0006248973753415606)
(4.999375089629103 4.607263182802672e-05 0.001102426339296161)
(5.00005165177951 -2.853368144764438e-05 1.614255422742906e-05)
(4.989497475954919 -0.0004383006783161042 0.0005789026227525942)
(5.001168967693616 0.0005469925567259101 0.000152005139673839)
(5.000281299941996 -0.0004338177151210755 6.881543147269366e-05)
(5.000368974962972 0.001331507257500201 0.005048152603631188)
(4.999864290170474 0.001805476398014303 0.003083023175728788)
(4.999981877643273 0.0003741373918400385 7.159802364551067e-05)
(5.000358840769649 2.201449719065507e-07 -2.219908337506288e-05)
(5.000948276525944 0.001156030041855959 -0.0005988457595477847)
(5.000906963578735 0.001309640860311768 0.0008729043635716135)
(5.0002708287066 5.499114850819139e-05 5.616413684885896e-05)
(5.002883966895351 0.0008543687669349007 -0.0005462004224350577)
(4.999015380964187 0.00101535559149317 0.002577310079133297)
(4.999958585231976 0.0006907022098791114 0.000632049218184046)
(5.00376684067173 0.00201398393083525 0.0006400627964123121)
(5.002140289836429 0.003261076020374872 0.005599021555640364)
(5.000685931722088 0.0009508806649761838 -0.0004949099879092663)
(5.004691277672459 0.002902511824914725 0.004941254635711688)
(5.000151811509292 0.003281529641057267 -0.0007434347059398287)
(5.000461402010733 -3.334334683767258e-05 0.0001022107052372485)
(5.000544312208813 0.001785346501085211 -0.0007891071093524003)
(5.007237385363479 -0.003994228484067949 -0.004862156523392411)
(4.995165378943454 0.005544552201206008 -0.003831894653453322)
(5.006547146784333 0.002631211289473297 0.003058881122337909)
(5.021571034160433 0.02949100054144503 0.004809608975265078)
(5.005126169470762 0.002801593739271665 0.00263854380492842)
(5.005003098753378 0.002870934938871921 0.001331838466612297)
(5.004450277004043 0.002049535155510112 0.0009127584846637703)
(5.001012443610241 0.001946391629670218 -0.001434680875283089)
(5.000780506623204 0.001769811835992068 -0.0009231076181699149)
(5.000792698698039 0.001490331606565022 -0.00112013003911045)
(5.0005052170829 0.00154426323032214 0.0002813467706687779)
(5.000498145711207 0.0002501381992745882 -0.0002794541430765311)
(5.000456187537142 0.0008683183619399655 5.360986786469616e-05)
(5.000403693496501 0.0004257954355536282 4.340729128583548e-05)
(5.000534061311988 6.926044470681365e-05 7.931055676914766e-05)
(5.00015772572134 0.002352413272285864 0.0005806397743948422)
(4.9998434240482 0.001534520298345054 -0.001400743371339432)
(5.000234423622921 0.0006079923590789379 0.0001605439378439599)
(5.000183371904434 0.001922873597808134 0.0007508842845869068)
(5.000060757685318 0.0004208534880959051 -9.576711975500814e-05)
(5.007277381284358 0.01250446470258415 0.00921722114690101)
(5.000187408832624 0.0003110676114659182 -8.699335365949828e-05)
(4.999369899582311 0.0007474573747987265 -0.0003122977173248377)
(5.000036263851928 0.002335305161955614 0.001068219402201624)
(5.000462753559739 0.000129060933495182 -0.0006730817992641236)
(5.000889941591598 0.002091175553165322 -0.0004632640128253906)
(4.994498288493888 0.001336035513800242 -0.0002004835267927703)
(4.999931112025675 0.002492501142265214 0.001039385031732378)
(4.991798248290635 0.001881634862225644 0.003788380775620598)
(5.000319397787237 6.528254344086433e-05 2.766439212179704e-05)
(4.998678237897777 0.001611256754890478 0.005165146880187185)
(5.000301770822852 0.0002161165841100961 0.0001812626144037211)
(5.000479496581139 0.0003558186376185744 -0.0002480549542939701)
(5.000831161192074 0.0002952847469839458 -0.0001923003825602928)
(5.001427277557871 -0.001012131186814948 0.006663522203565334)
(5.000201818474387 0.0002934398179606067 5.034864443767628e-06)
(4.999987626117025 0.00041915946689306 -0.0002141264570013805)
(5.000947783416372 0.001776550837176838 -0.0009928600446220087)
(4.999135776351461 0.0003189990128171093 0.0001441108663013874)
(5.000284142792176 0.0001477408002372011 3.788947842320044e-06)
(4.999766515128708 -9.56643277307773e-05 -0.0001522789660836326)
(5.000037029656713 0.002567020612357035 1.568319213249949e-05)
(5.000925915010379 0.0006805511513483121 0.0006597876403926996)
(5.00082173744059 0.0004505698022928809 -0.000251105443050297)
(5.000032370369916 0.000218937065214311 -2.51717203122738e-05)
(4.999711707477574 0.001736515505798214 0.0001462609999068747)
(4.999716437354061 0.0005361464459041567 -0.0006758270225076274)
(5.001254597545651 0.0004763682386305353 -0.0005652040563783517)
(5.000140209767507 0.001076846131589602 4.826715120555862e-05)
(5.000216409791754 0.007157395070544351 -0.0003309806173325383)
(5.000022595121119 0.000771753713596028 0.0001657322857511224)
(4.999452861242607 -0.0001061028579954751 0.005397230439077354)
(5.000401087440935 0.0006426356239123692 -0.0003842564244735098)
(5.000547925405244 0.0004390758643356062 -0.0004053142007029818)
(5.000168606436413 5.982247978961392e-06 5.228382767471786e-05)
(5.000662840590794 0.0004697963798961455 -0.0004520486627726425)
(5.000599581555605 0.0003064963988755156 -0.0002536472350954299)
(5.000082597714643 -0.0002130709384934647 -0.0001026629546975343)
(5.000356521967795 0.0009122092564207618 -0.0003774689866830977)
(4.999920310733347 0.0002647591706421528 -5.915812330466625e-05)
(5.000270932868459 0.0006304607686105402 -0.0002420912201360395)
(5.000466260447988 0.000573582646248286 -0.0001401084144915732)
(5.000146867368271 0.0001764344500903324 -7.835201061111442e-05)
(4.994567961703933 4.621129874773863e-05 -0.0001732681886787639)
(5.000022636023271 0.0003139818321778041 4.140186180438142e-05)
(5.002264843703636 0.002220783131171146 -0.0007988784023694206)
(5.000480237857965 0.001213757139795792 -0.0004956523284350117)
(5.000352061827432 0.000106763255637122 -7.243246312197766e-05)
(5.001505447219846 0.001910150367124561 -0.0005957706094249398)
(5.001658620077435 0.001100896287039341 -0.0009293129439149697)
(5.003267688349155 0.007657167968880968 0.0001935453795394495)
(4.982995187867212 0.001502347128771844 0.0004255686212626048)
(5.000853911840807 0.001098981795858848 0.0005645094224700121)
(4.999645894458431 0.0002356002339918944 -2.518875691040845e-06)
(5.001997549665485 0.002724893119969005 -0.002819552155407145)
(5.000886593796561 0.00153512678350793 0.0003313506762311715)
(5.000312851463026 0.0004634642381332162 -0.0005951397487972984)
(5.000333009452603 0.001324678885138427 6.424326118253666e-05)
(5.002144757947213 0.0003372651206391211 -0.0003462802696123527)
(5.000752922323515 0.0007224960231351141 -0.006187186894632746)
(4.988022371626532 0.001223808984214378 0.0002466874698196929)
(5.000303897567545 0.00168724028767673 -0.00110517041512992)
(5.000605159622484 0.002048972927672472 -0.001017452640725338)
(5.000040814885565 0.001216990075702545 -0.001169556357081344)
(4.999996298957951 0.0001559327195963316 6.678517533373143e-05)
(5.000081677542104 0.0002851199732135457 -6.855353419588502e-05)
(5.000072916509165 5.66149071183607e-05 0.0001920841745349468)
(5.000918599481795 0.0009348724950102111 -0.0003689874730252772)
(5.000217431964274 0.000180542596320334 -8.803922842172818e-05)
(5.00320407940934 0.001374988371737379 0.001337450648857496)
(5.000020407394608 0.000304392563379437 2.099152973537983e-05)
(5.000995854349605 0.002286715140084547 -0.0006226972576460885)
(5.000388915344577 0.001555009030762023 0.0005100181584474323)
(4.995918333721571 0.0002155980440009466 -0.0006246354309174815)
(5.000455927041083 0.0005571137231279643 0.0003316006289227448)
(5.000214404804556 -4.56499856661247e-05 9.145242930730206e-05)
(5.000532518914025 0.0006510251902529206 5.92146772409825e-05)
(5.00051602076957 -0.0001029646402270584 0.0001825866797754861)
(5.000450626214224 0.0004913909571675832 0.0001002047497710743)
(5.000534641362626 0.0004660560260992056 6.393568982254089e-05)
(5.000137484474049 0.0003947705847776647 -5.840341210423477e-05)
(4.99864202501884 0.001965278753506098 0.004661794162431723)
(5.000936769076663 0.0003130432170422302 -0.003853199978294049)
(5.000819223870424 0.0006945016404350499 -6.758311546339066e-05)
(5.000475853992924 0.0003949797807856413 2.751012178556023e-05)
(5.000274275729026 8.782571550975407e-05 0.0001134105030662018)
(5.000655284141818 0.0004395516886425118 -0.0001586894604999127)
(5.00282942319067 -2.380582055376992e-05 -0.0001183745256012683)
(5.000230852256346 -6.030360746331966e-05 -0.0001836556641071348)
(5.001058660296848 0.001162436106280467 -0.01643835503422593)
(5.000436751687803 0.0006242379444335394 0.000123527059833095)
(5.000484972456367 0.0003917042883724708 8.943428769057385e-05)
(4.999325212295864 0.001083329492483449 0.0006773010766303447)
(5.002620375068766 0.002967090538126591 0.002436526782415436)
(5.000530616970955 0.0004262282328720068 1.905976619447132e-05)
(5.000026752993066 0.0008397026992023823 -0.0004054061202145167)
(5.000182874386264 0.002770776297163421 0.0006907313424287329)
(5.010307606665816 0.01098537586339168 0.004524364351453328)
(4.994727805429954 0.0002088054839523457 0.0005971921867959914)
(5.003638609160255 0.001229619196432186 0.001200506021076568)
(4.999597277382928 0.001326799826031923 1.07310939524243e-05)
(5.003046402489159 0.0005199279156809186 -0.0005852157961951705)
(5.000501319618293 0.0005585690039241337 3.517048301815729e-05)
(5.00037346564134 4.692679551339006e-05 -0.000213070877199478)
(5.000380260876884 -2.970964195360563e-05 1.228911516089109e-05)
(5.000319466236538 0.0003017352546138181 -5.701148489497081e-05)
(5.00038286385899 0.0003253478381389279 -9.144316128833242e-05)
(5.000403034756459 0.0006329755963073182 1.95912544351311e-05)
(5.003018431567399 0.0004829415916714045 -0.0002760731607423412)
(5.000596053718145 0.0007649183198657381 -5.490213845346958e-05)
(5.00093213185583 0.0001731630609843893 0.0002614791199691467)
(5.000065455479471 0.0002374043602184532 5.54133439914729e-05)
(5.0003532394434 0.001631204720731194 0.0001602208048102026)
(5.000301506446736 0.0001986955897149312 -0.0001367441346204513)
(5.000253460747841 0.0003830527051223886 0.0001044076019312615)
(5.000398239094025 -5.316905512006299e-06 -4.879398982166162e-06)
(5.000669011054125 0.0003149954705559005 0.0003504158517888037)
(5.000593164373386 0.0004551644127572725 -0.0001318038328973197)
(5.000028657155078 0.004503009750842868 0.0001445449994480366)
(4.995423166936209 0.0005300095067635732 5.677167935234383e-05)
(5.000019443747249 0.0005967523974430777 -1.096880642645558e-05)