/*--------------------------------*- C++ -*----------------------------------*\
| =========                 |                                                 |
| \\      /  F ield         | OpenFOAM: The Open Source CFD Toolbox           |
|  \\    /   O peration     | Version:  v1906                                 |
|   \\  /    A nd           | Web:      www.OpenFOAM.com                      |
|    \\/     M anipulation  |                                                 |
\*---------------------------------------------------------------------------*/
FoamFile
{
    version     2.0;
    format      ascii;
    class       volScalarField;
    location    "1.7";
    object      p;
}
// * * * * * * * * * * * * * * * * * * * * * * * * * * * * * * * * * * * * * //

dimensions      [0 2 -2 0 0 0 0];


internalField   nonuniform List<scalar> 
19632
(
0.1172286311054593
0.04652880353006027
0.02753249804930268
0.02921021350842444
0.03208433857727663
0.08003936697219219
0.07139810882109204
0.08045593429631444
0.05987795083964664
0.06237763526394079
0.07383137255459273
0.08469947596203141
0.1225893483333349
0.03747553473965498
0.04239290479822753
0.04463648811747915
0.04236164451112071
0.04345916633615801
0.02844373517038344
0.1051533221644286
0.1032359238468361
0.08815678221158059
0.04292980305016279
0.0439034191902185
0.05526857239788515
0.06609884717014655
0.09104685665906669
0.033579065058765
0.03319813800028635
0.01971097568014455
0.03696051935926824
0.03419934349323241
0.04196214750527534
0.05997222247377183
0.03254376725048704
0.03007698887588118
0.06156725573231638
0.05392997931589405
0.09394179602115538
0.04251807732825075
0.05405581512810695
0.09397106686013521
0.08265784337817909
0.0466142317483159
0.02957969286440423
0.1301252105221743
0.04072301716628908
0.0927108407658931
0.0193430009166329
0.02476415338779934
0.153662705878906
0.141458089460487
0.03556455197376305
0.1096255601165658
0.06535966173274174
-0.05144761178917068
0.09363639048057752
0.05249128969884838
0.08543423612233242
0.04019887393438728
0.02393819158772619
0.005945098511237958
0.03870764045499625
0.04897627993342921
-0.02793244183642549
0.02308879873450101
0.05015807331170349
0.03718892375899838
0.0535616379221226
0.06321117664842942
0.02863838410939356
0.1510484132369776
0.214772259964917
0.09235132154352578
0.06564929856800748
0.04467109508810938
0.06775733701280859
-0.01161217921392252
0.06358632953056359
0.05813230064437389
0.1666960966691957
0.01577086817731868
0.0728057048741889
0.04980827463562728
0.1083809101451775
0.1175405635348467
0.04791865025690617
0.1276300657040703
0.2231220435569511
0.05585219410033691
0.06346928613461675
0.06957745348258619
0.09068863489124543
0.03594341127438157
0.087279452554559
0.07558863224381275
0.06769031695129318
0.06253220353950416
0.1053278133713594
0.06328644122809642
0.005733697205725741
0.01851205428021139
0.02134910986422513
0.02798548061240473
0.1389943599054037
0.05868897314773885
0.03043063986271626
0.107727303345004
0.05900110719843147
0.06533290849958462
0.1317847765547333
0.1230127576480978
0.04608737284731362
0.1047492630236786
0.1304293814429895
0.08999458955296107
0.1061376381303041
0.1084670740547287
0.08111064784934401
0.06966357261653677
0.1693714199732606
0.08014693410383474
0.03170865465850892
0.1204080254067535
0.1248302658759687
0.05858851167638147
0.09738969475630947
0.04801402341642676
-0.007317652429718347
0.1334706168072234
0.1590197569463697
0.01280782828165282
0.05388342919545969
0.09239999060964468
0.07474834270268879
0.008701901877813068
0.1424528487939827
0.06850697776675338
0.0327257992522732
0.07001767405261185
0.01524704978209548
0.1035187947484896
0.03676756260145912
-0.02041000982781934
0.02812231001231741
0.09821482442058631
0.03911250471816385
0.04085586736786268
0.03737514118250736
0.07395712592340196
0.05781582984620204
0.02797426834704538
0.03856226483041681
0.03019220842047537
0.07444604187147774
0.0972251301563684
0.2268964472745729
0.09791227846241639
0.1187929931222325
0.04993430366253959
0.1220235135769068
0.09181645409152368
0.08451991493420889
0.1261324450046525
0.06776728682313972
0.156806521733758
0.03507553269524986
0.1156877019155008
0.04067307841647314
0.1553975265812515
0.09472248865008986
0.1238563266535181
0.065412505149628
0.04424527126469463
0.05963498496151336
0.1575562388335276
0.1590817381999906
0.02667627869163237
0.2888718785182254
0.0692265406284832
0.04028668243670919
0.03835504364767047
0.02610840708441248
0.1393155044291856
0.06170314381620568
0.03285039271972948
0.03782238920813476
0.03548616354654477
0.1675237206553922
0.006163189669476132
0.1718361418402274
0.06769566892265227
0.02868962541244718
0.03179974984735002
0.03949876516913951
0.04936344520700509
0.03574069254388636
0.02494694324286476
0.03244289221936306
0.05265467773412082
0.02380469706480305
0.04672724868722524
0.05489138587445799
0.1112793484384215
0.03749902078823991
0.02444126924009917
1.355170017533088
0.06814822771935591
0.005437048698632392
0.1000828849717766
0.0478924140763203
-0.009297693639889564
0.0346023790699738
0.06791290888908767
0.04675988361839978
0.03015891881627159
0.06389541205106453
0.05516141894122133
0.170554765023389
0.1057815120573321
0.03408313676093917
0.01701359945269478
0.06054630572259002
0.02084875443994186
0.04122405206087454
0.03139074057916993
0.1089573420404912
0.04772551656706468
0.1214360926564253
0.06323986252565308
0.04561138172603992
0.0880893707313475
0.04466153267035029
0.03217985021504242
0.01410011135110482
0.02355629352328261
0.1075415621483957
0.06279914413412523
0.02559106855760452
0.01724492517787909
0.09455261296739217
0.06822037863047947
2.094512997116225
0.05506399785544609
0.03496675975220244
0.01552685389061819
0.0581691300048834
0.05277834575895197
0.09696514475444298
0.04746173208297125
0.02157589179617845
0.1654082402030182
0.05061547867329266
0.04952706933981446
0.1184496052300848
0.04794945070289107
0.04938924448011226
0.06276489152531775
0.08727479126312465
0.05978318118305674
0.06089631913637597
0.1050371028230009
0.03833163894761939
0.07050623792128766
0.03229705048279837
0.09262057157350503
-0.02290667563372968
0.05946319683470604
0.07307834979693517
0.092363375067057
0.03919458101160116
0.1860154528786612
0.03851061939850638
0.08421641152462864
0.05276701758533198
0.1074247444294669
0.05857750599404199
0.06364539365644606
0.08632087788748924
0.08447518569976546
0.07626773759491332
0.0906711378891825
0.02610618346772064
0.03669551224908189
0.02999873575355357
0.009803787771447119
0.08809673039706041
0.060445993482827
0.02177324753065389
0.01880650520467655
0.007921395709964973
0.0248938230939097
0.08311157050037811
0.01458871910088726
0.03592970740806566
0.05613792174670776
0.02414128479306533
0.3379276764034539
0.04294663379701787
0.03900378778480693
0.05814910137769637
0.05801363272483694
0.02742372938426026
0.03696693959699871
0.06862736757921675
0.05227781784496852
0.03573131645589347
0.1228961711432084
0.048493383129015
0.02307859199491051
0.09462092247538217
0.1025710451307312
0.06239258478600488
0.08538601257067095
0.06599472960965135
0.05189091164744626
0.009600882265248682
0.1086762205624272
0.1007999904972025
0.1044660638644085
0.08744813441861704
0.1072160425964178
0.1012002559627787
0.1112629829192082
0.0895874340411784
0.08480001065031709
0.1000915075354397
0.03851635488473324
0.05248768880348195
0.04280151371103999
0.03689873552873779
0.03055402363909821
0.08389776073743509
0.1135241778160545
0.01402641576388095
0.08828760400646372
0.03617648975440776
0.05342206678780096
0.03269487789039111
0.05145113312284943
0.08586067580727513
0.02771933198162982
0.01438460693013286
0.09230089845931434
0.07995478414554623
0.1288194091968888
0.03299696251661054
0.0663345593618003
0.05123596893069517
0.0261257967958073
0.06559836524683842
0.0225471435798783
0.02326174211554286
0.02964741581178162
0.08673910068824714
0.04464014665875991
0.03108121764279
0.04183254322036338
0.09209652766816419
0.01462835234337183
0.06147654847511335
0.02428455027508535
0.05549765383702074
0.07291279499009923
0.01911448649889766
0.0654932406180759
0.05646754239509596
0.03813312884706406
0.07229165125744338
0.05190007968266976
0.04966393697604835
0.02486492293535582
0.04735721742224211
0.03872856311893202
0.02330615262285181
0.05655960322760868
0.03594037027983884
0.04828603187197333
0.04372069544766065
0.02865519413413332
0.1136689284554225
0.02830062628228643
0.02358047446844954
0.06492771876388201
0.006244587798804788
0.08180620451160528
0.07905016268989476
0.04402327023201712
0.2849611790103493
0.05379468270451802
0.03821159300603501
0.05042133606664796
0.05783668045369326
0.0384010884470878
0.06039863190443884
0.07430038000407906
0.05934040751901613
0.1965211726895237
0.06458928335581027
0.08289176803322487
0.06467027206519929
0.02307351682880285
0.03448172825337643
0.02747214865620811
0.009205359120499964
0.03489492317115007
0.06797202673366368
0.02696657795299398
0.06648638305459585
0.05033418484640116
0.1064961581989431
0.02368829509047128
0.02715258123997985
0.04353857635864397
0.01682522905647994
0.04228118674476372
0.0457459284722858
0.03601890709045545
0.01924758548661902
0.04191581801866162
0.0260885162214966
0.0438341510684209
0.04175927358173982
0.04680746955955436
0.08576990875085365
0.01007722018050139
0.1722475949426276
0.04159894057824177
0.04295160744422179
0.05962425910997809
0.04957522582079461
0.0442223003308581
0.03229405093842275
0.0888488196793665
0.08968649944857797
0.1267240471176644
-0.02647846967592891
0.05098708887721902
0.08530122051218426
0.05013152049220915
0.0396578698861901
0.02720496058524004
0.03954178399779068
0.04446086972315415
0.04454164772013561
0.08449329053203398
0.05048920758726688
0.04610524322455069
0.02449140945536923
0.04216192750037751
0.02319125012651097
0.04085787546594941
0.02477635778534427
-0.008525494609995523
0.05214874303331173
0.0748404099149233
0.09064279825762377
0.02709752092107984
0.02351866590391351
0.04589826932376034
0.1742604382670122
0.05542493011962543
0.0226637645501685
0.06175256139594371
0.06874408911002014
0.01594271441838086
0.03752881709322251
0.02336932013331926
0.03476696285161984
0.03673592162765758
0.06437563298378679
0.04057901628114287
0.03501069404119526
0.06709785546781018
0.06224788540104334
0.0728298665153958
0.0659551507341877
0.04970575669090676
0.02860687277087696
0.03850443705105083
0.05690983598997909
0.06023883713656168
0.04552552564293892
0.02843138706261774
0.04263017380121649
0.01803170253937994
0.0343610349268171
0.02859808107342855
-0.01897979740646388
0.07248262859522366
0.03954814192925789
0.05516640432721759
0.0682918591471794
0.05772188432703734
0.03826523795061462
0.06372016922171181
0.03593709193909416
0.06130294211819337
0.06605567957995198
0.06461011625597697
0.2312831047111881
0.01535409707607574
0.04508372040616856
0.04324753743917765
0.05386731331349356
-0.06472096725632205
0.04244423990547003
0.04402343953240943
0.0650821257408806
0.04228917199196175
0.04166715832897013
0.0404216796152538
0.05595536865846702
0.02804324055875801
0.03322340303268538
0.08286074755266502
0.06481233034050973
0.04146316189043764
0.04393136530463548
0.0675254460335022
0.077034730714528
0.06462510044769774
0.02089295340447955
0.02521699205436755
0.02991802732992798
0.05329382348898204
0.06824598780161015
-0.04380824151241996
0.0402640293728419
0.02397149079747462
0.04105943628657686
0.06420283286886619
0.06196301475125002
0.06604293806560994
0.09572610702884403
0.1301124704727131
0.02715165988328177
0.03067111036646339
0.0766812629393934
0.02959815196737064
0.06741640942179507
-0.001844932569615527
0.01779187316948879
0.07267665220386794
0.05266753908196928
0.06213412702676797
0.06444811734719497
0.03665751243240559
0.02687696490642034
0.06255939864037631
0.06668118909620506
0.01712139380795641
0.02767945593868848
0.05570827577181527
0.03393353673922239
0.0633939892408274
0.03760442278589702
0.03031272082448844
0.02837024607044705
0.02035012270258853
0.03172258062191105
0.1587332910875634
0.04014686411620805
0.06370160936696424
0.04348842833060086
-0.004057314578865645
0.02669047480488408
0.04566520172765141
0.04355269043252641
0.04634193341390422
0.0477856365456607
0.04688444350566393
0.05027342798359505
0.03665885174387977
0.0613339815115765
0.01397170031906477
0.05185558488681818
0.05201077537017626
0.05321766369857987
0.06044791075359227
0.06139697251202582
0.06127919850339469
0.01734589615128867
0.0491324223493089
0.0506597374406392
0.04373221661972848
0.09242419142145759
0.04410883482337739
0.0488845384892113
0.05515799490977945
0.04358673556884914
0.05460528965572045
0.04572344907064431
0.04878397010085181
0.04203160275127286
0.07187447414211622
0.05391069074628409
0.1995471606706003
0.04088128004335998
0.04244753938139293
0.03894890155291424
0.04042644302521894
0.04037871904631476
0.03983146125872719
0.003367660233200698
0.02497318128326511
0.02905188612184224
0.08571488773236136
0.009583664263534112
0.09664434662144306
0.04062844802692844
0.04683244288542253
0.1183525281724801
0.04047945143571999
0.06463704765228562
0.0777544229766385
0.06186627788732403
0.05722836381796849
0.04407232154458193
0.08433009618910328
0.01683109254315555
0.05664949285834419
0.05717822323678383
0.05877786979223798
0.05813647329919632
0.07454998311667914
0.03857664823195114
-0.1234697471588533
0.05592128611500751
0.03775429124429619
0.03548241690597847
0.03489070754881238
0.03701296514710227
0.0703326629569002
0.05999881037623333
0.01839979528020574
0.06005598494785713
0.1215950838170825
0.1404604009609677
0.2071907951816586
0.0217298080616027
0.05014123238631975
0.07962221041631642
0.05110735121526616
0.03426355926942487
0.05183572567104237
0.04789832784788194
0.04764516056157338
0.0534713635885248
0.05239771369223897
0.03342509799491991
0.04089365320950997
0.04119585368847294
0.1276931997154381
0.08396987139298644
0.04226363845967231
0.04271432774805425
0.01615458948306163
0.03282384970129167
0.03366401786125733
0.03326483311137309
0.03199552950559157
0.03333886059214203
0.06947636555029027
0.01015243743586905
0.02429538461318258
0.03610000264806437
0.04964892656672197
0.06921692365182291
0.0609853117517294
0.05443141929178668
0.05309307636126862
0.03665855522409626
0.03493885128096885
0.03574635585422198
0.04037880008545341
0.03803415166880222
0.0389798023988757
0.02727966512931159
0.02577168340340956
0.02245496591409491
0.03947343436007864
0.0305660668167131
0.08354804446796674
0.03441253311798979
0.03832377586251424
0.0785174836375053
0.03979665722715961
0.07101923060520628
0.03072274254402806
0.03309026580388021
0.119836818924947
0.03078818157029837
0.04308993230606203
0.02874138291450057
0.0303358329999438
0.03900102339093562
0.06767230057861137
0.03147392124273223
0.03288140700143527
0.04070588576550598
0.1039990971279293
0.05345564407403827
0.02791635559733275
0.03290002241294768
0.03389504553797612
0.03140864095470101
0.1024118916420943
0.1479533294384603
0.07737542984447575
0.05892352399831556
0.04194306839825121
0.04196221971049705
0.03623414180110086
0.0419708687519359
-0.005847165085036212
0.05852070269482483
0.043686637145862
0.06860046731314984
0.02963847920436535
0.1127913681907909
0.05413715548563092
-0.004737614710693333
0.0886518573861151
0.05527083708804311
0.04674385595007572
0.03206716301012126
0.06687484070279875
0.05085482766873858
0.08131770765819395
-0.03203430987230586
0.04877211862714328
0.02940613934030387
0.1114242216763523
0.03277682264380053
0.01791851566436205
0.03062234073383979
0.05766850872183273
0.06052296111459364
0.03646374620643056
0.1117545113722608
0.08358517477398179
0.03137904464007972
0.02874801921030566
0.02944800436720737
0.059501982918297
0.06200208466616523
0.05107917395995856
0.09862049851149389
0.03553371440810795
0.03592484181455993
0.03853258157820461
0.03102528118039602
0.07606208803293082
0.07312463831698354
0.01718767161376166
0.03739082841575959
0.06625288159317638
0.02994735741667019
0.2017230323668977
0.03494031085640478
0.03656733174295414
-0.004546154728788341
0.04178862389348878
0.03785344561733865
0.03713005517727649
0.05731947201271138
0.03165831303462167
0.06342309554728438
0.06219175210786212
0.1027316225202196
0.05302595334813983
0.04323623114927253
0.0419466471998534
0.04220351776340672
0.06053677127452192
0.03260102872120855
0.0297062632950332
0.03380556396849902
0.03367768664450648
-0.05301380479269872
0.02733311286431056
0.03007916037185276
0.08519336330367464
0.1913182733957443
0.03765887321590987
0.07296124988131639
0.04805102864319009
0.06758557589037525
0.04736686172589818
0.07817306651867346
0.1424642452535461
0.05343714081294486
0.07150890615795277
0.0202983328923765
0.03512503304311206
0.03709530439673143
0.05045000353668899
0.1135736055130823
0.023111526345347
0.1100992716410216
0.04062487690765932
0.2061493862980159
0.06135301834459529
0.04919174333845932
0.02789146586127914
0.04501661067529327
0.06473707732785493
0.07046507419446887
0.05548593504385633
0.0629424497101395
0.05420962902125052
0.02307431577821547
0.01896937551879064
0.07775396247309334
0.0410822311587488
0.07091314684818047
0.05917330578978938
0.05770065155309789
0.0934361220041742
0.08626326591417617
0.04381375213428389
0.03002785564295957
0.06279491677013575
0.07867782710946113
-0.15554644477414
0.04564861576692195
0.02316836716167334
0.1143777547109905
0.1458299968008653
0.08656198859235072
0.03540298866103912
0.09488960026901619
0.09352756911144725
0.05179276422251801
0.02763385674386575
0.09421318561201919
0.07157724913226084
0.08018840524258289
0.07751488058530392
0.05004564843212608
0.1746306011773071
0.09830203019587296
0.1288210807719901
0.03671532829405363
0.02885746834592756
0.05746879400868757
0.03371538653638714
0.03121174163319077
0.1737533188397374
0.03458102875768407
0.0207706984752882
0.0320217769173724
0.02544917884498005
0.03071379897747797
0.07657994856920672
0.04389590070486505
0.03331766622224652
0.03386737968205567
0.1117953352552336
0.04316478718638757
0.1580381956205061
0.1202717913295181
0.2956034681059165
0.1679825081734929
0.0008004591166848807
0.08591337174262123
0.07977450142324971
0.11204465696075
0.02684426300792243
0.10149625257311
0.02016370806519989
0.06153860301145497
0.03748847341984726
0.05586956554792689
0.0324547720879189
0.0445264709626316
0.1363300328226111
0.0894406034441929
0.1213609512908419
0.1030879201700278
0.05538858603498286
0.09408532854842164
0.03698244213859844
0.06606798971950115
0.07089778313945357
0.1109856538036505
0.04498700963390986
0.011979232648389
0.06669515300539626
0.1528948096493028
0.03582981771416478
0.190523831671512
0.04232565084133782
0.06108574465610112
0.01937545581692544
0.0348686082779402
0.02278629487492681
0.02639745608569301
0.03354766184875471
0.03315238136584867
0.03426665171398524
0.03346264914394723
0.07581298791020789
0.07782671563740233
0.09107351566177417
0.07432750020018801
0.09169101140022759
0.194836089157735
0.1480250136399987
0.05487556106456837
0.05609765394979415
0.05828482783281545
0.02481057687231729
0.02390920274079536
0.09947212083774665
0.02331917397921641
0.02485462003440643
0.08025381617674647
0.02452751744754622
0.02335376751902269
0.02501963958602719
0.08300928411223217
0.02301762672648419
0.097170604859391
0.01984037250294541
0.1295226864154027
0.1726956895206381
0.02694972562544984
0.06053997773629021
0.07497903405287228
0.05175136577582643
0.01408209690101926
0.03035867450592273
0.03038144698406146
0.02863702348444814
0.02937079238734925
0.03366939329136818
0.02961088746987136
0.02880739838571735
0.01809176520271648
0.01277807717480635
0.03735142208496934
0.02002994118110797
0.0773454865474705
0.1245215335542442
0.02445799043838871
0.09282861601141755
0.1026267967498537
0.02449837467687202
0.21039287879321
0.08347770679301596
0.05641704467190023
0.02394898351970484
0.01654779421515796
0.02014458991908558
0.02306744624001008
0.08441465585764472
0.02439216826499614
0.02223317219680299
0.02672542813231028
0.02156202207270594
0.02530355643939537
0.08872535409686981
0.02248332123337038
0.0564567951188759
0.08618076766117055
0.03717278364252009
0.03966699601603343
0.03963295434730763
0.2023498038420262
0.02260789282274987
0.03750540638398246
0.03596054021523006
0.1007575442413898
0.09098341358295614
0.0514562449676441
0.09866756989319106
0.02996399698734465
0.1028985016495344
0.0307896077511799
0.1079762509459715
0.06451377401966465
0.1012378630642367
0.09232940092887827
0.07949829557281857
0.1535617567514322
0.09338084497637124
0.09686596007078047
0.1184400316512621
0.08129214604641108
0.02482050718243516
0.01842837291679932
0.02799219939223789
0.02757425676266218
0.02859089114039372
0.08725828415996754
0.0297592390655369
0.03677802009698419
0.07841609514395496
0.08762474601968342
0.03140285578549201
0.09803845265228081
0.110917704389386
0.1009550199612601
0.03010390125615737
0.1047822159857787
0.04784899837413089
0.09203566382846182
0.03392210808335262
0.07303643879212605
0.09462862110027727
0.02949991208282793
-0.07321130196787297
0.05600484158417207
0.1258970496019525
0.1283881321603966
0.0578106178791576
0.2065352724522803
0.05256616666389544
0.07673995966799262
0.07619299357349402
0.04182924154763359
0.03698214486733215
0.0322399558848114
0.06285249233770615
0.06698985164509134
0.06342647181186745
0.1186546829027925
0.162380044802487
0.06328959996091976
0.03682274866964782
0.03225206315625458
0.03510218689974223
0.0688166743201198
0.06829727216338757
0.05768510138698978
0.1003473298254199
0.1434460142329507
0.121040480330286
0.1156480007844928
0.08774973863381549
0.09374285377329505
0.04082963187840304
0.02958858213085211
0.04288862005459617
0.02428935142942494
0.08744243069734307
0.02340471797386744
0.02421433721767804
0.07026252652051464
0.06975594225791597
0.0667091389371693
0.06445550518445785
0.073739813793751
0.06746754701539827
0.07355189755913209
0.08703533282413198
0.09526239624251928
0.09038066496307916
0.08661885157865433
0.08951834420519079
0.07225651030464088
0.07164174120252786
0.08052758405843415
0.07124370953305854
0.122411147679846
0.03067967522422042
0.1010790849296879
0.1675038208926492
0.02914504746572856
0.02808734444715317
0.02909513923349919
-0.01003690477136452
0.09128530248303963
0.0295855696436706
0.08661691163091632
0.08327913820844121
0.08246850295897612
0.0306369359386595
0.01360880299741081
0.05212218620512207
0.05136560011893501
0.02395647829020604
0.02243837989384724
0.08263191008212943
0.04502796984723799
0.08092978346109142
0.07700876205483183
0.07913701938714511
0.03305149609031998
0.08783863802116249
0.09240952869355928
0.09115336544467312
0.1003179095580477
0.03355989437013727
0.03268440056519123
0.03336992765155932
0.05392044627348834
0.03317047180600459
0.088006722685309
0.06190989058074566
0.07869519901068728
0.02209349258376482
0.06875431913981386
0.06735375084992219
0.04857835905618225
0.04963973351383272
0.04941077129411744
0.05938830908956927
0.06059900402839398
0.05373724963348082
0.1085327830464611
0.05256643458116305
0.06246141477543141
0.06195939983909178
0.05749861653227505
0.05683066307192272
0.06229857056751419
0.05951108942041616
0.03373299862460319
0.03578475314191228
0.03214974790467778
0.03665108981914573
0.03782516224008622
0.03381526799616524
0.070474718363547
0.08942709986247055
0.07079722465177099
0.07827048633252147
0.07130562937161267
0.07093779156203074
0.06660399268476409
0.06682188147857825
0.05844829090804411
0.06332188890926818
0.0607191849918746
0.02748080811405905
0.02612970770757568
0.029123787869002
0.09189648727132622
0.03383497895701777
0.04143638812403022
0.05542195947522784
0.05416424818206877
0.08443785575821885
0.05172189622288766
0.0338036681743188
0.09044165707083891
0.03340695745538565
0.09132320610777578
0.04932466821590638
0.07183210870980342
0.04040683111291418
0.06304971423853924
0.0667635520146863
0.05889839539491469
0.09061123072911706
0.09456925428622309
0.09105967820427269
0.09025304035840888
0.09255820483968526
0.06925509599614109
0.08681529008555582
0.08140864338888795
0.05347970787794843
0.04235063512085319
0.04222190750551626
0.04620591292369833
0.04777049845816713
0.05762285160674534
0.0588610781928005
0.06852672649839815
0.06173330777112804
-0.09408202699394161
0.06799728227506761
0.04121540068309591
0.06709102981740898
0.05821444630388572
0.05948774044871475
0.02669363419441891
0.03754992319627976
0.05288430022485809
0.05759266514750921
0.05969860273426263
0.05837419527376881
0.05841841255314523
0.05572581236382285
0.0562586484271379
0.07195884971558961
0.0843693457032495
0.08958343301279832
0.03604871401167858
0.07073255451492498
0.09295498196657533
0.04715283247491535
0.06040619970045231
0.04042687106496037
0.05600720888916964
0.04098738142338312
0.0557282639798952
0.06016204173119531
0.04433563083032693
0.04456502893950345
0.05025890433864703
0.04605478876570529
0.04719219867422768
0.0640569115233596
0.04783217951758364
0.04105717356357853
0.04376082080568568
0.05160080829475414
0.03013422545076374
0.03436844284292941
0.04709668758969987
0.09245857698453859
0.04132860384692449
0.04537672669786886
0.06214214059173261
0.06190940055956841
0.06555465081449378
0.0736056662901811
0.06611073968818132
0.06719413554527889
0.08725185436348418
0.07018193863995356
0.07704332269895024
0.0723282240164997
0.08529837630791555
0.08005426232228451
0.07691852170363887
0.07845643684197479
0.08461940023217993
0.08263078504662104
0.08713640054816627
0.08392601769702754
0.08087621211519837
0.05339620206700391
0.06993341069532256
0.06155548459261504
0.06191420902095632
0.07990442663684064
0.07586084084172547
0.07730489058200031
0.07534459945313798
0.06873955984949975
0.06879310376362335
0.04633983371770423
0.04628190575729479
0.04204646729887399
0.04544692244710368
0.04231032843113961
0.09282951049057429
0.09963266164089621
0.03808626631020284
0.06792771757149461
0.03072553447690543
0.07674691129648567
0.05333303574905634
0.229710175390205
0.1032600298617247
0.05488925191467962
0.05255235241726176
0.01879584689770087
0.0405546254936968
0.04171991923130808
0.07128106188466715
0.09586906492302666
0.005320188074274296
0.03469625802380995
0.04140525082682848
0.02153721913273149
0.03066367717134563
0.03791257085950554
0.03772326083085715
0.03663416270443408
0.04968283489544192
0.04774500885952718
0.04216086638353941
0.03952284208771254
0.03897420971424325
0.03770633801738019
0.04390859675513348
0.04425777451501706
0.0458714758353185
0.04245799998973447
0.04593884630154477
0.04629353005559813
0.04557808346753828
0.04246346332483346
0.0426609033433188
0.04066794889603589
0.03999771927059375
0.03979231884004247
0.04208754958282513
0.03404683501513784
0.03322338586614804
0.08368106805073261
0.04067697965870208
0.04100156768019832
0.0435373233392741
0.03999522076943991
0.04127682492469732
0.04240864236571559
0.06252276942335296
0.05833697461971732
0.06111648038154516
0.1307809674101816
0.06957455255135168
0.07704405736247545
0.07621371508899813
0.07365015896449434
0.04756912700612525
0.04571580207788806
0.04929060480346652
0.05240991516100146
0.05154484933307229
0.0537756953864589
0.04075033836098656
0.06126110198041552
0.06211956392696931
0.05936014519652551
0.05949311952705056
0.05728743275904214
0.06084840962054282
0.05497860862094438
0.06433819700659127
0.08238661428316933
0.06815001676943602
0.0564484244068058
0.05755769971196003
0.05779799471022114
0.05881340022259972
0.05656405868588207
0.05791269713219015
0.004759378383751214
0.04944048248853247
0.04304607797384136
0.03445222770118471
0.0458677107853689
0.04693722590278399
0.08243633758780738
0.03312325003880027
0.04680786396665852
0.08181713671005811
0.05566441520343344
0.05648454831595066
0.0569251012047795
0.05986829857525014
0.05206739594629705
0.05374373653344686
0.05231918823444343
0.05786356632783517
0.05411730319017406
0.05677525103819897
0.05677662336390177
0.05695156937205859
0.06200375809781909
0.06023517567566985
0.05743850783256703
0.04688946446313006
0.05876707622152687
0.05066396547190796
0.06327123662427744
0.0638229968128298
0.05228826729681073
0.09159765349252819
0.05745865763255324
0.05740200030098438
0.068044557602669
0.09761993435401614
0.06862434695453717
0.07175509460508772
0.06698142216216671
0.07007651409521727
0.07255532025392636
0.06225073546241561
0.06943964249212445
0.05779345194661899
0.06001063154188337
0.05778823885454604
0.06766413408944036
0.06675614246987953
0.07218479637438348
0.06250439447387772
0.05897325043445718
0.05297231037652171
0.07125583959282152
0.05304137691493641
0.07355568408236944
0.06572311638935238
0.1233402773375573
0.1377368278295624
0.09503222002099357
0.04492484390376353
0.05173192699681527
0.04826186841615324
0.05638122190206005
0.06115868940837378
0.04553391256896112
0.06231796079388333
0.05652430197945932
0.06011159514526704
0.05824444752177073
0.1023892742923015
0.03763888612521857
0.03436970574654055
0.04052640753587847
0.06985078961618442
0.05035634826396418
0.0473282433970566
0.06666849658645789
0.0719846046803439
0.0750551071804849
0.08822610705668253
0.07590734144769899
0.08080165651942944
0.006777728580644678
0.1440121452154033
0.08682580790666501
0.06778260093878176
0.05737455691465103
0.05818488903629374
0.06231540284411447
0.05737579848873132
0.05467329446969682
0.08182143572906585
0.05097824110297064
0.0697377902903823
0.05378246034038106
0.09770770917799407
0.07841730127220532
0.06385851693118084
0.06738390721894565
0.01456661029899761
0.06562775176805409
0.02484998525363522
0.08059031759935656
0.05298688756249542
0.06528913578345268
0.0580004902311067
0.2078806830725018
0.2430143123611827
0.04717533621244049
0.2093501396807347
0.08503318067701461
0.2036869727160852
0.07900603501971203
0.05499785463343389
0.05825609963669224
0.05231457320483474
0.04460896006783718
0.04559929420142507
0.04524062483780909
0.04670597324524687
0.04122316476863384
0.3736712975622537
0.03728122500305005
0.06858193984235564
0.03780615700821232
0.0588074287212
0.07013034450778054
0.04118617311562581
0.06148248500537099
0.05849580962158576
0.06559754496902302
0.08899574057240063
0.07845878699313281
0.07668847652909633
0.053672259272403
0.04633664069570866