/*--------------------------------*- C++ -*----------------------------------*\
| =========                 |                                                 |
| \\      /  F ield         | OpenFOAM: The Open Source CFD Toolbox           |
|  \\    /   O peration     | Version:  v1906                                 |
|   \\  /    A nd           | Web:      www.OpenFOAM.com                      |
|    \\/     M anipulation  |                                                 |
\*---------------------------------------------------------------------------*/
FoamFile
{
    version     2.0;
    format      ascii;
    class       volVectorField;
    location    "1.8";
    object      U;
}
// * * * * * * * * * * * * * * * * * * * * * * * * * * * * * * * * * * * * * //

dimensions      [0 1 -1 0 0 0 0];


internalField   nonuniform List<vector> 
19632
(
(5.009421788880529 0.02911049374452565 0.01257450255222089)
(4.999365029867028 0.001440887486595275 -0.002820961805054884)
(5.000561859486926 -0.0001393782457643102 -1.205529318577596e-05)
(5.001738797035057 0.002887337845768977 -0.001735993025058507)
(4.999407848060044 0.00193560844644496 -0.001542721313462525)
(4.994332450946817 -0.009345456590818712 0.009442913466562996)
(4.994356467378471 0.025085322259623 -0.00634819207726502)
(5.002345590450593 0.003051274555645037 -0.0006545272512069561)
(5.002466611402077 0.007120304156656065 0.007932225036965956)
(5.008930131755871 0.01697297369741499 -0.003041500990739689)
(4.999165121472969 0.04607253458371734 0.001622361811274162)
(4.994756120423141 0.002053907228603361 0.004111157159749491)
(5.003453108288806 0.0003531217292170878 0.001314479451051508)
(4.997895692434152 -0.0009125192488907485 -0.0002068960043193703)
(4.999774406911468 0.002007332992526051 0.0008537323659395592)
(4.999497992851769 0.002127804482336494 0.0003870442713120664)
(5.000074147875404 0.00335107912245358 0.0001835047963721983)
(4.999805848153803 0.001769322254722644 -0.0004703142881105084)
(5.000394063996074 -0.001026942900608115 0.0003354479809471936)
(4.998610011540258 0.003944331737415026 -0.001795522752658784)
(5.001581619629806 0.00559857217479311 0.00634541534079554)
(4.998184531610532 0.007864531625921658 0.01015236262723354)
(5.012032173182946 -0.0462841760749703 0.005479337610976687)
(4.999849705082743 0.001408823120492166 -0.000853457395256278)
(5.000066132257328 0.002107139254951393 -2.951511352854521e-05)
(5.007100260073945 0.004584177842060923 0.008180426149575225)
(5.004171592040456 0.01034200782543502 -0.0004422721491093571)
(4.999680192368658 0.001308694950414637 0.0004656798696272477)
(5.001424512773453 0.00172324653426889 0.006206930433205806)
(5.000350359978079 0.0009740449346252208 -0.0004555211263166424)
(4.999895019284857 0.000290254275047211 0.0006342618258098094)
(4.999106230938239 0.003458775423011819 -0.003688507898808618)
(4.998299781960116 0.002141566286754147 -0.002431575289307674)
(4.997304591274277 0.002023070503468205 -0.0006509291496785347)
(4.999868321965505 0.0008700738544768663 -9.217784526994554e-05)
(5.002582590071791 -0.0005001908122586507 0.002542181012960724)
(4.99953733505445 0.003943714277053814 0.00187579341135462)
(4.996958871242254 0.01774594914760611 0.001651082029979591)
(5.001867749070324 0.007556169027998489 0.006539019368972303)
(4.998499742890456 0.004931639994173342 0.0005769279309185912)
(4.999848011843874 0.001092778898373289 -0.002042768425644637)
(5.001558248060665 -0.004449584238948527 0.01689930349624841)
(4.989701317924398 0.008891440720348092 0.007960735417553797)
(5.000883905989853 0.00266652225014075 0.0009696706325301484)
(4.999554117230725 0.001377990222674803 -0.001575547994671436)
(4.997144913181922 0.006946318572507493 -0.003077482840622358)
(5.001271395719711 0.00302869536402504 0.007392303691575432)
(4.989047559794066 -0.001286751695319021 0.007858525599732441)
(5.007181257133446 0.003543203806654782 -0.007494565741514702)
(5.000483900176562 -4.612506544102843e-05 -0.001511189886005925)
(4.980351143401389 -0.002938085950636335 -0.007980533971957594)
(4.991262545532692 0.01128967550088259 0.0412796471487397)
(4.997213137779437 0.01297641992453976 0.008164033525664131)
(5.000266037063263 0.01116214456346019 -0.002616710327749793)
(4.99262809364174 0.005351482815867635 -0.004222103197144491)
(5.012665695497706 0.008967586075196262 0.004861093454908195)
(5.004316591344831 0.006405210910276486 -0.004158994701147898)
(5.002205357518883 -0.008615410374112276 0.002520210003687096)
(4.993985388323527 -0.01634851414721244 -0.01989570648853594)
(4.999525365506706 0.002126014093424619 -0.0003820183108326373)
(5.001211481452437 0.001255059147919109 -0.001223416943494855)
(5.004596000220624 0.001199717852286009 0.0004779711248805397)
(4.999884078281725 0.0009654212650051769 -0.0003598951192915194)
(4.997319484516828 0.00151512829361658 0.008915747496340989)
(5.002764056053993 -0.003686191878207339 0.005554331241299009)
(5.00027265914373 0.0003341289664340693 0.0006319335342861792)
(5.002881896693176 3.315337030894656e-05 -0.000443810610257561)
(4.998464460407812 -0.001612415830278048 0.004964239028311193)
(5.000198051227071 0.009770388978240084 0.008522881299408825)
(4.997281570799471 -0.008600921233134228 0.01983563318133369)
(4.99949811198838 0.0008680775823858059 -4.745080086071232e-05)
(4.980353705930392 0.007071480548703543 0.0008246587702091148)
(4.968749703074967 -0.001107124268089958 0.003119513214065984)
(5.004137786752326 0.008619314853689599 0.01183318235206664)
(5.000120492907938 0.0002640014732990579 -0.001478495875488831)
(5.001186022408858 -0.001736243997871909 -0.01159978149044501)
(4.999844421411888 0.002395169267304995 -0.01956031437784195)
(4.987061037161759 -0.006372349019663533 -0.0282379472818603)
(5.000170243010656 0.0004325352824288041 0.0005748902534055657)
(4.998595190175084 0.004976670081799863 0.006500769235738457)
(4.992064639431421 0.01207140704589941 -0.006358721213569993)
(5.009606902943611 -0.003628465059361424 -0.01059526617700917)
(4.999659348228758 0.004975172631823211 0.002590765691472606)
(4.998813816981267 -0.003993419994453192 -0.003866350809059505)
(4.995412664138824 0.004279871879618871 0.00393100510909924)
(4.992519338871922 0.003570541188539272 0.002602590635058071)
(4.998332965729291 -0.002866268007477315 0.003759643381177076)
(5.002686202146354 -0.009637628866223269 -0.06831242229211137)
(4.987017679768414 0.01197639191075026 -0.004056482321429761)
(4.999525966585591 0.00226542532503317 -0.00133718546617759)
(5.010534526976036 0.004915401151175244 0.003254372441302828)
(5.005091059388817 0.01141500649331932 0.01028736612293733)
(5.006492333816428 0.001272652598998659 0.01292010846796995)
(4.999787823299639 0.007643928594178867 -0.002605996490821446)
(5.004222258583303 0.01421176837196559 0.02193857355008092)
(5.004275232936885 0.01097588436523928 0.01021861022191256)
(4.993263584527093 -0.001720419315552259 -0.0009369344448355409)
(5.000327040357054 0.02299966671228157 -0.002985646821133396)
(5.001424593361945 0.009384617633996842 -0.0116655029174487)
(4.999122938298819 0.003539421600111065 0.02650334819028268)
(5.000272160685705 0.000763398747988609 -0.001527993490966869)
(5.005530556149101 0.005534773728878643 0.005260947458935208)
(5.002037619927133 0.0006892807352629528 -0.002666690368131174)
(5.001339564317978 0.0002063534925559777 -0.001762891826050942)
(4.979227759773767 -0.00317431705909828 0.01864541620570628)
(5.000241170990233 0.01104995783966766 0.008826825096192545)
(4.99983735026254 0.001028897576451182 0.000169566532684813)
(5.002766970487937 0.002657535088834756 0.005470405593206747)
(5.00411566421383 0.004739804358025681 0.004226827989146252)
(4.999744083717591 0.03144706684021211 0.001742848475427655)
(4.984158986371351 0.004192219665773521 0.001889145811417344)
(5.00693092639051 0.005005194994358818 0.001261036084714265)
(4.999622563955094 0.004655836791010595 -0.000932778771056561)
(5.00575902708793 0.003433050457769956 0.001673180881791049)
(5.010111653698527 0.006220121887915864 0.002538911855125076)
(5.001591742540128 -0.01893657940026086 0.02513036978279713)
(5.00574530739048 -0.003156186210461078 0.001945264497606886)
(5.004643817048691 0.004540812088777831 -0.0009788974266919223)
(4.993976023621646 0.009482683283895885 0.01069074214154259)
(5.003117826779038 0.02745375520733474 0.01452400079156957)
(4.975935068670634 -0.002375027861585157 0.001019006396888503)
(5.003627686322895 0.01155267395765076 0.01500326495343874)
(4.999763278505957 0.0007935503825021796 -0.0002970360534520099)
(5.007725139490348 0.001682046128785972 0.0004983025939062681)
(5.007370427783161 0.0005847356702744889 0.0003979037991322486)
(4.998388141460054 0.0034470101972018 -0.0009578876065288515)
(5.001930347394547 0.003771618671518087 0.01178464414211248)
(5.000208150643052 0.001273240214114235 -0.0001904882572317337)
(5.000000934941153 -0.003052531059257976 -0.005982816672279611)
(4.993918167751137 0.008105972838577719 -0.01493358789173379)
(4.994064842614021 0.006606490377076633 -0.005719991763902379)
(5.001547334239934 0.002816138677659893 -0.003656928361156424)
(4.999832159559232 0.002762120792623762 -0.0003732910419295831)
(4.994328633222429 0.02190652176161738 -0.003010820715280254)
(5.001478972132682 0.001461653368119827 -0.001837171101424153)
(5.00441719949848 0.0002899645606802681 -0.00013776509152855)
(5.01318674042301 0.008169944321457347 -0.0002144561554935777)
(5.001220907432946 0.001482888644121694 -0.002731665717607471)
(5.000008376338198 0.0007387456460929365 -0.0001017657662132006)
(5.000522166190147 0.001879012154246439 -0.002002296068781702)
(5.003165113900102 -0.001085586612568555 -0.002498829871361924)
(4.996950908846708 0.01786857140477918 -0.002575779037716215)
(4.999092242900414 0.0003351267581787123 0.0002424945618046245)
(5.002363908235686 0.02693063435119358 -0.005511166448022493)
(5.002208138256725 0.007347354280563333 0.003204849902612962)
(5.000223920462513 0.008448799121954354 0.01137060601212521)
(4.999835466081719 0.001134212557822787 -0.001546114721310097)
(4.997908485682498 0.001449231540139104 0.002845650785227337)
(4.998948790909757 -0.0003412503217153314 -0.002139708468511183)
(4.999952307613134 0.002405862437613952 -0.001736413542678503)
(4.999063613157088 0.01936801743679481 -0.0006632050264950751)
(4.998833671345957 0.01516660752475627 -0.01081803272880637)
(4.997965541963318 0.001650548216586622 5.762146979302417e-05)
(5.000084640565118 0.0006278602401338595 -0.0003090449624833015)
(5.02537079474603 0.03855618619859601 0.02600884280846434)
(5.003788076673042 0.0090057476272252 0.001063700217060308)
(4.969948824538552 0.03673609716238281 -0.002013202426589296)
(5.001854284995479 0.001112092425240019 -0.0004162075888667595)
(4.992216824509403 0.006725604908656663 0.00461019177879437)
(4.999816266496711 0.02073819407923328 -0.003482650910691008)
(5.006266398347694 0.002425096052437339 0.009028985354675639)
(4.988223644775508 0.0002667962404718922 0.002587981606726809)
(4.993423046923467 0.00605788788617612 0.01066465709591496)
(4.986492719839632 -0.001531473303483938 0.001841190995265527)
(4.997238257865037 -0.01929674141892174 -0.0007572900518279187)
(5.003513820842184 0.02640640992079592 -0.02270922076415608)
(5.001191434028919 0.007058791494698722 -0.0004127520904579714)
(4.986735449524054 0.004036874643958258 0.002928920735808253)
(5.000778409522553 -1.619545893697805e-07 -7.851313470292972e-05)
(4.978611199383544 -0.0007264230978141445 -2.287381115741001e-05)
(5.002924924681207 0.0100658905556914 -0.05913606155488567)
(4.984476234420226 0.001133101196310999 -0.002402078431854029)
(5.000412201571554 0.001678866864324169 -0.003749488514008817)
(4.99727000432825 0.01104297567006032 -0.0002455653151665174)
(5.001746396145641 0.0004150887306195063 -0.004528750321559675)
(5.000902275203179 0.01061558485058765 -0.01091226738162343)
(4.998861303707614 0.00858546666601041 -0.009830402569328248)
(5.000211878916432 0.0006633660889928754 0.002293221314079)
(4.962186371805508 0.002207173727478205 -0.03826777428965162)
(5.000609698183083 0.0022463917701244 -0.002318174071994846)
(4.999965916344738 0.007820125940057756 0.0009651485273443895)
(5.000383580295638 0.0005638552634403549 0.0003477732674698514)
(4.99912760275202 0.001569632748173618 0.001110811341003035)
(4.995735457180698 0.01119999413191107 -0.003493987691018606)
(4.999848356844246 0.002526446204476967 -0.0002436455209135551)
(4.999935001929611 0.0006267925695562084 -0.0004077871367298212)
(5.000014426679934 0.0005476868547725438 -0.0002691443443944289)
(5.003068565096552 -2.344879052353826e-05 0.001611862623318463)
(4.991889118176253 0.01082803013454974 -0.006267578251472793)
(5.001452286790558 -0.006552974491602782 0.002156442569673994)
(4.972405030677002 -0.01315761068222829 0.0003283420219037594)
(4.990187089173543 0.003175750492011015 0.0001858874440142556)
(4.999833173803599 0.001479140032150757 0.0002829620743461302)
(5.000016320238925 0.001140740155386412 5.014630724777706e-05)
(5.000832014886355 0.0008049008302126995 -0.006063571282864119)
(4.999085506510447 0.001338940953310046 -0.00384482064411227)
(5.000685188166653 0.004877991380498177 -0.0008197728164011209)
(4.999822179820631 0.00118307488377571 0.0003009382053420261)
(5.000578233670172 0.0005038568668331506 -0.002249930313230241)
(5.000345010699244 0.0008943847555411659 -0.0005947007615639158)
(4.999357094059751 -0.002392366211625705 0.002379836128170089)
(4.999913545139512 0.001347520236256161 -0.001241504626026021)
(4.999858945438978 0.001856075314252873 -0.000531759401508437)
(4.986078880682724 0.001788647270641318 -0.004630631513361457)
(5.000004047554135 0.009529467295329499 -0.0004220316667981681)
(4.999228205091645 0.001320067293383619 0.0005681173318181965)
(4.917750796757617 0.3448755354480634 0.3071785825126034)
(4.990578671055897 -0.001144832130171545 -0.0008799695408293853)
(5.002951858496044 -0.00128459580979262 -0.01394539250094806)
(4.996571789209763 0.0340043031694254 0.005686992762518859)
(4.999137148018876 0.002394007015680081 0.001364097091495159)
(5.01757091881538 -0.005113638009445847 0.02702365831544009)
(5.000073825252295 0.007001165561851941 -0.001970944995765753)
(4.990202494848448 -0.0001130466140640739 -0.0004049902354903071)
(4.998888559059604 0.01835264713266956 -0.00487342227404832)
(4.999239028537127 0.008424973732507765 -4.163770520624023e-05)
(4.99819338099035 0.001333295342317505 -0.002724970965518714)
(5.000164802302828 0.001293458925740204 -0.0007015064082208503)
(4.977254622400093 0.02689542363039145 7.696772203983599e-05)
(4.994822208073167 0.01229477016207751 -0.04304849908873804)
(4.997870811442297 0.0009742406239068267 -0.001445682114218458)
(5.002054810054617 -0.003178141445745396 -0.004383560198593101)
(5.000166739666623 0.001280030835945486 -0.001345403493316521)
(5.002779486073116 -0.0008907423027112016 0.0006593434925817064)
(4.998306870181176 0.001350373358912057 -0.00888170043029856)
(5.000062956157943 0.0006698746564263612 -0.0005258890301826099)
(5.006565711546093 0.01374124786952566 -0.005458204018888483)
(4.999936811543193 0.002170478731810932 -0.002540214761019396)
(4.999647895990716 -0.01089902273679981 0.0003179484765908785)
(5.000378640804723 0.003055245274134006 -0.004979022126819557)
(4.999167925352233 0.002245994915731076 0.0009947289775190339)
(5.000131892050892 0.0004423171691006954 -0.000802886709838591)
(5.000280897264911 0.0008012893180660806 -0.000297981256925411)
(4.999428441675433 0.001566631209806992 0.0001178067110583187)
(4.998943990164385 0.002305589505254957 0.001249351462894873)
(5.000364775993124 -0.003168442212912036 -0.0005656727849830698)
(5.003159421077998 0.009944006909817199 0.05428847785261953)
(4.994603375563162 0.01391838454766176 0.005956094642354682)
(4.999658228805472 0.001180733136283294 0.0003843645541588873)
(5.000195772333369 -0.005854505511123369 -0.005571474186341461)
(5.000556058923737 0.0003341554587082453 -0.0003889446635152669)
(5.000251573712736 0.00111178144330074 -0.001101935908626829)
(4.761648669040161 0.01082669711479025 0.2239054311988094)
(5.000049694960559 0.001852642439273758 -0.001104480992742581)
(5.00031311787542 -0.00740468566729494 0.002628923765515829)
(5.001002147998787 0.002207093856900251 0.0008707662986871114)
(4.999878794027331 0.001623596985040044 -0.0008967061404613227)
(4.999898983689572 0.001482834175005121 -0.001022566404420379)
(4.996626043369609 0.005194234373860542 0.03367894270339582)
(4.998092281694828 0.001754471209944742 0.0005949718061008546)
(5.000766684317213 -0.004048098849671638 0.003299511139441427)
(4.989959645460798 -0.01721973536141632 0.07532359747622841)
(5.000054240130014 0.001512105052220315 -0.001254659713722897)
(5.000359452757063 0.001687358550632098 -0.001227448769189134)
(4.999711449330204 0.04457526922070355 0.04346732105091181)
(5.000241927167806 0.001025062487702332 -0.0008503642340729993)
(4.999753712711846 0.001481348105741079 -0.0008942212250488933)
(4.991863934534725 -0.002299437195107138 0.0005673350297583264)
(5.000464679860598 0.008332210866025898 0.02170394775090053)
(5.000041004155713 0.001790244600530421 -0.001344649367286908)
(5.000399411892302 0.001635929764582227 -0.0009399807263283182)
(4.997461494063663 0.02093186436096635 -0.0002816720101857166)
(4.999986293952017 0.001826924594021773 0.0002512481969910755)
(5.00084224006782 -0.006453089591872431 0.00367280509052391)
(4.999057297733263 0.0003160776539386411 0.0003177239738323029)
(5.005076879132281 0.002908988695621267 0.01070668169519936)
(5.00182953232237 0.01177730541299222 -0.0126348714485252)
(5.013397760901599 0.0194633424769246 0.01282261355993108)
(5.000792119335508 0.0006434712705177968 -0.002196198368229277)
(5.00923018801391 0.003575830621758002 0.008709116659768654)
(5.000067012876868 0.002036467785068868 2.936028051162264e-05)
(4.989724768585607 -0.01595502341333975 0.0001375259789780916)
(5.000831264756203 0.006509805708785642 -9.681487425585319e-05)
(5.009898949793826 0.01700794697928487 0.0102502092653625)
(4.994673408992533 0.005948655366132764 0.0007751555267579782)
(5.001463012224302 0.01132886269177266 0.004903503952724952)
(5.000148588467665 0.0007638640052919833 -0.0006215233495147935)
(5.000376440320385 0.0005302912683573921 -0.0005162629168078065)
(5.001387116724893 0.007814023687556806 0.005626066979901735)
(5.000547594389571 0.009744926303287743 0.005556509309836754)
(5.001988453667182 0.01902699881532035 0.01308713783878158)
(4.986209179047706 0.001779835779615655 0.001542893178037473)
(4.999559547116908 0.0007795281189104209 0.0004270066396079252)
(4.999995001774164 0.001287581308896485 -1.048491093615483e-05)
(4.999975402247673 0.0006582245015706923 -0.0004067040021886869)
(4.997556172895437 -0.02162975197156184 -0.006974547850171733)
(4.999186114178752 0.003644629001711947 -0.002217034638607957)
(5.000227990345667 0.0004250202938087005 -0.0003739539229979401)
(5.00342577496726 0.01881479204580023 0.01385900314604103)
(5.000565225786853 0.001819447665622345 0.002251296386056696)
(5.001857420755759 -0.007268781777505906 -0.0004176055338778428)
(4.999364412249173 -0.004252312023075986 0.0006953340791659447)
(4.999894346321726 0.001046627825865555 0.007110915224434887)
(5.000126294778235 0.001376673441207341 -0.0003695084251519843)
(4.998469589755159 0.006433445232299747 0.0003499727816155225)
(4.995619250430946 -0.00203829459597593 0.004004435065945207)
(5.000660794464161 -0.0003614896571216099 0.001387543171680152)
(4.958295891591652 -0.01083259132698292 -3.366647511637822e-05)
(5.000269294888929 0.001789202038824774 -0.0008555078661231272)
(5.000934264408826 -0.0005732339713345573 -0.0009932296599799715)
(4.999724664795476 0.005474090956907999 0.04332958397306806)
(4.982812671128885 -0.002725108525065079 0.02174374873995618)
(5.000236123494763 0.002034514341105173 -0.0004461259939642187)
(5.000259877222615 0.0006045726686808482 -0.0002416180985875503)
(5.000338195317697 0.00228521045533559 -0.001497495386874424)
(4.999410057455244 0.00279867853214206 0.001693938363623162)
(4.999877651452128 -0.0001022174517156605 -0.0005917046616617029)
(5.002230992202677 0.002492255493223107 -0.0001800687605819748)
(4.997909317900131 -0.006563481464251795 0.01657924400452958)
(4.999448649978049 0.0009291863793452328 0.004989307969014708)
(5.003391935942151 0.002269924548976148 0.001807831424038977)
(4.996651799210003 0.01539297653156341 0.01206024411773306)
(5.000284382678367 0.001832984351737424 -0.001431834990163637)
(5.002529959333348 0.0001932501607767107 0.00895916977208345)
(4.997352324262925 0.03999013108555183 -0.0118397279805069)
(4.999998323048274 0.0006168045560999911 -0.0005994288779860863)
(4.987175478165185 0.03754090949259473 -0.04854089134859313)
(5.005111035794715 0.003023016523305619 0.003195306651054231)
(4.983884650403981 0.006053826078252626 -0.005938134130361511)
(5.00506981488096 0.008096125610076209 0.008174469918946294)
(5.022616034050664 0.05569440481890108 -0.0136658494677364)
(5.003000833830368 0.002732619897099111 -0.000944609894201878)
(5.007099609994411 0.007546103523283284 0.002501386076833821)
(5.005290881907039 -0.0007136921891396673 0.0001165907432136505)
(5.00055917862292 0.003666988334778824 -0.004273741209342683)
(4.999199520786825 0.002953058665273734 -0.003059407515369192)
(4.999319325684168 -0.0001718203540565904 -0.006888560751509051)
(5.001889096245471 0.00749455942404824 0.0006791563497499693)
(5.001103016619963 -0.0007542754878545374 -0.0104160876494211)
(4.999457089154606 0.001964810415994975 0.0003115602312307604)
(5.000050446160034 0.006768233247965488 4.888445677260361e-05)
(5.000049568727954 0.001224549214544297 9.111207444355732e-05)
(4.999405560211486 0.004325994339069864 0.0003886414943326146)
(4.998846149614847 0.003678878819482377 -0.002960271858885556)
(5.001255762672235 0.004463088655113797 -0.001161543480930498)
(4.999422365733066 0.004125987654043158 0.0009023881344992117)
(4.999814740354818 0.0007620359077035023 -0.0005534255538536354)
(4.996050915212404 0.02699292229647762 0.007402945988497706)
(4.999841319463377 0.0005413247592389732 0.0001228199176815113)
(4.995929415087933 -0.002630037933892338 -0.0005324649932987752)
(4.998861774805505 0.004613404024001276 0.001699890762760874)
(5.000608668314078 0.00483459530581067 -0.002949127374537851)
(5.003293360439475 0.008628705620224181 -0.005363593366317304)
(4.988154386781859 -0.002495911491335923 -0.001486216299018246)
(4.998865795847992 0.005607388636102635 0.002106853265988309)
(4.979484468102154 0.004267084856051489 0.004622707575551119)
(5.00011537551381 0.001390235789438298 -0.0006381476459208034)
(4.995447078716789 0.007623682559464218 0.02522241423220008)
(4.998890560209976 0.01370105568409829 0.005616338112810753)
(5.001348844639516 0.007628157297098299 -0.0008314037559662076)
(5.000403683486266 0.001057193691995722 -0.001039820778206703)
(5.004525148174266 -0.003339048973985203 0.01555361398130327)
(5.00064304009509 0.0006026365997834679 -0.0006597956359876803)
(5.000095269030818 0.001258073604084039 -0.001144605116424135)
(4.999966089256563 0.003393944973771473 -0.002620199566144813)
(4.994865059744628 0.0009998668928030542 0.0003194149753902101)
(5.000366700363683 0.0006130961437454987 -0.0002252824538629515)
(4.99849868421231 -0.006408769182224704 0.0005853050090337869)
(5.000053885838472 0.005044450161669271 -0.0008111850339318906)
(5.003752599715994 0.003772659536683217 0.00327231609634698)
(5.000499279393326 0.0009745370091071825 -0.0006755988254999422)
(4.999521518477981 0.0009644026872579048 0.0004234619316292867)
(4.999027296319125 0.005229171528959445 0.002845801473102504)
(4.998933491300737 0.001629726325762523 -0.0003533529989256322)
(5.005334525273113 0.001477640249821964 0.002294627605072067)
(4.996954599352487 0.0201385621462213 -0.00321941529800776)
(4.99965557694274 0.02556147935330604 -0.001825786813279448)
(4.999722063845944 0.001150406124926492 -0.0001862647172848025)
(4.995581017743978 -0.001223105004854198 0.02602665163518741)
(4.999677134396541 0.001589921783457499 -0.001443631043757254)
(5.000280807677187 0.001647038234385714 -0.001175938161299675)
(5.000085378411638 0.0003454380363036483 -5.845172945316226e-05)
(5.000628219300389 0.00273881445310333 -0.001950525518887859)
(5.001339439823091 0.00013255426454093 -0.0004502080346721403)
(4.996766117035038 -0.006594995889366028 -0.002215419926646417)
(4.999876542723809 0.001703213283849273 -0.001079497006139795)
(4.999145946480034 0.0007096352806270888 0.00123092590761135)
(4.999208966265114 0.001718300720067398 -0.00104158221043109)
(5.001461157074899 0.001017365713902771 -0.001491057881759055)
(5.000102513417567 0.0007872676791911873 -0.0003354333098127179)
(4.981867965633495 0.0001133441897516181 -6.259850651819186e-05)
(4.999454489412019 0.00116817962218302 5.866209971195378e-05)
(5.004002548906925 0.005588169478358516 -0.01470949545171661)
(4.999791745852103 0.002060701239981673 -0.001218988336075137)
(5.000434410094178 0.003126587301265256 -0.005734356883061697)
(5.001500728182657 0.00386159750555319 -0.001793541493183356)
(5.00114273769775 0.002330603833342469 -0.00161928178927683)
(5.007474441470268 0.02015686212153704 0.01107398795833695)
(4.953492664575425 0.003591333165067995 0.0004383457065100853)
(4.998733499594918 0.002029848109667839 0.001506856261937179)
(4.998617420518161 0.001272299062762321 0.001484078146458606)
(5.002589873879635 -0.001121431383034484 -0.001872765416796004)
(4.999911159156165 0.003398932630713427 -0.0001011549862653051)
(5.000102049910721 0.00664978815349135 -0.006694614519535058)
(5.00091507977785 0.002661266208511705 0.001177253291770403)
(5.003160079594638 0.001542671904405021 -0.003480963874046033)
(5.001650623757377 0.004101859904329688 -0.01374238598457158)
(4.969735461851768 0.002578056070424736 0.001106758082382869)
(5.000991365338308 0.00297270985483708 -0.003946100437207171)
(4.998462600549028 0.004086775163438978 -0.002177197039062051)
(5.000812714788723 0.004406832725083039 -0.006458321942920729)
(4.998779403999632 0.0009927845441193995 0.0009996545600992896)
(4.999485580242284 0.0007925999159682358 -0.0002739997575406332)
(4.997803768919816 -0.0006099235607843061 0.002561088222126603)
(5.004935095885619 0.005323836382995003 -0.002341022753859136)
(5.000174365135074 0.0005805969714576458 -0.0008928009863620144)
(5.003638610770741 -0.01004026382647367 0.008328487912003331)
(4.999494289740914 0.0006482734915594414 -0.0002588541877083509)
(4.999952191558797 0.003193492665523142 -0.0004689138349235585)
(4.999575906678878 0.002614798197671842 0.001034597761207332)
(4.984210841696363 0.0009622060338067235 -0.00308214173704455)
(5.002261795643808 0.001305628718618841 0.002491298263307767)
(4.999877961664952 -0.0004115542280366525 0.0002238130170930236)
(4.999830913327529 0.002019658999546009 0.0002528158760342894)
(5.002256536978038 -0.0004532780589464423 0.0003673398006456548)
(4.999676911964069 0.001839257324219897 0.0001990985223599691)
(4.999856601675078 0.001884233950968723 0.0006857992112833315)
(4.999877620333855 0.0008606115908853533 -0.0003338810684674838)
(4.999124017141684 0.02174016076974865 0.0409981737429235)
(5.005742794442692 0.003169125598157897 -0.01800881228149696)
(5.003483757841099 0.001595942818173924 0.0005523566103604865)
(5.000080366473485 0.001661946210101111 -8.421478822017135e-05)
(4.999768083729456 0.01364463143055211 0.0006689679347783716)
(4.999744289994709 0.001894566170382729 0.0005067203942414343)
(5.002527371516654 0.0008772879104534052 -0.001405119219860754)
(5.002563733747832 -0.005346067993270196 0.00183875264272976)
(5.001537044408008 0.008091015949187505 -0.09605574327290202)
(4.999746770783573 0.001910886368758698 -4.525271941804377e-05)
(5.000008259857857 0.001458068017521918 -0.0003001181942144265)
(4.998955381933312 0.001310316584644377 -0.001752261907623256)
(5.0001077813759 0.004976945988664786 0.01130041617817559)
(4.999811723415475 0.001328893402939589 6.550765584598654e-05)
(5.002173889016706 0.0004471120091294912 0.0005964089275649381)
(4.998020383657289 0.006256903749833987 0.002826096060207401)
(5.010858154691298 0.02214614320204522 0.00565504264466938)
(4.979495127924936 0.0001130098218702327 0.002520191321612165)
(5.012050677929066 0.003891503054708419 0.004299692445675526)
(5.000232958927312 -0.0004833829269215399 0.002175597782892243)
(5.003491439758079 0.002854922756387362 -0.003616829812466414)
(4.999848735924398 0.001918322243576586 -7.715983895481652e-05)
(4.999944149163783 0.001042812700709687 -8.891663142803817e-05)
(4.997696338349913 0.00046118140436248 0.002212952747882054)
(5.000030159049658 0.0008953811668991286 -0.0006017508065624093)
(4.999787217682591 0.00154544829233577 -0.0002030680461953604)
(4.999755929841309 0.001453940378893123 -3.204978502540548e-05)
(5.003990814846295 0.0002179042011978586 -0.0008934602938381632)
(5.000114171154531 0.00179754397033314 -0.0001529118452660079)
(5.00181134263516 0.00168165927628173 0.005206131424385967)
(4.999569109307006 0.0005221296706464972 -4.142649092293076e-05)
(4.999587677472793 0.0165193494243187 0.0003294030614887718)
(4.999910239885939 0.001125713644201319 -0.0005449026684523755)
(4.999743103158456 0.001391925458710031 -5.377658089723992e-05)
(4.999135958006082 0.0007310478606263138 0.0007663863963835176)
(5.007458248496547 0.003811015041519936 0.0007026425856161253)
(4.999913521422849 0.002034938846204338 -0.0002155073907554476)
(4.999759746489601 0.02206817451232527 0.001945344915132401)
(4.987332557922876 0.001449943647406254 -0.0001220833431282873)
(4.999667144525496 0.001975036444263169 -0.0008863497217583977)
(5.001013935954291 -7.06188072124322e-05 -0.0003205174718090839)
(4.994655633473385 0.0008679170254819058 0.001395443083782048)
(4.995664121395556 0.03574722551868828 -0.02680171059630661)
(5.00075318110636 0.002180733480899922 -0.0008795596976473486)
(4.999453214933799 0.001307879142307675 -1.434054914455122e-05)
(4.9982721153685 0.0017226365302712 0.001651820830803258)