/*--------------------------------*- C++ -*----------------------------------*\
| =========                 |                                                 |
| \\      /  F ield         | OpenFOAM: The Open Source CFD Toolbox           |
|  \\    /   O peration     | Version:  v1906                                 |
|   \\  /    A nd           | Web:      www.OpenFOAM.com                      |
|    \\/     M anipulation  |                                                 |
\*---------------------------------------------------------------------------*/
FoamFile
{
    version     2.0;
    format      ascii;
    class       volVectorField;
    location    "1.8";
    object      vorticity;
}
// * * * * * * * * * * * * * * * * * * * * * * * * * * * * * * * * * * * * * //

dimensions      [0 0 -1 0 0 0 0];


internalField   nonuniform List<vector> 
19632
(
(-0.00975167095793026 0.002831948790614931 -0.01286699069996811)
(-0.0005371746056526598 -0.001817493503601821 -0.0005537283349802806)
(0.001267282205715052 -0.001939526487801869 0.001436267168379383)
(0.0007433478699119503 -0.003845241047370875 -0.004813060963239617)
(0.003454461539596313 -0.001148052893324466 -0.0007538401221966596)
(-0.004015473670604371 0.002797234720699164 -0.003669644012764856)
(-0.002534439292882564 -0.0003024981217108758 0.0009329247650904223)
(-0.009368637065929403 -0.005887898173608878 0.00318190020121159)
(0.0009939937531263619 0.003985309313788028 -0.008338788578366972)
(-0.02472017772440784 -0.001693162752051141 -0.02385371144227246)
(0.009002569958657884 0.002066610784602673 0.002030825645413525)
(0.001226013384275871 0.001331897204677862 -0.0004843878214832406)
(-0.02726892502514562 0.002115125157610781 0.01992468621324106)
(-0.002823046155955983 -0.001188886587665387 -0.001233375876993345)
(0.0009384662438654348 -3.126396958423808e-05 0.0001185904313412757)
(-0.0002883880286128366 -3.830137870491733e-05 1.806770289941873e-05)
(-0.001468079551990903 -0.001030836169741372 0.0006712910026813387)
(0.0004368998564919902 0.0007500464484661842 -0.0003194423311750648)
(5.118109228719229e-05 -0.0001037955399756042 0.001040836475161829)
(0.0001534950040894922 -0.0007331265053761803 0.001412845544955055)
(-0.001938228667991909 0.00136581562510171 -0.0002200040008384906)
(0.003111665555427029 0.002305540575773972 0.0002288992040393196)
(0.004657575371512739 -0.0008958002657594127 0.003259515577399367)
(-0.0001490121386258477 0.0003545752782277323 3.680547434695795e-05)
(-0.000352056158669502 0.0001996442774855123 -9.138756125990494e-05)
(0.006271077497884366 -0.007728496781371474 -0.003301602931554317)
(-0.005460002292376684 0.0002618435370006806 -0.001834249675840175)
(-0.00256082532460032 0.001039404307707525 0.002797747855272076)
(-0.007782597099850983 0.005948568402342664 0.001404999251309609)
(-0.0005416159497494088 -0.0004750134877184528 0.0004481677012550455)
(-0.0007769460169384987 -0.0006182007249401962 0.000197607021126716)
(-0.002397808816605956 -0.002498817276233015 -0.0007136740723860087)
(0.001444730356591882 -0.001119921405761514 0.0003734556517882355)
(-0.002083225867841281 -0.002798692496130217 0.0002947906153536787)
(4.253959520121764e-05 6.918648606342543e-05 5.174367343105883e-05)
(0.02711152554171344 0.005909898254103054 -0.00148017231691702)
(-0.001049323428460818 0.0009622211403751231 0.0005063299495332618)
(0.006469726476390384 -0.0007195986767828564 0.005295571744797733)
(-0.005573446094905617 -0.002063710742222053 -0.0009594551466747539)
(0.003091051457026106 -0.0003756523241049728 0.0009697082588379379)
(0.0003715743907482888 -0.00127825390972304 0.0009963013308001728)
(0.002467070008344584 -0.004174148827314279 -0.004158581083755308)
(-0.001665875426565814 0.001729924768324039 -0.001605993382934335)
(0.002072768216053201 -0.001303680571887438 -0.0002712521647286684)
(0.0002640401944783343 -0.0003128635057323718 -0.0002400344590597004)
(-0.0001852965135527244 -2.771059131953217e-05 -0.0002305788082841526)
(-0.0187036022425122 0.002833802959286859 -0.006595208463951506)
(0.01167839264464629 0.005134839587231767 -0.003628075958994679)
(0.006358413474447062 -0.007283126742232447 -0.006060081720804243)
(-0.002622241932125435 -0.0004596208601688473 -0.000637342527453166)
(0.006265063492464153 0.003193388965999654 0.003184717992165308)
(-0.01193455630651426 -0.01972384804955284 0.01075003945348601)
(0.00633441388565917 6.057582725783124e-05 -0.003495323276750503)
(-0.0008487325976745204 -0.0008122661740083438 -0.0006194922620385934)
(-0.005215058627243046 -0.003215386508530405 0.0005888453582835941)
(-0.004319459549958423 0.005368206538394382 -0.002399726812830569)
(-0.004795379645898217 0.01297750998910196 -0.009640591904428616)
(-0.00640861150319236 -0.0009857781616335009 0.0003951556075042937)
(-0.000791179226497019 -0.003908341389250892 0.006521421684217517)
(-0.002173762994706113 6.701852985298144e-05 0.000272808408378388)
(0.0008894697167993582 -0.0003007414869160728 -4.2852031068068e-05)
(-0.002969655598918645 -0.002177021489981256 -0.001991463960879469)
(-6.795726810406789e-05 -4.503716738521578e-05 -7.491658397263274e-05)
(0.001097657831434307 0.0007258337429017111 0.0003363853912653905)
(0.0009442735138862129 -0.0009342052364242375 0.0004457072880317204)
(-0.0001294993599823802 -0.0002008115529667637 0.001221846456434771)
(0.0005343905141141212 0.0002503305711723427 0.001244460144991304)
(0.004141352325948384 0.003198987347101541 0.0002663713274608723)
(0.00372749231952526 -0.003282697654847968 -0.003341056974254603)
(-0.0117658631926044 -0.0005994870309651273 0.003068508751414556)
(-0.0004042062881741246 0.0001710290123074119 -8.528823820589421e-05)
(0.002449161241307792 -0.002987998869584211 0.003483825327332052)
(-0.001948867894504003 0.00157310649601195 0.0003472311338971945)
(-0.0005642600892291779 0.004572360725871046 -0.00415839242578067)
(-0.0001225952088103714 -0.0001694964924808651 0.000280069182256295)
(-0.0005887557078286575 -0.0002680018251918833 0.001394287797373061)
(0.004666560239587787 -0.002384497029844077 0.001585454979158707)
(0.06286409395219944 -0.03739264182070749 -0.00518748325343554)
(0.0009070500292526686 -0.0002818553091750605 -0.0003866464208814512)
(0.00220061059117067 0.002883529362299055 0.001107738041802371)
(0.00817817782021487 -0.01492989512122891 0.006918122119878712)
(-0.001436995454726742 -0.0001726788876547656 0.004698478955576731)
(-0.0005043383684640659 -0.002253198945337888 -0.002859981524650322)
(-0.002292127366186406 -0.003141740645325593 0.001786047573820757)
(-0.001423522985273145 0.0009769104438373791 6.29702330191544e-05)
(0.00616953742548219 0.001060365187213606 -0.0004441231666234093)
(0.003160202006247166 0.001824820369154824 0.0003949292724714935)
(-0.01109750324622266 0.003329753664149292 -0.0001638506933319228)
(0.004429224651964285 0.002750268580978525 -0.006738540157802063)
(0.0006110867449102857 0.0005695672103435393 -0.0002324415625387126)
(0.007885981860623279 -0.005097754390152596 0.004955727456927987)
(0.03042708446603803 0.005709717536079191 -0.003944303949612482)
(-0.002815721718838969 0.002404175747263842 0.005799470188386632)
(-0.005127592687044075 -0.004128695160807195 0.002148108783861908)
(-0.001298863155971536 0.003330135150765949 0.001929893341059484)
(-0.003622860111190721 0.004738292702965679 -0.009213759606888281)
(-0.0001711148250173671 -0.001701571282398664 0.002415694189104821)
(-0.003346492022660557 0.001085428225116242 0.002146107545688152)
(0.002178898258774875 0.002706013445786262 0.0026229842413823)
(-0.004952960128221522 0.002952181716317985 0.00126366495189954)
(0.0003619341315040554 -0.0007593103610439677 -0.0006051409028865546)
(-0.002703397315858631 0.004202975535945961 -0.002633973973215078)
(0.0004283217106564522 -0.0009087823181655758 -0.0004166255372191875)
(0.0007665619939475226 -0.0003321007133471894 0.0001655236351333162)
(-0.002484007762031421 -0.0008280641714869296 -0.002004236619763388)
(0.006063894087859845 0.001279757558131198 -0.009301703380891795)
(-7.516889001127165e-05 1.886518262215083e-05 -0.0001096643411278313)
(-0.005825775772233721 -0.0001288345761335969 0.002643601272732365)
(-0.0008854896782495183 -0.001267917333920693 -0.001246949959932083)
(0.003534410693303875 0.001907669515646636 -0.001236417443119093)
(0.002378850334188694 0.001745757488395797 -0.003253831003620227)
(-0.0006901780609887363 -0.002964207197317081 -0.0001270927143444028)
(-0.01389756669752114 -0.001486401660218207 -0.0003450557587924635)
(0.001880970500752799 -0.003493663312064664 0.001415512118668234)
(0.0001925342076080751 0.003255812342860653 -0.0008581211162922224)
(0.01478248895969457 -0.005102604378873387 -0.005242157474365771)
(-0.0002745463862326976 -0.003348865275181009 -0.002853071242145631)
(0.002664175392291392 -0.003693296771174067 -0.003205027522993772)
(-0.006247808285713922 0.001000299435326632 -0.002988556606673641)
(-0.02952323710366958 -0.008646006486729071 0.01781045522976848)
(-0.004599552997741969 0.004794673074083766 0.00172687715664)
(-0.01525841087160326 0.001752943870931242 -0.009335185583540642)
(-6.65561589070782e-05 6.253878392867327e-05 3.101184076426271e-07)
(-0.01047297130456735 0.003766713039367917 0.001498756117570918)
(0.002520544834220713 0.004273759636245661 -0.000600030719215459)
(0.0003689515194272473 -0.001062769995897603 0.001063095333274533)
(-0.02146207531694401 0.004267759367664576 0.00316448014840963)
(0.0001774781876534284 -1.060525889561663e-05 -5.665931665489926e-05)
(0.003960880665905959 -0.001505749902507947 -0.001334381045570202)
(-0.009846008885508614 -0.0005943513091825279 0.007700240074739252)
(-0.001753407270062905 -0.002169210525659961 -0.0009904341240027223)
(-0.001688697473277584 -0.007538580762630353 0.003016895745550316)
(6.412263393637606e-05 2.297136359809251e-05 -0.0001022413503411259)
(-0.01893950965201483 -0.0002710286707368257 0.01785248188644431)
(-0.000441811246813933 -0.0004050286288802905 -0.0001677802657209349)
(0.001525429069263766 -0.0007489866893282772 -0.002594130656835442)
(-0.01155576304822556 0.002356524814052186 -0.01088570199139599)
(0.0004707526020675619 0.0004050370633686572 0.0002223582953446572)
(6.896994978104827e-06 5.094090224308307e-05 -9.300476533900041e-05)
(-0.000171891323051363 -3.462584955573478e-05 -6.069915473974816e-05)
(0.003197244441986275 -0.0002523312332193857 0.002208090753405962)
(0.02819644302791949 -0.01036423001875684 -0.01348722109472858)
(0.0007062872251307093 0.0009504084636119954 0.001047863811244752)
(0.009126472851657307 -0.003030655796214574 -0.03161446932234203)
(-0.003922762970662153 0.004341562181806534 -0.001529221112876919)
(0.030539911177745 -0.00453928628729516 0.005065772581714619)
(0.003598265075079976 -0.006100091877461484 -5.267244355312129e-05)
(7.828719814839143e-05 0.0005367291911698142 -0.0001242691976155603)
(0.0004302406995281867 0.0006743919954774844 0.0002950946500949386)
(0.0001008001572391242 4.702974607995899e-05 0.0002683962502163747)
(-0.005868652414808852 -0.0005102713814447075 -0.0008613740279704709)
(0.006365123524610286 0.005580531790676554 0.008201733169776973)
(-0.001183226959537278 -0.0009173777206161648 0.00113820325475311)
(0.0001042953587752093 -0.00012733484525826 8.776983377194175e-05)
(0.03724989988338299 -0.02138423511184986 -0.003650441652844925)
(-0.008934092298112765 0.0002039375362665485 -0.004332130265182029)
(-0.01642594202974198 0.004484616343092675 -0.0009261175906332478)
(-5.0652551185384e-05 -0.002403431538858141 -0.0003615671841378153)
(0.005957749586060991 0.00749144711495416 0.009035162631838916)
(-0.001061611256073303 0.0009830841442062626 0.009765190826996142)
(-0.000380185054283764 0.001164766129735705 -9.73306988193293e-05)
(0.003712942038668675 0.0003295346271200723 -0.0006556618334938428)
(0.002045604125357795 0.001706791168025723 -0.001239810877347978)
(-0.00672295117815495 0.0002622896949164674 0.0005931056084959252)
(-0.01144061866061697 -6.648024005690692e-05 0.002309155450764104)
(0.0005911587288994369 -0.003426016149675674 -0.009194617665360401)
(0.004411368530144192 -0.0003803243128540833 -0.001292675268368417)
(0.003826365217606219 1.426077592785757e-05 -0.001579328460886176)
(0.001229240545151405 0.0008961856755951774 -0.0003483481840824549)
(0.002872338864970753 0.0002154777068005574 -0.0002274016240434164)
(0.0008141268851911219 -0.009859490182011519 -0.003563343057243211)
(0.01156033200888419 0.0006343823699209499 -0.001257910796641643)
(-1.391752986493666e-05 -0.001008842735329985 -0.0003844776054076518)
(-0.002072649213866314 -0.0009030432671079834 0.01691374174911569)
(0.003928551298026897 0.0006854422504434543 -0.0006577769325257539)
(-0.002479750386824764 0.003600685525011656 -0.001725655293323156)
(-0.007393460590034758 -0.0004156048049888251 -0.00155961696257807)
(-0.0004978845988823654 0.003369392781678517 0.001273956337656311)
(0.01582952347488566 0.000477204111805303 0.006269071270958318)
(0.0001786986403909427 0.0001966865943194858 4.647975921124429e-05)
(0.001178071241075275 7.959961070867815e-05 0.0009309827435308515)
(-0.003484740968527509 0.0002613142103261053 -0.0003878032390738086)
(-0.0005611603231779903 -0.0001776340192748187 -0.0001880845820928298)
(0.003922715440540441 0.0001526860716504723 -0.0004767853530402233)
(0.0002839188401779111 3.149439111909828e-05 -0.0001810175421099363)
(3.502313593633465e-05 -7.770887978332137e-05 -9.337890818202372e-05)
(-2.000136214045219e-06 0.0001510255821869529 1.164360751603316e-05)
(0.002357013118952436 0.002596352839665883 -0.00554591721067077)
(0.0006906693641000795 -0.0001800690592167097 0.004561046074765999)
(0.004152563771598274 -0.000370920186241359 -0.00359517177129834)
(-0.001434405361641534 0.0003069804045484544 0.007133794610920291)
(0.001626398409109621 -0.0002480792663259052 -0.001507984130159918)
(-0.0001450533228167203 -8.89077062140509e-05 -6.904596117317646e-05)
(-3.016802174433815e-06 7.004428087226927e-05 2.26964219282624e-05)
(0.001178340497507799 -0.0004032605834493017 0.0003337158579609152)
(-0.0003524610423544075 -0.001742155889254515 0.0007808964490796046)
(0.00293918943152846 0.0001559734554170575 -0.002382290545367691)
(-3.298269462002212e-05 -2.914933423348692e-05 -2.603593692355696e-07)
(-0.009431672031707982 -0.0003971597879302643 0.004373308267469638)
(-0.0001237142568808504 3.124502426116945e-05 7.254028051354109e-05)
(-0.006939322332217116 -0.000991781858307527 0.0003536893038562109)
(0.0006940708646949311 -0.000112167945229037 0.000150442757611093)
(-0.0002381068395526407 0.0009693961661251917 0.001368257961098675)
(-0.003349034273374692 -0.003075955896701032 0.005383423070824111)
(0.01101565863496054 0.000832185508048806 -0.002646071005827015)
(8.242150456752421e-05 -6.482410011497007e-05 -0.0002556659363240128)
(0.006317790854955818 0.026352399771195 -0.1109662675981947)
(0.0006421439258813932 -0.0004516755339408582 0.002019934818728706)
(0.03369614175930272 0.00896108770556563 -0.01235982476391731)
(0.01674278411845984 -0.01235679107500236 0.004516067945287165)
(-2.973479196194878e-06 -8.59858069626936e-05 7.80247565506471e-05)
(0.0002781893800652855 0.03453459343751341 -0.006249143570910811)
(0.002692489739354501 0.0006042015919802645 0.0008547606102843341)
(-0.0009621009554994894 0.0002196062674342239 -0.002104335468543982)
(-0.0008930152739910339 0.0001187562560503465 -0.0003990015332985095)
(-0.007273812730283134 0.005423943127487892 0.002015841113872182)
(-0.003538998512815202 -0.002266409220002259 0.001516249834596456)
(0.0005138438027689569 0.0001794950160279449 -2.979584419014796e-05)
(-0.01378731901583739 0.003361655817775235 -0.0007853806761338594)
(0.01245697203675682 0.01476989288682394 0.006367718191315617)
(0.002146935837795493 -0.0002036470262331214 -0.0002647758438708662)
(0.01651488235771721 -0.0102578100923967 -0.001076679288025701)
(0.0004109748586237259 1.086190628784544e-05 -0.0003026901360776351)
(-0.007409206442953485 -0.004283431379954684 0.001149486354358779)
(0.003090807448958627 -0.00316073032398035 0.0002779402147210543)
(-3.697584720761568e-05 0.0001147359882237737 2.08774797039596e-05)
(-0.002431352400519492 0.0003272912211308926 0.001777392361110759)
(-0.00113933665454933 -0.005391184170180073 -0.004315451909083572)
(-0.006241523389944111 0.003801593702491776 0.04476877222975312)
(0.0004337149928233326 5.106593017586373e-06 -0.0001072615679017656)
(0.0002104553991439729 0.0005293642633470563 -0.0006736236201241813)
(9.334382534233933e-06 -0.0004984052257175858 0.0001197281460682741)
(4.466774206509585e-06 5.335762639964702e-05 -2.353825300624824e-05)
(0.0001866894634559952 -7.225078080646597e-05 0.0001761245032973306)
(-0.004756291936010406 -0.001103798043360042 0.002118250473022352)
(0.00999199750020293 0.002675669551684073 0.0002460723641516769)
(-0.02268054760027749 0.003465140947702228 -0.001496317408720635)
(-0.009339677846369177 -0.01187518128289145 -0.002450302935301528)
(0.0005614778112524887 -6.174921688625049e-05 -2.18614574266845e-05)
(-0.02071800680414996 0.001618518339137738 -0.001099131932469392)
(-5.439250223064847e-05 0.0004056114130576674 0.0003309020759073303)
(-4.691960605848203e-05 -9.433240100002366e-05 -0.0002018529670324347)
(0.1157077936019088 0.007255204488671091 0.003605385037193553)
(4.284232278139912e-05 -7.150777825640754e-05 -0.0001324326575228336)
(-0.01237356068906128 0.004422772032055804 0.004632475064606977)
(-0.0003945571083040212 0.0001997712449737472 0.0001529770769685542)
(0.0002187461128055194 8.197069619853711e-05 0.0002106292441533044)
(-0.0003525518282576683 0.0001298514872007251 5.018884810536691e-05)
(0.003125554140182628 -0.01365048908327259 0.002053073901880476)
(0.0001693301072657269 0.0004491432249338748 0.0001409629721184133)
(0.00964203652718403 -0.0004073580371726093 -0.0009016995059537131)
(0.04999558646129882 0.008371752349291701 0.005521516307728182)
(0.0002668751950024493 -0.0001849305071100925 9.626647660224931e-05)
(-0.0003222953638768206 -4.518679571600985e-05 -0.0001135397698739892)
(0.001626586636749972 -0.005075568967200267 0.001589989200746731)
(-0.000105159065112897 0.0001759139846874471 -0.0001625428247929897)
(0.0003724060612505569 0.0001463084363913313 -5.719764138607618e-05)
(0.0007273962993415066 0.0001692098114671583 2.401815539290785e-05)
(-0.0178116855810041 -0.003894277655930854 -0.001254875433224562)
(-0.0002624465145227256 -0.0001506571962982468 -0.0002055075212833318)
(7.369492205210855e-05 -1.472213151356692e-05 1.531453258741185e-05)
(0.000294835621132223 -0.00934160325106994 -0.000176612366686044)
(-7.062630992842984e-05 1.380426320867938e-05 6.419408896328828e-05)
(-0.02516616523310744 -0.01460346200249168 0.021135239391595)
(-6.80573679670794e-05 -0.0004253134714507451 3.151107716105076e-05)
(0.009070945218933129 0.01705253853341203 -0.0003935001482368895)
(-0.004818536481875374 -0.001213063709661172 -0.005890990961481817)
(-0.0003880392937382557 -0.004483752563464978 0.01262898565751128)
(0.001945148411259948 7.447599845278205e-05 -8.536487036341889e-05)
(-8.170968348088486e-05 0.0001929962583973415 0.002080299257597874)
(6.517888032453709e-05 -0.0001519307251810295 3.131522191258825e-05)
(0.01265423852614006 0.005020715023090482 0.01328478805594352)
(-0.0026854730927876 0.001088192303836739 -0.0009515779753695092)
(-0.005679408536469834 0.003939108982572658 -0.008763932481847597)
(0.001048786389051095 0.0006859035685323246 -0.0004720612105169504)
(-0.002515313592646751 -0.00380282711842914 -0.002458923769481182)
(0.0001701139801300655 -7.943760707262419e-05 -9.155661037894907e-05)
(0.0004524900733623254 9.051426455221768e-06 0.0002124919460535032)
(0.01482496859501348 -0.002664177263190408 0.0007193625817190777)
(0.004442495502204632 -0.002643297623840076 -0.003271922044307728)
(0.006760868495367002 -0.005462209742847144 0.01217111087342688)
(0.0005011100949096667 2.726093125992365e-05 0.0005067348601086336)
(4.725895979888349e-05 -0.000107940245916525 -0.0001540648924773112)
(1.452954606637009e-05 -7.199000437707252e-05 4.154625226162962e-05)
(-0.0007532064524753178 -6.456019992814676e-06 0.0004448081522084304)
(0.01561003114217399 -0.0002492961247539979 -0.005498794308364876)
(0.0003578757522812013 -0.000127563896426082 -9.723643970453358e-05)
(0.0002926037572190423 -0.0002275523904815479 2.699548942080808e-05)
(0.001515697012502967 0.01323561695799387 -0.01035318996290241)
(-0.0006735663962480573 -0.0001350285546790034 0.0001863417548678302)
(-0.005143439947688415 -0.0006722644787070743 0.005426936164023112)
(0.004153408477367415 -0.0006112996978956967 0.0003583818217970636)
(-0.003319846671594445 -0.0008526682281972817 0.001130176815087705)
(0.002836840485000788 0.00142399635861916 0.0002499448126505467)
(-0.008340464983633309 -0.001294279109582194 -0.002033982503652321)
(0.003671571698016965 0.001827899295473636 0.0002537205380509582)
(0.00024174510555577 0.000897249622453079 0.0004116344868773491)
(-0.005362719816766963 -0.008707196680031766 0.02241407981570663)
(-0.00048511204157737 -0.0009232968956039298 0.0003950577727066256)
(0.001529424159359557 -0.001355578723491666 -0.0004304101317550446)
(-0.0006875332011459017 0.01147354463327845 -0.002443690254370091)
(0.001205083035413832 0.006981700301274296 0.01942098744477427)
(-0.003617064071156675 -0.000150928054846705 -0.002320331349264188)
(-2.148440648106762e-05 3.08961807737078e-05 -1.269913295590797e-05)
(4.216644142944721e-05 4.338362706527747e-06 -0.0001388179576324893)
(-8.64131360363105e-05 -0.0002340881555662483 -7.796851297573837e-05)
(0.001425287632021355 -0.0001869138054545932 0.001255676905028341)
(0.002234960935259872 -0.0004601613833680564 0.000287419330910975)
(-0.00114780002020178 0.007178116734175476 0.00252550432707851)
(-0.001461552047384373 -0.0005224706735773937 0.001269504942881542)
(0.003667730309182207 -0.001065451774832284 0.002323779828810529)
(0.009573824267138294 0.007104477363650098 -0.0159566922176118)
(-0.0001215067895336808 7.280560198136385e-05 -5.013170145122334e-05)
(-0.007657972872621809 -0.001840618534949675 0.004711709728535986)
(0.001994117685985102 -0.001705729614216187 0.01299253621251609)
(-2.459712861079991e-05 -0.0002064424667750379 3.640850249479195e-05)
(0.0006207985339333943 0.00091193289487102 -0.01647726631250391)
(0.001766015573936739 0.002468595327525296 0.0008571449926493798)
(-0.005064678168212763 0.003253850219308139 0.001200437648828337)
(-0.009015709770594609 -0.001794439427124202 0.002363960053069779)
(-0.01543168304164338 -0.02935292125054317 0.004685553690441723)
(0.004585461776372199 0.005539398956861513 -0.003208049601090674)
(-0.001444968164833458 -0.005998139536457872 -0.0004986948087446377)
(-0.001324700531915553 0.0001575968991028077 0.001773043838777785)
(-0.001417758674778554 -0.0004647866473583091 -0.0002034272774953629)
(0.00174747171360007 -0.000172352469122026 0.0006543309815021768)
(-0.006715762192945706 -0.003686372712840192 0.007748181284233458)
(0.007102034010333266 -0.002260032907667959 -0.006527767444786525)
(-0.01271263107727887 -0.002076632566678536 -0.0003973031801609551)
(0.0001619776081756673 -2.456467327339034e-05 -7.804277343203418e-05)
(-0.0006230708976817725 -0.001044556092724916 -0.00090330836414946)
(-0.0001973093683182977 0.0001240241245558723 -0.0002057376974870927)
(-0.0004416791137333257 3.869717787029643e-05 0.0005163311073528645)
(5.885129776697672e-05 0.00022167378478793 -0.0002725578326824101)
(0.001263842790483551 -0.0006819023939585414 0.0003032968676225153)
(0.0008760824441573312 -0.0005054679632634529 -0.0001793582948065489)
(-0.0001879292892209384 -0.0003440279925907601 -7.298926357520403e-06)
(0.01073396412043951 0.0228897648644814 -0.01983057792164612)
(9.45074050537445e-05 0.0001336414339892144 -2.33185721230914e-05)
(-0.0009273241036720947 0.0006333960577030152 0.002616828840126718)
(8.25100433946866e-05 -3.442820969547797e-05 -6.021872798284947e-05)
(-0.01186664925671774 0.0004088878736056517 -0.003423802522453534)
(0.005230974103762876 0.0003247981483089286 0.001431757362723756)
(-0.001889229633202256 -0.002127308746936154 -0.00221476816126113)
(0.0004590349514286823 -0.0002074893328829949 6.368227898241516e-05)
(-0.007412175131989579 -0.0009529043838120005 0.0001797824738300835)
(0.0007787653920948212 -0.0001275487361469898 -0.0005332151504653733)
(0.003713364662925929 0.002892693431813427 -0.003089897586156122)
(0.003671302111606356 0.005054815371021805 0.007418792563487277)
(0.0007897225440585976 0.0005599240246344026 -0.0007450117413438443)
(1.663686496867139e-06 9.189395040147319e-06 -0.0001010577315712354)
(0.0005980661677852276 0.00793602012777549 0.006272180496717532)
(-0.0003565141126276184 0.000708105790417384 0.0003530831286620296)
(0.0003606694995652209 -0.0006899116564246983 0.0002879818732827911)
(0.0001227271733701111 -0.0006828111767683422 0.0002417939409441726)
(-0.0003341503869868184 -5.475343002847306e-05 0.001026121369782647)
(3.37636820172904e-05 0.0002936313951929965 -0.0001288130298116843)
(0.004071475919529544 0.0006854032116599696 0.004584804005732322)
(-5.69284815300104e-05 0.001828966134615178 -0.0007443363279118332)
(-0.001164217480041897 -0.0002936423939079915 -0.001365380524105586)
(4.968320250608814e-05 0.0002383586494777341 0.0001716453655634412)
(-9.423450002808343e-05 -1.065591860222608e-05 -0.0001928267942849474)
(0.0009948312677049926 0.001722475698342589 -0.002601750098449627)
(0.001860579541135793 -0.001920151236619504 1.042112046095988e-05)
(-0.0008780322250107346 -5.987600376472523e-05 0.001484873828334206)
(-0.006618764030149987 -0.003042177128937163 0.02550234557109625)
(0.00318151919861607 0.0003885054823678679 -0.003732701713074374)
(1.008590643916684e-05 0.0003540929875756354 -0.0008523737415688067)
(0.007339277957581536 -0.01238612419658127 -0.001365996639614367)
(-0.0003626615456336917 -0.0004284523249921964 0.0002077922438970899)
(-0.0009253711505042278 0.0003604329415208715 -8.599678626107098e-05)
(-0.0006145746143496604 -0.0001271129127817647 -0.0001974193111319373)
(0.0004714042789020505 -0.0004778534552479954 -0.0005151047256983178)
(-0.001845295365208417 4.166418811249407e-05 2.884408981112215e-05)
(-0.005879174034040134 -0.0001672874558222926 0.009854171156953627)
(0.0001728904284868441 -9.271073120926441e-06 3.266550660896726e-05)
(0.001171218323940436 0.0002968327963604715 0.000162190154500463)
(0.0002854673290334356 -0.0009287495674819615 0.000157619897956251)
(0.00112379999414833 -0.001255335604330436 0.0003181827911844599)
(0.0001580111553401501 -1.309823726264603e-05 0.0001060065648184665)
(-0.0004886495514199932 7.992902285005243e-07 -0.0002287651961152571)
(1.314280961374982e-06 -1.548237625802542e-05 -3.809043255573922e-05)
(0.004657805703381165 -0.01055391218600956 2.406440800450189e-05)
(-0.0001500628983549557 7.348139901264444e-05 1.968569282501409e-05)
(-0.0005006083268155269 -0.004284687624695653 0.00107288902394914)
(0.0005042420683986884 -0.0003400056036482154 0.0003006643830186791)
(-0.0002549128029085109 -0.0001782867911177635 -0.0003640168814416205)
(0.0008131123411382073 0.01149386857935841 0.0003702729136820775)
(-0.0003067368416140926 0.0009079939644100435 0.000747155009550813)
(-0.000287627367969777 -0.0003671650310797068 0.0004090510415179474)
(-0.001060748331522099 0.0006315430028321951 -4.333194359754555e-06)
(0.009351425884370015 0.004448562284782407 0.004413434851884153)
(0.0001906907635907965 -0.0001048288200939359 -8.685214338167248e-05)
(-0.007800180340966241 -0.001068949479963633 -0.006181358124923345)
(-0.005128319856772379 0.002728837660104943 -0.0006430602314580956)
(-0.0008899511080815979 -0.0003197070340252011 -0.0001852389865974767)
(-0.007353834382180418 -0.001561737512372587 0.0002635323867791368)
(-0.002264710425128613 -0.002111955859944567 0.002688021519979962)
(-0.0003129096734532515 -0.0005494626250067396 0.001857327699062437)
(0.0001603888423598235 -0.0003013430233105002 -0.0005602975988857597)
(2.341070372869855e-05 -0.001064119462715093 0.0005988614472915003)
(-5.617088966503356e-05 8.38413811161218e-05 -0.0007156820471153722)
(0.0001059895813707801 -9.039029493403019e-05 2.117721796684901e-06)
(0.002841762177821088 -0.002545870837722285 0.001000266808549234)
(0.001842691828040528 -0.002518184705197847 -0.002727195981636609)
(5.025268120759653e-05 5.282480803486129e-05 3.81517688204072e-05)
(-0.01574216137101147 0.007453672685743994 -0.003350317845520387)
(-6.158143648047998e-05 -0.0001659718722379467 -0.0002053901344160993)
(0.001543284371169458 3.626410472797373e-05 0.0001717474266844412)
(0.0004487398717963756 -0.000208867016052976 -7.656178127179241e-05)
(0.0004201880629149564 -0.001517161306259333 0.001903734613448782)
(0.001117521385171695 -0.0001894460569118809 -0.0008052383108252066)
(1.012410236010774e-05 0.0003206285848721227 0.0005370758186280745)
(0.0002451781362710177 -1.363974280589891e-05 -2.837616255132391e-05)
(0.0001385026494229646 -0.001632422029107474 -0.001645848910963568)
(0.0001111391993209136 -0.0001415126018918686 -0.0001296924850054785)
(-0.0002221729071000832 -0.0002638766514306675 -0.0001759657595726025)
(6.744739081636878e-05 -0.0001683831657148999 8.175580624082519e-05)
(-0.01480653784751921 0.006601998741625087 -0.003103981504834675)
(-0.000126173510744427 -0.02885148590761166 -0.001213908453841172)
(0.001774571730292701 -0.001362132122664618 -0.0006891233481772292)
(-0.0001882244075189749 -1.201457626104868e-05 -0.000118206618790665)
(0.005263094541324159 -0.001061458613040359 -0.001181709933447898)
(0.0003652263254067476 0.0003510415990368965 -3.927147406245739e-05)
(0.001762909938792069 -0.001011246264769624 -0.0003960349487361857)
(0.004550484318777576 0.002228747169846834 -0.0006317576838462179)
(-0.0386782275315417 0.01040472455003791 -0.003097684999785485)
(-3.832360071650045e-05 -2.298068537967841e-05 0.0001195584651694487)
(-6.33690189105848e-06 4.417019158702433e-05 5.911063964339807e-05)
(0.00503974543605879 0.000735335489891993 -0.0003518941908990697)
(-0.003217686377152713 -0.0009697175470285208 -0.0006529667607639979)