/*--------------------------------*- C++ -*----------------------------------*\
| =========                 |                                                 |
| \\      /  F ield         | OpenFOAM: The Open Source CFD Toolbox           |
|  \\    /   O peration     | Version:  v1906                                 |
|   \\  /    A nd           | Web:      www.OpenFOAM.com                      |
|    \\/     M anipulation  |                                                 |
\*---------------------------------------------------------------------------*/
FoamFile
{
    version     2.0;
    format      ascii;
    class       volScalarField;
    location    "1.4";
    object      p;
}
// * * * * * * * * * * * * * * * * * * * * * * * * * * * * * * * * * * * * * //

dimensions      [0 2 -2 0 0 0 0];


internalField   nonuniform List<scalar> 
19632
(
0.1642616360294961
0.09248495140076758
0.04657989894464883
0.02532084341721072
0.0548734110920088
0.1520014296635284
0.1535664656727495
0.1807615224889869
0.1692168690839571
0.1682407098445873
0.06556888545128312
0.1623682969509523
0.1934024785939154
0.04389430174952704
0.08088934173672581
0.1180504321965621
0.07903776751517404
0.07973675237238237
0.05124859583082371
0.2465039331721119
0.1824622407624568
0.2002115750950193
0.1368847554720313
0.07756593121019924
0.1100726260282538
0.1728508772399707
0.1750029458207884
0.0944520125482896
0.05817536108343365
0.05541131630808709
0.01889021796093888
0.09095234081556518
0.09431723194295952
0.1061608770106758
0.05695094855047401
0.09272948709396249
0.168063622987304
0.05696894325052811
0.1831728483721796
0.05935549065101359
0.1518120825489234
0.1876462602695208
0.1531016166408861
0.1264697747080519
0.05371031074314056
0.1416250484987759
0.06796306288020204
0.2132474213485165
0.1456353626095355
0.04705727630282774
0.1640300922852951
0.1318675054591178
0.103156596555335
0.1580807799754347
0.1934628581848397
0.1032843270576856
0.1814323122261209
0.05439830345803157
0.1654931055644522
0.06169520824741412
0.06705792813811619
0.04438774678620436
0.06068255113842878
0.09023356952443014
0.1771266202385478
0.03464777881822866
0.1520468618735696
0.06039888777011087
0.09495004138481759
0.1435640977464173
0.07508994698745769
0.2380747869800072
0.2729502913616606
0.1855747007926814
0.05316896954374273
0.07067388195951402
0.06265757655938922
0.1746836475479645
0.160933551014951
0.1456302459691263
0.1366811017355089
0.1065424991137875
0.1898616581243524
0.1224488483319747
0.1954640064664075
0.2112559325147879
0.07517686651971589
0.08666311218469576
0.1359611019767725
0.0988850346279587
0.1660167351844276
0.1706682634766091
0.1733804108810492
0.03751230428151677
0.1842961743251168
0.1742160290121521
0.08670821198977663
0.04019297624987684
0.1780145799322673
0.08065677099883319
0.04203136620706414
0.08523531164771908
0.06365909541660386
0.06501195786463616
0.3251745967959545
0.07935695610530816
0.07153232559370824
0.1901216866840783
0.2085132452763785
0.056304823460646
0.1705507975569527
0.1746499716135263
0.1307138562531059
0.175407182880288
0.1881789907149226
0.2058012120991904
0.1739918751928786
0.175480286490643
0.1442225044842293
0.1838629288332079
0.2148525397365328
0.1834802447580496
0.0567363863599315
0.1759414831816167
0.175788507243709
0.1184350935527308
0.1950302808951946
0.08054935313310879
0.03779078630493291
0.1309523807651495
0.1552783545067209
0.04868975199945089
0.111472324614792
0.08726045581501352
0.08587659681185385
0.06876553860650861
0.1892982879888931
0.08803297408998882
0.0570520153369837
0.09813452657279535
0.07562661707725572
0.2345761828752495
0.03531167298541606
0.101838730071173
0.0548310836478656
0.2178190772462666
0.03025508412059068
0.1641561710062256
0.0932635375428261
0.1186017785132417
0.05944606514083077
0.2149585466512755
0.1492548826067263
0.03446047838033389
0.1656073400806262
0.1856525731482254
0.1855185344633108
0.1793589614413343
0.2129762638871724
0.03655040046806451
0.1796814680414301
0.1242187109768286
0.1411219951863429
0.1699734393592056
0.1324421753739423
0.1918254221491637
0.03326147605217247
0.1631210619449635
0.03706864478654691
0.1928477670618635
0.09189132139811296
0.1728420588842305
0.1107013400612928
0.05539494054624346
0.10681789284737
0.1901201892067492
0.1408305968925097
0.03071213396085214
0.2531917628515463
0.1046615346117195
0.02690830667372409
0.03350294318650628
0.07809403605982924
0.1502998465063753
0.1199541242441771
0.02697488120948614
0.03004992681416704
0.04637460601337508
0.1672491814190661
0.02942523225116331
0.3232040396785407
0.09041585705139739
0.0804962650725968
0.06646437030815208
0.05895924101193755
0.06548374020941863
0.02950171750166514
0.06520261754765827
0.03511313236652856
0.04714512730196581
0.02772308850485318
0.06375599883406247
0.03820790788218725
0.1031375564673751
0.02223547675019409
0.05690698361864152
1.373323037303891
0.07201242558710776
0.156228015185907
0.04117736305064092
0.1584246124497368
0.09404418167119362
0.03383855394568426
0.0665423195797806
0.09068582484011879
0.05715502770873775
0.1000825498593969
0.06678092129422207
0.1473701457192063
0.09489668755831646
0.05727487658528162
0.07372238024215255
0.0806224593503643
0.03132618436669269
0.05001914747695394
0.03906529571679313
0.1793118572691793
0.05815013075609635
0.155463539036576
0.1251278212848053
0.1151097094539604
0.06300810484375288
0.04237097927604919
0.1075611030381059
0.04511627719316017
0.08233815247964946
0.1149009183719686
0.09971541161129857
0.06203379137075628
0.04458334960713738
0.07110855290384878
0.07106067290191755
1.924955058301162
0.08574428033932328
0.05354639751229279
0.05230124531218283
0.09233133137518451
0.08274463789628493
0.1091387638026454
0.1687239461767868
0.03332720009955215
0.3505181984972505
0.07908805779663346
0.07641313555615185
0.08158443399857089
0.07228072483944736
0.07760980639107835
0.07352628388364833
0.1599039649672684
0.09128863427123073
0.08625480785742778
0.2611272529386012
0.102004899022051
0.1748019848647735
0.1143300446094287
0.1390140694826499
0.06569109622146754
0.1707099165731117
0.05646360412694335
0.1703568734091962
0.1078334695011202
0.1083190523676192
0.0507151561798164
0.1860669829816231
0.1855466711417064
0.2012571850775593
0.05252657299909947
0.05154343420766427
0.1865623232999203
0.1853003880975953
0.1758711105397123
0.122792246913461
0.05683658910992294
0.07854492916079664
0.02759077238742586
0.03085389706418584
0.1353021227516361
0.05122059730361455
0.06734033958947647
0.05232861962116089
0.03220137589182624
0.03846607718785038
0.1801816285494427
0.04557793798871422
0.03633316496286699
0.1285651880804583
0.03754686850387894
0.357317025732742
0.1513757504319074
0.0235207330502384
0.1220638235456624
0.311472990813136
0.03235207837905311
0.03745645994412921
0.1021789735713354
0.1565451516695607
0.02546086913739177
0.1984963753574878
0.1685032303233059
0.1332045294112579
0.180617516275319
0.2145234568616085
0.09118848453606662
0.1918470738129219
0.0683136697629347
0.03980647391997851
0.1555220168598581
0.1727569996679606
0.2640470606387711
0.1837675435809138
0.1057496250440462
0.1783349218745071
0.1750318126205345
0.1800574605985238
0.1619181639564523
0.1553525623985362
0.1692729138671915
0.05744523193944268
0.04470749560196848
0.1074840597571051
0.03643921802010963
0.08320016159316819
0.2004552532401208
0.1494377885168356
0.04953458033549849
0.1991355656265086
0.05245377090702035
0.1834810131494204
0.04716310943086337
0.09713967749316069
0.193332984219398
0.05606475095523604
0.1111396088276412
0.1688704462093647
0.1948865935587224
0.2057970779812247
0.04214745775876376
0.1549116450652039
0.04361157983505515
0.03874225773245628
0.07278037329328875
0.1188411951293782
0.03050939642918074
0.05403117604195729
0.1557626795316516
0.06057969697503857
0.03811543004532918
0.08765443899673341
0.2017812205078534
0.06666316444686124
0.06973220093833131
0.05630913116828954
0.1068122351428989
0.1124774131121488
0.08699756800037098
0.05013370122062434
0.05208810957710389
0.1172286417235439
0.08576970222593669
0.07819787501059827
0.06813565915518147
0.0543041335859621
0.06809079584806217
0.06020339067516312
0.04514562206527976
0.09402317448904875
0.04132569330836364
0.07547738310354166
0.06501062750322675
0.03873387556781076
0.1360088649290629
0.07223542705545542
0.09624005860815665
0.1052963574287441
0.05684066022378585
0.1231588273209011
0.1014302604495254
0.1841190205203311
0.3592057163679702
0.1646641665919312
0.05309014891109614
0.1056855436653571
0.1354527510127749
0.05771502071037722
0.1148393320617524
0.113469971453498
0.08251315982169516
0.2676400395160347
0.1305922297910825
0.1601896740202721
0.1293480941253996
0.04953789639363722
0.05297206640382986
0.05279507102880886
0.08604799840419455
0.04712612986898787
0.215773895501003
0.06101400866510547
0.1588222265098246
0.1423912836508345
0.1194970361761886
0.06157148792478252
0.0570282961495956
0.09651680940625113
0.05666621960527097
0.1011058507236934
0.1012397107075062
0.06222074343762143
0.1774752919014094
0.07486228403336934
0.07300924095525575
0.08890124641171035
0.02331014061248454
0.1027420701621002
0.09857672061783458
0.03613971652120052
0.1767421210355439
0.09816868740909156
0.08628234397756716
0.08978749132698137
0.2250719604874057
0.09210038393714816
0.1281354983351369
0.2053166718551188
0.142404386286806
0.1438079741201536
0.07496239021962552
0.1386884981152711
0.1027028783936621
0.09144578601492162
0.05396921752626604
0.06481495161958012
0.05355033372868054
0.08610487924673758
0.08671409761013013
0.1001176337736154
0.0943929407951288
0.06976694901531019
0.05875447269266916
0.04731726716242628
0.03585852267390795
0.07946289843057475
0.06883653247998289
0.04494349627936733
0.09494385525922776
0.07545044801904512
0.1179016930145505
0.05110934850048807
0.03390746471228146
0.06354929977673406
0.2407939004614558
0.09402356324938756
0.06826754741737484
0.1266628274017606
0.1629059242641505
0.04194586268664034
0.05381360501833165
0.06441962405519397
0.09192324481063964
0.144836419927527
0.1185798586366361
0.1458173085843522
0.1471856262336274
0.1003964166646918
0.1322892876300019
0.1464067815598117
0.1403366692811538
0.1482280925701982
0.03610546938500935
0.06979636553258151
0.1090536779970499
0.06982198880415004
0.1024923733152124
0.05000310485380093
0.07584527052868946
0.0313436283174364
0.06161704932571386
0.1175373832316814
0.1009677943849216
0.09004297858009735
0.06079533522721842
0.1098313305519443
0.1680599473744378
0.1657806346802202
0.04269166068975795
0.1677421781409877
0.06005285442800394
0.07299659304613298
0.07411709728716086
0.1666349144834224
0.3295685735727442
0.04969372231634078
0.1306373965692312
0.1197388858538501
0.09996888499916953
-0.01202689042855052
0.05375340576693888
0.1269755877336609
0.08026100657262543
0.1206210346233606
0.116513785950221
0.1144709990691293
0.06769247828282304
0.07390911826232638
0.04161171429710344
0.2352394446476183
0.08859091345707733
0.1189988720599801
0.1241049837017126
0.0776199480440328
0.09452881534994183
0.07792002930554896
0.06345274360126481
0.07628973728958603
0.05617112540919138
0.06064331972601205
0.1154806739967474
0.07454358038781442
0.131544260969795
0.05400067940337797
0.1441814968460601
0.1137078277693582
0.1127044483463925
0.162403800454195
0.1763781891473613
0.2227453001913524
0.1141800819747016
0.1214539136396387
0.3197954693500332
0.1234535167674873
0.1476370856997366
0.1416476253973558
0.1785617836815165
0.1428718962705833
0.08210405782722745
0.1495601890421817
0.1457101401648936
0.1937254666537781
0.1887396610559249
0.1408449799950739
0.158412423649494
0.1205799710616569
0.1280292094813607
0.1818348220822495
0.1297247806955624
0.1022557526086081
0.06870937683587396
0.1431136537854459
0.1443702932018688
0.1392620763941391
0.1422648150273516
0.1384070465655805
0.0767506418562852
0.09649379848239831
0.07170200174819036
0.07131049234556869
0.07558197336404363
0.07766382906958112
0.07424611480931188
0.08072640686781925
0.08456547381553312
0.1108594554984388
0.08529444598517676
0.0696993667468246
0.09290199999369161
0.08547263009380138
0.09013568662803968
0.08714506208956951
0.08921381558781161
0.0976494687946734
0.09205328086352914
0.1111638861728479
0.0521492010659163
0.09244205275133204
0.1145053418529132
0.07435146941814688
0.1330397326722193
0.06978317187096375
0.1134844661096498
0.1234986450818237
0.06887153860416291
0.1178727171774317
0.06236394101403783
0.06783355677844365
0.07755697515317937
0.1051736161806186
0.1188270006321431
0.3105498332507002
0.07889873340937067
0.08047116680457846
0.07400129171546063
0.0736745685950619
0.07245539232787701
0.07729273299033927
0.1663905775317473
0.0513902880805877
0.03258204971285732
0.1881384637974596
0.09106160245329839
0.1664260772189248
0.07495087464459473
0.2663882634071642
0.1674852234827181
0.07061010842324299
0.1375043773763679
0.2500711286356603
0.09203234654936289
0.04046715051558779
0.07687642280203226
0.1142989705710968
0.07891488095768281
0.06184923301398085
0.06116027380588646
0.0647899549724054
0.06568139292234984
0.1809833211983535
0.03852392119876288
0.1500483435009334
0.05437974564680452
0.08222148444891361
0.07715012423707267
0.07869756289272092
0.08609171777696194
0.05893571046517685
0.05251696808350052
0.0515300441176712
0.1542846214578918
0.195901634253058
0.2920538144933302
0.2218653412767896
0.04990715932078269
0.04956530021157506
0.151139900464503
0.05078850765410541
0.1157766711493017
0.05227950198223118
0.04802044811343954
0.04874095283032443
0.05463427849858142
0.05324857665988283
0.1359804201568363
0.06360341030598762
0.06488077318919014
0.1953931198257773
0.2008010728141374
0.06401741877285282
0.06779823904974884
0.04838808146949453
0.06496255698951964
0.06612916524226403
0.0637588275380834
0.06212119138993209
0.06582120392812117
0.07889876972442197
0.04667085198366364
0.1886753572770425
0.0693061558520016
0.05297759924447819
0.1324736151923335
0.05633920428959204
0.04282458340137744
0.0441369364790023
0.1225983551865985
0.06755253807308222
0.1379504597819997
0.07024241311633199
0.07168096743819713
0.0723541109966877
0.1477704803004265
0.05370771179412258
0.05163750217779833
0.0696050471386616
0.1549575662049824
0.1195254759654419
0.08500182642361405
0.05829339774538646
0.0722148370686396
0.1232922292941894
0.09635950514096663
0.07559521835666409
0.08147181663512018
0.1489506598971119
0.06946874125276926
0.03165765911438494
0.07764352210769701
0.07519672100970373
0.04837144954754103
0.07918013002206528
0.07614465589354193
0.07742129159153251
0.08605832221300765
0.1670951657093018
0.1001976637890957
0.07733184788623074
0.07715738567551918
0.07590207173266776
0.0742266484470672
0.1496779787319441
0.1990050279544835
0.1993904740597926
0.1080050989466302
0.1566547803064443
0.05967251799147277
0.05246342616244699
0.06515191712521375
0.05288494929802335
0.1616418757022556
0.07110603021404736
0.1926690789311695
0.0748898582265438
0.1720256606313371
0.1131552402408696
0.0462497743916634
0.1377683785808662
0.1161519080604845
0.1488674325836096
0.07226236415747887
0.1464676974403449
0.1079502552311498
0.192708848792995
0.0109379619550639
0.04450513133470401
0.07058907145976212
0.1339823000668335
0.056544795239361
0.02860018180666766
0.0735247306846166
0.09923828969615407
0.1040042868655042
0.06051323948482566
0.1751957001619506
0.1117377176119884
0.05014054758574239
0.08586649290415656
0.08335326885115212
0.04946504148637616
0.1084787351456121
0.0822748075443769
0.1316848879586898
0.04544770435069052
0.07256554930725849
0.05632878469599353
0.03875571749731224
0.04610954894296362
0.0952572734550909
0.0488094562077281
0.07537996254737227
0.0525426266295705
0.05555580578686763
0.1961525454824971
0.07102053535795755
0.08023852633470524
0.03585132554113501
0.1553242142466164
0.0744861834897335
0.07576869632134921
0.193101355548937
0.06500120758901917
0.04894578854008505
0.09850564963533191
0.1888675379032918
0.1510417654821581
0.04381088879326352
0.04207060241962578
0.03997997406096675
0.08511570192397712
0.05381304036521186
0.04234195824130619
0.04514493806110879
0.04765499777280974
0.131427512146928
0.03685135587355325
0.03962606453528924
0.1410693719467296
0.3042690620493824
0.2359819411355492
0.2320741159074593
0.02883576394447145
0.2362901887074972
0.232974916534757
0.09917613276244773
0.24217188879798
0.1514317882929653
0.2665248459923338
0.164617462621469
0.05670604910429485
0.07198460393946787
0.1234429488511432
0.1642592940718768
0.176065116918119
0.19037912156506
0.1622295688673007
0.2468078005994128
0.1180057275321316
0.1127444142247103
0.07002745887203667
0.05308971270308358
0.1278697325061131
0.1360046382710367
0.1179578798352305
0.1101695387082125
0.1124318797390598
-0.9522332193104414
0.04967694675700017
0.1205143306789476
0.05667040145451152
0.1463995430287124
0.09933820333978734
0.1119991693714891
0.1652252314824423
0.1398823090376367
0.06653790428738196
0.1077852910632197
0.1451622326222591
0.1628910097602815
0.05385506911866227
0.1434615666494412
0.05181105395863488
0.0787717654880865
0.1901636763398895
0.1973218804926012
0.03885005367680911
0.1816125758214031
0.2384193273663246
0.04178444332911311
0.05397736459398045
0.1214473192019953
0.1643318019498846
0.07355611660561764
0.1390045876545674
0.04398563273062369
0.2324976565422243
0.1591255824253001
0.1602583829135009
0.03445958773657482
0.02998010705276883
0.05461771091685165
0.03410339913924996
0.03083448117562865
0.2418563341017888
0.04752224454089003
0.03987402243790092
0.04731223410248066
0.04045607062059527
0.04688440284931726
0.1279982030096556
0.07921092713253616
0.07992688741545072
0.08403356455467127
0.1939819626096498
0.09385798339719428
0.2257251551182846
0.203954519358542
0.1958521212226516
0.2425296160005092
0.1231591526643276
0.1242825061658189
0.09796966353411422
0.1624145183619311
0.1220355896495271
0.1572927250189475
0.1074357497590888
0.2168379214398317
0.2097605182094271
0.2265643000403788
0.200139934944791
0.07022299974953938
0.1664403526844518
0.1122304721416659
0.1338896678729849
0.1226910471200337
0.09227839023015388
0.232455986863059
0.07956613268042877
0.1081227481589165
0.1390231127472377
0.1238563904737572
0.1677471954289306
0.05109427001875886
0.1439534520952328
0.02262714195975378
0.05853080942168325
0.1952022710926616
0.1526218177566302
0.07173038320157071
0.04467977543363892
0.05210893751035891
0.0316930811662659
0.03240474590107392
0.04602286777599387
0.04565735733847424
0.0485879804353579
0.04784968630073843
0.1114981927752465
0.1599422933266557
0.1887951207402021
0.121096417316293
0.21674407457531
0.2531443812304145
0.151614986989616
0.1773272316567005
0.05315642179393069
0.1677852244422706
0.07713661383633272
0.05343714502360541
0.1714243038183222
0.05583428979685213
0.05861604286851036
0.1110463110111744
0.07208767527573963
0.06836456364692059
0.06601283235369242
0.1149685634986446
0.0629614587168122
0.1776724411454648
0.0518402960096297
0.1731079052021863
0.2214181985233582
0.05541280263546997
0.6475925146762266
0.1818832942063735
0.06634630336085071
0.0464671072547383
0.06636187074094289
0.06412482489118702
0.05957736995603362
0.06272352705168491
0.07739288364920252
0.06061797044635866
0.05866856842872761
0.05070740280594431
0.05704681978342729
0.02337397630038564
0.06263347723011586
0.1112299123958306
0.1707423316853526
0.05545010150429899
0.1653909805512684
0.1872774371801207
0.05344776387511845
-0.03317549426185502
0.1910745062105659
0.09619631995253275
0.05063622590740198
0.05457986273388253
0.05563438190843879
0.05898834423017929
0.1513117567338965
0.06085142047786713
0.05821701565345405
0.06431851650573329
0.05405739078092198
0.06237513250482764
0.2364553948889341
0.05479580121120625
0.1668573792664196
0.1898621204023579
0.05719032193167145
0.0603189924815353
0.06464528830120138
-0.3248284339149498
0.05539361261960234
0.05796897564395501
0.05573704274870363
0.1661541288287102
0.1703161089575789
0.180161680850908
0.1756472288134955
0.06062099219933318
0.1534306270432615
0.06313116649340593
0.1520609105537012
0.04439404205823591
0.1716644674438442
0.1543057454670874
0.1476436588097208
0.3926089438477443
0.1516228890978387
0.1773389428660971
0.1683775046267354
0.1939001645580733
0.03302997731094239
0.03156551370551148
0.03581582719321056
0.03720974148937474
0.03438995585795418
-0.233520790128963
0.03688518457098668
0.0488193127910732
0.1101862915945505
0.1248324781525418
0.06110497508550213
0.1244028084431535
0.119475814891836
0.1206213905025412
0.03771615519589425
0.1353743474119822
0.0461008134519425
0.1262156869496833
0.04011129917404698
0.08451316701645975
0.1595928145159909
0.1319025578085096
0.07294560855519376
0.05448510136909688
0.08003171239542589
0.1743163886168705
0.1343887908821504
0.1645404713516667
0.1258182456955248
0.08762614155468348
0.1599889913632067
0.08260719422767382
0.09355988439964541
0.1072781777788033
0.07846771360664599
0.138921773717696
-0.09813720134321001
0.1734319688298286
-0.08820228713059426
0.1321461153100965
0.028776594645563
0.0655369419627324
0.05519610072695554
0.1152902398614997
0.1190927536307335
0.1022737519614217
0.1727493328721071
0.1263302584446072
0.1950107058860426
0.185682496694823
0.1526286906886433
0.1748877162888131
0.03803496768165662
0.06048335101050925
0.05450203881782996
0.06565470470543849
0.1392282317485096
0.05631203166250597
0.06676162932468911
0.1199684464141973
0.1220659941486625
0.117218354179492
0.1184307008831709
0.1224256778260994
0.1225296730992319
0.1252985894662
0.0946742380471042
0.1243676767351673
0.1228047367436444
0.1195423698032315
0.1598360932470683
0.1470228699959786
0.145239958516081
0.1431743531315895
0.1412173560353477
0.09343180274435367
0.05032869686409164
0.1195252687062121
0.1563772850382041
0.0497711570240244
0.04668662869493357
0.04636537344636422
0.07913376530481479
0.197533787672748
0.05087742599655454
0.1127633645471843
0.1086075914727248
0.1067135632421593
0.04936307592893964
0.1339705252453552
0.1282408121817981
0.1261833686876311
0.1048728356747895
0.1074291061135347
0.06235392616570506
0.1168186068508356
0.1244358299749024
0.1049067996580642
0.1097257353628241
0.04147071927579749
0.1709549905473157
0.1761280797394721
0.1664673981787328
0.1739294820925071
0.04274579030000237
0.0423754699226787
0.07406037756478051
0.09303702796976705
0.04375839666980733
0.09322710936161845
0.07146043587648772
0.1203912457494354
0.05257702656367999
0.06812188945492202
0.06535721533991727
0.05792974223849481
0.06506631795154412
0.05906297210954137
0.09641690365302936
0.09490764959601436
0.09198645076043566
0.158092878369453
0.09372715698985672
0.09838882422896546
0.09958689857297949
0.09585075412412772
0.1028380030250137
0.1086149103055636
0.1033110580971086
0.05480409883301281
0.05882031177754787
0.0526406007877558
0.05275734624615049
0.05194527030287716
0.05228736500067956
0.1166825374309448
0.1970417956731465
0.118475574335876
0.0607568621799689
0.1151766511575275
0.1136158405385774
0.1146274518568619
0.1162671260994585
0.1026697765373136
0.1073266446283078
0.1044135313656597
0.1180500852901371
0.05123420042913816
0.09880939576278841
0.1904585754949095
0.09966183470874009
0.1221759987877939
0.1166466425820152
0.114145296586727
0.1901925340674305
0.1274416200095583
0.07325595362643106
0.1245078740777677
0.07017832485802894
0.1851205657417171
0.2129416781605844
0.1154267350733265
0.1921143648758915
0.1439344997025174
0.1078212899394629
0.1508978645495315
0.2053421211346038
0.1991492368734801
0.2074792539828207
0.2025648215159808
0.1915796627930049
0.110705713964504
0.1832616712414356
0.1896793368133006
0.06887816603987655
0.05730846217260835
0.05711170707062243
0.06059597520284945
0.0617361025118932
0.07507082378440894
0.07378753608010892
0.0756393056708405
0.1012731816178116
0.08325421582967894
0.1096528149630393
0.06248045696743325
0.1045402152457519
0.09118873307356566
0.09801830293244762
0.06040309833688724
0.03028042633226978
0.06646877433273418
0.09530772536790089
0.0925027667503814
0.09877049725104003
0.0978655569910231
0.08842747266969102
0.08883536335925378
0.1290423109072147
0.1617303241066751
0.149813747034003
0.05313784561260598
0.1163264412036431
0.1842025314893171
0.1517075725919616
0.1657955018242642
0.1540601228151815
0.1599381847473146
0.1666068242976599
0.1691472511204525
0.1806110242704707
0.09378884660486041
0.09718745291153991
0.09736707081769139
0.09000333973324201
0.09319626890903811
0.1153883935347543
0.08783178445300868
0.0865844716805873
0.1701746788096862
0.176390664649519
0.1710972272292053
0.167807350103549
0.1656224607456464
0.08138639754748141
0.1662689374154745
0.1672802810219414
0.1275308075494172
0.1281416876179887
0.135386167864936
0.1689215480159715
0.1599119124532131
0.154874371513716
0.04911250541952052
0.1598854401143679
0.1568138201533923
0.1571015281004081
0.1661315070457806
0.1699623945481638
0.1711408084722171
0.1772012068774981
0.1855189783962
0.0704040556107503
0.07411458143571199
0.06902925326684987
0.1105445478165966
0.1389718319462759
0.06936552460367271
0.08841673317855823
0.08427737307064274
0.1051209965583283
0.1029135513921939
0.107102115118252
0.1054681766503657
0.08630860017072352
0.1682165148310067
0.07323600060849778
0.07871962858228347
0.0666488175977398
0.0706074588313749
0.06465719992876198
0.1798839243055405
0.1472813297344759
0.06217236335532588
0.160745975586456
0.06595894489676106
0.1750649721323912
0.1168162798325216
0.1307066656424411
0.1720520253345006
0.121825510693595
0.1373789290667232
0.09291970029530401
0.07540041926869499
0.1036279404007003
0.05804034851759379
0.1693246882921667
0.08770511721137073
0.09741117341750095
0.09002920846755257
0.09764840679307261
0.07565573906877408
0.08320973531271278
0.07985616529378027
0.08301878198497867
0.1490560946603287
0.1538653940393683
0.1537448552022948
0.09846531263463128
0.103088657741853
0.1056372511830988
0.119686562683046
0.1176430037994249
0.116851998728561
0.1130010190253692
0.1197018153238604
0.1222279225380705
0.09872551412292513
0.1016246942825385
0.103255541370382
0.09803613662277683
0.09367265221389603
0.08322291617626786
0.08609263302513717
0.06428928207146985
0.06005389656502848
0.1324675542544505
0.07793332629192398
0.07898835741478238
0.08414782506539241
0.07845454569099834
0.08182542669910851
0.08417009131264849
0.1327881363330851
0.1230263536405537
0.1254271303433878
0.1013873726230452
0.1376773341522787
0.1507397654729447
0.1555902583635335
0.1654191141228714
0.1080140806370965
0.1026458932399147
0.1088484380551513
0.1133899373717601
0.1172051650276238
0.1143493383828754
0.04363710538830286
0.07761279051992656
0.08044787455941625
0.08326596863467424
0.06565139658835339
0.06414569685311507
0.06072077435343332
0.05694075024814445
0.0639538631264779
0.1362130888256646
0.1280890925739268
0.1057995824443491
0.1078301327391345
0.1058716362229931
0.1079189461569311
0.1071917479911983
0.1116674236854707
0.07389267241115831
0.04701773879006489
0.04615717359903109
0.0835195330281968
0.1011824058280589
0.09964340032745626
0.1309845305801029
0.07075400177692541
0.1093364643219029
0.1281435249051306
0.1021709532813163
0.1027495708286725
0.08868954631842903
0.09894979560434655
0.09056101485615434
0.09584080905203014
0.09662172690224718
0.08119382634578903
0.07514362534623015
0.0773411212120594
0.08305896964474596
0.08245958597025331
0.08981201694846103
0.08317525643073406
0.07817958354626055
0.06228702174642251
0.07883346093655415
0.07238424458568465
0.08914033889229898
0.09227087106368724
0.07053477148996495
0.1538699825528838
0.09150354053486165
0.0865367577646194
0.06339248425568292
0.1410391593795722
0.06469774154616623
0.07276140684045493
0.07077544208462203
0.07867153347741464
0.08072595585890935
0.06290849113806601
0.06659563829517239
0.1934505647194405
0.0808822934897471
0.07555283221909385
0.08507493843492242
0.08274060246131124
0.1047551698990425
0.08141905960864503
0.05190247222597956
0.04612712513641605
0.04788488716132473
0.04735412978732589
0.0549131597049796
0.05293057932613446
0.06108366718129607
0.06080506011993241
0.05449293620392483
0.07168178777281994
0.08166734629405277
0.08041076321299355
0.08107564764526271
0.08214556108230738
0.07436743206727069
0.06196929948725376
0.04977251675181288
0.06127925407087549
0.05892354038956318
0.159778712591728
0.03785280074900598
0.04187220928707862
0.04043960201397962
0.06239642880124569
0.05051981819686315
0.04381768307514866
0.06213896478820171
0.05522865328871539
0.06026676444752304
0.05684099736665164
0.0605063025517617
0.05902328858594917
0.07682711006618731
0.127965450048698
0.05913094358926791
0.05121871765685601
0.06406833163342315
0.07478468833934589
0.07473056472527888
0.05777758748444728
0.05577856680647818
0.1687531055034012
0.06261208837478133
0.1291264740335083
0.06111946679724873
0.1642909571776095
0.1627382687102508
0.0558341109305267
0.0562312465422538
0.09763138429475432
0.05716057755333797
0.2380053860523699
0.05906314726996563
0.1037734942186529
0.05129084892209068
0.04694158791496459
0.1981023718640035
0.2511347700723071
0.08010882959753214
0.2221869689525008
0.1596591597416785
0.2179814054971548
0.1270038941005052
0.07933786745261288
0.07667836288089044
0.07553907838438317
0.05488846865721227
0.05490043861548131
0.05768939225949467
0.0574758131585218
0.04942796796354982
0.3558764269998562
0.04844053847306383
0.08101146073128609
0.06392679728119044
0.08426702316241419
0.1207582609729433
0.06600443753015985
0.05830134296715131
0.08282851510764071
0.08361303807982479
0.07112481074946846
0.07008039646446225
0.07577039251848977
0.05850894960483894
0.05253868402421602
0.05645309886035257
0.0589606929745386
0.07215370244410955
0.1566171065147818
0.1637547354378844
0.1184542955261758
0.07082853230246221
0.0378928639535182
0.1783163515670903
0.03071931565781488
0.179975671343156
0.0443867091504077
0.05264924741597599
0.05250869585302032
0.0727530028609629
0.08220681424065271
0.04970578127807783
0.04224426430170494
0.0448646516834805
0.04463906267939191
0.07343197970101653
0.05744738982508434
0.0669105431182003
0.1943073721558774
0.1237797666915471
0.05327343528262655
0.05424432806888696
0.102689206450478