/*--------------------------------*- C++ -*----------------------------------*\
| =========                 |                                                 |
| \\      /  F ield         | OpenFOAM: The Open Source CFD Toolbox           |
|  \\    /   O peration     | Version:  v1906                                 |
|   \\  /    A nd           | Web:      www.OpenFOAM.com                      |
|    \\/     M anipulation  |                                                 |
\*---------------------------------------------------------------------------*/
FoamFile
{
    version     2.0;
    format      ascii;
    class       surfaceScalarField;
    location    "1.4";
    object      phi;
}
// * * * * * * * * * * * * * * * * * * * * * * * * * * * * * * * * * * * * * //

dimensions      [0 3 -1 0 0 0 0];
oriented        oriented;


internalField   nonuniform List<scalar> 
37380
(
-0.3787770882318854
0.9981526023084166
-2.773010052099657
2.153634538036482
-5.169056298366294
0.8068679063828581
52.37179042452303
-48.00960203254123
-18.28185984168566
21.92221939569203
-22.79692577202345
19.15656621803407
16.80415997130019
18.26285452924269
-18.54675191621067
-16.5202625843318
-5.075763491194717
16.72634109506023
2.816019038483674
-14.46659664234688
9.379680199820667
28.05891468395287
-20.93927762011965
-16.49931726364539
-10.2074782595208
-24.85127787455643
44.43843633390131
6.96874920049108
-2.985967816164679
7.60997306349852
-11.59275444784729
9.646398869719327
0.4374045642187448
-7.428541237592404
-2.65526219633158
-8.925174539826669
7.610178323176692
-3.17573984708106
4.49073606366337
-7.536726439101036
-7.294320493759553
14.82966035650306
44.36611227708276
-10.67868165370193
-22.325218838836
-11.36221178454019
0.8522545616842732
4.850657940902929
6.944405077232338
-24.12469424934606
12.32963123121167
-14.94145447558585
23.74618552664494
-3.412643316406298
-5.392087734659629
-1.498352488315978
-0.9578242733142248
20.44971941659099
-17.9935426548967
4.408888898454003
-0.01178347828199855
-19.33855989575828
21.12725716062108
13.41310106437115
-10.79417269834547
-14.1634715485056
-9.921915606869883
-1.577269096016425
25.66265625140027
-17.94640171757058
2.301430396975266
0.3237081176139013
15.32126320294556
-0.0829433239297485
13.59770454263195
-6.546012018238938
7.286970172034542
2.753031191631252
2.528481307556848
-12.56848267140366
13.60327576775513
-1.52225460483907
8.273244115806319
16.64889586736731
-3.79488282254238
-8.334014091923359
15.13440343102496
11.10260500286033
-17.90299434204237
-6.214834653660872
-2.211184609373592
8.863423827214897
-9.714394634203334
5.609178409116378
-6.412157233510531
10.51737345848153
-3.225385374342143
-15.9075900093523
0.7828837086434813
18.350091675041
-5.088216343155748
-16.73202682146993
6.422947570044412
15.39729559458472
13.99447900398613
19.53442740681223
-0.9065977558393159
-32.62230865495979
-10.15308381148409
7.73560775112625
3.939441765959205
-1.521965705598799
20.8091596326467
0.3809463009058969
-24.41549130789507
-17.59258999666812
-25.34176836551138
19.08056726332113
23.85379109888957
-14.3366653482033
15.42757757427614
19.71824740657957
8.561407713217914
-8.749441566598206
12.97425900897515
-12.78622515558816
-8.05004377538792
10.59730694389743
-12.91909197739672
10.37182880889265
-23.75675423164772
7.423263447064643
-9.01704896427453
25.35053974898863
9.29387492429351
8.773317953703451
-18.06815792651911
4.577511897565008
2.62757755770621
-10.19105727146896
9.078986003479368
-7.304236329801835
7.519125250617001
-27.40594122043453
1.952470702978398
24.2418555915621
1.21161492587957
1.469909059769008
1.301737879704334
16.38128966402706
-12.79408598999082
-3.13455333705451
-0.4526503369794597
9.124513572608809
-23.37147924105639
14.85516945596042
-0.6082037875131009
9.217023719514231
-11.83687463809874
28.12916569043243
-25.50931477184305
19.29720024799812
-8.679976834556289
-8.240156523310207
-2.377066890094709
18.89264845754139
-18.9662503856825
-0.8317701707676198
0.9053720989341647
4.822849098217915
6.966009347145626
8.370338240708332
9.423821220625118
-16.6735770900792
-1.055581774483764
8.30533764395307
-1.891338750894439
29.90460375094413
-2.921731035309006
-25.0915339647306
-15.57510603069647
-9.509068329297142
10.24239185322414
14.84178250677509
-0.1453029104242587
-12.27330796591399
12.41656086625971
27.85398220843429
3.221825748742291
-10.7518448061483
-20.32396315102696
12.31959882087914
-6.314841218404363
-4.654907458015708
-1.349850144449647
37.06732551868799
-25.53345777894135
-34.52106912359487
22.98720138387532
0.1661541578064092
-28.63825273334632
-1.042837970913999
29.5149365464717
-16.12097054557957
13.55925794758026
6.847502709188906
-4.285790111236061
13.93948265026742
0.3515479898028915
-17.24317771774431
2.952147077717047
-22.18961978933707
15.41795351737008
9.943922015466585
-3.1722557434862
22.83628164382461
-22.06713157200026
-15.38124606965802
14.61209599783716
0.3925063464186886
6.647035889243059
-23.84013853847119
16.80059630281444
6.197099606401435
-8.321717435805203
-16.82229212407101
18.94690995347828
-22.64002617741592
2.170998306816615
20.07397719517656
0.395050675413213
-6.754007524103456
-11.48616735789479
25.64212691278978
-7.401952030789337
-28.99979846243543
-16.98349786444499
16.96753348958409
29.01576283731067
-21.77971140603845
7.07387788291281
0.5970396986288536
14.10879382449942
13.88302775112147
-21.00892628972597
-20.28004268185849
-11.08315364525641
16.29823229194406
-9.216312627704637
4.001233981018251
13.56958217043878
-18.67045535252337
14.92571477274675
-9.824841590646928
-21.84312319750842
30.72497516193841
-24.90511695132534
16.02326498691612
23.17888671801813
7.008155725295103
-27.69992701106752
-2.487115432246253
-16.79411637511233
-3.730203698916482
12.20212162851879
8.322198445516715
-1.324901080149087
5.205767638217741
6.179355674621001
-7.816678430737578
-0.1028791048790708
13.08322736720663
-27.28249002727639
14.3021417649814
6.988982906469951
-16.30159823776714
18.81249568530411
-17.15182941353957
26.88902968159497
-9.737984565190137
-11.28649461372357
-10.41848478538735
21.70253549499767
24.59199814325169
-10.46994939146719
-0.2390210006677929
13.53917499357406
11.35209395101428
2.629452992070336
-27.52072193664931
-20.93411982820645
8.139792691922873
6.585692285127913
6.208634851293006
4.432681075527769
4.835837758706728
14.4038522360784
-23.6723710703189
-7.845174863581811
-12.41832362719549
2.360762390518865
17.90273610034096
10.46011576543736
0.7824702674897653
-15.84138207804783
4.598796045111637
-33.11716301249928
-1.707880344816342
8.328095299128272
26.49694805811708
-24.37323746897849
3.873638406527433
-12.61756395006115
-16.21142491772523
-1.055512910137208
30.44930309879932
-13.18236527093386
-15.44727195453733
15.94086919326308
-0.4954153201228566
-4.154292269862589
-12.63350823132738
18.43781964435034
15.51825322195176
-3.142968674049352
-1.414671631153979
-10.96061291676748
-6.596339969568913
5.85506441990114
-0.9654813115289337
-4.924586376724679
-0.7062722813467043
5.887010834683532
-0.1993268545710279
-14.55332810446201
15.03250797322637
-12.69745105862459
12.21827118986366
-0.8181348606917587
-7.692862621378096
6.238935922768792
-11.03989960264385
-19.34238510125487
-3.465781335776297
6.596741519306702
-14.24564932408273
-0.3083557403617586
-3.371921225236686
7.96309618215785
13.09344728192847
-17.68462223891273
-0.4349103000764773
18.54014180018001
-18.10615913590264
18.96222977170126
13.24451466259981
-21.82847325806604
-10.37827117622992
-38.05794252334663
0.06950822119136127
20.91888785651664
17.06954644564472
4.407437964247404
-30.71525298730164
-1.875056653967439
28.18287167702892
29.212563266696
-25.17368834165791
0.368563039213254
-0.1381971809377273
-14.34261260038514
-10.74906090204182
25.22987068342571
-13.38009067161226
-2.608541160307176
18.28408674751788
-2.295454915597506
-26.79162416522884
23.42933048357782
-30.65627774902752
34.01857143069278
11.85690438982479
-5.760492039144209
21.20718448790261
-18.57095042611087
-7.68823549037816
-7.463330357440022
15.15043037662658
11.25698423609908
-13.5174689519758
13.94065682004825
-11.68017210416467
-20.19375561653709
11.57243206647194
5.857942697144823
2.763380852880393
-4.96640933284377
20.56463169843474
3.253660562731531
-18.85188292833215
-17.0138243063786
12.54812146250304
-5.148476015875973
9.614178859679956
-9.912512994901086
0.7914284376329509
-3.107633898140178
1.049180679203309
1.001945296372692
-7.255463811924175
5.204337836351768
2.464934871726749
-5.919501230565618
-13.23808468116537
-17.66991310057588
29.31799178154486
-10.17512553393952
-1.472953147016912
7.063962976829238
1.208721297634405
-7.223503595286794
-19.51858049210274
-12.2133008240231
16.89087901192658
14.84100230420833
-1.718196765433301
8.15929703141801
17.77350135692389
-37.31372405550955
11.38092566717053
4.987948996158455
-3.328029924670614
-9.167962001838411
0.3093067322378971
6.805615037784003
15.06510279052168
-14.13266393569411
-7.738053892623301
1.581015007359494
-7.554150974046467
-15.80086266985777
6.970001226859882
15.45683589849545
-6.62597445547897
23.13360174829616
2.758529561600208
-18.85665125782869
-7.035480052062167
-6.852340278499622
-0.5776937618318645
-13.50408578779456
10.77034372505458
0.7827359442835778
-5.733593509770311
-5.819486159598154
19.00619654878784
-18.38642045658738
23.11358202075214
-23.73335811294938
-6.080526738200497
-12.15485165447936
1.549950770720954
16.68542762198332
-0.2491827705719876
-13.09434208374241
13.3418589104123
17.28707319353348
12.66601953348582
-6.991557649554204
-22.96153507761337
13.12035390163536
-1.79930232351565
21.67718594610694
-32.99823752421945
-14.53857932393658
4.267139796286442
-18.36264872982127
14.11961082924543
-0.02410189586858027
-24.70594746678725
-11.81141529272057
-3.026091740499483
16.66627243194452
-12.84583616446088
-0.7943445270283552
20.6681164997494
-16.43174470776199
8.883982109653259
-9.053180928175227
9.114739281056249
-32.44366208388622
16.84010667419766
10.60588004393107
4.997675365759179
1.71651779197469
-2.555358684338767
0.3510989475697382
0.4877419447935342
17.56603408549696
-10.62594700876582
-24.69892947172393
17.75884239499395
-6.422594009170401
9.62611784765941
-17.67306963180385
19.61344820577082
-11.56649642162524
-8.711968199339672
7.691771772913296
-27.68651646226357
28.7067128886463
-7.714174118966684
23.53959223627698
-2.682879483651948
-13.14253863364742
-9.706913089234726
5.742038807674437
-24.25520050228891
28.22007478381634
17.95894187989895
-9.186616531921768
-21.15146599588008
22.25658848524295
-18.28464392923753
6.237592683708044
-25.7215239874659
26.08764064149025
-6.603709337741573
6.521073769590179
-29.95143166570423
7.87938331328966
15.55097458282341
-0.4528232178040771
-0.3948301428308942
0.9215680586297526
-0.07391469814993316
-12.14547639861246
5.754894426664337
7.947420284888736
7.832533852306161
25.30904070635977
14.22119539235131
-19.64362770473362
-19.88660839395426
-2.096934928181977
1.362908023469204
-8.319154023486
20.27917705031897
-0.2719708933857833
-20.00769530937488
9.2381021578112
17.99728684331974
-12.97101329688516
-14.16730682659167
9.141033280166072
-16.5585919562978
-2.214186807842919
24.4288967969352
-5.65611803278941
-8.662818786766143
12.23194373007771
-20.12771689960473
-23.45799657952741
30.5013115425659
-2.763039838483335
-4.280275124563318
-2.665867886294497
-5.041547624676512
-1.644864158919934
9.352279669887841
-1.31302005307181
26.7373337176573
-25.42463963840058
-10.65723042997747
-29.7444990006991
16.9437328511535
-10.13594163215429
-4.884805972203592
-6.26998036295918
13.81562559620373
10.36552918040668
-20.82354160172632
10.45674310865936
-8.879219333212781
20.48065812157334
0.6279729480041325
32.50310479827357
-15.57317375254527
-17.55790399372694
-9.764588326837394
19.87594172455696
-10.11220864383534
-13.12155751770864
28.19820185813323
-3.636623082140766
-10.06738372185145
11.03813891767804
14.93439821279862
-9.900685444201345
-2.391003118274171
-2.642709650260523
-6.419819731091453
-14.34497110892521
21.67129444458572
-0.9065036045683073
9.380925668581506
9.178446846551013
-5.749101325322799
28.96372925520798
6.004807986100044
-29.21943591606724
-24.53468624137433
0.1381059167790465
24.3962941403202
20.10751895316442
0.7510220373485168
-1.536517549344174
-19.32202344116649
25.51996647139496
-16.99835721271312
7.124871940681786
-15.64648119934303
-4.089313453962222
13.51739984729566
-4.422452285408112
-5.005634107930907
16.71379789801819
5.947551440347197
-10.34536187827331
-12.31598746010851
-4.118713050881984
6.515933541307323
15.12202481033561
-17.5192453007592
12.44325509655255
-10.80111356005525
22.3665327260885
-24.00867426258459
0.02445843538973402
-0.03328135471865846
15.52722660671975
-15.51840368738574
3.175850806552593
5.920934640933598
1.673558277564831
-0.009199132925438031
-20.10770454265552
20.09990857985172
0.01699509573029546
21.64335499824285
12.92937182252785
-22.76067233291824
-11.81205448783374
-8.416165435015715
-7.634231315083044
-2.014799481662259
18.06519623176209
-6.434597691254473
25.17158328166282
-15.68086149807346
-3.056124092313747
-11.3200231036293
30.63908234671176
-11.40054247618878
-7.918516766871591
16.19772306775678
-15.22325569468512
0.7362700630892834
-1.71073743614183
-1.920902209339231
-1.299801881748269
19.418427158857
15.93713824071681
-22.13282462629678
-13.08900308983101
19.28468947541021
19.12292167418107
7.100742966144322
-23.69710332904255
-2.526561311271822
2.968306565865805
-20.02241871524963
17.0535593747984
14.30568359947344
-16.60042524780529
10.65034207754194
-8.355600429187218
22.36042810147798
-0.6337855239226743
-22.31386077606079
0.5872181985069823
-19.05383117234788
19.93018126752518
-2.797252304500948
1.58660890884003
-17.93700795480295
15.8692506341233
0.4811484118317269
16.72657054619201
9.199279725780439
-8.931091879706091
-13.09987386156468
13.16075895167665
-0.06132262400252815
-18.6651404591504
5.597271692733094
15.03963274680943
-1.971763980390658
18.75464173080083
-8.567699241360948
-10.20825025480518
-9.661717749137082
12.84147325348787
10.36144674814828
-27.57768792622472
-3.271615444353828
2.763836378253
28.08546699237646
0.01456499580405885
-18.50170554608145
18.48657565930198
14.99883381064889
-26.43877419844858
16.82733621487717
-5.387395827073429
5.726940912246453
-5.462965291756574
-15.17548435197771
14.911508731503
20.10129423837116
15.08629775183057
-14.90841493988023
5.774927229238894
1.724285593251201
8.699461696640732
-24.86540911023799
35.7178764941813
-2.821794421246747
-8.030672962673435
-14.63209659588846
35.7134115719255
-32.56436446992473
11.48304949388963
1.191358827136945
-21.71112023050347
3.002370627342302
17.517390776028
-13.56992787091938
-9.101496865912734
30.79598138723686
-8.124556650415409
8.738383670612507
8.051594153615513
9.229438639557916
8.25574115746268
-17.48694644750672
-1.434623600173604
-27.38720353621035
29.43241888706856
-0.6105917506822007
21.78586261213174
-0.1471936236693133
-21.63927407160552
-20.02585549333721
14.20495620248603
6.506592197206573
-0.6856929064262257
21.06318387093173
-20.3538184231524
-11.68586648369127
10.9765010359121
-17.92673483990274
-15.3043927234658
20.12109316624205
13.11003439712725
-13.9231729847128
8.625459563621689
-14.84063058190723
20.13834400299788
9.964939136393603
-21.74013760738367
7.764980060305502
10.31639151872741
-12.2351314182378
-5.846240160791414
2.420984827837978
7.854261015308303
-25.60990432954827
4.942445508724665
1.186656853151771
19.48080196764895
3.838968465942092
-19.31025340205948
-5.6377714422014
21.10905637831026
-12.62190612685717
13.23942346504031
-15.1540888409816
14.53657150281413
12.27706042694292
-12.13550778219577
8.662956106316082
-8.804508751043215
-14.82645255126767
-5.603067205122169
6.249236336830074
14.1802834195743
-11.69729317457168
7.381992606315878
27.4489023165562
-1.666272721536166
-24.76375804227558
2.474141396260536
23.95588936756339
-15.50118930915521
-0.01823847698475275
15.51813145839435
-1.457470313577192
13.45634086398304
-11.9998712390242
-26.4434643424844
22.4184650616893
-1.090839890904654
5.115839171703087
-17.1634146600919
0.4946038032071854
17.4246703461103
-0.7558594892136365
-20.98753540481228
0.06860110526164553
10.77673415949108
29.24934860478613
12.45300362281441
-25.61815354068185
-16.08419868689634
10.20477021463258
9.073687359758921
-15.73030350781743
-18.372089945678
10.79205350741168
23.31033994609257
13.45022179335279
-15.94028888078738
10.25504714774441
28.09598721393958
-22.28044253145405
-20.22589226148411
14.41034757900143
-17.59382172436398
-10.15951118406747
14.36086378051382
13.39246912788979
9.508506486986528
-22.24259996963987
-2.996210025150021
-10.32202099459361
-6.424633440785453
16.74530640685926
-12.74449805898774
14.95614927320353
15.61859039201277
-17.83024160624888
0.3842180829647997
-0.237652854943226
18.69219830624919
-18.83876353426797
-18.80993167172276
0.09722991344266189
18.70832521159869
-1.307968383512325
-14.93067550148297
25.74715037199735
18.74216272282823
-7.347960486173534
-12.70217062014423
-14.92579822089398
11.47753730457019
30.28218100814744
-23.01755558985267
-18.35506302542133
-8.585408375241498
12.00979589918756
-8.745902894522684
1.83968352988084
-7.070789753548465
13.97700911819112
-21.37188528937425
10.77734980255886
10.59241061446619
18.55418323337589
-5.850069044667836
8.057038612427831
-20.76115280113178
7.519964885907538
34.5427358465863
-3.037555774444548
-39.02514495810383
-1.002698175043172
-3.427536981339698
16.89832515869296
0.8503430922355451
-14.32113126958177
6.129137049608942
-2.435594547595825
15.888257380906
-19.5817998829375
-15.76232216400437
32.01298479838565
-2.146952009604306
-14.10371062477609
0.6354856712404492
-0.8567621972898645
31.20648052402672
-30.9852039979341
9.623937740752897
-0.5498867809911023
11.36460032874376
1.715912177330931
1.751315418827528
-14.83182792489175
-3.960959384499775
3.283674388144937
6.564295831023935
-15.61299763923015
18.68395274815284
-1.355945384463155
-1.715009724408632
-20.62371363519712
22.50340283832982
-5.735181367460807
18.54007854180957
-19.54287625699759
6.737979082658505
-1.451472328041087
7.114450684214098
0.6087241457309857
31.25415096373648
-3.262666561043293
-28.60020854834177
-12.30741040997416
1.014188573108422
13.61856078628582
-1.121632054596448
15.24215905811394
-27.73908778975847
-25.19336056087601
10.81462998052679
1.962132807084783
12.41659777331862
-6.886609347876023
-0.2813869277295642
-8.700949046110511
-9.740271522993162
3.859657642831855
19.82754799321756
-4.287499280931598
-29.53998875827095
-10.95790621433883
10.85363271717263
-0.2419760712812236
-17.17494426818896
38.87724633064595
-21.4603259911615
-33.27213355047098
17.80723408720938
-1.964353342314111
17.42925280557345
-0.06485684688405473
-20.25867128725886
0.06413180135749703
20.25939633278755
12.85881811419464
-34.89170321966887
12.75845175271338
9.274433352780962
-17.62753926190435
6.052739487342426
-15.24731811328749
15.24521100457209
11.45536861159515
21.97606655146069
-25.95478433795567
-7.47665082509193
0.09571851596160411
-22.61812399813513
-0.07658292974943529
22.59898841193016
-9.745198619342197
25.23716563411361
-26.13937469839448
10.64740768362482
2.867997915267855
-15.37660095572545
4.666731810431456
7.841871230052922
1.461542185283601
31.16135518471062
-21.16752875839405
11.99420544139836
-11.28449907743292
-6.575999245439943
5.866292881477206
-5.693897080691341
-4.06401550079141
24.56251809521952
-14.80460551373768
-35.54365969443863
5.728374294607438
2.526977885159351
27.28830751467578
9.378577731582993
19.3447980021342
-9.314798617461811
21.98078338873374
17.98986835807221
-25.68695473372818
-14.28369701309448
15.17356065066492
-15.49425677140075
-5.241885231222615
5.562581351958957
-11.49561491438518
21.37985529382011
-9.885531697608501
28.15568018084766
-23.00746208896587
-21.73056218059835
16.58234408884691
4.907302067685339
-18.9954188448719
12.44484528264295
1.643271494545342
-1.034003717767836
24.01127135908269
4.122371118324592
-27.09963875963722
2.136293137940863
39.72274954196028
-14.96269950065386
-26.89634317933499
-0.2688457468398161
3.026083058632035
29.05923975395357
-31.8164770656768
6.600575173489717
2.751780999227837
-14.70571716495005
5.353360992233728
-4.882538047208045
15.25549971387237
-2.194986680925073
-8.177974985611138
-15.98134359921052
-9.646612883797351
3.336014426006554
22.29194205699709
4.743992436120717
-19.71577552045927
-5.454274169438417
20.42605725377617
6.912448324160193
14.11080227099707
1.07524159976576
5.350147591881806
-8.522324119854765
8.68066427500195
10.87470048911713
-0.6751434068585186
-18.88022135724529
-0.5389651992024537
5.453461205460211
-6.63269277169515
10.50918332721255
2.94010985426003
24.48519790838957
-16.05156092174655
-12.48737207908707
4.053735092440595
0.7248164529155604
-0.7632443295901207
-23.48364478323231
23.52207265993485
-2.662654512582707
11.12402386248248
-13.13879016362478
4.677420813756537
-10.26668371337421
34.531066845369
-2.621028133738974
3.977743396619668
7.679834138624194
0.07723276460784695
-0.08648533001244345
0.5841515052325287
-0.5748989399099533
11.65594670867542
3.661667374885365
2.84580331790717
11.1942689424156
-0.1539563863917738
-1.426133696332389
19.38694168922848
4.873438318994618
0.3006084523685001
-24.56098846069299
2.837119200344553
-7.437904026939663
33.15772966351572
-28.55694483699295
-4.922316891406107
-17.14781676945806
1.082519142183887
2.721458734347344
13.34383889293657
17.03529558636936
-0.8889203490712844
-16.14703358557115
3.544291421167147
-17.68270838210871
20.90626740184841
-6.767850440870717
-14.88101236002267
17.20423913033879
16.58281705562911
-18.90604382593249
-41.74403625329783
-10.3360652591197
24.44675744626199
27.63334406617502
16.49910966237126
4.597437153297792
-20.72737343812885
-0.3691733774609007
-37.28775804735852
27.8704686137809
9.639223304865558
-0.2219338714484053
20.14753012134781
-4.183199133749822
-25.04669587757787
9.082364889983571
16.99182744618953
18.87764648547056
-19.37036426913451
-12.05722094725508
4.932317695212982
-11.36702641617834
18.49192966822427
4.30520692419972
-3.66399715103872
-1.730214714686614
1.089004941357684
-34.26374599622633
37.4931946159956
1.375004726450711
-4.604453346222223
28.96954764817999
-21.62467419727486
17.29281458641212
-24.63768803730896
-15.24257354178526
7.568295307334918
24.66610568071357
9.960912649431584
-16.27723765076187
13.53023329023095
-7.213908288898057
3.419902662084403
-27.07892722125008
16.81411861149392
6.844905947656669
4.772995263755089
-3.694409284488371
-14.03589894031692
12.9573129610422
-12.25922034717428
1.614083958698724
18.93693675854115
-2.669762333823747
-24.07722657845409
7.810052153735232
-6.934555681402506
-20.23039815208503
0.06798662733511164
27.09696720615677
7.354227944680882
20.66932848376306
-9.086619669889785
-14.32717191088539
1.901365865265432
12.4248858247665
17.58907848179043
-18.51754300224859
7.405763152502427
-6.477298632036248
-24.03184169145406
15.74193189216759
13.30155818816735
-5.011648388884108
-3.668484812269045
3.057522977572606
-19.24686247248304
19.85782430718999
0.6896573061766513
-12.16131335812605
6.599190312639987
4.872465739313317
-15.66971922829979
6.516795014810091
10.52650352982543
-1.373579316335858
-14.47498386878936
23.86745193296435
9.99447362503474
-10.08896507598301
28.04355724020578
-9.521413797809034
-8.433178366411759
-5.269086518811414
4.023459109481685
24.46306665558022
-23.21743924623602
-32.09826397952175
8.294038635589757
20.65910670728231
3.145118636650666
-24.35301114731524
0.1522047528547149
-10.1631576664941
34.36396406098363
27.55514145261714
14.9383285783477
-14.46045099921025
-28.03301903174034
-1.569322453996161
-7.683025632228825
21.57020498443191
-12.31785689821632
-9.505199005360458
31.50768835183711
-21.38845531947009
-0.6140340270041998
11.74567198075861
15.50664984354753
0.04882761101698183
-27.30114943530084
1.666662438698721
-23.41777837136217
-1.576076914992383
23.32719284765781
16.15890524240174
-13.28211021235992
-18.78438503939715
-0.4442791038593719
14.26477861598265
-13.82149173631751
-22.14904788610188
11.00008246762768
11.14824702962072
12.12445088411862
-22.62620704192406
-7.731765071213982
18.23352122904372
-16.70911093114798
13.86194900174363
2.845931428431863
-9.074062150014441
12.43267646667303
18.07510886269889
-21.43372317932882
-15.9958628965289
-2.812248057330308
17.50830907213196
0.8023957158974485
11.92080037334426
-24.30668777091333
11.58349168167722
-17.64477077406529
12.73932892651171
-11.09042104895599
-2.989623501131766
1.245541942991703
-18.42764242007372
20.1717239782328
5.785951611030426
11.84522460814764
12.99840250325219
-30.62957872241611
18.75173784604456
-2.134973823420226
-8.1716227075581
-8.445141315086673
7.496547196308094
-2.470577240504955
-21.38967893358101
16.36370897777843
8.914606614485837
-28.68068184510055
10.69201308062033
-4.784602861566579
-13.04283367311282
-2.727817273192084
20.55525380790413
-8.000990518232673
19.09366359274791
1.886458902565892
-12.97913197707461
3.020918187997497
13.84882924223494
2.049900375129726
3.928143052936427
-23.353245459602
15.16242548151401
4.262676925157633
18.8043915419122
-15.09426184026748
1.567737940408702
-5.277867642053965
-14.46435643833735
1.140480400485649
-2.053208831354528
15.37708486908684
17.3952013468946
5.844096318143541
-19.06096456995295
-4.178333095077735
2.638500110091631
5.125707362302245
14.47771274898667
-22.24192022139259
20.67048806814502
0.1940510405624246
-25.46939661005019
4.604857501146629
29.36174648250098
-18.72150282651781
17.97018600336125
-28.61042965937628
4.619023413454456
11.38448111319284
1.781190574956354
-30.02042848798555
-3.220587772212701
20.45157728389021
12.78943897634296
-4.139333395658366
0.3545812486254091
19.23892841104558
-15.45417626401054
6.903121200699815
9.37199232386425
4.839539096903998
-21.11465262146243
12.15949834604385
-7.08249052714671
-18.07959528061727
13.002587461737
-18.49606515854843
10.04543886599512
16.12758323365194
-7.676956941095328
-18.57216383952832
19.8854989614923
9.100019789645561
-10.41335491161344
-7.953403462261586
25.56609133552388
-0.4084002962783655
-17.20428757699463
-21.0652472788428
-3.353851589757771
22.77885046009155
1.64024840851796
-2.329789287722756
19.30001319703659
2.829090666040849
-22.3771114159682
-6.839087919039256
3.606295005429609
-26.92721855580535
26.25178835098343
-13.79955366400166
0.8995619481151291
-41.84883720360408
6.880594524380013
-18.67421985363438
34.57384516756494
-22.78021983830715
17.70609327715395
-41.64986829403777
-13.69871726970747
37.64249228659705
26.44205236625642
-3.630705229846196
-22.39727766133013
-0.4140694750751556
4.317448289577621
-1.43675411262884
27.70087389639722
-30.58156807333993
24.21748934912667
-26.40149540634962
-1.142496433489915
3.326502490714363
15.53491658814466
-12.53558111581558
-24.37874963059366
21.37941415834904
-5.595157912778883
-12.91563291945258
14.29599054535535
4.214800286876194
33.37872948479141
-16.98220000030534
-19.77263178135215
3.376102296797117
-11.46935977857797
1.616703114632325
12.46643079832003
-2.613774134397211
8.009138500610206
9.718946486272793
0.07158253414343282
-6.280985939894487
-9.833933276598092
30.8603800510952
-14.74546083459891
9.91819088144957
-20.30911490574572
9.020633717393117
1.370290306901765
-19.44898472209542
25.25349163747386
3.448678403207369
-9.253185318597822
14.2928691449884
20.46682399343914
0.8199688471422065
-35.57966198557283
-27.20104898275738
-8.576534267639881
-11.61517463765368
47.39275788810703
37.75696075409931
-11.30966022201688
2.568890765980759
-29.01619129804136
15.63406690154827
-36.03083392544595
-8.402331398911821
28.79909842282023
21.46300411187865
-12.41493287954398
6.065734586208884
-15.11380581853384
-20.31166189659362
0.1046738474025987
-3.00804405439852
23.21503210359955
-21.25458276528261
0.08831570086421199
7.466733075958962
13.69953398846631
-10.94333441489516
-20.11437465930429
18.79500560394402
12.26270347028877
14.02119407209959
0.2377507824197046
-14.25938113311361
-14.45550412948244
18.78697474943477
33.42549013413971
-18.07390647550755
26.03735845431135
19.38309030676542
-27.34654228527187
18.90822729396347
-0.2244538917142222
0.2784563694534959
-10.62227973532383
-9.692240061819348
2.453139995819008
-23.02528401362281
-6.628904964935519
-21.15592391168941
10.52182126458438
-0.3092317677765803
3.477919393250697
14.9527461265318
-17.23930669263816
37.02154348652621
-16.99846254019762
-15.1054217632405
-4.91765918299444
-4.208152863282844
10.89316772750629
-26.79938952350751
14.21016915983809
3.809032286898667
1.703273183978112
-19.72247463069658
1.279134574781685
8.805923610065264
10.57892574329076
-20.66398392819758
2.260148936396901
-3.675970958054647
0.5417204928109326
0.8741015288562114
6.401644486658191
13.00644976231897
-1.270328094544359
8.747588591097037
7.957916943042784
-0.3242158701129134
-3.64920368902583
-6.717439897345196
20.16522420087087
-9.798580614517402
-42.695807871806
9.529459636273504
15.09244176018956
1.650448141827589
-19.68721124821902
0.9323643730907629
17.10439873335246
-10.83446225517977
20.94502479588984
2.361281736363087
-12.47184427709513
27.00416654128111
11.54238062694353
11.16444429749722
-49.71099146569079
11.34028656137969
5.46921726999317
-15.8105756536071
-0.9989281777671429
-23.53375012349249
-5.928546232450398
1.33785720123862
28.12443915472116
1.211107889672703
0.5892341649047119
-25.33409217805525
-15.30347330485397
-5.590216625411335
-8.048459794395029
15.43159039428536
-15.93771081487252
2.156568562475541
16.24602116035147
2.757365762725077
0.8627886252728717
-19.86617554835435
38.53885264321889
-20.81014915296046
3.580566139951213
-21.30926963020764
20.43237970512231
-27.22200923252627
6.789071597361025
-9.094162298384662
29.68195685456001
-1.460445720878256
-19.12734883529494
-17.34633468004325
-5.429746366603073
14.9378882004029
7.838192846250321
6.843967554843155
-6.670216525148607
-2.535668254332756
18.29417184254608