/*--------------------------------*- C++ -*----------------------------------*\
| =========                 |                                                 |
| \\      /  F ield         | OpenFOAM: The Open Source CFD Toolbox           |
|  \\    /   O peration     | Version:  v1906                                 |
|   \\  /    A nd           | Web:      www.OpenFOAM.com                      |
|    \\/     M anipulation  |                                                 |
\*---------------------------------------------------------------------------*/
FoamFile
{
    version     2.0;
    format      ascii;
    class       volVectorField;
    location    "1.4";
    object      U;
}
// * * * * * * * * * * * * * * * * * * * * * * * * * * * * * * * * * * * * * //

dimensions      [0 1 -1 0 0 0 0];


internalField   nonuniform List<vector> 
19632
(
(5.009388913430024 0.02972113961048204 0.01089209522136639)
(5.000065073980965 0.0007019474784455352 -0.0006639903014588244)
(5.000445741023679 1.041039183543696e-05 3.993417017207534e-05)
(5.001187406225034 -0.0002395370398792426 0.001418820195309956)
(4.999590064247211 0.001759706174990735 -0.0003786535796255455)
(4.996406606206753 -0.007784728948767833 0.006170760900288717)
(4.996691991318371 0.01888111390542456 -0.003605183202885852)
(5.003899013345296 0.006171977771549608 0.003364271254087737)
(5.003898252633695 0.007831649123732395 0.006700062855978502)
(5.010002653995059 0.004849962892407229 0.0004462232926234529)
(4.999692763384422 0.01701722111300307 -0.0003894574700614212)
(4.996408809599028 0.001986063361909421 0.003426738243306743)
(5.005056781446394 0.008598059572116533 0.002842908345516508)
(4.999382227997267 -0.0004429554966621393 -0.0002253564559442884)
(5.000053598002197 0.001524896730189239 0.0001383758352759554)
(4.999716676902433 0.00194002300960563 0.0001467609755794598)
(5.000236467661663 0.002388598437561738 7.442539386822983e-05)
(5.000272129522217 0.001433160134268549 -0.0004945760787235096)
(5.000268825351154 0.0005267660140764303 -8.089233970211099e-05)
(4.999562097400987 0.003465834934360104 -0.0006983958045597226)
(5.004421628697955 0.004684604712325057 0.002504684354567251)
(4.998725514396401 0.009644836946223197 0.00649126105181053)
(5.013884327817072 0.01479726142523813 0.004930191862487585)
(5.000241095323394 0.001152265232671922 -0.0006607767060354451)
(5.000601927164237 0.001550339896159133 -0.0003882169650876859)
(5.007990451624386 0.00736704653564843 0.006585745430290691)
(5.004167020251492 0.00862785275275359 0.001253325802275696)
(4.999924561981473 0.001228364642181634 -0.0002565802619001345)
(5.000976035276694 0.001496436616440152 0.002487797720666727)
(5.000143921986528 0.0006468500397522317 -0.0002636383907540457)
(5.000455707854687 -6.142899214095329e-05 -0.0003773998716620006)
(4.99948667610041 0.002217685012307552 -0.002595293456660053)
(4.999337165459782 0.001647018892682893 -0.001493009058997641)
(4.998476208186478 0.001773798266930654 -0.0003391836158590304)
(5.000070253533642 0.0005935425960065427 -0.0001227117360384487)
(5.001771859609899 -0.0004647367804131792 0.001710094894502423)
(5.000294263596859 0.003710100872483531 -0.0002918366771405055)
(4.999664429335336 0.01016151034956939 0.0008706404004019454)
(5.00404768020381 0.006497631388459378 0.004937675215014732)
(4.999420332012583 -0.002759340094645656 -0.000893568257957777)
(4.999692650092129 0.0008510272059647815 -0.001551655508601122)
(5.009297080088142 0.002497398327739065 0.009308825246291841)
(4.994176923562237 0.005940378786316214 0.004419967706208587)
(5.000292548574795 0.001407620511284808 0.00113047716845796)
(4.999817753409376 0.0008318891803448613 -0.0008664538459480722)
(4.999408050544798 0.00441891405698364 -0.003938944496159228)
(5.001236514517743 0.0005978921949120678 0.006671310711184049)
(4.98614716393618 -0.0002239929803578397 0.003776272575699556)
(5.004045019613662 0.003906939557942584 -0.004675527625572537)
(5.000577724240507 0.0001839253246020628 -0.0005139251733856131)
(4.987755068372452 -0.001563611753436846 -0.007154020093005599)
(4.998808789985589 0.002671863519131517 0.01430051615906408)
(4.998215983119947 0.007743254911332828 0.004384570015629806)
(5.000132439852818 0.008747875293160007 -0.003916877108986698)
(4.995223586626668 0.003931254172919429 -0.001811986735521777)
(5.014005499178798 0.002906745761051806 0.006150555049358582)
(5.00493957923139 1.854762282131891e-05 -0.002064447816865352)
(5.00188950828467 -0.001398533745375041 0.0007737894209521695)
(4.996191812298047 -0.01063655532331501 -0.01381382017511429)
(4.999772339582395 0.0007965693927240924 -0.0002569791821597947)
(5.000667815436628 0.0008379854193190332 -0.0006830140204228664)
(5.001216337720249 0.0005586580022852936 0.0006678195293571322)
(5.000186462298446 0.0006006134971582346 -0.0003169743470529795)
(4.9984236637136 0.001396292414485037 0.005176813629785761)
(4.999744559041959 -0.005585021353816629 0.007413197950399328)
(5.000042104684043 -3.573670356813169e-05 0.0002846591933603296)
(5.001253380025871 0.001460508237205915 -0.0005641132040084317)
(4.999074016612687 -0.0002173092627079158 0.002199126841433018)
(4.999941109417632 0.00358217774812315 0.00131963162599802)
(4.995688109226883 -0.0186784688721136 0.02216679469531561)
(4.999739775924665 0.0007234166675657256 0.0001361358532672708)
(4.985456624849404 0.003402437881604449 0.0001339631284984445)
(4.975510538321826 -0.001512342368236848 0.002148381050665474)
(5.00545139103512 0.006539524427007576 0.006030861678446624)
(5.001003078738909 0.0002399454100194357 -0.0005792167833340291)
(5.000866049446588 0.003027967399779899 -0.004475259553027461)
(5.001243000964249 0.00163052070291225 -0.01238306995633937)
(4.987790393050922 0.0004214885250786463 0.02801531544822185)
(5.000158412970563 0.001180724925643963 0.0007803428231045148)
(5.000703540572843 0.005606202029566422 0.0003650874357500859)
(4.999229909016957 0.003490527066948293 -0.009273149098349674)
(5.003789819678922 -0.001412918350133315 -0.006348420564552375)
(4.999420479270944 -0.0001406512567382835 0.005663662055248291)
(4.999417733369749 -0.001140378901513449 -0.003097218858712542)
(4.99789958096733 0.003779391989891813 0.001691116184450265)
(4.995992389694855 0.002579147785021722 0.001371797173726393)
(4.999073381045717 -0.0008631222501701083 0.002475142557589803)
(5.002197729863657 -0.003414167192409906 -0.02245205212892912)
(4.99219435234393 0.003317244649097521 -0.006357894350080845)
(5.00000151738782 0.001536973159621224 -0.000981659604925916)
(5.011648784824562 0.01242358860456207 0.01143381891461046)
(5.009612893967752 0.01192404465118527 0.006560650965247719)
(5.008573583553408 0.006753825576452967 0.006096333030305393)
(4.999425100989588 0.003630549003896144 -0.0001127214839460725)
(5.004152152231785 0.007204130029494125 0.003903382569035613)
(5.004188503282719 0.006168531099994603 0.007606370268752252)
(4.996199865609104 -0.0005203114681778544 -0.0006359747187304753)
(4.999666972422745 0.01869403078775856 -0.00201726581021227)
(5.000983058273796 0.004094285185916939 -0.003516174873317447)
(5.000008641902149 0.001647093323570118 0.01212902995561772)
(5.00039425803577 -0.0003065747128751198 0.0003819797179964278)
(5.003308530570371 0.003813111773269365 0.003040457571438277)
(5.001245448462397 0.0008210709180473221 -0.001490582720839036)
(5.00081460341116 6.60281518861683e-05 -0.001272959794555816)
(4.987681319681921 0.003226312870610786 0.01104754328068932)
(4.9995926917757 0.005803643025317993 0.004163872256179813)
(4.999987038772963 0.0007749207838185817 6.580872586832723e-05)
(5.005422121998977 0.005190934743153223 0.006224219475938635)
(5.002508776347337 0.002732725122461657 0.003312921522325442)
(5.000109764840444 0.01297313289932611 0.000207900963529823)
(4.989687847669307 0.002844470993325332 0.001488943603352532)
(5.010462485277092 0.003655388039729826 0.0003423712335781038)
(4.99990845315356 0.003994917981368 7.207541119685005e-05)
(5.007322470904883 0.003798213639977469 -0.003646868307555174)
(5.008523416431326 -9.455649283315044e-05 -0.001417730096744439)
(4.999724051141174 0.002847099860489248 0.01347844416283062)
(5.00692090708499 0.002769525027827012 0.004216176328467946)
(5.010220267486199 0.006108714064738048 0.00317356313070253)
(4.996030313082521 0.007186204841541665 0.007759749002958828)
(5.004086958158132 0.01627531962389082 0.01201952249567624)
(4.983401030545705 -0.00138284661773497 0.0008678830661568896)
(5.005608217706881 0.009256760839448545 0.008470039746352435)
(5.0000101085374 0.0004743019888068368 -0.0002570297970319878)
(5.010561977481695 9.651928592672159e-05 -0.001142607391343387)
(5.008666954810785 0.002747679912876197 -0.007295241136104791)
(4.998904672280977 0.002628200652976281 -0.0005840431793174049)
(5.000932084662167 0.009845082165447418 0.01166064036496824)
(5.000553019541931 0.0006921267920777275 -0.0003777474821504173)
(5.000516928099677 -5.347298172293797e-05 -0.001411563434250661)
(4.999235003110975 0.01429366240604544 3.634772340999814e-06)
(4.994944976814813 0.00921086441451764 -0.007948488745420179)
(5.000688814240635 0.00202351144308119 -0.0004700975134081127)
(5.000078822256329 0.001877571716042453 -0.0006324136424765256)
(4.999355418161104 0.01014306908197204 -0.001469020345215418)
(5.002542103448414 0.0009725844652410871 -0.000964746653967904)
(5.00251368307488 0.0003478584893628861 -0.0001310952143055245)
(5.009460003882385 -0.004915932961798875 -0.002211557239244673)
(5.002038628168927 0.001328109588722551 -0.001631330472272314)
(5.000404359531295 0.0002812428554646498 -0.0002163311122870844)
(5.001088291463397 0.001428593515760075 -0.001469488384088926)
(5.001867059894423 -0.0002978588117489758 -0.001409287383804967)
(4.997595956382993 -0.004554845857242092 0.0118185461849467)
(5.000391390918534 0.0002419722301367665 -9.120899624233266e-05)
(5.032441931441785 0.01924376430275576 -0.008046810377681051)
(5.001109641462201 0.003477642304588634 0.001073615221046335)
(5.001640182321779 0.008520370865112939 0.01850281960589826)
(5.000682871772282 0.0003649531039794568 8.770171264390036e-05)
(4.998076452599017 0.001968955256193231 0.001223522034232874)
(4.999174599736221 0.0001666452111082958 -0.001708295182099054)
(5.000663150198335 0.00200928070169393 -0.001624289102153254)
(4.999871480072086 0.008976378465785239 0.0001284077031285996)
(5.00285227053976 0.01460792756569835 -0.003582473521489173)
(4.998963502296299 0.001479643312132757 0.0005257370362760305)
(5.00030876880729 0.0001969705219589434 -0.0001353690548308608)
(5.023318868679826 0.04155629392962979 0.02736021241240219)
(5.007617626263253 0.004840556147927712 0.00191663695792747)
(4.985193254553471 0.01820574094949884 -0.0007798346229584421)
(5.004042194259099 0.001216199554819885 0.002066614605478604)
(4.998307468217739 0.008861924485074481 0.008667040231341558)
(5.000462638933955 0.004387735238319064 -0.001320752731219759)
(5.00848081273768 -0.001294168744716172 0.009486767913544429)
(4.992588508352459 0.0005266117840313182 0.001456034325055088)
(4.995905927432077 0.004266765825279632 0.006382269366754457)
(4.991140007924826 -0.0005650397953655935 0.00120681447432632)
(4.998270650785685 -0.01208006935463902 -0.001864381108778092)
(4.998109723548538 0.01446685616718142 -0.01316285261367362)
(5.000727018484691 0.003615094356299749 -3.969667634476059e-05)
(4.991211083567761 0.002678465807323395 0.001900465662734277)
(5.000362994789503 2.777681443795851e-05 -0.0006583391636339373)
(4.984825403372896 -0.0002594161815235844 -0.0001673073501981719)
(5.003657980416867 0.005758723805508956 -0.02069188654670782)
(4.989630975683325 0.001171515112123669 -0.001531533968275494)
(5.000331608650336 0.0009027605810063075 -0.0017857137348456)
(4.999054943486545 0.006054285005010717 -7.180677462037296e-05)
(5.00113309185988 0.000111189030335591 -0.001778949599012392)
(4.999197504005781 0.005174792914641561 -0.01196348242018423)
(5.000512078186103 0.004816123016646163 -0.009521242449849183)
(5.000354953286021 0.0002447817808100736 0.001084961080145059)
(4.979267351680225 0.001320012877709328 -0.02097408339463571)
(5.001229286571395 0.001693346578160408 -0.001538264191671136)
(5.000388375881569 -0.001149104824113968 -0.0005259055480735371)
(5.000517614194158 0.0003208216331420328 -0.0001338763361781397)
(4.999813959058947 0.0008694605812410018 0.0003534467730750595)
(4.997254300916904 0.008313803441401263 -0.00506523121130803)
(5.000645762027313 0.002056788629019967 -0.0001678509857087326)
(5.000499012413881 0.0002058049541429116 1.298658765912302e-05)
(5.00047699806328 0.0002598916080957547 -9.593558445925413e-05)
(5.000840302993839 -0.001196481041928339 -4.319421888668995e-05)
(4.994943771897905 0.01060268825374937 -0.007883621152297501)
(5.000257731932726 -0.001425286460966081 0.001216930076378303)
(4.977098432530512 -0.006865544910127887 -0.001431057356964284)
(4.994508186623328 0.001727686763033348 0.0001233464249048126)
(5.000050628515341 0.001063956784435374 0.0001519955830014523)
(5.000316242116333 0.0007417967876063678 -0.0001020589985513368)
(5.000666277936532 0.0008480026424880165 -0.003619606729535328)
(4.999598415644016 0.0009807480624909816 -0.001974623962750137)
(5.000567305369266 -6.304148968405457e-05 2.428934306565482e-05)
(5.000094786327401 0.0008548023613863029 0.0002598869918543109)
(5.00043788480791 -0.001195374280048356 -0.0006450998448724164)
(5.000800276066699 0.000290422886688659 -0.0003820505585327996)
(5.000233403251149 -0.0009039746567129135 0.0008799778614308995)
(5.000292233805949 0.001203127739036816 -0.000902433249116495)
(5.000576353018858 -0.0006021190024638855 -0.0009948908241914785)
(4.992318437696602 0.001110602759694182 -0.002036496233373477)
(5.000686020448222 -0.002240095223876532 -0.000671153459039864)
(4.999565179857818 0.0008351686698430772 0.0003535651676400459)
(4.947241530023442 0.1294361469271401 0.1790213466261805)
(4.994494644395401 -0.0005815064191154863 -0.0003927405638915689)
(5.001494081763196 0.0007882765145002678 -0.01061076916774024)
(5.000844062865433 0.00376595735170948 0.001876384355052896)
(4.99947118178263 0.002291007757232906 0.0008731683129606402)
(5.007843915135362 -0.002050414926003793 0.01316541080109302)
(5.000585635785527 0.0003318537498964791 -0.0002271822274716473)
(4.99460343788395 -0.0002909928267127814 -0.000226933056888844)
(4.999473985320616 0.01220423601821094 -0.003487120841911373)
(4.99979369053484 0.003963809203608873 0.0007160471993428062)
(4.998775606984953 0.001471111802254513 -0.001818737361898106)
(5.000713302835591 0.001071970583743244 -0.0001919561211241993)
(4.988035839733395 0.01408013092265579 -0.0001204472166718338)
(4.999063878115312 0.004567920312153271 -0.01704872020450348)
(4.99931957841584 0.0006670575523336006 -0.0003175149611128903)
(5.000628343058981 -0.0002562318676784224 0.005048955111076095)
(5.000849997885474 0.00103890656304799 -0.0006711766947732874)
(5.001491793652969 0.000386802735910099 0.0005506338815916653)
(4.99934775930942 0.0008157206013909284 -0.004415561989509345)
(5.000298772972975 0.0003838053800647109 -0.0002330555218583325)
(5.010212877767846 0.0003875082185602769 -0.003308656954148253)
(5.000052491073993 0.0006449784001606467 -9.834082249508213e-05)
(5.015531546350608 0.002364980633582062 -0.001766127218897156)
(5.000162965731219 0.002197957204848294 -0.002713341721324)
(4.999827815390628 0.001342518915765087 0.0002039691706511696)
(5.001688550802864 0.0001689703710605924 -0.0003942123590818446)
(5.000529283880443 0.0002874841073738265 -0.0001690760563701785)
(4.999852377068294 0.001235675799893641 3.130667029039125e-05)
(4.999938502169545 0.0006909861255951459 0.0001430067899026944)
(5.000371512752626 -0.00122680735216118 0.0001927004138463222)
(5.002069661042944 0.003343843835546433 0.01383687941001427)
(4.997678549666523 0.006068623022489176 0.008868521325618127)
(4.999923868588188 0.0008344881332313282 0.000383002251845601)
(5.000483221868991 -0.001588086033315179 -0.002038806783116532)
(5.002002693151923 0.0001967220192797905 -0.0001307462067269618)
(5.001125015039555 0.0006446194498780652 -0.0006155890081886657)
(4.862396219463577 0.005038028223418875 0.1292642434830804)
(5.000470018179477 0.001188246549789143 -0.0008461694254922719)
(4.999721629485173 0.003100022501487738 -0.0004039654674419349)
(5.000268261907781 0.0006365116847767467 0.0001297195592844754)
(5.000457285039932 0.001203684964312132 -0.0007305612508858339)
(5.000375896974008 0.001084806154325618 -0.000692394337219731)
(5.000029952733379 0.002487945613854436 0.01556874494211236)
(4.99928620088459 0.002911175135345651 -0.0003991408307005468)
(5.000518372086093 -0.0003918675211921176 -3.798805960489221e-05)
(4.997627180504716 -0.01218209303073197 0.06054814094460127)
(5.000333663078714 0.001011558597082239 -0.0009760719772492766)
(5.000496323596615 0.001089085070179146 -0.0009959092446049668)
(4.999713040775355 0.005609148416011557 0.004933248371359999)
(5.000642655355955 0.0006704000612320222 -0.0009172264334041765)
(5.000238480745125 0.001105846524955444 -0.0005826682009147484)
(4.995833710947539 -0.001035888314069652 0.0002885147492466489)
(5.000382869511271 0.004854534063356069 0.01291514787528912)
(5.000573747442303 0.001276556402596877 -0.0009899417017700696)
(5.000933376520923 0.001426350744981209 -0.0009922017343302141)
(4.996068146547578 0.02628114191371894 0.00607598103852509)
(5.000493638955902 0.001208701118829463 -0.0001179661408808072)
(5.005596208990714 0.002829966877292983 0.01265175429950915)
(4.999536593819609 0.0005938967757986857 0.0002452188464058409)
(5.000333887944301 0.002791598354792438 0.006286451531841042)
(5.000770359043457 0.004522129280134518 -0.004083921504900841)
(5.010941137980552 0.01170107049739793 0.003109894431497288)
(5.001560738471965 0.0003704036864099569 -0.000801138183327256)
(5.011390592590705 0.006872574599490582 0.002234523946987041)
(5.000478244644098 0.001669913604176137 -2.772038085860953e-05)
(4.995878028351236 0.01085128688281624 -0.01073282141382534)
(5.000915099814605 0.001160674921746119 -0.0002744604990323792)
(5.010360458038982 0.00868644698741753 -0.001031736483700019)
(4.998183387278872 0.006714333782437536 -0.0006227000112177242)
(5.004422100172617 0.007014151619664535 0.004435661161967384)
(5.000828657734231 0.0003089106301277906 -0.0003147031694373943)
(5.00099721724207 0.0002483532495762835 -0.0003996618849672792)
(5.002579416198484 0.004550639948015135 0.005232134130634617)
(5.002607304257939 0.007413588489976784 0.00559839473547038)
(5.001438628902217 0.0139517619476051 0.01112563873270132)
(4.989429423224881 0.001400734265221045 0.0007135223384695406)
(5.00016619703821 0.0005874992457098049 0.0001834444002666242)
(5.000356790076599 0.0008735541158278304 3.606071936155665e-05)
(5.000362359276435 0.0001601000565941592 -0.000122114203298697)
(4.999790491856111 -0.002747212709743025 -0.002608306010456694)
(5.00010963483895 0.002777887176644302 -0.001781633844798161)
(5.000994133252982 0.0002582866838717757 -0.0002754068447996077)
(5.003650511745222 0.04927408684720082 0.06033011334109083)
(5.000380274408012 0.001034120059728216 0.00101592253625576)
(5.000402504806187 -0.00164065727125563 -0.0004659547298492324)
(4.99967112685797 -0.0003892493196678903 0.0002577921954138837)
(5.000243845759937 0.001537720871847603 0.003213671136993811)
(5.000557936803824 0.0006714394493475009 -0.0002764800100094264)
(5.000079510129082 0.003250364147453409 6.180259993693681e-06)
(4.997462614939112 -0.0009986920053255198 0.002428457858813)
(5.000450848438182 1.521861607634855e-05 0.0006640808944229022)
(4.972758007686966 -0.003388089886460202 0.0007918930674004306)
(5.000102064388566 0.002223427264849591 -0.0001609531157088474)
(5.000514428621043 0.000122251494248574 5.864250971029376e-05)
(5.000069391993529 0.00416875750414428 0.02183369915082356)
(4.988135860105867 0.008669344678029756 0.01586687376430894)
(5.000243924140299 0.0008611744565632728 -0.0001939550125272051)
(5.000545125240938 0.0001208331885228871 -0.0001891464141034988)
(5.001015873918238 0.001772639002885242 -0.001205622582676432)
(4.999681753214229 0.002698861212633331 0.0009198554649677107)
(5.000493966090962 0.00052862078854972 -0.0006173568004034127)
(5.003367562860321 0.002249366532287007 -0.002165311399554347)
(4.998502831979941 -0.001700861816054307 0.00885513520520578)
(4.999707572085464 0.001653638347317323 0.003656439608544231)
(5.004183021521819 0.004149110105666194 0.0007451745359933351)
(4.9999048179912 0.01110304010491692 0.01024844738542368)
(5.000770734935058 0.001418688661912129 -0.001071415806044164)
(5.004437709173337 0.006752482505717045 0.006766273899567131)
(4.999699449263471 0.0151903837535155 -0.002021346004531868)
(5.000575101015632 0.0001385325158697897 -0.0001859178911390232)
(4.995775374041889 0.01680143390361334 -0.02248748940863778)
(5.007919701039316 0.004173432089593524 8.380756878000198e-05)
(4.987659007803464 0.008165288318969503 -0.007383378769592936)
(5.008514059664845 0.009544746915267247 0.003303036307512956)
(5.047696178116631 0.04283276659871125 0.026682348197018)
(5.007459724596732 0.002447643449453976 0.001259902362039252)
(5.007573567301231 0.00788385712366004 0.006085712864768143)
(5.006655472116771 0.003348857399109385 -0.0007928464723937006)
(5.000825716301247 0.002686796732586248 -0.002957342842564106)
(5.000279762008143 0.001691502079335202 -0.002183918913283724)
(4.999911556134688 0.001473308387853327 -0.00294540639160967)
(5.000491444797029 0.00450560096704026 0.000450157029907202)
(5.000875950912734 0.0002867974131413679 -0.004363794636108255)
(5.000217985048551 0.001633749207877724 1.136987648096186e-05)
(5.000656837636432 0.001358383900865566 -0.0001140905276059907)
(5.000445608333505 0.0008372772405827897 -9.575442415749816e-05)
(4.999807519428663 0.003894474151254593 -0.0001262917253890996)
(4.999228022549366 0.002826412377804614 -0.003095680525932615)
(5.000528244076382 0.002183465039577268 -0.0003881966306682076)
(4.999484467040663 0.003074317722701983 0.0009825774344351288)
(4.999882665816807 0.000642760299549675 -0.00034638506114609)
(5.004583208041375 0.0212928383397347 0.007896286928463002)
(5.000165866603495 0.0005448096287950173 -0.0001622902519307273)
(4.997894367374544 0.0001339374062296061 -0.0003780009216452431)
(4.999373920117408 0.003896076923087286 0.001324160439844396)
(5.00065713945181 0.0009236112179667349 -0.001364930511528874)
(5.001445054980765 0.006091474341405478 -0.003420555631656996)
(4.991673098586328 5.600250934172243e-05 -5.588882940281653e-05)
(4.999411201240815 0.004501428357329347 0.001299842588354671)
(4.985301006269923 0.003204811532503702 0.003598334937763359)
(5.00039596698314 0.0003706537560593659 -0.0001968520219346841)
(4.996998050770656 0.004235427555432266 0.01482170704122366)
(5.00049777011535 0.004645988310736921 2.654521791284413e-06)
(5.000591154395154 0.00187708432171916 -0.0003413205289078277)
(5.001004890500166 0.0006074787011976372 -0.0006102341347398449)
(5.003080088735643 -0.001713324988287989 0.009741203738321085)
(5.000329251227841 0.0002837019647216551 -0.0003853951658647858)
(5.00026643596412 0.00106938232187475 -0.0007444260353641919)
(5.000605999196116 0.002437091882045492 -0.002016525211956845)
(4.997842341840384 0.0007444797521492223 0.0002515734626678622)
(5.000326924407443 0.0003309094117416081 -0.0001765463801531356)
(4.999452934487944 -0.002803832737360057 -3.692714807798735e-06)
(4.999663793950091 0.004089957428551184 -0.001888925157331169)
(5.002094523238174 0.002217312575184672 0.001706863687052437)
(5.000985924250889 0.0006800885669286877 -0.0005145070713135981)
(4.999747815486958 0.0005644909478828976 0.0001319316275450887)
(4.999648355653308 0.004871697501229689 0.00216812675115939)
(4.999750723102188 0.001183847970057274 -0.001107115983400352)
(5.003583886879748 0.001750160596991902 0.0008029949595078423)
(4.999971068935083 0.007109808788053061 -0.0002506054932446833)
(5.000087377069975 0.01499667974528091 -0.001473348600297248)
(4.999798832329398 0.001052231207013101 -0.0003360207823521473)
(4.998083754005662 0.0001371103699560219 0.01426229999261074)
(5.000390955749817 0.00111419074197799 -0.0007956873989080396)
(5.000703919495296 0.000866655431488575 -0.000916799032390667)
(5.000024154737408 7.274948896251072e-05 -3.02454435634089e-05)
(5.000810469324354 0.001619293323488682 -0.001082937958570477)
(5.000964232529489 0.0002472926695399614 -0.0004380784636876079)
(4.999429826995684 -0.001182997196183353 -0.0006793802690092924)
(5.000341178876759 0.00127601348453394 -0.0008947834236756191)
(4.999603636397516 0.001393483718204034 0.0002400249447461247)
(5.000141016349951 0.001141152716936426 -0.0005888219660091918)
(5.00111089551701 0.0005792618089194186 -0.002002242641223976)
(5.000213884547559 0.0004503687118725722 -0.0002130368863878417)
(4.987661531873278 0.0002250668976681651 -8.652295436968079e-05)
(4.999701776967176 0.0009518866094020757 -2.421414798155244e-05)
(5.004064199836194 0.003699084067404654 -0.003930561782545)
(5.000320652947035 0.001671311242205679 -0.001037744480198901)
(4.999792273340441 0.001226712534723693 -0.0006300446010458474)
(5.001842715625664 0.003526433379050852 -0.001925755830881761)
(5.002043033556653 0.001052225465746488 -0.001500471563188632)
(5.006411253109805 0.01560352899272316 0.006089066715179447)
(4.964322489434376 0.002709599212107485 0.0004132223393151508)
(4.999407807156901 0.002560233723415306 0.0003103806715354531)
(4.999402784663689 0.0006856421985429203 0.001230243053533774)
(5.003243204372661 0.008771749152056698 -0.01132168248907108)
(5.000416822059571 0.003182633776529053 -0.0001536458629806187)
(5.000283844217983 0.001907524866356907 -0.001984343995669064)
(4.999045657575733 0.001288580260453516 0.001740154525192494)
(5.003018989141008 0.001585380070435766 -0.00202127083181565)
(5.000143828604493 0.004592158739374672 -0.007844580695852773)
(4.97536469720125 0.001818013617817407 0.000620982457641639)
(5.000154636267491 0.002334664339670808 -0.002646629756311815)
(5.000149609503954 0.002724803945627686 -0.001453577048350053)
(5.00061217232407 0.002850751287416499 -0.005488769915580277)
(4.999547952776796 0.0008403992293427926 0.0006056621881235666)
(4.999893418308144 0.0006005223764396621 -0.0001862534406739117)
(4.999760840874696 5.262934770702904e-05 0.0006087515286520548)
(5.002683288533381 0.002850001581521685 -0.001535130096099442)
(5.000198751783546 0.000319573555531394 -0.0003840937589932371)
(5.003400313598668 -0.003140902852847103 0.004232212622951747)
(4.999844903584986 0.000620378772966253 -0.0001813799557630068)
(5.000493480145172 0.001314715586903914 -0.000957369483291293)
(5.000026755942168 0.002543425155346257 0.0005651003440751757)
(4.990029490647848 0.000746560621849447 -0.001535837516797944)
(5.001418670230818 0.00109396629157741 0.001345798969423422)
(5.000219043193232 -9.209159035464554e-05 6.004930003786565e-05)
(5.000310712741284 0.00157251205182361 0.0001292206012211318)
(5.001102019014961 -2.025996905272571e-05 0.0001238873680936163)
(5.000092805693789 0.001384427217978982 5.709231337803401e-05)
(5.000433233582899 0.001513989788939166 0.0004288482094028645)
(5.00005651131268 0.0007025898196458959 -0.0002251600260041605)
(4.998373518503141 0.008456919874743812 0.01876312470951014)
(5.004258209715471 0.0006920724983797899 -0.006684282889003775)
(5.00206831135327 0.001222347936805871 0.00039411707600976)
(5.000434748108392 0.001212978281101342 -0.0001345815782019498)
(5.000457767524736 0.004514685475313338 3.900505898573394e-05)
(5.000430555866902 0.001470105067536737 -0.000255650017470229)
(5.003299319330256 0.0005958023544199589 -0.0006483424887205576)
(5.001141172265864 -0.001312412935577364 -0.000149725291296408)
(5.001793964904212 0.002558225079028038 -0.05638111388480542)
(5.000097339734927 0.001585232705456178 -5.245095661833718e-05)
(5.000326314519914 0.001035312069973999 -0.0003150273366687465)
(4.998855856842646 0.001666935125449625 -0.001248357772544108)
(5.003835429315557 0.005296098402567227 0.008780931089022965)
(5.000259040828558 0.0009845898911429009 -0.0001457491250273041)
(5.001072097754506 0.001136491004524374 -0.0004946168857186063)
(4.99891031969433 0.005629229062083544 0.001460936055214672)
(5.013088455570133 0.0178144714171189 0.002791413608261396)
(4.986712825320917 0.0003732242224598041 0.00131286616385311)
(5.007062255123987 0.002853801651167688 0.002420212380981277)
(4.999588504046381 0.0006800694373498802 0.001118091028311288)
(5.00369540675625 0.001815157718798613 -0.002498762040754176)
(5.000400583211086 0.001356840647333109 -7.596605749750822e-05)
(5.000453488339665 0.0004951409718448283 -0.000291705599290933)
(4.999936927946844 0.0007032613095149672 0.0008763658561514385)
(5.000361532084342 0.0005845295620470442 -0.0003208340319070827)
(5.000174452559413 0.001024621750553444 -0.0003577197924451058)
(5.000190200547155 0.001425491076821313 0.0002055525870810883)
(5.004406989581258 0.0005429825619218773 -0.0009045800963303073)
(5.000569611991713 0.001352351646358975 -0.0003566451232075173)
(5.000879398094385 0.001060934053562629 0.002605390499789368)
(4.999799200284017 0.0007829646490143529 -5.802276960635807e-05)
(5.000054815738896 0.007324973828102109 0.0001643754177009956)
(5.000203926607673 0.000770141973479565 -0.000225765477699696)
(5.000023688112309 0.0008839152749414197 -0.0001201593232102448)
(5.000100743444409 0.0003143004776701142 -0.0003585357358448668)
(5.001061722875221 0.000504692350738514 0.002310856002970847)
(5.000485772721773 0.001373203046967277 -0.000322070845612018)
(4.999983693049447 0.01214371412493129 0.0009931038946892207)
(4.992199220845253 0.0009280678548109319 -0.0004276911342650311)
(5.000040111141915 0.001176898404032388 -0.0004277052205814123)
(5.000565181260771 0.0002396316419030692 -0.0003016292066740531)
(4.996560822060797 0.0001600227297978009 0.0007048861870657869)
(4.998458718044529 0.03394010529446279 -0.01954692988228286)
(5.000865642085844 0.001646694786299897 -0.0009580255342529868)