/*--------------------------------*- C++ -*----------------------------------*\
| =========                 |                                                 |
| \\      /  F ield         | OpenFOAM: The Open Source CFD Toolbox           |
|  \\    /   O peration     | Version:  v1906                                 |
|   \\  /    A nd           | Web:      www.OpenFOAM.com                      |
|    \\/     M anipulation  |                                                 |
\*---------------------------------------------------------------------------*/
FoamFile
{
    version     2.0;
    format      ascii;
    class       volScalarField;
    location    "1.7";
    object      p;
}
// * * * * * * * * * * * * * * * * * * * * * * * * * * * * * * * * * * * * * //

dimensions      [0 2 -2 0 0 0 0];


internalField   nonuniform List<scalar> 
19631
(
0.04254046598940849
0.3328577164217014
0.231891194515966
0.9832004352548007
0.06135809434171936
-0.4114663164299585
0.0309665733610701
-0.6933054995991551
-0.01343534249910649
0.03129811956052989
0.5736718522035361
-0.0778315267321858
0.7032626585321984
-0.09770440362529582
0.04287846016229733
0.08282310549100823
-0.1289786626573343
-1.589377641068418
0.234687739737209
-0.4681102572171177
0.1548243617366594
-0.04968779504314412
3.424972001443739
0.06420855869133617
-0.1460872267355344
-0.4806967224093163
-0.04991141951901602
-0.1094707571705573
0.02692394967076077
0.07012524123433707
-0.08448285232171006
-0.09148025739223772
-0.219418200299414
0.132137900801552
1.556555334624395
3.972943714569581
-0.006484307015036053
0.59285433014329
-0.5313783030803851
-0.4879345265540161
-0.6891185793774697
0.1534558717168496
0.02541387341253154
0.3862828671842669
0.5472913367363305
0.8198703360527888
0.1374048073959983
0.2842619123147652
0.02804598856114624
-0.0347727081865996
-0.04790402118022254
-0.3296947958075858
-0.1530023187363063
-1.059062746136523
0.1751061927929388
0.3294484043441016
-0.08240721926473617
-0.1013083226321044
-1.14973245269696
0.09769333787365198
-0.06864406477512462
-0.4473613245082591
-0.558360084308732
0.07194947448355343
-0.07917536413063821
-0.3591410312654598
-0.1235034999772324
0.0303114228396961
0.7893396472634227
0.0111247339503441
0.06346390999998619
0.8771288996830721
0.2136704064269156
-0.1081775292165731
-0.08995153584268976
0.3283436423554505
-0.05207873025426373
-0.08496876124665055
1.516796150819428
4.508715037165364
-0.01674300433342533
-0.03420176022024302
0.5912331260011222
0.02545021766951314
0.3474082315102498
0.03321233500763964
-0.06379363986333345
0.1555126505812445
-0.1749383184297014
0.03958489207044515
-0.0658471168710341
-0.08336919453480302
-0.06339459272910257
-0.1701921987529616
-0.328918367186754
-0.8830159464572551
-0.11011322930036
-1.40786202543931
-0.1232062476976388
-0.0189560015653198
-0.06053274207699023
-0.4665421511994427
0.1283365593388807
0.09384672801528833
-0.3277664429580879
-0.06591039004698683
-1.520414874062517
-0.1331446498262125
-0.1475146172914899
-0.3710821091492339
0.2949932477208569
-0.4496014135046623
-0.3579485670930956
0.8175692859283884
-0.0300392852571336
-0.359864833457833
-0.01623203488339956
-0.1507732173434805
-0.6398927350801473
-0.1293477316750132
-0.1385094160910231
-0.1768461118599702
-0.2296457114165127
0.07125922065923053
-0.05719576498366882
-0.07770570789887993
0.5113096108585639
-0.01974065499871132
0.06596755324033911
0.1242757046515145
-0.04679317941078001
0.1666992140681194
0.2651005676637453
-0.7733770488218572
0.04841283079379204
-0.3792587978573843
-1.193511345194882
-0.3014398038502544
0.4278632916626556
-0.0966704916165822
-0.5134807254100211
-6.79034056316405
0.1002993178410433
0.1001736107142326
-0.2542814684800968
-0.2907680541014927
-0.03670240090984152
-0.01264544972024184
0.1512459269105189
0.09703549213061267
-0.08547894936144378
-0.0524790322114318
-0.09396148268238799
-0.06119685711279939
-0.08736054071450142
0.1710018036667107
0.1817491785822965
-0.01040284216820617
-0.2843274251845639
0.3971015745990968
-0.05000529498282597
0.2242048253696807
-0.07098064162258952
-0.1509935684707479
0.008461572371651342
-0.4335270309500978
-0.2284821482853351
-0.01916705871953148
0.0002505724836040185
0.07516897117914945
0.02917586442074199
-0.1136375864929156
-0.2195840039184942
-0.1323913092631606
-0.06534884698615516
-0.01145925041533698
0.002164299423857185
-0.1125991453056727
0.452122757537504
-0.01206366457792419
-0.07072689183887777
0.0634488084458905
0.1075416074535608
0.7758499383527725
-0.1090130327746676
-0.1363321775562296
-0.1703283217829649
-0.1609111120002485
-0.1402517374402482
-0.09790838777572893
-0.03975488824265033
0.9976191695504915
0.1828684512509419
0.1126631770648131
-0.09213048402001126
1.755479209339011
-0.1037790678768856
0.1305274947441028
0.5426682422698758
0.4485022449330315
-0.2277854903313243
-0.1960502790553317
0.02980017321713717
-0.2802979260478337
-0.05433970854214103
-0.1905111427044158
-0.05726069686652508
-0.06425137837916894
-0.08286114054404639
-0.08256195592778368
0.1868392315908428
-0.05225262267093021
-0.03488550694945659
0.1089357492643868
-0.007859503376654114
0.1891738436557378
0.0252863062955433
0.09573391354927434
0.1007797419239576
-0.4291353969742483
-1.17013821053845
0.07863392868582747
0.5141047039866844
0.1043761876157452
0.03096548813767999
0.3207794175016875
0.102193196812761
0.03828256330129103
0.4069707995445094
-0.1269223256766918
0.2488136217024333
0.6621645862417718
0.1602431058801362
-0.2911000211458757
0.1282249695710192
0.1505209816761831
1.094376879506384
-0.01156338325630115
1.074573213574851
-0.4407023791909824
0.4730203725725637
-0.493518593969257
-0.06645287403131039
-0.8968608503236053
0.2289677722866813
1.800862419809513
0.1964067146165454
0.1008563117861671
-0.2644148898624837
-0.007868682715802083
-0.5599192574159101
-0.2285834195921394
0.2922665114775581
-0.2153336291887799
0.1201736645406138
1.41898568918414
-0.4580600450210829
-0.1634986847855605
-0.6300497817605551
-0.6349501107658837
0.2467501738191372
-0.4302915117888801
-0.311241068781388
0.09480479787505119
-0.0185611729942975
0.09832174127139114
0.412579267646546
-0.01430797267091216
-0.4584232524685385
0.02412935402840506
-0.5002494427593223
0.2268917300094385
-0.09117391838417981
0.09452564538749426
-1.238282884719352
-0.3836997969874901
0.2476956081244854
0.3544219858562392
0.396131467083512
0.05867114554726106
-0.1226917008160011
0.08575960068228225
0.0723046734537701
0.4613206696088678
-0.4071015849529193
0.789785775030877
3.068717907562686
0.09265936404476674
-0.2132282914170133
-0.4039207229485766
-0.2180145555191549
0.3673338745056232
0.111883415927909
2.463011892365568
-0.1100575213064147
0.04103705829815505
-0.2246616502561301
0.05902228025695255
0.3188060944978767
1.103964837602466
-0.04692699263541679
-1.599036230307398
0.0264925213476929
1.906516851298485
0.9244817330354491
0.03619354487240235
-0.387664563596375
-0.3688012883642516
0.06568710363041319
0.9428906503226908
0.4506330536401358
0.03605720887858873
0.1852820895793641
0.2819152877871179
0.4949334534555969
-0.1632414509401534
-0.2431390917417814
-0.3614639917214998
-0.4027328722650831
0.1635217382442139
-0.2945725385285273
-0.4084044373612421
-0.7940500016916274
-0.2308717950104805
0.3190975128785421
0.3123281803661392
-0.5082766303890534
0.3017080992606113
0.08961204940012824
0.1161723605610749
-0.02267884267502071
-1.448598420427955
-0.3357640455074385
-0.117892843238948
0.7135532299397801
-0.02525176187739285
0.1140957806151808
-0.1391422289015793
0.2164854617131793
0.1538866696110382
2.213640983120488
-0.1157133266471655
0.1591168716415063
-0.956698370398674
-0.5379249845437556
0.2097567980386051
-0.03893651264244226
-0.1181141211803623
0.02997984976057062
0.3600249631503312
-0.1570553009651683
0.1198071148006335
-0.1426718428090475
-0.2176693324463164
-0.1126193983805326
0.0699255138026727
0.07720480440223056
-0.4622125963978139
-1.892733841014784
-0.3184789032892079
-0.666121444747784
-0.04486309007080325
-0.8979808636333416
0.1720557325248302
-0.1679630128793357
-0.7038004361945532
0.1887380311208142
-0.03646538520184646
-1.365213450813356
0.4745222545916824
0.02828979514319977
0.02613200358970528
0.2855580223018821
-0.1581981393505791
-0.4763096487720559
-2.52630479148165
0.05605414125740859
-0.03889066258253861
0.2320468801000211
0.24259864254119
-1.115475414377132
-0.1618029567685705
-0.1842040890202587
-0.07635711862914535
0.0145644888432929
0.628287523338748
-0.5568585158085579
0.003763555891634012
-0.7640620468624354
0.09360297652836218
0.1324842858241342
0.2119342589788564
0.1121633209550989
0.2703728661195308
0.3219910882930281
0.1607319182900405
0.09155038274350434
-0.4050661398533326
0.1063962288878277
-0.1936594088796593
0.1802234076509612
0.1664477291653496
1.282890397143734
-0.1471307644941417
-0.5241789828693522
0.08352788812158224
-0.008011884773264177
0.05966423931834954
0.1798731855629374
0.2867170988591767
0.2554536355373081
0.9228380655749608
-0.1417081903720152
0.2812171270621862
0.05400354670972596
-0.06700878649670014
-0.7715949422323577
0.05152462448299536
0.1673660122892168
-0.1266367945367566
11.48633955162931
0.2612406264048815
0.08728198431857062
-0.2828960201113041
-0.05791784398180212
-0.1663468403637203
-0.6413429307066474
0.4040200822801887
-0.3336864357975525
-0.04842223713211449
0.07155003323221765
0.2173523777792508
0.01616886281315221
-0.03595492277481158
-0.748744896189537
0.1657293364166894
-0.1860801335063934
0.31869026030447
0.07422540195924679
-0.2706755934821596
0.4499740209839792
-0.5112995709562494
-0.1420892720771945
-0.2847492739460455
-0.2231788583455743
1.087140255288014
-0.01847064570452
-0.3246042513085231
-0.467377729836594
-0.2557016060469099
0.3407153165680624
-0.2942394046471847
0.026400658564325
-0.2090855644569455
0.2394460981466756
0.05182537211816934
0.6171673147438053
0.09003032603218414
1.780940474961744
-0.007953030277624349
-0.03772005088068622
-0.4819809946688211
-0.120218819091748
-0.00347872726987031
-0.2891812459752198
-0.2680010799327545
-0.2776175663902634
0.165100100488058
2.524908157957614
1.379854714352244
0.2272342303224658
0.07997662593385649
0.2671829854336748
4.753577789986191
0.3797610207682504
0.1612645147931427
0.1822845166498826
-0.3871082268779317
-0.03119979365382237
-0.1938886340127537
0.3941845619265447
0.8673114157615525
0.03829496296651406
-0.3123649226893608
1.495647889411172
0.05383288897983311
0.3058427493022876
-0.2954563052723933
-0.1145082528206903
-0.4911996162068482
-0.1655151809993047
0.1319333808146514
0.3498232105794212
-0.2504124003722176
-0.03745860035368279
0.2502517914642249
0.1740828548890397
-0.06157380305527198
0.4177564833913489
1.321422449915318
-0.03229836791762864
-0.08759324701467745
0.8526866737063952
0.4433810569971721
1.111747159603513
0.01778456680286221
0.09967094239498853
-2.198664701408542
-0.1525964237426198
-0.07244685112435831
-0.01380641476671577
0.04211718081777424
0.07939895875574135
0.02565944343208636
0.09936150775488584
-0.5436167990551786
0.1056881502871534
-0.09274317695327242
-0.1915050761592242
0.03791083687384674
-0.2096863811868668
0.1831939684615138
-1.424814012395529
0.04334907410321674
-0.4424656466985068
-0.2626852522665708
-0.1533810938447543
0.006614728404145428
-0.3112265463707658
-1.56239733392979
0.7200837391357708
1.78086963885583
2.52563817938003
-0.02974376000011996
-0.1483269525217319
0.06813806156374047
0.1239047558120017
0.337248222259186
-0.1987120323219817
-0.2377910694491428
0.04714428005718935
0.3237973182728237
-0.3541875844311152
0.1603293695366946
0.1995393930308479
0.1490144781253055
-0.7228788224332239
-0.1144411498494097
0.01478760051235048
0.4098629651067325
-0.01603524495006213
0.04504324568305134
0.04853467069963918
-0.139834138818358
0.02676512895926062
-0.265703735684907
-0.1892103752053864
-4.816389754172024
0.05426848733994251
-0.3792712418162037
-0.5138968320710117
-0.1066135140796464
0.06948990385663492
-0.2546630251115897
-0.8277304241723131
-0.1582438593090346
-0.03136655449882111
0.01639803920346461
-0.8138526668442614
-0.2024139580640589
0.1180055753459701
0.004929435122907593
0.304927123157498
0.02859136834638394
-0.7113277909176859
-0.008617958255666861
0.1332869975897823
-0.5638476764439404
0.2571931281428214
1.935535464049603
0.7692914673282381
-1.506590038917926
-0.6439025884786503
-0.8582199268471399
-0.2943302261667615
-0.1752084398342069
2.389452205092983
-0.4628958883419627
0.1669004719577389
-0.254941760416562
-0.5471802575805814
-0.8962574129426478
-0.3396204267851938
-0.215241257675001
-0.03443989967407108
0.4552415224815359
-0.8492838715590645
0.4420981447722677
0.1699292189916653
-0.004621294120367432
-0.1976409177543848
-0.4444871620228127
0.03458138112654748
0.1573640390124891
1.209891077467158
-0.232783127398833
-0.08116515670255049
-0.1790876012301698
-0.08357260483590893
0.07000096570723448
0.3390653703372002
0.2523207825012882
1.136867043507862
0.605207696182004
0.05985771288941474
-0.4578966042132239
3.357816058242986
0.07256383482189155
-0.8654567891118782
0.8713001656374689
0.03096120422007078
0.1192211867930932
-0.05555560001072692
1.144606893991559
0.1004876860663491
0.03998897738417733
0.3770419031570408
-0.02292456379440792
-0.09422677270383477
0.0199783862103942
0.2343173720247499
0.3018784314492957
0.3673048259292842
2.232279375977019
-0.350069023079688
0.09095820561756428
-0.2289286817868829
-0.8469513099072625
0.07612980849525833
0.2743511383314882
0.3454804145506606
0.2386496259655516
0.5679760330893455
-0.4295991580374934
2.511657584648195
-0.5692332526439409
0.4756781776573784
0.6678081229198318
-0.5732580097797123
0.6495145116851764
-0.2897678788997733
-0.03158003738089148
-0.1870672830681479
1.00045225592872
0.6689913836311104
-0.04913037167252773
-0.09160096687049399
-0.3383118563219769
-0.4679781635991606
-0.4797181803653063
-0.4860480990742581
0.1448361256899609
0.1895989571169251
-4.208822101957184
-0.3908534376081991
0.05739754175025866
-0.02072664626550224
0.1560441917473985
0.04508952451089509
0.03167676940988486
-0.09209269255525797
-0.07244089576529739
-0.4555387446521395
-0.1956738246008018
0.6472661421670597
-0.1377034991371454
-0.1368095743901453
-0.1137155821445227
-0.5536965545595167
-0.03596240880042874
0.1199849996223336
0.2271711394043722
-0.5800420610195096
-0.194405168064528
-0.2649647953937389
0.1765714237452385
0.1601342767916191
0.1033287062931784
0.1458915673796413
0.1125501342792174
0.0236816803970941
-0.6451221258040848
-0.4482811785544119
-0.1480458660769145
0.2676549744587657
0.3064162595710019
0.0004783541512059921
-0.4775915790137124
-0.2299929244930378
-0.01484620764864478
-0.08977117395014422
0.02425754416441201
0.4023836752052566
-0.02448515215717135
-0.485322809898769
-0.1169960200998766
0.1656407484573788
-0.2193155994882299
-0.4704421206979034
-0.08095423470632426
-0.3359210862031949
-0.20651080988987
0.07857403138564382
-0.08116293000545509
-0.7027487415020581
-0.4061933636759374
-0.6559878052705216
0.3948241397131791
0.4647680820062097
-0.327750319525779
-0.3558877459291059
0.06468068133676756
-0.3368389488294455
0.1707585598997811
0.2450885420404981
-0.3583447145606017
0.1219572021205192
-2.079030155777217
-0.5186021771533109
-0.3641357032970732
-0.9810827002825394
-1.399480071101271
-0.496601361545989
0.992427359327172
-0.03593229677806688
-0.108529309534222
0.4825710047609767
-0.1649556671170237
-0.1366954709943085
0.07205150920694066
-0.4113522892915122
0.00454380052246408
0.1338154710054548
0.275001088111276
-0.1869191933672043
-0.5218666083518698
-0.2764881738365329
-0.2899309831363997
-0.1848796221899382
-0.3455449683904153
0.01130866886700843
-0.1892984698001696
0.6555253417276594
0.4374808546901682
-0.1105646862657488
-0.06980847695308773
-0.6711835924028793
-0.3666422268898534
-0.6544031712007071
-0.3393971885409082
-0.3827851733286769
0.2046074926609422
-0.1260397202444353
-0.6519530111791263
-0.9556520764991127
-0.3088647771276366
-0.02564387455393077
-0.1225158093725569
-0.0931799814430563
-0.1847459537491882
-0.6444801976049809
0.03458490984608898
0.1372789611891017
-0.4042747211405485
-0.3052130937558544
-0.05425763513539859
-0.4412820169996857
-0.06878666186999852
-0.290473827390037
-0.1219084731245439
-0.1337242009819466
-0.6365973078601393
-0.2285164828323429
-0.4459689251746669
0.3585008028346139
-0.5077640489785065
-0.2140570713781602
0.1002992899568808
0.2998593586427503
0.0229301346151858
-0.2755342162718709
0.07745972233247926
-0.09812885890399133
-0.2499887507361535
-0.03778051361857388
-0.741356022755569
0.9680820948996387
-0.2996440116368603
-0.5007683585113497
-0.4218437362743151
-1.000538787540631
-0.374603675158355
-0.3021528538611742
-0.4036979340267659
-0.1988627151205911
1.586974965218354
0.03883634085118007
0.03537771425247193
-0.1537361829933413
-0.1868378003033761
-0.02079025052882563
0.222191648384231
-0.31828065369129
0.896439625190151
-0.187608330105421
-0.005523148091108487
-1.572516644432586
-0.5418130509309843
-0.1744113660865229
2.403208022105183
0.1093300527776362
-0.4521216749583007
0.5299017657383616
0.351230073732535
-0.3757691334747461
-0.1424044402427915
-0.3825072429257489
0.206852597981406
-0.1045200130217459
-0.0526467879394206
-0.007524462892779742
-0.1447895378735975
0.06472663780164931
0.1122856698506692
0.2403659301304528
0.1931141781898483
-0.1734520173463411
0.6449533134140809
-0.7957889912816706
0.2494014443126254
0.2994966579201796
-0.3304176046697518
-0.1454709928731792
-0.1134574112769701
-0.4426806350460912
-0.1230990944670039
-0.1240450579977462
0.6781023480990978
-0.02319503879919092
-0.1937057503492378
-0.09561362193306376
-0.06138805820305992
0.09819905231424297
-0.2044010896058829
-0.4855606463288187
0.1051212032235844
-0.3146863744385852
0.5605052899166264
-0.1521358637323724
-0.1910722297029062
-0.06102423242344034
-0.01524291701525634
-0.1228082281173783
-0.8433556847352067
0.2357760962394554
-0.06760615510294123
0.01494550150029375
-0.2806668381870536
0.4990575574777777
0.3126733125733926
-0.05147486469255259
-0.5557530514361702
0.2389545924612209
-0.5237041695316618
-0.5423054166268062
-0.3944299989975988
-0.06922225681771499
0.3406455660652228
-0.2402993698451339
1.521488302311544
0.1698266362577411
0.8069620254352498
-0.4847786542920521
-0.2717888593459315
-0.6915910526582287
0.8219891620315561
-0.05915942078448594
-0.3881638234445151
-0.5099489261346207
0.771930190945912
0.1558730092072652
0.09057740137842757
-0.08286141005517234
-0.08350120335684158
-0.002334901730838786
-0.1144245035505204
0.01339531807330139
-0.3113315217263152
-0.5489384319419501
0.9592165636960952
-0.1900921620247515
-0.1403402862948994
0.04445504358131114
-0.09045329453928634
0.07847643307856639
-0.459041783266673
0.07181024563171812
-0.7154839721702055
0.1405641523376827
-0.1237951440455038
0.3197525300121699
-0.01927391602938677
-0.536802507758837
0.1561349848269157
-0.3505323213265044
0.1079475219676372
-0.624786907904752
-0.02728332330222233
-0.6684877852748817
1.689129427355211
-0.3404502645347192
-0.08472907712264471
-0.6072184192961948
0.06329566653667205
2.360083417350597
-0.4116816456856034
-1.190919041698632
0.2360923136513838
-0.410111936047996
-0.3465465035344996
0.1173735298520428
-0.06123543628003151
0.2048173841430097
1.906207775836015
0.2976640914519906
-0.1452769462511671
-0.3380832195493366
0.1780780342675612
0.07759852219056339
-1.071452287006605
0.05977058715468318
0.1038774924113868
0.007164484666975458
-0.2128310287326011
-0.1150771144166793
-0.2168669321295536
1.054249460910603
-0.5772487327088502
-0.03771915250620696
-0.2732116852327383
13.38880596178366
-0.07502150489651985
0.07290383392216329
0.7805729001505733
-0.5017787058855787
0.8693884482422184
-1.367618873738845
1.065468041282041
-0.2681110231578575
-0.4946470944831682
-0.1161184735732008
-0.6497311332967716
-0.1723064523922685
0.1044081612611028
1.448332258473632
-0.1970185558418697
-0.572448927355912
0.7484417423660513
-0.07996063390585022
0.4844116392023246
0.4654377032160875
0.3050896613530267
0.4112208246669047
-0.3978137808874731
-0.1981454598222415
-0.7121024814385188
0.6427457508366212
-1.298479968392307
-0.2025608270626427
-0.08966441584374352
-1.626318814269765
-1.019218105580895
-0.03776620056915522
-0.1721290961006631
-1.069849218844897
-0.9162444157819355
-1.620429526227881
-0.1344636973911542
-0.02299497193839837
0.504356521227893
-0.734271964397979
16.72979126388034
-0.227304887839073
0.04002496038767167
-0.110071204179813
-0.4095829867906889
-0.08776232200441962
0.1942747883010399
0.06207846815449411
-0.03171681027031972
-0.005803268436047868
0.09300159659276168
-0.3061352808639484
-0.8564446396562736
-0.3130788250502906
-0.2089164026219098
0.1315440964790532
-0.50452018427524
-0.1895929880446556
0.207424549822259
0.1413604004921969
0.03401308063332942
0.2091016156882708
-0.192967466103101
0.002369254516494953
2.34112245909558
0.3113831577914908
0.7410133591693578
0.07980279652010687
4.895869521594624
-0.7140486379466899
0.0187211532868619
0.1604134753922968
0.4405111098613113
-0.4866844761907457
-0.2746971124624335
-0.7412996072165319
-0.5532865073527027
-0.4606348794008231
2.10287037651624
-0.1642040215273441
-0.4899122250711412
2.246752907927006
-0.3981264615319388
0.06486530665966637
1.337449580361351
-0.04133450381765433
0.06621120895139804
-0.4978444034486846
1.077874109725129
-0.3305197176775754
-0.5537514410998522
0.1226154809220722
0.4977465808289107
-0.06850077183917501
0.1782032497697125
0.3979903050601434
0.7535732204265538
-0.0430647885350375
0.1429234420689343
-0.1108598644477668
-0.0140552992774477
0.161965983272876
0.4221533845937246
-0.1776713644091201
-0.07474233223652108
-0.192571670323766
-0.3579928383907977
-0.2512613023924746
-0.006568930469683485
0.06857659431623497
0.4097327224091118
0.4729051317243562
-0.0805373311543115
1.639034317311107
0.04191005831601262
0.5707658193819435
1.418660694098216
0.008893842767950553
0.1902650030166853
0.05067258186235203
4.011350366829685
1.891279247995664
-1.404722783665237
3.543810273162183
3.336554973833975
3.56575626443124
-0.0939784540450255
0.1829041903979712
0.6086942212366157
-0.008488787550459896
2.776014836180727
-0.1394590448336499
3.04555043791082
0.05019943254289632
0.04192609839518989
0.05614494460093242
0.06450821948518766
0.05559795776287327
0.1542934971985095
0.1032858132430782
0.1112128790099129
0.1758024676751761
0.1525320675715601
0.4299657287293731
0.06979414099552932
3.740454860589438
-0.1144958403929455
4.065073313532704
-0.01159807296741418
2.916293280922456
0.4925106859754336
-0.1731740379866997
0.1782424462692737
-0.03595540758436745
-0.04392121268895213
-1.503268774969883
0.7147932605091267
0.7162138129013781
-0.1582505628146074
0.3878446654194904
0.4513940255977921
0.2657350145038374
0.2591610128996861
-0.2058269826620508
-5.474116985569506
-0.1256966836286598
0.2295584587660371
0.3344365105274879
0.4662726854920763
1.265197416166824
0.1380050118085637
1.783543531904908
-0.1535745623440807
0.8109146679046589
0.06991409522175535
-0.2782097766144031
-0.11016687099948
0.3375880370397786
0.4138088795932842
0.01331009205773485
-0.6385928272259168
0.4247589699679259
-0.4413409907665523
0.4259925104026936
0.4779141584771159
-0.351686693820046
-0.08671979868865752
0.8639375780551356
0.208734349177417
0.08109698823567181
0.891717697908451
1.147335280246903
0.344932494849514
-0.4088648853302586
-0.1933732285711914
0.06991702608006059
1.184591089129591
-0.537827897141413
0.07332041649036776
1.27571007226602
0.0465290564187373
0.7667638235242885
0.06527672792336013
0.07572135833686354
0.7097527809905658
-0.02805894752693424
0.2069410949530594
-0.08872265983259572
0.6801193486421931
-0.5729459798404892
-0.4813213073526137
0.7106340943843018
0.2995020875724984
-0.1150353439949935
-0.002536956978142929
-0.7831384051402888
0.02144240572038804
0.07482280943408232
0.4182734570491304
-0.1163532007768
-0.2272318167776322
-0.1197539100083494
0.1604782258316805
0.09707201302001821
0.5252167496710577
0.1971331074241914
0.5688327643408927
-0.3576746436729042
0.03708873997286211
-0.06914068947387404
-0.5292596311373059
-0.1151127753119513
-0.2514661936822852
-0.008079609971673301
-0.3520997784168443
0.1582298795242599
-0.01553511866432063
0.176393930506379
-0.08673498170464644
-0.186801459746198
-0.3594510092956353
-0.233764277863842
0.1320615669687145
2.752638293269306
-0.3955601015836827
0.04972390921927412
-0.2359849198262365
-0.03156216125420863
0.1059596442797976
0.06740815324725381
-0.2846141203841013
-0.1891383930144787
-0.4081848158857831
0.2047341235542263
0.7810311043385535
0.1185820036937142
-0.05376606706513182
-0.02307908759788447
-0.6308387020081928
-0.09762115411746129
0.07450738475260746
0.01440196959184696
-0.4505272384759194
0.2822634167433382
0.2055790429912597
0.7610758867081243
0.2220933353002687
-0.00146868531139446
-0.01261925002217761
0.4452742813870167
0.1051621226319351
0.2354366214701206
2.163936378209898
0.04440138184090768
-0.1426232699425087
-0.03632351139166707
2.433892658999671
-0.1177499395610329
0.05793571402787922
0.2373659444959034
-0.4427705268882796
0.1537280594936601
-0.04077355011010515
-0.1157311482795744
-0.180420843642434
-0.3148600584835461
0.2287626448496172
5.261385568743903
0.5947414878947606
0.3113720296722882
2.257733800885942
3.213752052025999
0.2492270410421045
0.3994052255423229
0.8498830428600725
-0.01714166074164819
0.2540784407098662
0.02952381932397152
-0.01299768409862636
-0.0669509310610132
0.2572427977423873
-0.3663904911607725
-0.01692382058358567
5.154481385399538
0.1425477715855472
0.2614939697776607
-0.2418870336131806
-0.1817159320682106
0.2858042685238596
0.05250569307779732
0.1013316919905997
5.952337814361201
1.068507964474067
0.1407580260225331
0.01376534837056617
-0.008002088290441342
0.2544395294757862
0.2633123120320077
0.1336748965600408
0.7268965223581938
0.01484327683126305
0.4793281141315351
-0.1790446994263382
4.023561116343841
0.5165068524868676
0.727138473260211
0.0231279630299482
0.1639828832848656
-0.612358671282197
-0.06172863477591764
-0.01472826365636287
0.766191752558142
-0.1949695733330556
0.2161329275700581
0.1158591247738915
0.09868501746010053
0.348779512184606
-1.371610125185472
-0.2065807470615848
-0.03208545454635151
-0.04654403591507174
-0.7632046817244516
0.112251460923366
0.02143511073272138
-0.4279676728917925
-0.5699231445788071
0.02737972581367034
0.3417965781449266
0.1144458876012062
-0.232420807754487
0.2446953330612519
0.1152420595697281
-0.1595963569311647
0.2917922163056746
0.5156119656664472
-0.6354058388069753
0.1780710059144956
2.173574881190051
-0.1927898568946116
-0.3506993021458568
-0.1852837487635071
-0.4073702007565151
0.287101391251277
-1.555290003476887
4.019011149269972
0.6740073313065819
0.0183785647130254
-0.005727560176506426
0.06617575891029005
-0.02564629091406883
0.1994108846721778
-0.2449535722663453
0.4827583365014366
-1.07300647800839
-0.04948635656454443
-0.2649173091552419
1.542181246377571
0.25385661880211
0.08062468507696383
-0.1198086796235319
0.01190163684614629
0.2524121185887228
0.004262691436477178
0.1120277875525046
0.1495430770771511
0.2762103090023427
0.1471010258968806
0.09168070490712825
0.1218495885465349
0.1837786837407517
1.148622999019065
0.1580219802351403
-0.3592284606283245
-0.05180446761895947
-0.170723219533802
-0.3057044755913055
-0.1636216337803068
-0.1878115516677643
-0.1900526353371593
-0.2740579008549185
-0.04829850584589147
0.1275885899468322
-0.08188731751891726
0.07133124710879019
-0.8137129478183507
0.1400087543188919
0.4261894788559024
0.07577609626812554
-2.194919941243817
-0.4870267852401043
-0.2531768901167443
-0.009273306239385961
0.04551905568155381
-0.08240933144209654
-0.3470997900357888
0.3186578866542824
-0.003540204705209655
0.2163900974683187
0.03353559622452441
-0.08384664371859361
-0.02621248139539434
0.1522923797674402
0.1883087370325454
-0.3752949707102582
-0.1946693685350195
-0.1995785761144845
0.009847742442564898
0.1670303011750534
0.1546203971930601
-0.2025563489487032
-0.1016345921735181
-0.02469669697104626
-0.09074898086802778
-0.0825598197661547
-0.3687493652397105
0.1969774934351677
0.1069745235465624
-0.2338513529888668
0.120141536660022
-0.1316560966468792
-0.2064583950696081
0.2536973471263282
0.6188790061082511
-0.08642019943739179
0.1266025596009116
0.1395633826143678
0.1154553051821813
-0.0176282677772673
-0.3124632805090996
-0.06909124350984348
-0.008735909511587554
0.1346229616569845
-0.0315972460306029
-0.4204758933017041
-0.08893461620699854
-0.137823645934107
0.06506366531788765
0.4134958179672952
0.1054872488562479
-0.1995930487812661
0.01173427181402353
-0.03731618653671413
0.4092974339459228
0.1335886646313042
-0.1594982473935294
0.08070012275035363
-0.5126188782878218
0.05302169922101437
-0.03832455314292428
0.1245130828264618
-0.01531769273941277
0.1148778852728479
-1.408404571899863
0.05325520568120552
0.4800934197005924
0.0176518300069594
-2.284864551139595
0.4100563248967929
-0.1613162783965404
-0.2672582712074849
0.07438257123780032
0.220929422025833
-0.1046238177192171
-0.2886476114351145
0.1751516263317082
0.1155746805412943
0.4161336328655992
-0.06555689647519983
-0.3659704106014461
-0.6007604513273994
-0.2872739267049084
-1.272997150871996
-0.5057619866740571
0.06591132237477601
0.08094821742152096
0.2573804447750005
0.1791114162411836
-0.1741035571093582
0.9466861034617954
-0.001336825300747655
-0.3567911639048897
-0.00246354670571671
-0.1309847147747016
-0.3408837568775893
0.2076379686035291
0.03646088721352428
0.1688950589309276
0.9083020178557545
0.2296238022269118
0.3317944263868011
0.1353525650700796
-0.05704884850416785
0.3844370617263415
1.654027376878768
0.02313413044393324
0.08755741407519325
-0.4280386899042983
0.004077630688520679
-0.03040238263630637
0.01710483212836738
-0.08992281524353042
0.06752584575553719
-0.2518808265992516
-0.1567907114483847
1.735934748783033
-0.06335823920687544
-0.1690118726972621
0.2062076111370036
-0.2295590986307305
-0.2896669900077665
-0.04224009585912091
0.06766279907337674
-0.004053207022956595