/*--------------------------------*- C++ -*----------------------------------*\
| =========                 |                                                 |
| \\      /  F ield         | OpenFOAM: The Open Source CFD Toolbox           |
|  \\    /   O peration     | Version:  v1906                                 |
|   \\  /    A nd           | Web:      www.OpenFOAM.com                      |
|    \\/     M anipulation  |                                                 |
\*---------------------------------------------------------------------------*/
FoamFile
{
    version     2.0;
    format      ascii;
    class       surfaceScalarField;
    location    "1.7";
    object      phi;
}
// * * * * * * * * * * * * * * * * * * * * * * * * * * * * * * * * * * * * * //

dimensions      [0 3 -1 0 0 0 0];
oriented        oriented;


internalField   nonuniform List<scalar> 
37423
(
-0.1090768345952013
0.4206372486000995
-0.4551671592528642
0.1436067452627994
11.25355414563516
4.500179383510229
-15.75373352893626
1.60428038893876
2.842042890274587
-1.497021800800074
-2.949301478496183
0.609734155585135
-1.178477348682071
0.568743192863874
0.1175695403558936
-0.1670323816853561
0.03199155825753245
0.01747128303113532
0.04403026157974006
0.1469775615330597
0.3022684583454481
-0.4932762816054473
9.173163771184329
-4.619835612280714
-10.8530352391279
6.299707080211969
-0.03663266243342092
0.03850906880534152
-0.005963944538223878
0.004087538093771319
-0.1413108107102397
-0.02114191691557429
0.3672354227486052
-0.2047826951873515
8.641122294340247
0.6323287067336495
-0.4695720422386249
-1.396088124290864
0.436389437807145
1.429270728659701
0.2952487435878299
-0.5507676475137322
0.7600004552621191
-0.5044815515932692
-1.140712830795332
1.27052723905973
-0.1298144083530615
-0.455992871238065
0.4871382648588414
0.6011717262063155
-0.6323171200536848
-16.22721314769731
8.767947216573226
-0.06339964568438385
0.005614969203140338
-0.1193895342425785
0.1771742106684114
-0.4483158727305677
0.7971134935226422
-0.05354887732757383
0.1421242976270449
0.04438800597376621
-0.1750283045961194
-0.01148399910158007
0.1012563015400647
0.0303803705448106
-0.005417686380979627
-0.1262189857709883
-0.01484486605316605
0.0529489786508025
0.02704532609694074
-0.06514943875334744
-0.2211440074637878
0.3776539087508946
-0.422999758175475
0.2664898568463619
0.4048086669879579
0.6784360801072409
-0.2644948928833266
-0.8187498543986436
-0.1137759229189905
0.121562372508085
-0.1086338067624288
0.1008473571030517
14.64307617876451
-17.49714982176723
-6.269368243470016
9.123441886978409
0.5960436994703119
-0.08613817857952824
0.09334880003104383
-0.6032543209505655
-20.27601869925639
9.187768463186332
11.08825023609993
-0.1827067915022381
0.1282878857478852
-0.3938969670859616
0.07270114277357891
-0.08581313037067627
-0.1632781483605603
0.1763901359064345
0.1682934656005277
0.01160545130358142
-0.1798372200047463
-6.169701369654351e-05
-4.257583431385297
-22.34171852534394
2.66039525415025
23.93890670333381
0.2135100407057716
0.4012927060996286
-0.1594197230992201
-0.4553830237965359
-0.08543612151462206
0.7037548291694231
-0.01408857645063559
0.1079190434286051
-0.1040964014785248
0.01026593443579349
0.06237963129888083
-0.6389477957338314
0.3314493010080274
0.2451188632837917
-0.02339077388710024
0.04814621047220143
0.08853694256442199
-0.1132923792575656
-0.03871203032518012
0.0161966894299863
0.1201818547910468
-0.09766651394253287
0.3367651601274421
21.34108048977311
-19.30295558355341
-2.374890066313994
1.190581204245415
-10.1707602680171
8.991051481711974
-0.01087241753291908
-0.02530499143818602
-0.04126537646330786
-0.1020300818433253
0.1686004496822658
1.348821633965529
-5.914174750448913
2.195240507256157
2.370112608899441
-0.1287632124117127
0.01922746516426613
0.1279592979435174
-0.01842355073276417
0.5556607387672772
-0.7044912711049325
0.1941085138745229
-0.04527798159046881
-21.0145452504129
3.720773356061827
7.140295185116569
10.1534767094908
-0.2237162983024096
-0.9082369983454561
0.9942242596877383
0.137729036667822
0.3003967830387825
-0.007817012598412301
-0.4393635078942169
0.1467837374619597
0.08288156824406256
0.6238639572216562
-0.07306273539825735
-0.6336827902408186
-3.57455923483468
-21.62602815711717
22.54026307038718
2.660324321619607
-0.9627331761227995
-0.6548323228019807
0.1612806997938115
1.456284799115932
0.5176753660579223
0.2474877634885923
-0.524953620644516
-0.2402095089617545
0.4131083446994777
-0.177877401055038
0.3779943244612986
-0.6132252681938734
-1.468160637702266
-9.298973592972336
10.76713423115197
-0.6952145320242388
-2.720983039962485
1.083858234699607
2.332339336294879
-0.2607533570702806
0.5884255802319266
-0.006872794666460093
0.1938370905316676
0.03903942986453895
-0.2260037258338349
-0.1316851278402688
0.04346568905339334
0.1084937531181423
-0.0202743143864554
-0.4991342497743792
-0.08200405996383624
0.09123135931099144
0.489906950171162
-0.07453858919979549
0.5823100839250486
-0.860696960735169
0.3529254659031975
0.266582033055258
-0.06895526855669318
-0.01910328465603631
0.00714436209746993
0.08091419108133834
-3.213849638327727
-0.5796260412228877
-3.079934049770793
7.320406609161654
0.03074072842911025
0.03219579113518645
-0.02386653288394808
-0.03906998672256773
-0.006541715407481446
-0.07350361502881966
-0.002933685875648132
0.08297901628039663
0.3968878893781932
-0.3817337627936701
-0.1212735984905212
0.1061194717683482
-0.3107601059419384
-0.1571562229164035
1.14635240879293
0.03812179809826358
-0.09567302274478379
0.01771303007476873
0.03983819448809568
0.1112137363150705
-0.2971239559782697
-0.1555349518855047
0.3414451714826678
0.3366653491665345
-0.7790376432128557
0.2161288025688097
0.351531250064433
-1.138149617138126
0.5704895643765613
-8.54410884867117
3.942376670049148
-4.835816436007357
0.07916418284379399
-0.0383369076897609
0.01413508164430765
-0.05496235688245851
-2.38541774187205
1.013614718307823
1.120166081222792
0.2516369421855146
-0.5327601982279796
0.5303520838965018
0.09590657627593126
-0.0934984621006487
0.02451175720028754
-0.2889632151413087
-0.3622570904958079
0.6267085484134552
0.1130117288281129
0.07796480161418563
-0.1554064289902414
-0.03557010152879085
1.62214903166402
2.966120705892037
-0.8853933831758874
-3.702876354932022
-0.00220068751671679
-0.4055136461743523
0.6829542770113289
-0.2752399436092753
0.6097199481324
-2.064555675468282
0.5153439445480427
0.939491782593914
-0.01364341822444493
0.01409927834812001
-0.000455860165397143
13.87071670326601
-1.236712040785817
4.830480731375485
-17.46448539357076
0.7529158300603399
0.08301866733363854
-0.03719764381559612
-0.7987368536670574
-0.1876835453611724
-0.5248263465927263
0.03296444090588333
0.6795454509571771
0.3164410931221651
-0.1484007876740418
0.08616017610910601
-0.2542004816621078
0.001173248175640029
0.0750584559119106
-0.07113716964086642
-0.005094534519511206
0.04201830487579957
0.02254003765764006
-0.06455834256957944
-0.08268886993835164
-0.5333684392171686
0.3553039520803589
0.06525959437152103
-0.03861901803736482
-0.1099021146069763
0.08326153821209939
-0.04406895753665637
0.04229530925002058
0.001773648241224514
0.06260000426643444
0.4314920745566946
-0.06083215936581685
-0.4332599195446966
0.03233601459534952
-0.01768449127098791
0.08412616696677436
-0.09877769034211967
-0.1129549210222606
-0.2334554214614639
0.4576240787592359
0.2955279162091539
-0.0071901311991394
-0.03059256484933007
-0.4632012293342422
0.5379150314873719
-0.04412123739984111
0.1602967106784546
-0.02092531626470359
-0.1717593645506612
0.03238797004360749
0.01744611294282479
0.04950238092114011
-0.02325194449413362
-0.04369654942501948
-0.134381374817777
0.5278742694131753
-2.061388711082644
1.667895816264038
-0.6025729968523523
0.7710757660943067
-0.1274716379271124
-0.156465863476355
0.2089520025917514
0.4117945491524503
-1.182883332405464
0.5621367805351849
0.4665225471303484
0.01406810984964847
0.06354010113963464
-0.06042392605184178
-0.01718428498886836
0.03963584659430562
0.05076328898146241
-0.1835543919586285
0.09315525631273186
-0.6197098119811971
0.5897644225182764
0.2307886751072425
-0.2008432857130994
0.08659634662940895
-0.0423220979345557
-0.1041883110766001
0.05991406231978337
0.1310797325439521
-0.0783313329977855
0.3920885344848685
-0.4448369340660221
0.07255758619916391
-0.08396157786796953
0.1025942857267336
-0.09119029412589187
-0.1037863780560877
-0.1465762860678753
0.379507096568526
-0.1291444324329262
-0.3216936907336799
0.472928332645467
-0.2550210199494064
-0.03321709254853945
-0.02930851742618316
0.1329566354801956
-0.07043102556137819
0.1200896111680129
-0.04520395695679808
0.08646997093248422
-0.1613556252200558
0.1001215681044466
-0.002505721420563506
0.004365942235632454
-0.1019817889620778
-0.06049692359748883
0.03282896310890923
0.1277801125568084
-0.1001121521911529
0.4534679493740562
-0.5441031860562003
0.07286177243715795
0.01777346421394814
-0.4178653851322834
0.6541308094075862
-0.2071521815151141
-0.02911324284936941
0.06751681403287893
-0.2228398873908181
-0.1984459658093025
0.3537690390993647
0.03000551431692637
-0.02451649259677512
0.07035202508580095
-0.0758410468560767
0.6169346914330455
-0.3632081857734895
0.2935724582954042
-0.5472989641418361
0.09510737072036615
-0.0818615186713611
-0.02542266126424319
0.01217680915783804
0.1193122361523982
0.317736364902516
0.02947394597744045
0.4574344559148675
0.1922298640718645
0.6936869221164227
-0.1073447956514311
0.2132296837720025
0.7903774855859049
-0.3099202473400736
-0.2009553985559757
0.1259917341586082
0.1708497763602923
-0.0958861120269596
-0.5248624043515228
1.300018723782483
-0.5643064246986154
-0.8928685220977819
-0.03035553236432416
0.08679169045035069
-0.02142902990292436
-0.0350071282429233
-0.1427219841718245
-0.5129437640105521
0.3694237765460812
0.2862419713120116
-3.174080939587973
-3.01343892846503
3.82360709472616
2.363912773632882
0.3341382240742073
-0.308947765224959
-0.576961119103105
0.5517706600732908
1.82420120845588
-0.4019369791673407
0.4794517818783712
-1.90171601116837
0.3548273175145407
-0.5296729663140949
0.2372252799947055
-0.0562538054487012
0.3258235630628553
-0.5335847717073007
0.2640150140390827
0.1169692732826505
-0.123871879354034
0.0634517156550226
-0.05654910967077879
-0.1252980721488098
0.03876978567848291
0.3173430847918566
-0.2308147983951554
-0.06353917724098752
0.01425389171751428
0.06716632890110216
-0.01788104343910426
-0.2061929976924718
0.01721086834505028
-0.01973603364828109
0.2087181629173115
-0.09695860830301825
-0.4956384186766563
-0.01354411065916714
0.6061411375157998
-0.1366880846955466
0.09548663444044429
0.0412014502269924
0.2244040504967498
0.02029085469926027
-0.166664362711941
-0.07803054261980788
-0.01633162078126619
-0.08208454846884307
0.1193034477452917
-0.0208872785549337
0.06352467443765844
-0.1070409905885962
0.04948600204031998
-0.005969685970102098
0.2904547354605694
0.2270207773902763
-0.6778533278111023
0.1603778148350891
13.66797686585466
-9.152837509718269
-22.48399482445701
17.9688554685827
-0.5887539852166424
0.02216863716549223
0.6133885310845663
-0.04680318317541805
0.1085483117184418
0.02603003259050021
0.001810696055020238
-0.1363890404626995
-0.0672687407391496
-0.5361898501589882
0.6100049917445619
-0.006546400897814155
-7.056134988731105
-5.471645723415564
-17.26558477490571
29.79336548772024
-7.710230061001957
10.96762021310149
4.202537212599779
-7.459927364923971
0.0864809708591003
-0.07741810319705673
0.04284470721473364
-0.0519075749363606
-0.4728573491973343
0.2307487561664142
0.07730233634224999
0.5330586307056526
-0.09353250007272136
-0.5168284670698539
0.2351205552942064
-0.1205904065347035
-0.2611064348586916
-0.2961521354931606
0.5018361919820513
0.431648735661236
-0.6373327923198278
0.01529893565021608
-0.1320721709503229
-0.4563101503238551
0.7451174111033385
-0.1567350899505484
-13.64686799156645
6.193119728201312
1.030855639963414
6.422892623691612
0.08608229064580876
-0.004421126444593222
0.1644547684883285
-0.2461159327611048
0.07514365762140367
-0.06592012543862577
-0.009223532225204665
-0.2302698711611931
-6.976597286299651
7.206867157882929
0.3909851604537717
-0.3703335476210085
0.4802849221519224
-0.5009365350626914
-11.09044289466675
10.43810074805977
10.7886111498646
-0.04226546164525602
0.5291571983614669
-0.0947902358720734
0.08902346242374058
17.94375036813728
-17.8526425287024
-0.0911078392758171
11.72978394465578
-22.81105329216269
11.08126934751241
0.8944106440823998
-0.1432659288602299
-1.559164396303245
-0.05905445828680177
0.1064912608527994
0.01142724607918183
-0.05886404869420734
-0.1142840705888246
0.1775884409681484
0.2294046957813314
-0.2927090661715053
0.4678811148009155
-0.4410224983363057
-0.1988358192484454
0.1719772027260501
-0.1283151671693764
0.5361827473845323
0.4369331780306432
0.0885423574150688
0.05683454841532281
0.482540737997084
-0.6054898199088901
0.02945061970626899
-0.3071729481650604
0.1011211516658385
0.08546138994686894
-0.5362515136136252
0.9253619162584996
20.805218948955
4.73674716836324
-26.4673280337306
-0.5834058242389298
-0.2111452157078624
0.4960647438531134
-0.403601136159348
-0.146920369808556
0.0544567620503055
-0.04540896907908067
0.1861139837409432
0.02517915813307152
-0.1658841728314841
0.3301345747935214
-2.60166847998874
-9.553835079130735
8.941653921161951
-10.41125744928114
6.308887111631344
1.500701857920982
19.28647648898644
-9.00430764882528
-10.28216884011242
1.023299867838821
12.4800914085257
-12.87106256939267
-13.7424611752467
5.969930374661788
21.11109544717306
-13.33856464661262
12.50569999766326
-11.75140571168602
8.447991660240875
-9.202285946310434
1.162174891414161
-0.6078203121740345
-0.2607821211533776
-0.4818271706939075
0.5837848158040411
-0.1442231067897706
-27.17926671726623
10.0460062718923
17.10658488782119
-0.01778139273469272
-0.1340620031414492
0.1882354574864466
-0.03639206169382377
15.8531739253437
6.684948397828076
-38.22519542522407
15.68707310197702
-0.07652563405659023
-0.5955261728695289
0.05882653870348953
0.03618073149030029
-0.1478385415117331
0.04727474859744667
0.0643830613517174
-0.01385037380132928
-1.648862429135957
-1.95007332896269
3.920079243496057
-0.3211434856967933
1.839968329938429
-1.208701426745581
-0.08870334144941114
-0.5425635619083268
1.369551826374688
0.1187618075654629
0.4831134970947095
-1.971427131254119
-1.14835258307931
0.1256073166292534
0.1852324273627162
0.8375128387650176
-0.09352248737127358
-4.808814558718331
-5.294641357214113
7.408750392773262
2.694705522985184
0.7320240568146265
0.1839607453156028
19.38720820416897
-20.85852163801779
-12.27114774161021
-0.1735486062403439
0.4540159207496142
-0.5076634360308099
-0.2812049289684685
0.2759246008012184
-0.3799801008610648
-9.878869709486901
21.2307566215347
-11.35188691189881
0.758866866333219
-0.5960360188807491
-0.6876932519686024
3.784135595323827
-0.0401668196992788
-8.552783334457427
0.07167852320413702
-0.03403438222618127
0.0459837982275538
-0.04100342878598322
0.02905401275928152
-13.81760611137562
14.78431339923739
-0.1925559073234511
-0.01504966085501883
-0.04161293084498784
0.2492184989089643
-0.2246066963215554
0.0163130873634792
0.2819120927368242
-0.07361848385103192
-2.784140301899599
3.552436032475554
7.188280145341609
-8.745568987659096
-3.278527593557462
3.909898217914191
-10.09991540578983
3.405876886222629
-0.02648099466178013
0.02697344807119052
-0.06559090907733681
-25.73395399683901
-0.1667163184811234
1.23270360478893
24.66796671083896
1.852400902431803
-7.945992582867089
2.02077918038133
4.072812499231521
1.892019903428402
-0.3989131185525389
-2.940773165005661
1.447666379878656
-8.748667751067597
3.944513897099252
36.27631815243296
-2.957913378988437
-8.495224810732408
8.175378183783922
-0.781364938985309
0.04584139258372085
-0.04806929638698441
0.7835928426957334
-0.06095125720415012
-0.2720887151541306
-0.1369315280477422
0.4699715002427426
-0.352128509981914
0.1717374897855679
0.0471859207234505
0.133205099336174
0.02668643749192749
-0.02551318936290505
0.03104401224671369
-0.03161574401963076
0.174930902728546
-0.1743591710362722
-6.541697694814492
6.570266531493268
-2.926812763143763
2.898243926106955
0.0008752934256415996
-0.0009780382873767742
0.0001027448545240786
0.0008752934225424607
0.01433738545692385
-0.0135210671643248
-0.1159186861541507
0.07420614752429656
-0.0111548788734318
0.06600119679878992
-0.1290524655194464
-0.1241020601821752
-0.3133111599289506
0.4225243305294518
0.01488888950272353
0.3727621827261672
-0.4695062296453392
0.06457590056575814
0.03216814632063644
0.1503458526694957
-0.2470727185429221
-0.0928910806175615
0.189617946414003
-19.09855386560711
-8.116534185727893
-0.03861383730679334
0.1190768678121212
0.003646756802857419
-0.08410978738383829
13.03283678727523
3.788656808512782
3.270608822438512
0.02621754084822343
-0.3625727711346681
0.04110156473546297
0.2952536654458901
15.26174562129555
-14.01001964890376
-9.592942105050104
8.341216132672754
37.67987499850715
-19.88970771304313
8.041618934472019
-25.83178621989885
5.233373961918475
14.8429895392198
-1.412754239556216
-18.66360926149011
19.14850283810091
3.273984003666934
10.83250952557625
-22.85639919593168
12.02388967026371
34.99772693255736
4.813811212425444
0.8098670807206885
-40.6214052251419
-0.08463090124479938
0.1274695336323515
-0.238067612810254
0.195228980321755
0.1903828677717783
-0.1416658462933041
-0.6214709942367659
0.5727539727720081
-0.1376388246863522
0.2723328548374169
0.07518612430521364
-0.2098801545667078
-0.06262027128049046
-0.003038025026768772
0.08650206574230077
-0.02084376945598975
-0.1163576682741275
2.009400803810419
-0.3974841406392252
-1.495558995039281
0.2959076900245026
-0.5295082230696082
0.2202108387473133
0.01338969427058315
12.10298106236155
-5.693358789711088
-6.409622272499959
-0.2342810629155477
0.1315837880627752
-0.04889904889308167
0.1515963236859058
-0.3537007695604326
0.4940373286149912
-0.2083064087425898
0.06796984960408349
0.1261943581497935
-0.09515034593104303
-0.0527365513950578
0.003827381985837827
0.04890916938034354
0.653694924613801
0.4904357835554601
-0.476854520193941
-0.6672761883258419
1.925733185284693
0.3686126387060984
-1.064908770537473
-1.229437053741156
-0.1371258925938749
0.1086506231656647
-0.09727781221672246
0.125753081576184
-0.05084745464961278
-0.1218868733471627
0.07937151281436287
0.09336281510759363
-0.8176485525997558
-0.7654980849576619
1.782407062400375
-0.1992604249784243
0.3116978110444584
-3.976002472306583
3.357468803425439
0.3068358574275555
-0.8402531307275238
3.431651779812496
-2.609890640991089
0.01849199173152551
-0.4747617222998589
0.2338955823601552
0.3060574235405321
-0.06519128369876466
0.188502669824431
-0.3192090460014633
0.5095031210847949
-0.3787967449962337
-0.06424652806375737
0.06597503983957687
-0.001728511825429181
0.1156823130619577
0.1363313991658942
-0.2520137122407748
-0.06816164946669125
0.003892128724023807
0.07265667235510349
-0.008387151665301592
-0.05928320986792709
-0.0966376297965417
-0.1019299352235609
0.2578507747701086
-0.06164521459899347
0.08977628309050355
0.1510751801356664
-0.1792062487013772
21.18353273912031
-13.63314730438193
-13.99598313491408
6.445597700409309
-0.01002707164037312
-0.04598043365152159
0.00172802867612882
0.05427947656329139
-0.02728243709733048
0.03431379044638243
-0.007031353369504838
1.976536077300505
-2.603865476723349
13.72986241372593
-6.553414509112038
-7.176447904441522
0.03221438173487108
-0.09257883582881965
0.02215599797877728
0.03820845606024665
-0.04414916377046609
-30.23705464873689
-0.1249067488661236
30.40611056157146
0.1129866550670501
-0.06502395257536804
0.2095182590798929
-0.257480961636507
-0.04739039327104724
-0.02741356649914779
0.06599136041873815
0.008812599305238028
0.06897217131720752
0.5921695557080962
-0.2495933011730398
-0.4115484260451119
-0.05442814372363541
-0.00944823705174779
0.06387638071842106
0.0235433091143994
-0.02298207745466461
0.07116340475299497
-0.07172463645688018
0.002825540731179268
0.03952880635712409
-0.01980430405620179
-0.02255004308344356
0.0297580299504245
-0.0222936488611905
-0.007464381131782554
0.008649150518886605
0.06324287630877821
-0.07189202687383787
-0.1422892764577803
0.5677315869483666
-0.4051679697151458
-0.02027434087702366
-0.009315459193567603
0.07848426700550755
-0.08501441968896997
0.01584561180386607
0.0860992019348697
-0.4370601471477467
0.4093569664147437
-0.05839602136463073
1.277720705705772
0.5166454273204552
4.20695117627494
-6.001317309481982
-0.28600150377682
0.1434461820850008
0.04276340729526038
0.09979191431920303
0.08660988158806587
0.01713798365751983
-0.1037478653126699
-0.03072918437045372
0.1149300610398707
-0.6006109693999281
0.5164100926010031
16.45487776889653
-21.11260512495656
-0.07530145990387796
0.1459786382477767
0.001619423137177254
-0.07229660152461732
-0.4968776679738929
-0.003443444576879449
0.5003211122936755
1.532993945896729
0.6130465694718752
-2.263380067259024
0.1173395519313666
0.8111218675714627
-0.05387731670165582
-0.6811040475098128
-0.0761405034382774
-0.2678467224072917
0.2990086927357927
0.09085533433749073
-0.1220173047526752
-0.0701261148932068
0.3728818296490732
-0.3517069591396138
0.0489512442516328
0.1456969452181002
-0.2611307623230431
0.1326364654440499
-0.01720264839253715
9.512626359748742
10.25415097541324
0.06321273894111024
-0.4630908055535931
0.07610578665225765
0.3237722798880256
-0.2271026399174281
-0.4337364838310812
0.5879529467740345
0.07288617695742888
0.01488890454161224
-0.1312592090664445
-0.02291386055094701
0.139284165008077
-0.268928522567191
0.004928470066752421
-0.01029057589158217
0.2742906283160647
1.439165347915543
-0.5646931615443899
-1.671458312249461
0.796986125670515
-0.02997959061144828
0.1241660876195203
-0.1037509441174492
0.009564447026575777
-0.01497212811250653
0.02534354808749729
-0.1018847781271873
0.0915133581151045
16.11354079246445
-23.65922541940888
-3.131029115911007
6.261950814681774
22.87763374510679
-1.37169623566305
-0.1771943719759869
2.176895729811352
-0.6280051222828159
0.1655694620206251
-0.2674124391715282
-0.2452199143527957
0.3470628914547909
-0.08373829067555215
0.01242642027799928
0.02636493963207252
0.04494693070553247
-0.1012090495495365
0.005436785559471663
0.08666808672273663
0.009104177230946114
-0.1326227754886682
0.1727232084703594
-0.06540542448454879
0.4760838852547086
-0.1991340181421874
-0.3732175467673935
0.09626767955861582
3.198528123054594
24.57695053263921
0.08416940433770401
-0.02971059916667365
-0.2506805184644345
0.1962217132146573
0.01288836376027754
0.3925728185955928
0.06283040108073418
-0.4682915835281239
-0.4576384865037407
0.05412805041778363
0.06647214769112654
0.3370382882818206
-0.5205762387373424
0.04924988816097866
0.2570721851197762
-0.6077224157034598
-0.0514269225996447
0.7041096831859097
-0.04496034520392646
-0.02318557260702755
-0.2422591113853347
0.7337418279799502
-0.4682971441680857
-1.610145193776364
0.0805735790091559
1.529571614761047
18.59312162833283
-7.37841726596537
1.818132424865298
0.1590789756058296
-0.2746779775106954
0.05202499543015277
0.063574006352267
9.003636360447063
-32.52163036374317
32.24223555853468
0.03259620221024369
0.06536474044617542
-0.05832509610286584
-0.05173219304844687
0.1462738471482506
0.002787995175477089
-0.09732964933474292
0.06421695315944043
0.03001217651250918
0.05044104168251348
-0.1446701714039394
0.03255517202488865
0.264405533073431
-0.0787911499751163
-0.2181695551908551
0.4239654970255919
-0.2956049980616939
-0.515430669975612
0.3870701709048531
0.07463283915324531
-0.02582872257266196
-0.07683257482123348
0.02802845820197184
0.4466984994160128
-1.122905768277109
0.2701641253951896
0.4060431432150103
-0.1057670594432243
0.05873057668676559
-0.02826497717838115
-0.07057311228804859
0.0613398621963108
-0.1162568742775175
0.1254901243350979
24.22417479970726
-13.01244826249019
-20.69177932881401
9.480052791656227
0.1878583675986401
-0.1625613464280636
-0.02529702121850447
-0.3165621925181926
-0.0326601886833668
0.4583621886268066
-0.1091398074810729
-11.58313035808608
14.84780092948106
-2.131043267454346
-1.133627304261017
-0.02089698159353096
0.1174475173400217
0.01547907983652697
-0.1120296156366033
0.0585659917282198
-0.1699170456009829
0.09533744376532005
0.0160136100467432
-1.287090151746158
0.9547091237742888
0.4559955720182086
-0.1236145441308349
-0.0169292859125249
-0.1920009318002655
0.1969256770801016
0.01200454057378949
-0.8460430026938766
-0.6269024909535212
0.8651251813756852
-0.9796929151970108
0.2079070851409536
2.544863669450001
-1.773077839340877
6.827923766544229
-17.48220619174879
12.43864099758746
-1.784358571637184
-0.1101793773744854
-0.5381977901680048
0.7512256763677558
-0.1028485088073928
1.589287872927531
18.29828926454081
-23.46213637241024
-0.03978608841744975
0.07346198723222193
-0.02963141087075431
-0.004044487989464542
-0.5087956371618916
0.3044724229577303
0.2291288514167586
-0.02480563730558583
0.4886777736277927
-2.142727006943964
0.6839648096284227
0.1740837349006874
0.06218696989277075
-0.1650407813682231
-0.07122992350557961
0.4937570164313175
-0.04412908845555395
-0.4831978973738794
0.03356996941081816
-0.09234035679112901
-0.403178524112651
0.3207730167113417
0.1747458641049289
-1.683626784664305
1.530802328605623
0.1528244559959763
0.1134680959818464
-0.122190476940323
0.02741975800119649
-0.01869737711322858
0.01448336368023694
0.0908384396906959
-0.08887096362541856
-0.0164508397963311
0.0118895843590962
0.02015996903552291
0.1133334262415202
-0.1453829796933757
-0.01021014094245815
-0.06933797501560186
-0.0410319198150375
-0.006204075995955035
-0.2731546762828768
0.08707694844772208
0.1922818037793099
-0.1451128032243844
0.07542012772880501
0.1128437801304551
-0.04315110469263784
-0.1216624964204878
0.06346819685268736
0.1236979908330493
-0.06550369140338749
-0.5994896151511249
0.7177096669918285
-0.0478704107121882
-0.07034964151001563
0.0003992833727101664
-0.5096216726003452
0.09400961466586895
0.4152127745371549
-0.003005521854453131
0.005027672421833285
0.1550555669049752
-0.1570777175016965
-0.3242047311759452
-0.1974173714801885
0.4308727727381484
0.09074932979296337
0.0001265105950930033
0.1783491359325029
-0.158249554150836
-0.02022609246235166
0.008861469544655512
-0.1422316896892465
-0.02447753010679225
0.1578477501900098
0.7813074053001711
3.831363394408573
-3.773608789400991
-0.8390620112382563
-3.887066710853841
-41.59620973569751
36.36318130304447
9.120095143542137
0.05602581581159975
-0.1480628595509267
0.07823641260720096
0.0138006310800689
21.90842441352397
0.1748594971211493
-25.06706464616966
2.983780735623447
0.1489404196722129
-0.1996357272635342
0.04374756167214381
0.006947745821112873
8.162963780488544
-9.824607706654714
1.969695980255192
-2.624458147799256
0.8704147633650636
1.754043384365941
-0.1042700134401315
-0.05366094024022931
0.02718787014754404
0.1307430834514678
-0.05227794519997726
0.03828733714249871
0.01399060801074888
0.1271551399987848
-0.06713403857588764
-0.2377573622568692
0.1777362607502458
-0.004852350531354061
0.001536681441316777
-0.05803156067294941
0.06134722972833957
-0.01585188919270155
0.09439370902064975
0.008980601764636865
-0.08752242166006111
-0.07184192533752766
0.01211316888257686
0.1724115767751009
-0.112682820403346
0.03109433473037761
-0.07641554821386007
0.03701548599184033
0.008305727433335229
-0.05741003539097461
0.003442527662044125
-0.004346541290048057
0.05831404896857667
-0.4961448680449247
0.0913608901819679
0.4047839778146706
0.1133634618406171
0.0821532182661921
-0.1663886895637332
-0.02912799060017545
12.47344293206287
0.7106052153762531
-12.6433059474262
-0.5407421997602825
0.2070958053228741
-0.1258879830450247
-2.270469321640806
2.189261499187648
0.3188543093784821
-0.3599850780356644
0.514353815383587
-0.473223046828496
0.6466674010765108
-0.4439133619718514
0.0630777537260868
-0.2658317929294695
0.2349555311690024
2.236614998163785
-3.674248264006914
1.202677734329778
12.89181354563414
-13.04111259609885
0.1492990505271306
-13.66607815872338
-10.31843569512242
10.16690774280846
-0.2016851155334637
-0.2063424459583747
0.3688840896407615
0.03914347173163119
0.3723080250546164
0.2073418589607703
-0.5796498842412652
13.77471384062742
-19.44230082878688
-0.1713142812427269
-0.03071002489258117
-0.1927889467237138
0.3948132527676991
3.288869719408338
-1.08545272352762
1.716967871512291
-3.920384867042347
0.3897066723001684
-0.9697536033795607
0.506284726939617
0.07376220397011003
-0.01440195386531675
-0.002510969363550448
-0.0580317936002448
0.07494471675796155
0.3712329994913056
-0.4961696597031845
-0.06951662662008436
0.1944532867863714
-0.2570558758419992
-0.08952494851309566
0.2443739092688922
0.1022069149927749
1.298271878075262
-0.5279056353613776
0.668799105046236
0.1345268147096998
0.07694920647136071
-0.1076586504274259
-0.103817370823803
0.2266171216976099
0.3189906373773372
0.01683062289004356
-0.5624383820210224
-0.2427685078819644
0.2195529413541643
-0.00807603620483267
0.03129160260728409
-9.431254657181592
-0.6034983117268974
-2.908674749971001
12.94342771880116
27.98807143321486
-0.6984062302897479
-3.74885704999362
-23.54080815298721
-0.0009610805417340998
0.1416637939302873
-0.06062830924517242
-0.08007440424319796
8.249650077758735
-2.208150140204452
-1.38640471431723
0.7116461450678593
-0.4294085664608678
0.2422105216573932
-0.5244481004643707
-1.219425996111807
-0.2298229201230466
0.0877398335642767
-0.3516052050222825
0.493688291448373
-0.09879627347580744
0.03161133911852964
0.06718493434675624
0.3817371077269278
0.03887090927943743
-0.4268120930597978
-31.97363972398499
7.056119060552674
-3.567941513474846
28.4854621769557
4.354635536465386
-0.6977699191518404
-1.795847218416916
-1.861018398837035
0.0001262609689454026
0.03090793116265171
-0.0310341921684583
-0.1984090803852351
-0.002145804347096115
0.6112228329458521
23.38198017458703
0.07510922449796659
-0.07574349162640551
-23.38134590706378
0.1874041050754394
-0.008105174607943636