/*--------------------------------*- C++ -*----------------------------------*\
| =========                 |                                                 |
| \\      /  F ield         | OpenFOAM: The Open Source CFD Toolbox           |
|  \\    /   O peration     | Version:  v1906                                 |
|   \\  /    A nd           | Web:      www.OpenFOAM.com                      |
|    \\/     M anipulation  |                                                 |
\*---------------------------------------------------------------------------*/
FoamFile
{
    version     2.0;
    format      ascii;
    class       volVectorField;
    location    "0.1";
    object      U;
}
// * * * * * * * * * * * * * * * * * * * * * * * * * * * * * * * * * * * * * //

dimensions      [0 1 -1 0 0 0 0];


internalField   nonuniform List<vector> 
8464
(
(5.007967549178955 -0.009036854311022458 -0.0006852249371632126)
(5.007940612673337 0.01054928541190464 -0.005016408541688074)
(5.003114269951478 -0.004768511160411643 -0.0008203947776544758)
(5.004249062547797 0.01173374209994838 0.0008122536847113574)
(4.998740493462223 -0.008144775968051495 -0.001692733224041749)
(5.002210938019171 -0.002799637568066369 0.001003513667065645)
(5.004015298028871 -0.003323806466639292 0.00147413269958296)
(4.977384781286126 0.01665275482290388 -0.01402477338890256)
(5.005255389837692 -0.004881410989404793 0.002263369450583372)
(5.005285157556444 -0.0005888944248050042 0.0001425399009037328)
(5.001628774380514 -0.001564852184054333 0.002305540022623923)
(5.000324314947417 9.253663648429894e-05 -0.0001665573586117152)
(5.002222448654885 -0.004590805569106944 -0.0002974868396642662)
(5.001007129214562 0.004517733285514412 0.001057036548279989)
(5.001020861127153 -0.002339878615120223 0.003769424872348943)
(5.002606061428041 -0.002732432843063732 -0.0005067068245788451)
(5.00159017203287 -0.008191824420207423 -0.0007934511427939351)
(5.003772639571941 0.01124360163568243 -0.001160059152302035)
(5.004255449718785 -0.0003980560560714142 -0.0008848870375755004)
(4.588700852302381 -0.02988425814866456 0.01577685578090773)
(5.002383519458713 -0.004984913709214704 -0.0003882963157863365)
(5.018429451308967 0.01509236693457573 0.009741512452598642)
(5.011844706617554 0.01393758112951422 0.00268118891243707)
(5.009906433269492 -0.01104819183198838 -0.002828592359985533)
(5.010140994268045 0.0007906833841649021 -0.002099733234500156)
(5.000581885869083 -6.773484004181122e-05 -0.001232179384062027)
(5.002296833096313 -0.01693414321526328 -0.003204730211209989)
(5.002801098931072 -0.003365019698007231 -0.002668901655069385)
(5.002419321523388 -0.0001817479494682792 -0.001501643659366556)
(5.006599413825914 0.008580143456463567 -0.004467914712674626)
(5.004088258834417 0.02373279710997692 -0.008514100979641349)
(5.011400401289159 -0.003464814782774461 0.008695607660225322)
(5.001587835350173 0.001767509173372863 0.04051311416939322)
(5.004149327190387 -0.004146052394336581 -0.0006370282674657083)
(5.005575787607032 0.003553260325871072 -0.001381815483713186)
(5.00363994233588 -0.001616920135566882 0.0005203633140962554)
(5.005107730246849 0.002789365927683833 0.0003954783065282702)
(5.003455083859195 0.004580442286324149 0.0006525000355161502)
(5.011998914397447 -0.002277393832398079 -3.989242823666161e-06)
(5.004446133833639 -0.0003156344814956923 0.0004525267047866397)
(5.000324722897795 -0.00338792226459199 -0.00300474599036199)
(5.002529183266469 -0.0001598137150263824 -0.001521507935460825)
(5.00572210739109 -0.0001516997346364133 0.000741773537889217)
(5.015042422380994 -0.01990247199525653 -0.01187232668740102)
(5.001330834883592 -0.00030433891615877 -0.002407463744075865)
(5.0025556504035 -0.002626977980590401 0.0005970679505419642)
(5.001654733749453 -0.0002787226644991852 -0.002344726875621012)
(5.002798456095933 0.004494953171812848 -0.002022948300264212)
(5.01341593329581 -0.02964350417851935 -0.01498964115568426)
(5.00541020401094 0.0003242450626643609 -0.001246887328976345)
(4.995527061850828 0.01107744582196519 -0.01367762809751472)
(5.009572969212062 0.001587804812750862 0.0002145505148163573)
(4.93551972882035 -0.05795169403439788 -0.02586099967098535)
(5.002085617604611 -0.0004985936950604288 0.0003965067803064713)
(4.99964356792938 -0.01222757956590894 0.0008904093918044617)
(4.99951404645476 0.0001385968808718903 -3.90886070777813e-05)
(4.982288578729768 -0.01204941661252653 0.03028011460927124)
(5.01521276274052 0.03302665713902246 -0.0004243023036271787)
(5.003597868124221 0.005603729989669285 -0.0004386572330413763)
(5.001080302819761 -0.007015380294483397 0.002109349460275082)
(5.005902390767297 -0.0007159234368450378 0.0001314280358621633)
(5.011552575071755 0.004182700489576971 -0.007726225865729881)
(5.007839258769467 0.0008620295034929002 0.0007665235955431605)
(3.811432982048962 0.2376578363347678 0.1020054954306149)
(5.003571225582763 0.0001834592022450967 -0.001901178116693168)
(5.000336405377905 -0.004765274046894221 0.0004625183529362253)
(5.000294598376113 -0.001182142838428598 -0.003374204742484495)
(5.003372828038779 0.0001302537670697145 -0.002729323081341808)
(4.652106091318455 -0.05980788221144714 0.02448972069719718)
(5.003320689899055 -0.0001363604787531017 -0.00277400791068879)
(5.004988044231872 -0.001997095076770812 0.0007113677535712332)
(5.005320865546266 -0.005253243047896564 -0.0003015287670759601)
(5.003881349396276 -0.001238188683984376 0.0001882616902790738)
(5.003252095297116 6.926740901027816e-05 -0.001965170700116343)
(5.010838732289791 0.01047641853093022 0.03900957308401515)
(5.006994291311704 -0.001883424532827833 -0.0002719202422639419)
(5.005943847584692 0.007069513374000666 -0.002699551636421351)
(5.004376486576364 -0.0003691942595185122 -0.0007260126514891408)
(3.869906943113272 0.02801456208227403 0.007108691279568065)
(4.475044387221415 0.03361428269576123 0.02348043279265953)
(5.004068268882072 0.0002816316212761465 -0.001639744825293502)
(5.007400572218192 0.003971638583463763 -0.0004077712600093786)
(5.003111562108886 -0.001021210906454602 -0.0004822234100551084)
(4.992776232808718 0.002806711627123806 -0.00346074211547195)
(5.004629380765962 0.002329702622683178 0.0008111695478878643)
(5.001997746366108 -0.004035199664818497 -0.0005477717260296746)
(5.017629427063548 -0.00596846242752475 -0.06566560567907462)
(5.007191509938162 -0.04802413871304051 -0.02114890625530793)
(5.001584784064057 -0.002930060117920648 -0.0009003570182579898)
(5.002880286801107 0.0006357405659631614 -0.003716323918878429)
(5.001558441912656 -0.003097226953228231 0.002202536898037885)
(5.003189738201347 -0.0004486194294984881 -0.001794244099021897)
(3.446134937983682 -0.009892158398530136 -0.05366963704283904)
(5.002478483226175 -0.002907976923849359 -0.0008745066956292647)
(5.003494280259567 0.001240544109666309 -0.002287145574285701)
(5.003697527622547 0.001177351599513531 -0.002336789361692115)
(5.002165923051714 -0.004254703143871867 0.0001414217612713669)
(5.002130371236317 -0.01806135099034002 -0.001661511281434698)
(4.528983757700067 -0.04579170960795226 0.04003942550457024)
(5.012940505601224 -0.0622712340155012 -0.122360022824175)
(5.002970316582817 0.003852514256095243 -0.002275331180704834)
(5.0023714099218 -0.004789019502051882 -0.001699959830405466)
(5.003683509748447 -0.007259034811399724 -0.002501341796317287)
(5.003509197533012 -0.01306852729257537 -0.007647220028527317)
(4.805503395443049 0.01383429775237643 0.005956342181730593)
(1.528894094377181 0.03909805827395576 0.0310041347369188)
(5.004084727183702 0.000236519063738605 -0.001719766136627165)
(5.004328145128983 -5.209435642576291e-05 -0.001292218553997144)
(4.99804884771321 -0.009875378942162982 -0.0005199155379273676)
(5.006132003819617 0.001145374505323818 -0.002106829473064393)
(5.010920601876013 -0.0159079601530363 -0.001041110923153706)
(5.001319673055836 -0.002376635903018524 -0.0006892641309034759)
(5.001548061014606 -0.002880267064181042 0.001006062485559663)
(5.033239082762101 -0.00634782182125885 -0.0585611805989107)
(4.81796739087624 0.1053981624970798 0.1178239470253916)
(5.003297349004688 0.001682847257563632 0.00719026552842444)
(5.003344279770194 -0.002158003789086507 0.0008148265299649304)
(5.005111584952838 -0.005746240767525466 -0.00149571692725774)
(4.990736592850019 -0.001440327345701598 0.005034982892717412)
(4.971019573902134 -0.009511920479764647 -0.01443981822798321)
(4.947678869957358 -0.03544918942541217 -0.06647221092193568)
(5.00292443371329 0.0002317432415455974 -0.002056111979969678)
(4.998064031780341 -0.0003933834951434568 3.236076115903722e-05)
(5.015998642146429 -0.0003768221646127137 0.003695927547340539)
(5.003522333822005 0.004739927102474525 -0.001196192183405363)
(4.945419201063375 -0.007039043762814229 0.0764510779985068)
(5.003671579018093 -0.001804515397758203 6.547324067048998e-05)
(5.005381939957767 0.0003747831781363202 -0.001253327241587572)
(5.004048019849563 -0.0005381873872120214 -0.0008208633594733022)
(5.004000021767969 -0.001409985911160416 0.00320210794880079)
(5.003898602640679 -0.0002579126637070925 -0.002013340431574471)
(5.004384286869775 -0.000494433083211556 -0.001037791950752563)
(5.004541953003639 -0.0003133801239346384 -0.001065613528072558)
(4.999531689647121 0.001065542636022355 3.880316731435222e-05)
(4.848394737479759 -0.06758853407043262 -0.05883817593012818)
(4.994011606744182 0.05965119827785611 -0.01888995005581146)
(4.943510449529884 0.00135860929666189 -0.0003701625535836839)
(5.011418227265922 -0.01492182127042786 -0.001993459928791531)
(4.983010474294654 0.001386471704815641 0.02093398962664265)
(5.000562698596682 -0.004135941816574393 -0.001230283337428916)
(4.92758452073454 0.03239545850576134 0.03512738979200129)
(5.003649529725562 -0.0005844583931497126 -0.0009517054508603047)
(5.004401059189861 -0.004857685640281318 0.01266376778253311)
(5.000453763033729 -0.001023633785668114 -0.0008941409284645632)
(5.001791964671511 -0.001412796148420153 -0.001115131407265401)
(4.97130836520655 -0.006886853311257353 0.02672210306162471)
(5.005772797112949 0.0004361964281897294 0.0004842730943751139)
(5.004674115765432 -0.005545224575880054 0.002302353844812825)
(4.994125058858087 -0.03481763510406332 0.02519550603588336)
(4.999936816034741 -0.004965997241667541 -0.0004462949337007981)
(4.994876195377613 0.01120613677209315 0.0109888211526661)
(4.998413057531422 -0.0001941518222628794 1.351182392076368e-05)
(5.000323387996215 0.001395789142179442 0.0003488311173688311)
(5.008123285233442 -0.0154238623247693 0.0006883308246623081)
(4.998508863154902 0.01182327018400236 -0.00777535545783165)
(4.486976284302886 -0.003948184337091597 0.08405025081481506)
(5.002889818741295 -0.002924296034248226 0.001313387404911435)
(5.001038528549842 0.003677618207109252 -0.001480081776055123)
(5.000490075350049 0.01160487022645225 -0.001938221721457667)
(5.005495998904269 -0.0002225295061824335 0.0005420498172310705)
(5.003295453495688 -0.001713932213755634 0.00154042238466556)
(5.004397627125682 0.001039626521468057 0.0003978972027442365)
(5.004273315211718 -0.0003704902343633184 -0.001057445659322559)
(5.000576773253409 -0.003054925500839155 -0.001012002950290125)
(5.003757263983717 -0.002373989895391723 -0.0002778921303337045)
(5.004743672082092 -4.124208926272615e-05 -0.001073834972477989)
(5.004051217892487 -0.0002891915454085253 -0.001034494843079623)
(5.000628743544291 -0.003264260890787167 8.073437906207002e-06)
(5.00375061275761 -0.005378529461562431 -0.001560826266247509)
(4.996730385145129 -0.0105967253421241 -0.001601139223678808)
(5.001260987331698 0.001315019982453513 -0.001376227533049559)
(5.044249211779895 -0.003749927395445222 -0.00376999198335632)
(5.005306777731158 -0.004276415267186875 -0.001973863484597161)
(4.999855049808656 0.006667780292948696 -0.001870243271716712)
(5.029994390717472 0.0102263628660985 0.009069588337766978)
(5.002955642458572 -0.0006540290066676058 -0.0001934950907747346)
(5.007007991301639 0.0007905358206756615 -0.0023115042075629)
(4.994920568121275 0.02992457864430167 0.0335504240273334)
(4.745640562966119 0.04780745487381617 -0.05749512302504744)
(5.005658561244227 0.002131320555613175 0.001280283612481953)
(4.788622783480135 -0.05368067937311859 -0.02717787732355665)
(4.999992582095501 0.001972006305730268 -0.001176289295878737)
(5.002417094905146 -0.005514532203528551 -0.0001619666278444018)
(5.001924394684647 0.01239056814898151 -0.001162440617697212)
(4.67323953426004 -0.05459887447976591 0.04634344946723936)
(5.002790443583378 -0.003237279222146253 -0.003010637009560986)
(5.007322616070338 -2.197772699729847e-05 -0.001713302212950039)
(5.002630157686276 -0.00521539813995441 -0.0005992997682441045)
(5.002292542994711 -0.002860860676308004 -0.001256800509227933)
(4.423125200538379 0.05916777359817774 -0.06106375026407244)
(5.012926975850482 0.002475063931498736 -0.001040822457609337)
(5.003484837966509 -0.0002454656119279239 -0.001189348636187277)
(5.00119210498847 -0.003167805898555642 0.0003006660691087978)
(5.002216500590011 -0.006749340462310599 -0.0007860392856441184)
(4.999425935280543 -0.005215944667198263 -0.00222068551105113)
(4.995186688344897 -0.01412080530249885 0.00587025751309443)
(5.004251821604394 5.593253350656303e-05 -0.001757818949073241)
(5.001949392466605 -0.004700198206919809 -0.001456088616345718)
(5.004858946530113 -0.0001345877219245518 -0.001080876486396075)
(5.001427844864267 -0.008786209506777363 0.00107106372204896)
(5.002149879160195 -0.004604166735481524 -0.0005214278391713617)
(5.004065120890741 -0.0003821682870808812 -0.001098166805209206)
(4.99995067717826 -0.0003443094024787987 -0.004160304614676626)
(5.003699226390383 -0.0035243561661163 0.0008588715952572309)
(4.871136253287273 0.01533058563816433 -0.004692699037488168)
(5.003990989575431 -0.0001201101169076389 -0.00130917492882614)
(5.001295920404415 -0.004160307710843885 0.003073269283791963)
(5.004079036318663 -0.00222246013721898 -0.000403873652392605)
(5.000704836913688 0.0001190196466288079 -0.001548341709197428)
(5.003271904862604 -0.006323653171191572 0.003037674313512682)
(5.033836790437164 -0.002456821202553874 0.04485352603011952)
(5.003818621492702 0.002657725305611047 0.001154149572766804)
(5.004443708346304 0.001557247556030841 0.0006965300969484533)
(5.003919058204422 -0.0004088310956199687 -0.001235654808889457)
(5.003787977072449 -0.0006993788513081164 -7.488938345523137e-05)
(4.999303161217142 -0.0003169326613737299 -0.0005613631304317719)
(4.98174188576057 0.001285431383641609 -0.004882009577162986)
(4.911920983844949 0.02994069878939801 -0.01011118866091004)
(5.00439653796347 -0.0003872925216624695 -0.0007066550512567554)
(4.915615310914831 0.3929548092874248 0.161988817515655)
(5.001358749021257 -0.002087619503339346 -0.001304923334116537)
(5.002809867413623 -0.004155021413702668 0.001181286726501301)
(5.010151341655291 0.001015613046655745 0.003334442979346785)
(5.005186685259658 0.0004797980787698804 0.000685774410136835)
(4.99916895994942 0.007978021681213429 -0.001553035017360121)
(0.4868902636901771 0.0717429401973315 -0.06044750257781128)
(5.005798916847774 -0.0002700362248331182 -0.0001717950412056292)
(5.004532864511129 0.0009343115326863481 0.0007552104730348811)
(5.005155442849616 0.0002181658402593393 0.0001866018382680985)
(5.005343598375005 0.0003437785185108438 -0.001281745190365535)
(5.010064280909072 -0.003049626824673744 -0.0003333266771669627)
(4.965942047637443 -0.0002083904413811792 -0.003755573984251645)
(5.004859423359558 0.004278344956356731 0.002025612118598448)
(5.005745369430365 0.003143084070367655 -0.001438501660087965)
(5.006834849210783 0.008852002577149673 -0.00125502879583228)
(5.00353358683181 -0.004085161737270145 -0.001920821373980757)
(5.001947287519189 0.001443233390866328 0.001386199461819308)
(4.806054924955594 0.1481793415429656 0.04511790312178465)
(5.003457271339808 -0.002437696333464954 -0.0002930180306689944)
(4.432317229670966 0.08448676814605476 -0.02904872451506165)
(5.004890361568083 -0.0001749903059190709 -0.001294808898267)
(4.593072981279849 -0.1261309099489476 0.1977422303182947)
(5.004856645951425 0.001651186634371361 0.01027704604591836)
(5.003434792213733 -0.0004975340926295561 -0.001132925965152144)
(5.001070781763443 0.004237161973808958 0.0007314686419636266)
(5.009658516434169 0.001427334863323249 0.006387172116317789)
(4.992476722603321 0.008119515868718154 0.0002764183569045752)
(5.008857749811617 0.003570068471409725 0.005456999029844286)
(5.003361189512713 0.003487208816539846 0.002078718072160508)
(4.995864381192061 0.006582807644656434 -0.007356093896645101)
(4.947236357746137 -0.007091592947558588 0.00703737284926464)
(4.991511219622859 0.01276232488783227 0.00412301932853513)
(5.003706995676908 -0.003252464900160041 0.0001392104004458392)
(4.833001133103124 -0.0174296146922971 0.001495291325526655)
(4.993203413746613 -0.03804464713074172 0.0004150666258822548)
(5.004900955818877 0.007988745687633044 -0.003604418882190061)
(5.006863328797969 -0.003036578696833636 -0.0004507790974391133)
(5.001676692529187 -0.003368373495892595 -0.0008252246936651787)
(4.999633999546917 -0.0009174741442289411 0.003964577820983468)
(4.996487786564037 0.02650173026542295 -0.0003478549265152754)
(5.004218088942407 0.006532507745100922 -0.002851261272545636)
(5.018746277276315 -0.002501321156655608 -0.002030974969925615)
(2.554577610219145 0.2841049041473612 -0.0840901027096634)
(5.004599608971443 -3.218440510633783e-05 -0.0009989890696719703)
(5.004712674072996 -9.582737292966882e-05 -0.001070447534875907)
(5.009740831353824 0.001693534922412141 -0.01407686975416908)
(5.002532127969399 -0.003720302499278059 -0.0006998379895179945)
(5.00141815836019 -0.009156627599572961 -0.001621905276445628)
(5.003313571871267 -0.0002229311721500136 -0.001596550812051311)
(5.000171453926859 0.002611285575109082 0.0002125701692268511)
(5.01355046806473 -0.009376383597216974 -0.001360117260760235)
(5.00397476508881 0.001539479847074448 -0.007198146192298602)
(5.004010074292629 0.001501647836348142 0.0007549895459027968)
(5.003602454210352 -0.002639277559322583 -0.0003283936994830285)
(5.003541877460923 -0.0004943856486629988 -0.001095455755960907)
(4.952967968886073 0.005787350612053628 -0.004213343092178082)
(4.995676535734177 0.005446134036288757 -0.008083958061825)
(5.015378155769653 0.01099085530132426 -0.009553919124398749)
(5.005119861382472 0.007439141579294373 0.00209439676349796)
(5.003556117722213 -0.0001026903966782884 -0.001785920066161016)
(4.934814266511044 0.04242187505840601 -0.006394580900704179)
(4.45380930088237 -0.1178205350810736 0.08130319289290643)
(4.970696716466638 -0.09345644688891035 0.007770527643721063)
(4.998834764894547 0.001031859815265987 -0.0007980076657967144)
(5.003954342654942 -0.0003407024096929105 -0.001140135597350368)
(5.00212095978573 0.0042054684314261 0.0004173951833368258)
(4.985666447510848 0.069325051826735 -0.002221454157308316)
(4.7058565862998 -0.0754708923864921 0.03966157524698907)
(4.999723677265488 -0.005804010368741233 0.0001908164774201149)
(5.004027146855379 -0.0004315055369613733 -0.001028095570129192)
(5.018121216895817 0.003738651336590588 0.001310471189984784)
(5.005019736843191 6.711299135043427e-05 -0.00143452536538066)
(5.003657408323513 -0.0002880009233701605 -0.001055569269446847)
(4.99987217375967 -0.005901330961941666 0.0004284988427906747)
(5.000003789183052 0.001262666302324418 -0.0003158412618527979)
(5.003218297354309 -0.0003905315097060489 -0.001488156289205463)
(5.011134537205286 -0.006076025813862166 -1.563089995299893e-05)
(5.00304267945663 -0.0001831261729258168 0.001953661458281033)
(5.004686574052899 0.005902478814806119 -0.0002224022868446991)
(5.000796937977277 -0.006215130417560407 -0.0002376260254010466)
(5.003752249839635 -0.0006873495995599258 0.001337396996721786)
(5.003877372161488 -0.002907201968705966 0.001737431548250609)
(5.001226039748463 -0.008653423684334981 0.004508559670016953)
(5.002343480192627 -0.007497331228560173 -0.003345085964593007)
(5.006295438235711 0.001239491110617957 -0.002101308673717701)
(5.001077470767811 -0.007258482848892623 0.0004681762830562577)
(5.003931954069002 -0.001845655263740257 -0.0004161520158521237)
(5.0009780601541 -0.00545953486182553 -0.0008074430870395765)
(5.004478730686693 -0.0003161149556613514 -0.001505757658579455)
(5.000554242254511 -0.0006666348175414596 -0.002752153915300233)
(4.702716638464302 0.02505044820946482 -0.0443001784192241)
(5.004208983834432 -3.993896043255055e-05 -0.001647629165161784)
(5.004094637233361 -0.001336358686615655 -3.069348587495423e-05)
(5.004793484326416 -0.0004575006908073488 -0.00109941756621783)
(5.000871553938768 -0.001059628487215797 0.0007249386364967762)
(5.002311627488526 -0.0001266063048487431 -0.001538636710159853)
(5.004931761044983 0.0001975474129759928 -0.00128731079855201)
(5.002919522708686 -0.004319295410166147 -0.0008833931902494544)
(5.004006369891875 -0.004164478252603873 -0.0006620603061603539)
(5.00765900890645 0.002739639416473287 0.0008254888353548559)
(4.997926016278975 -7.794084672222141e-05 5.981408506890421e-05)
(5.001694698068119 -0.004731718429399363 0.001006984751891073)
(5.003815638265139 -0.0006108640381835453 -0.000800952090434322)
(5.002254399323992 -0.001897666712819744 0.000979998797108353)
(5.003157153043793 -0.006481066686275764 0.004679192616321441)
(5.002539915588285 -0.002244539255901666 0.0008622118090634831)
(5.000139899875447 -0.006798641376202845 0.002187168739818277)
(4.999921989703521 -0.007217955646754714 0.001268685848427765)
(5.004498669585102 -0.001117631908411214 -0.0001941186815223719)
(5.002946073927186 -0.002571863876380307 -0.001916723270203868)
(5.00097982548606 -0.01109200660831531 0.0003865072982953112)
(5.001946831928642 -0.004865827397793276 -4.216615268204315e-05)
(5.004247022671382 -0.004207566947691769 -0.0004022278898313736)
(5.001919029881378 -0.002637080927978587 0.00130918027628118)
(3.979172899947227 -0.061092075336776 -0.0258427865355254)
(5.000905512565289 -0.0009217722526925697 0.001025593454182955)
(5.000268304618822 -0.003816061475375858 0.002898585792360167)
(4.999566829809709 -0.004802789571512565 0.002960206001898483)
(5.003542169064042 -0.0004626712554012575 -0.001065430235462099)
(5.000903768765891 -0.005328115833834489 0.0003747655850811785)
(5.003783023739889 -0.0005954598975982422 -0.0008243791547994931)
(4.999064741190939 -0.00643503725514457 0.000664573027966834)
(5.001341117906165 -0.007793030613641247 -0.001231099137643745)
(4.998878333635414 0.04091880096020893 -0.01410795265906137)
(5.006641348851011 0.002330151083535549 -0.003199330118942654)
(5.003544911374246 -0.0001244402082638321 -0.001764852585701257)
(4.939265696351888 -0.2038964336740408 -0.0525316429350119)
(5.008180138552064 0.001694822380331869 -0.002477509021082983)
(4.947802514322242 -0.509958125548434 -2.03283332717311)
(4.998494986181879 0.0005749329044421786 -0.0001547923429573271)
(4.991789821297092 0.002657270405672997 -0.006136541163818955)
(5.026058074759588 -0.0727865830087744 -0.1486003575528772)
(5.006924493280915 0.0008136293221022217 -0.001723373491883509)
(4.940537014181102 -0.1496690932220726 -0.07175899533728483)
(4.999570279093917 0.005137720768549773 0.07185061737485907)
(5.003662002554065 -0.001071913448113504 -0.0133853040518778)
(5.000263834914433 -0.008639675787209592 0.001791612704058163)
(3.936387703527695 0.1341405188490918 -3.373391190377234)
(5.003730927457709 -0.0001748568176558418 -0.01309138026307592)
(4.79714291874478 0.1706747486468973 0.2737564661483451)
(4.995234860020363 0.0003988232816347527 -0.003795772534614979)
(5.004877781222453 0.0009477405263538546 0.000803305873869223)
(5.001775375485164 -0.003582360152204251 -0.0001780860119567732)
(4.997511216854615 0.0003067229987933547 -0.002485659750266444)
(5.00363265521729 -0.005953435097090978 -0.004762589005265752)
(4.944670176042133 -0.6643601885080227 -2.314970117898841)
(5.065114781291304 0.01072311175962844 -0.001457664732802992)
(4.941573775079886 -0.151964693292144 -0.1249479835818183)
(5.019966312857042 -0.005836964972297696 -0.0003850080712399357)
(5.0127488815707 0.005034627650033956 -0.008666558295420273)
(5.101185507181169 -0.0123354753148617 -0.01402347950486022)
(5.066849241201378 -0.02222091239120081 -0.0147967454493375)
(5.009246553192848 0.02044235582398132 -0.01101151849552246)
(5.007093692686071 0.0008553255847654777 -0.001832514179184804)
(4.989432194222573 0.00203660090383168 -0.006888233611231372)
(4.968248390978412 -0.1112894903993708 -0.04721077936288058)
(5.030630788112018 -0.06696786931643058 -0.1410562116435098)
(4.994758930095148 0.0001180937129976652 -0.003945826424090185)
(4.988110996873377 -0.01202902688163178 -0.003780507213158772)
(5.005936293099214 0.004343963938314448 -0.002989470991831175)
(4.992555720061127 0.002990861224983766 -0.005899592606855904)
(5.012335829389606 0.0196901382474729 -0.009983447779104577)
(5.000167540235872 0.003083507517733636 0.09112263619376906)
(5.007152650146696 0.0008573959615967655 -0.001985220983760433)
(5.05720772107488 -0.01876971214970691 -0.01469509338079787)
(5.002141355459545 0.001050753083096543 -0.007686445474882458)
(5.004512852325256 -0.0004280045994334522 0.0007042488012573557)
(5.004901987011834 0.0002091645159506446 0.0007106694855900481)
(5.061805263781956 -0.01698340577600994 -0.01324806917207941)
(5.019417856920314 -0.09199399384419249 0.2030867396856261)
(5.005852953121466 0.004313068713439509 -0.003052632643112493)
(5.004759345584851 0.0008184784997299269 -0.001807580603792317)
(4.999364120622346 2.376379577181226e-05 0.08720154479156371)
(4.440471479597983 0.2605170667387902 -1.735373056621878)
(5.006051136772823 0.003887154827238783 -0.0005261006472117584)
(4.169770982346107 -0.5854281979657844 -4.283442673378066)
(5.009603755818797 0.00299974978361623 -0.004720075099543428)
(5.002723331156242 -0.0004525137729281111 0.001116875916934737)
(5.011208777836514 0.003829474486674841 -0.007228315167027427)
(5.012435878897379 0.02087296407672905 -0.01029285267436734)
(5.00193157466287 -0.008128804110601882 -0.003549375816343613)
(5.003273994421175 -0.0002463429700186395 -0.01442088397569641)
(5.009433393401526 0.002799023167633953 -0.004509392625934131)
(5.000176349056764 -0.01080980708586925 -0.0005219715827050477)
(4.99916719931667 -0.008056584417821583 -0.0004788885238339677)
(5.001041452077756 -0.01089795412173788 0.0001476959139360336)
(5.003039166754323 -0.003754152436274773 -0.005771822929536197)
(5.001169085934882 -0.003932031540829932 0.000111469785027401)
(5.005851851305764 0.0003633955993686924 -0.006975782757415581)
(5.000396501194904 0.003432316193318967 0.006705244774720953)
(5.000455445074099 -0.001606514315123995 0.004226485511210544)
(5.000488346914666 -0.004519542833159307 -0.001508157675681442)
(4.939242141695612 0.03108132945135653 -0.001485445975473379)
(5.000879312273866 -0.001095423916404614 0.003098795458528728)
(5.001741825425481 -0.005112350493029746 0.004262666269914081)
(5.005221581413893 -0.001235116586466468 0.00145823279442853)
(4.996767935802541 0.003172356824484148 0.002620299064228913)
(5.004180824161526 -0.003641698613516597 0.003047208390304951)
(5.000736314660838 -0.002932248270861907 0.0006935114142805521)
(4.999375357596483 -0.008817876652710841 0.005827703772143338)
(4.999728134112359 -0.005177000054264202 0.0003365509777710286)
(5.000052159375659 -0.006491380660293357 -0.003065728347131261)
(5.001907051490332 -0.003436642093696653 -9.360342003402112e-05)
(5.001937311649174 -0.003678550651035053 -0.0003265471793968717)
(5.000957693348936 -0.006787296052476173 0.0003733457878777242)
(5.000657632999809 -0.007174825322263054 0.0004016351941011821)
(4.99995417405823 -0.006542774575392762 -0.0003393485625750654)
(5.000358322914324 -0.006515156223970369 5.073746825578698e-05)
(4.999954910055243 -0.006601061623955309 0.003856286327270986)
(5.00198774334074 -0.01204444491002065 0.0003747853068920962)
(4.995024573906107 -0.0008596259351959026 0.000537619582475981)
(5.000477132482102 -0.01035755747006193 0.0001186082762575447)
(5.002567656343378 -0.0140929262091241 0.0008825297408428808)
(5.003006170578516 -0.01092227735157354 0.000157311391806578)
(5.001849061624611 -0.007897597263953187 0.001063064276661921)
(5.000571086285016 -0.00580286408638092 0.001721324962645268)
(4.999997156075621 -0.007196836682743048 0.001475743221453836)
(5.000609685653973 -0.006776033718901391 0.002326272795425766)
(5.000373341657587 -0.008551085809835914 0.001893185572301482)
(5.000730464141974 -0.007168285479621846 0.002025176952102544)
(4.998989389165882 -0.01653150843427531 0.009308327309857995)
(5.001803456134236 -0.002878223143488659 0.0004241204481680393)
(5.001821802377181 -0.005622582082379603 0.0002315978564834509)
(5.001254070396785 -0.00409715700701391 0.0003928615944455129)
(5.002889958592366 -0.002204091029087724 0.0007180344655151736)
(5.013683895495446 0.001597138205493078 -1.372569818711681e-05)
(5.000892929342665 -0.002937941831672487 0.001344520381513383)
(4.999571124404468 -0.007202036790019495 0.0004058205410133805)
(4.999349390133092 -0.007354286343660176 7.420630463282328e-05)
(4.992565485028803 0.01300052992677593 -0.003978616614581093)
(5.000237841758551 -0.006821022876390744 0.0004543422454567107)
(4.999209594947896 -0.006541879883862916 0.001055116201155503)
(5.001946163525415 -0.007127047090458892 -0.0003387881796380391)
(4.990666254957121 -0.01581668601637573 0.006471440674172058)
(5.000502998610958 -0.006802139335460923 3.363355149026518e-06)
(5.001698212731261 -0.003386549967170689 -0.0001369904840889551)
(4.993559638402242 -0.02474866452412075 -0.003572213788054637)
(5.001822530916678 -0.004424288868913668 -0.000123500818980761)
(4.997506996713335 -0.006744998855566849 0.008175947782771536)
(5.006373561836261 0.0003587268579398338 -0.001246881171616992)
(4.995501370979239 -0.02398618831687726 -0.006439344720424472)
(5.001574730874846 -0.003103655083599888 9.779450741219992e-05)