/*--------------------------------*- C++ -*----------------------------------*\
| =========                 |                                                 |
| \\      /  F ield         | OpenFOAM: The Open Source CFD Toolbox           |
|  \\    /   O peration     | Version:  v1906                                 |
|   \\  /    A nd           | Web:      www.OpenFOAM.com                      |
|    \\/     M anipulation  |                                                 |
\*---------------------------------------------------------------------------*/
FoamFile
{
    version     2.0;
    format      ascii;
    class       volVectorField;
    location    "0.1";
    object      vorticity;
}
// * * * * * * * * * * * * * * * * * * * * * * * * * * * * * * * * * * * * * //

dimensions      [0 0 -1 0 0 0 0];


internalField   nonuniform List<vector> 
8464
(
(0.03147673976328698 0.02204890486044467 0.03477418840182096)
(-0.0007808665331130006 -0.01416207620873534 -0.02150008334626132)
(-0.001209816519141875 0.0004600060481075846 0.002808227217118377)
(0.02367101448219567 -0.009249277984370568 0.001894842760013124)
(-0.007488102101249161 0.01444221595892388 0.002279480508648051)
(-0.0003362728656531799 -0.0005427563553850421 0.002419789289650372)
(-0.004178705028276899 0.00167739415409139 0.0008512170904257904)
(-0.08210234821371933 0.1661318720403865 -0.2587404888945028)
(-0.002404888617526002 -0.0015314052212437 -0.0002434586472590553)
(-0.0005973589159010341 0.000263791619298023 -0.001274071129337196)
(0.002933443333361364 0.0008911200748860048 -0.00226925338266068)
(-0.0004118246789764589 0.0007897352404643978 -0.001493939453239474)
(-0.0006716633809385237 -0.001952168648331496 0.001624759285217357)
(-0.002719976596699442 0.002037803547398998 -0.00232752853649698)
(-0.007050871119724097 0.005301049370037392 -0.004485457665323445)
(-0.001111841450446691 -0.002133155728079065 -0.0009265840268654291)
(-0.01373093394467107 -0.004273657364478657 -0.0009917184742868148)
(0.1421910054365987 -0.0167370757395886 0.103167147382764)
(0.005358206531009238 -0.003585452961405328 -0.003260119999469306)
(-0.9837145028534559 1.830467798044627 -9.284035382329556)
(0.001251276530530353 0.00186689117899763 -0.002449333697728775)
(0.0520354890261797 -0.02935939414479205 0.061833985044509)
(-0.3814435842535118 0.01476969869530072 0.1738249851543689)
(-0.06826508153898393 -0.03538802615647816 -0.08723173875708394)
(-0.01413854880303226 0.09978014803135082 -0.09417206599608306)
(-0.001426666248944036 0.005882597207577527 0.004635454157109357)
(0.05159895491248114 0.007975052303562468 0.03999955955219882)
(0.004773352298998105 -0.003774655675807383 -0.003719806547416492)
(0.004534574706063086 -0.00683836866747969 -0.00853429487857486)
(-0.1236782320638736 0.04184748003330988 0.1094392937497215)
(-0.01357182849846082 0.02159682887438989 -0.00812104126296993)
(-0.03811890431251914 0.00949201525500833 -0.002459605748923441)
(0.3505362655038493 -0.2616013186139131 -0.2737243933590399)
(0.0005290579571493472 -0.002514794758639178 0.001128911327383251)
(0.00282578680066798 0.002248057772569736 -0.001790566119503013)
(-0.0006791522243968745 -0.0003755868117023231 0.004367580971275806)
(-0.003379539433829687 0.00531831170584471 6.877305527881804e-05)
(-0.001312890486528493 -0.002012880734208656 0.0004860241175131314)
(0.008390958625740089 -0.01433780417874815 -0.003604957022962367)
(-0.01302109225846072 0.001053590093926475 -3.225626962439967e-05)
(0.000528626652339732 -0.0002207331717916806 -0.005588389365336474)
(0.03138415425383798 0.03066343537558208 0.001935964764603072)
(0.00425136771093285 0.003568935122797223 -0.001456025607918316)
(-0.05386394558723924 -0.07321126078168032 0.05815200247693129)
(-0.01704038040217801 -0.01877321426442027 0.0967469538237877)
(0.004063128204446715 -0.001082264873769208 -0.0002767824948441991)
(0.004515640572487829 0.03048010279593182 -0.008415743211630881)
(-0.002148887816351626 0.001899970296011041 0.002900630400604077)
(0.1382277888017243 -0.1320061294468572 0.3107747905740924)
(-0.004232374813373334 0.02495147382934223 0.0236404362902195)
(-0.0737592218997172 0.2038057111646947 -0.5759774398356311)
(0.001074353677180982 -0.04466104528443328 0.001448243707329395)
(0.3405093731109913 0.3476005495823211 -0.1618345702615569)
(0.002667207310954994 -0.008138854115046694 0.005552768958232434)
(-0.007773003150803453 0.00350528217436757 0.006418442173599905)
(2.253723857535428e-05 0.0001534088431669898 -1.757672844541654)
(0.162898621344101 -0.007518674106069594 0.220281208159262)
(0.952954273121192 0.08204033553301684 -1.03437994673591)
(-0.001096410117034039 0.004023865900918809 0.002724351020364532)
(0.000339559626101231 0.001665154440650491 -0.002507367831988516)
(-0.001633113462338049 0.0006768470838509413 -0.001388001731885225)
(-0.2178173733460018 -0.4206424593902071 -0.8265631982088913)
(-0.009514480473986679 0.001773492496243808 0.004074127169655174)
(-2.358547858704731 3.590176961382961 -80.04174193182997)
(-0.04150319840294927 -0.01540828436880066 0.03565735911185576)
(-0.0003998435479387732 -0.0007683258948123644 -0.001054651112950751)
(-0.005521177220670434 -0.001254740145580926 0.0004121625304080666)
(-0.13489767164795 -0.07249528979145674 0.07816105653183353)
(0.03828958635946477 -0.06800650848001491 -31.75854449554405)
(-0.05080424204156877 0.018647870075448 -0.003900468259931083)
(-0.0009780267581026901 0.002267765106247553 0.001586197157227047)
(-0.004598774853253755 0.00924534952940748 0.005311334268797507)
(-0.008703691853520601 0.001440021799087571 0.004820187283582743)
(-0.01968895300019474 -0.02173058265365746 0.03647186956436714)
(0.05641351906762 -0.05248041406972155 0.02017689567045574)
(-0.003921980159222587 0.0004655746564607949 0.005355988094949287)
(0.003204911512379489 -0.0003484149297102762 0.008249608166711046)
(0.01202518023780081 0.005727376032182607 -0.005194898523692886)
(-1.279458081249599 -0.2938304570061749 -46.83884372482513)
(0.1304446977854326 0.2951433923338249 -34.71158600220546)
(-0.005918741973733608 -0.02035834068126405 -0.03164059149421908)
(-0.00868242075361075 -0.009582460199274636 0.002815181606173998)
(-0.006040610686123896 2.119053874602731e-05 0.004182694658955785)
(0.6180004935657692 -1.016802199602909 -1.081324332923517)
(-0.005108965529648123 0.007332719979608277 -0.0006131672135003974)
(0.0002666710533667837 0.003537676056072638 -0.001393184824016642)
(-0.07304291917584987 0.6633365953777656 -0.2938138793647058)
(0.6141868301439659 -0.159378155302618 0.3712844671324818)
(-0.0007707559800886627 4.970124184507812e-05 0.002009216903152794)
(-0.1534220378999335 -0.07420861762280809 0.1220589058651306)
(0.0001803613713301244 0.003018653650955196 -0.002226041944946151)
(-0.05687390685530585 0.002201521085639622 -0.004813336911963163)
(-4.54327883954721 2.808449732371205 -40.66303148933268)
(0.001396550522378099 0.001396975088917553 -0.0004332374993772938)
(-0.1861610330877959 -0.07552061585953976 0.1057307691250253)
(0.05712981995686444 0.07250203577719264 0.07027159150536444)
(9.200339674541019e-05 0.0001712345767134796 0.002750694489443317)
(0.009720756360912741 -0.02708449765866269 0.08515271718060462)
(0.289644088390112 0.6604898030622582 -31.88614973884338)
(-0.5846117372889436 0.4384246058255675 0.03744991104399778)
(-0.002089752311394764 -0.003928922981011588 -0.003051930434245419)
(-0.00371764655689053 0.0001501997938038023 -0.001787246966963346)
(0.01028491286863724 -0.0001839923875842333 0.007083230028554149)
(0.01998375559500737 -0.02121419351638996 0.02606566216991654)
(0.03076256471316375 -0.02756100856614163 -23.04225515001816)
(2.866155211529803 6.730254031955547 -117.1125518646704)
(-0.07195691645747997 -0.01969971653383928 -0.03311964228229002)
(0.01086991187599888 -0.0002357824739763481 0.03370200062963801)
(0.04910497459384599 0.004772913440570585 0.02184174635372847)
(0.02827338977579515 0.05673142427863395 -0.005487638215492318)
(-0.1429252984568733 -0.007533853749248053 -0.2043121827987998)
(-0.001656933249285669 0.0001808800378577754 0.001978343124894584)
(0.003779288032437483 -0.001052532134640222 0.001408311158563494)
(-0.01739734894637335 0.08851018475943608 -0.1112257757151043)
(-0.6601169416123374 -4.222022931547797 1.198308640638431)
(-0.03759086301273766 0.2260067820959924 -0.03249390798995927)
(-0.00250921687237425 0.0009318669218343011 0.00240674716544821)
(0.0009593697214145911 -0.006806017117237025 -0.0009165792539689356)
(0.1031076447320092 0.0347807275284597 0.09705471491054388)
(-0.1973991147635415 0.2229896747436904 -0.1944274778731024)
(-0.09039614502194875 -0.3609113659610823 -0.275272526894915)
(0.008934030862880967 -0.02210844839412961 -0.005763491960156863)
(5.893962280279162e-05 0.0003572538527826314 -2.493672079419415)
(-0.04687288279904406 0.00233156650570629 -0.006060526919773743)
(-0.003299567709997816 -0.002035399394505144 0.003882971454766898)
(-0.06100183890315806 -1.07792408567381 -0.295381021837919)
(-0.001725407823840568 -0.0009847356831876705 0.003429582684127195)
(0.01429981334598898 -0.01573230267611397 0.03055578575488797)
(0.005845199407305582 -0.00467456159404175 -0.01171061154113292)
(-0.004366648347213526 0.005382866709077769 -0.002339821407950721)
(-0.07289692665760197 -0.01772550656896331 0.007456447761050601)
(-0.005096217093591049 0.002303860620764376 0.001627426601516501)
(-0.01641865098247155 -0.01058512546224999 -0.008356690306066136)
(-0.0006687496391937994 -2.90790510295027e-05 1.556285964687151e-05)
(-0.4500071439794956 -8.500571266485514 -51.6140413697361)
(-0.2441014869789616 -0.0009996531354692197 -0.05817355242114197)
(-0.01823430719478369 -0.1129621997365931 -1.362371149660728)
(-0.02879379858293744 0.9839120966444872 -2.401211629321881)
(0.3915250866862979 -0.7474414621566405 -0.5330759386302721)
(0.005159236031663996 0.0001650738676510273 -0.004268241004778513)
(2.26239441530986 0.6210882918864422 -2.850215880466786)
(-0.01078555473997773 -0.009081382920523118 -0.01778066169364209)
(-0.006748242300412642 0.008028697825412361 0.002140694510329468)
(-0.001649356354296575 -0.04208865125643975 0.01581522912952873)
(0.0009226339671378446 0.000317541905910055 0.002953133261760475)
(0.08973333102510798 0.2208735153904677 -1.423451411167809)
(-0.002464988780565266 -0.003148249215554053 -0.000237067534190821)
(-0.009699212142141173 -0.09410393068114831 0.009182224724072777)
(0.01794314196219863 -0.1621613714161754 -0.08667227821132915)
(0.004839804147881812 -0.001745487103106951 0.0008675758213908904)
(-0.06675594673526652 0.1515501837743375 -0.5744208543790102)
(3.076791176521016e-05 -8.921265128706874e-05 -2.207280907565543)
(-0.0002856389556578775 -0.0001794342677422537 0.0002751751068026661)
(0.08381164091044932 -0.05785268291191278 -0.1941553915367182)
(-0.006077654234212681 -0.005624546255495939 -0.007752948713329682)
(0.7240349215379778 1.009124864011857 -41.15570628335892)
(-0.002875725164317112 0.002361162364740351 -0.0007657023110590693)
(-0.001839734927766997 -0.0008126271442631732 -0.0005364413568847474)
(-0.007017530424742058 -0.005364425602880201 -0.009387066728782647)
(-0.003409876410935524 0.006196325894191431 0.001755753237759987)
(0.001151012100857927 -0.0017459614686787 0.001722029225167539)
(0.002121604045036927 0.001217722949659773 0.001538286666137064)
(0.01714229755894518 0.0146974967665785 -0.009661625225019397)
(0.0005943183383180302 -0.0001418551003890383 -0.0009331403660135346)
(0.002998467788624348 0.001586459380330863 -0.002852103756052911)
(0.002639494788652619 0.01155971263248272 0.02470509704707122)
(-0.01560918175280631 -0.004024087043239592 0.009568310397564716)
(0.005798025970262424 0.0001158323196075945 -0.003200882432088702)
(0.001431755296907253 -0.001305078352631941 -0.003159181946906276)
(0.03805350872524937 0.04887475194619778 -0.02202903418620881)
(0.0008388763404844596 -0.0008232506427299068 0.0005846511895669765)
(-0.4811800653561698 0.04327827311649816 0.1087975138372924)
(-0.00526852409010334 -0.004958141050066207 -0.0006159702112365611)
(-0.002090289288816594 -0.0003684724406273743 -0.001705443966635981)
(0.03536099290909209 0.127811209288167 -0.2073363498042751)
(0.0004203383730528844 -0.0005331601791758242 0.001017132139414003)
(0.02297876364195183 0.01558600799635721 -0.04103107727366294)
(-0.6673964378194219 1.494414846977557 -1.593568871084187)
(0.2675230526613684 -0.2295349623538099 -31.42580208886247)
(0.0005162710276785465 0.002336665768951917 -0.003015031982245806)
(-0.007271332916187138 -0.2386043167219303 -23.18548347064985)
(-0.001425404256556838 -0.00100102290441698 -0.007941264346632164)
(-0.002384724816626893 -0.005200670767373882 0.006158686015912685)
(0.003474457143688647 0.007708014449556436 -0.01966491871373376)
(0.4241122391936414 -0.05879559604939467 -30.88902096279093)
(-0.0009380061688129045 0.0009454326131954729 0.0004557923749018544)
(0.04050943679804258 -0.01904382012124447 -0.0579866562770128)
(-0.002216902557603481 -0.0006988256938685024 -5.456001142745658e-06)
(-0.002484372616149225 -0.001825412818244123 0.001154229945957843)
(-0.1193154131147607 -1.476319177050496 -40.1936824133418)
(0.1795531729564065 -0.0659426839038581 -0.1044353006779129)
(-0.02052657040147078 0.006736911547498432 0.02997232338978708)
(-0.001003567803010953 -0.001936064991651708 0.0004843448230074376)
(-0.002254455507706568 0.001372922379895483 -0.0103815509591787)
(-0.002851473682050329 0.002721887923955182 0.005391798011528488)
(-0.01431460643516993 0.02406102808649465 0.04560213783675929)
(-0.07328282470904604 -0.01316958341842383 -0.01935212290407091)
(-0.002601150004252585 -0.001278650179697471 0.001591667617688363)
(-0.01167463062463948 -0.01220653710792554 -0.02801336402869639)
(-0.0001043180503657823 -0.004387802914737981 -0.005103307039490586)
(-0.002290795230301691 -0.005122309475049121 0.0005107046412884701)
(0.01796262371752244 0.01561713482340576 0.004814956502227453)
(-0.0008415636767854784 0.001720833382211968 -2.506595309271901e-05)
(-0.003283254783751915 -0.003417062682916853 -0.00172061736896817)
(0.3240826840829161 -0.3324610656644519 -0.9752632540533418)
(-0.02687101292540784 -0.02253646282811681 0.01349194996019975)
(-0.00503141421492386 0.004618121265027723 0.0002227280232535095)
(-0.006172243396618105 -0.001038761404670616 -0.002609309582781336)
(0.001503245964709801 0.0005212310627501164 -4.744511455578577e-05)
(-0.0003021619642232854 -0.0003929074499085003 0.003926618841250529)
(-0.0741140537049621 0.03965217490859706 0.1623530528440597)
(-0.002949184354714899 -0.003313780069675522 0.004721291248573103)
(0.0007525255271801504 -0.0003514978583876453 0.00014956483386394)
(0.01127691201429921 -0.01109149073949495 -0.0338486632416821)
(-0.001629430003233939 0.001633811086902341 -0.001865238260043741)
(-7.511009578622244e-05 -0.0001936420673049796 -1.759942787050963)
(0.04169178540454749 0.4950020704501954 -1.036413310479542)
(-0.02884692205067229 -0.2121562407932438 -23.05982657864477)
(-0.006322181501718276 0.006758992848131543 0.001039535446116175)
(1.137231231860927 -1.965453920711046 -50.24626314478115)
(-0.0005628973872521513 -7.593305790513482e-05 0.000899586675489865)
(0.009649261149671925 -0.003654163381280951 0.0004561423874339545)
(0.001959648760588301 -0.008337165184081435 0.008759746155750307)
(-0.00500051800948997 -0.001334936751002065 -0.0004782182468929625)
(0.002651796864444039 0.002781940782342194 -0.005614122016585867)
(-6.393377380926477 0.0969182465117078 -109.0053744427192)
(0.001827962422890219 -0.005236862750699135 0.003231114512204717)
(-0.004144733167746251 0.002469618291271021 0.00105535948189141)
(0.0001745529879582646 0.005233666667909951 0.00255270136307287)
(0.006674021260366559 -0.009217916499951568 0.0192151967841748)
(-0.0037057195221079 -0.004179511328413295 0.002954277376726085)
(-0.009497191675943487 -0.03975999556848669 -10.84637761732908)
(-0.01368055966859708 0.008931836398300263 -0.0002336949580195296)
(0.003066844863859529 -0.00365080655903382 0.0006430396407646384)
(-0.02804265202795773 0.01873146907223029 0.01054596168128518)
(0.001024136484543628 0.0004896663594099242 0.004295242959924866)
(-0.00126851170214447 0.001182413211913648 3.712763392562724e-05)
(0.4275555785310693 -2.742027807422336 -42.52763655255088)
(0.0008567774418644846 4.225921093343235e-06 8.279209693768351e-06)
(-0.3322244836483996 -0.1802538479553003 -42.10885401365063)
(-0.009937165111715452 -0.0001156513144656892 -0.03991108196958616)
(0.5480149582125329 0.3339253357114698 -20.40388250012884)
(-0.3445261641292436 -0.01145651820289376 -0.006612592317758069)
(-0.00900253614193449 -0.01792107808589349 0.02112583673130589)
(0.0002702928351783299 -0.002418210055203612 -0.000802782164778784)
(0.0170576828680463 -0.05282602599071588 -0.03879536425208383)
(0.0008929473072429993 0.01698380557005708 -7.922274245106174)
(0.003197262713773042 0.001015281957308059 -0.01827098928627676)
(0.04453691385813241 0.03439946356358769 0.008371249147916508)
(0.008622217507767569 -0.01659857025776286 -0.01756903850734934)
(0.02644159237696119 0.02440319530309019 -13.52013451207384)
(0.03594165151054811 -0.02560539035035393 0.01768940337618866)
(-0.001243856689659973 -0.001749962572273245 -0.00292313372103688)
(-0.2521808230522982 0.4697990900377997 -22.9663491759538)
(0.1221380366197108 -0.01481909841060197 0.03375170696211523)
(-0.003261088282168048 -0.004290260852600297 -0.007713287020338571)
(-0.0001688007400259464 -0.001730463811662818 0.006271425173238277)
(0.00120247884236683 -0.0007207338237007533 -0.002215289590210455)
(-0.0783248255152196 0.1950548667318244 0.01876560139134743)
(-0.05679065991562769 -0.03415767643117561 -0.02301664172753099)
(-0.01732693990858527 0.002406506249924433 -0.001355728988424092)
(0.0190134836867229 -0.03256460838831517 0.01151405349527772)
(0.7435196657561449 2.465343329524623 -39.28260874708892)
(-0.004474288476823582 -0.008553707499733467 0.02038207835485588)
(0.009054447892386356 0.004946180685722762 -0.008942005666060201)
(0.003390336681545286 0.04163926994552762 -0.02807536198121309)
(0.004195173795179534 0.001798661139145146 0.005781060744895216)
(0.005539153358585192 7.041923776192989e-05 0.004765296463092339)
(-0.02999511630184577 -0.01773047056938691 0.009516284366727632)
(0.0007180792638433464 -0.0068273727628861 0.004663516481080435)
(-0.02823111056735533 -0.01315458499216675 0.0122216082281905)
(0.01093547785046901 -0.009785915541718492 -0.00249053533587431)
(0.003500519854234939 0.00173435533106412 0.0002896250263227731)
(0.0001134321721889545 0.001583058548064214 -0.004997552209159167)
(0.0225020100689863 0.01454394588113884 -0.008244174310426683)
(-0.7879583985194334 0.6289894246053735 0.4716539482812232)
(0.002652015678677934 0.002532714327570257 -0.07302957982014061)
(0.03472201569103001 -0.0269122029372845 0.0412397613389408)
(0.0003239000440395439 0.001242135399567685 0.009265902812735077)
(0.01901855451501487 0.00119268859200063 0.004939585565043486)
(-0.02599022190534291 0.01897261999398609 -23.24835624240919)
(0.412841286300061 1.08721487554333 -49.17272132934331)
(0.003747591642804136 0.115847822357739 -0.4026814141345694)
(-0.0001007441563977944 0.0006221735575754662 0.0009781189708198206)
(0.0141299020620738 0.005802011321637096 -0.003787552924730861)
(-0.007119745826380245 -0.001068825882886567 -0.003985144864924936)
(-0.1727804770379173 -0.1149382023613465 0.06462198577637482)
(0.3501919661648056 -0.4796383688208877 -27.25629535494609)
(-0.002343555896088313 0.0003633297962898719 0.0003335861689672669)
(0.01772443863104859 -0.002505414913427639 0.0005335998006958105)
(0.02808146217334557 -0.0243329226273072 -0.006429214420992653)
(-0.03325492762465313 0.01911830963738203 -0.04290869827809761)
(-0.02007593623594127 -0.00633467450259818 0.004767434486664652)
(0.005768086908598386 -0.001450347355639677 0.0006134643206192932)
(0.0002788332570314581 0.001715171540287871 -0.005615337112339885)
(-0.005326376293707533 -0.002556979525527945 -0.0588444511761764)
(0.1002607377032992 0.01667377408361893 0.04619710713011779)
(0.002530531258775641 0.001408330819627308 -0.002350144999490786)
(-0.0004601216959434595 2.037932275982847e-05 -0.001953608667366302)
(-0.006657035896199382 -0.001927516606669682 -0.005112295847119448)
(-0.01056676870826259 0.008071181433219367 0.003775919246748121)
(-0.003799090497120839 -0.0006182905214787916 -0.003228243042995998)
(-0.01333779819346878 0.007793421367463492 0.01981287699798974)
(-0.1465588133580135 -0.006983263493665789 -0.1482574113358114)
(0.02757573308427221 -0.01219618633412819 -0.03892853645213861)
(0.00444761445479342 -0.002392228017441119 -8.261933487168369e-05)
(-0.0007572996506879062 -0.002182732469067738 -0.00166602479138523)
(-0.0002730945916214003 0.001908588117383158 0.0005618876095303941)
(0.0003652671268164747 0.005588294112118135 -0.002297729637223521)
(0.01483882351936487 0.003620637531451295 0.0223696509784056)
(-0.03607538264007332 1.844985851720625 -3.58287460712098)
(-0.019563845050177 0.01228556862004054 -0.01773838718427286)
(-0.002439585896128384 -0.000187552202635175 0.004158943893701089)
(-0.01568117889119569 0.00522988881248835 -0.03338554443961754)
(-0.003152835566308074 -0.00055690620319342 0.002235692114620642)
(-0.005537618814159056 -0.01658040261242394 0.02714772755350129)
(0.004523954130103773 0.004986583554467274 0.01477044250604598)
(-0.0005789356056699446 -0.00233161545030818 -0.003099866059717897)
(0.01060953580035406 -0.0018142861725414 -0.002898587916074697)
(-0.01090315641201621 0.001995687276665963 -0.01142279522505744)
(3.167985572739948e-05 -0.000183764727887327 -1.58288992002365)
(-0.003392204827697259 0.00376664214400641 -0.0003826882851750922)
(-0.00312461005727374 0.006313359218001508 0.0004907354347997272)
(0.0005342671611073136 -4.430620094197956e-05 -0.001222435817492454)
(0.02636812053889294 0.009207435396899081 -0.01562904637450763)
(-0.002645759195032107 0.002534304646598828 -0.002943211244239043)
(-0.002004260640396126 -0.002115027171285856 0.002064248780512895)
(-0.0008119043349149016 -0.002731794097050122 0.009186752356103535)
(0.003827850510355565 0.001412531069463153 0.0005135321517026128)
(-0.002087278342749804 0.002618426694579389 -0.001375033670625917)
(0.008717443885099357 0.004574790939352934 -0.006462503753029669)
(-0.005251800948297183 -0.0005528627657023846 0.00178751455649387)
(-0.001331342731726631 0.001649225810158868 7.916933727575032e-06)
(-0.0044085120218875 0.001044701062217112 -0.001194735815700086)
(-0.7810991800719167 -0.04820372264498399 -48.35435505455578)
(0.001166777035604695 0.0004348925229225274 0.0002767864854111563)
(0.003624327455572454 -0.002003502661152337 0.001225778842791245)
(0.01154753267268548 0.00240266863377232 -0.0007064366407622683)
(0.004860106592591907 -0.0001684369802082229 0.005014787307333984)
(-0.00270735836797809 -0.001412180774833609 0.002703355909894028)
(0.00417679561756543 0.006572241104573291 -0.007613085846229209)
(0.007017137139123625 0.003279815191848795 0.004257176542933843)
(0.001073807968319391 -0.005735718821231465 -0.00481028315882851)
(-0.02271201730367007 -0.09786593267641348 -0.08870616010783371)
(0.008956143400092448 -0.01140652321946852 -0.004976949927912123)
(-0.02272694885847593 0.001542485164479622 0.009560916367215726)
(5.871586525696561 -1.915189467140623 2.037089498271369)
(0.02896312457690316 -0.02661286812810615 -0.1090026175493115)
(-21.48413139257496 -38.12610456531096 12.85381771410156)
(1.779608406137722e-05 -7.048023184533624e-05 -2.493617491734018)
(-0.3515285344244017 -0.09149491922976832 1.11505509528401)
(27.59533090779175 0.373491651590413 -4.571861577305524)
(-0.1061463404798606 0.05446704413088249 -0.005669762440132686)
(2.54539444877099 -4.305330996399977 6.678223023839351)
(-3.391153378137206 -1.686136718343445 -0.817745544092222)
(0.5396047927981491 -0.3322207341396224 -0.02397852058706638)
(0.00408175551709987 0.001648967039798519 0.005045288399107208)
(-173.4600300600516 -102.7556010701315 56.45567845152313)
(-0.142537018593651 -0.01840917191682139 -0.02540401926251611)
(-38.90434368726907 14.92154431655433 3.58797377336545)
(0.005835462479383638 -0.1172828667899465 0.3918411958756004)
(-0.002011664930091741 0.002099451590310365 -0.006140624845723252)
(-0.002498464729775495 0.00205910245007378 -0.001544788250792097)
(0.03700731769453655 -0.04657374008489835 0.1312437080191114)
(-0.008172418096495314 -0.004167837366551483 0.002799411205353011)
(-85.67172066012736 -100.2620449709648 40.68487160211269)
(-0.02979568533629351 -0.1962352588687436 -1.733869624590773)
(0.0451166380518743 2.626597993677852 -2.316125942868083)
(0.2176266715888394 0.5821917054577597 -0.7502772627145938)
(0.001657995940938489 -0.06828999690393936 -0.6802664602573039)
(27.75516355458461 -4.212802171243794 -6.038757294283935)
(1.174497460373228 -0.4193980762908419 0.8118715891375019)
(0.02938398776428841 -0.1611640616219934 1.944649713472449)
(-0.0911641153209958 0.0462526338549028 -0.04949118178309854)
(-0.3744793505127842 0.008721256663383664 0.9671537607997932)
(-1.305519532928757 -0.295435028427718 -3.877681783533665)
(-0.9943823455757529 -2.182764674438207 0.945570262887906)
(-0.07376859145864552 0.070064243024221 0.2464916650044248)
(-0.07335156265291921 0.07536469881418488 0.05601586798821453)
(-0.0238271870280963 -0.0345336120022408 -0.002686862649133429)
(-0.0584456012821287 -0.05103696727445246 0.7103585389679027)
(-0.1138242736043396 0.0001465005238815431 -0.4378496911865657)
(-2.199423325931717 1.256767502845161 0.0950370618276839)
(0.06007149391045494 -0.02923108603662493 -0.02240039712326891)
(13.56766045210594 11.05645850025948 -12.34431382504638)
(-0.1724853029109003 0.2380419421350326 0.06026958651442507)
(-0.001792509271617578 0.0002360555849172568 0.0003610625331491994)
(-0.004317510820225717 0.00166460599638183 -0.002554905959489831)
(0.3326173979543416 -0.3708918708532322 1.869634537458051)
(43.95713566603167 86.83479660924428 -21.52059440882102)
(-0.02282941401600804 -0.00742259578273599 0.005456714787910995)
(0.002680172687267974 0.005148310899404918 0.005778538000494514)
(-0.7935703788177995 -1.669930532807749 -0.123972925475978)
(-35.25940895885476 -31.04479219441254 12.85634238782193)
(0.02282699547682342 0.02983253678621402 -0.02155716386898794)
(34.98180945670806 62.97463697702129 -0.7883624008160037)
(-0.1213596847730346 0.02758975740471488 -0.115447221777684)
(0.004058489593175434 -0.003478414228758845 0.001952998160263055)
(-0.1930286769871347 -0.1535827833804335 -0.3532560498382037)
(-0.2789932567654207 -0.03913483722406896 1.60579121331813)
(-0.01460397343345622 0.002575221270702636 0.006225493386402889)
(0.3532584542214492 -0.5202249154906265 0.07284727468567942)
(-0.04118749242701716 -0.1731572469018288 -0.1861772928703542)
(-0.005393442998935659 -0.0001162103116447422 0.008184255565111747)
(0.0007892129199658423 0.01029764262113977 0.0005446874055497122)
(-0.01632494399654901 -0.005322504350801519 -0.001362105297833347)
(-0.03168573148105346 -0.008969004419925659 -0.01860305240723619)
(-0.001354773028175301 -0.001124524319279571 -0.002054424712645407)
(-0.031446654603904 -0.00154831429741758 -0.01435609157092099)
(0.01610312781952885 0.003746110060904299 0.01402687697365614)
(0.004230592539078861 -0.000712712630020327 0.007478912576806832)
(0.003830965264046988 -2.025628267397086e-05 -7.195837521888852e-05)
(0.03543886664177147 -0.224024050767259 -19.42334146422983)
(-0.009395917026497093 0.001493245031361664 -0.0008940271590554853)
(-0.01558049084134489 -0.0001004947383108617 0.0008952368580694547)
(0.01242098876445861 0.0007283636069944203 0.01363681761210458)
(0.002497217399570286 -0.002784557371937548 0.01700914309429814)
(0.009062213332752651 0.001096978987075187 0.0005457428474106678)
(0.002488996929292969 -0.0004163769817728564 0.00130320454686355)
(0.01039224756594374 -0.07777610195028364 -0.08144682491044533)
(0.00353579109492618 -0.007243782246325912 -0.003779513253927107)
(-0.01137605438832752 0.02830159302918039 0.01689129385692191)
(-0.001295257014718854 0.001705111567367524 -0.001987600485830019)
(0.0009638625033306584 -0.003762580829571894 0.0005950552324677199)
(0.0007564197103860113 0.005473234543281139 -0.007490816385983782)
(-0.006055039666722162 -0.002708266466428648 0.0006560513568746647)
(0.001796086449870453 0.003683116569606878 0.003306392938305486)
(-0.006500610417860455 -0.001164796868508585 0.00137170183971894)
(0.002847183887013282 0.009841611809324899 -0.02674884988727509)
(-0.01891269070735383 0.01460856663423358 0.02126549922250337)
(0.0004718185300763392 0.0009311959317942763 -4.439035207527546)
(-0.02555236892091737 -0.0128842286421838 -0.007978184996589994)
(0.02278586451068355 -0.01999028980320012 0.04302887267687906)
(0.04220416720348721 -0.01481514953969425 -0.02386525294021018)
(0.003348940123106679 -0.0018614030357102 0.002779061755185325)
(-0.03326271869393308 -0.008375511278197535 0.002572927265675963)
(0.008547960080603236 0.00633956713298371 -0.0001595020671528447)
(0.008738666913376714 -0.003298322428598652 -0.01994645965960664)
(-0.01050594107603204 -0.004471674599605665 0.004496722121911625)
(0.002427507603614877 0.00875776254975618 0.00660662198121747)
(0.03057150633333877 -0.002936689354791145 0.02952637543228803)
(-0.002601590935313052 -0.0002070861026137805 0.00130015317933807)
(-0.006107761768885995 0.0008430593042311825 0.004167148347815287)
(0.002723710448715248 0.004001709727379921 0.0006496113901223736)
(0.0005980602928966866 0.003761765375915826 -7.022666323500105e-05)
(0.03923293787179372 -0.1333924112507079 -0.2057179753703232)
(-0.00239024613492034 0.0001533219594649462 0.002813965337371444)
(0.01983573977636344 -0.0007426712260039515 -0.004800763675323922)
(-0.01513595722497496 -0.0007302761663451106 0.01131832186786037)
(-0.1214409998006693 0.05154599596708091 0.1633885374660667)
(0.0002658986811377136 0.005570314155546042 0.000286536661578244)
(0.008727605665329388 8.921888282627504e-05 -0.01947895506307205)