/*--------------------------------*- C++ -*----------------------------------*\
| =========                 |                                                 |
| \\      /  F ield         | OpenFOAM: The Open Source CFD Toolbox           |
|  \\    /   O peration     | Version:  v1906                                 |
|   \\  /    A nd           | Web:      www.OpenFOAM.com                      |
|    \\/     M anipulation  |                                                 |
\*---------------------------------------------------------------------------*/
FoamFile
{
    version     2.0;
    format      ascii;
    class       volVectorField;
    location    "1.8";
    object      U;
}
// * * * * * * * * * * * * * * * * * * * * * * * * * * * * * * * * * * * * * //

dimensions      [0 1 -1 0 0 0 0];


internalField   nonuniform List<vector> 
19631
(
(4.975294181239639 0.03145797576900201 -0.009988894687531653)
(5.741762865565579 2.231582496384048 3.586142916386343)
(4.67516557726466 -0.1795947745608791 -0.2829006369710648)
(3.468768454186226 -0.1344169932436952 0.1085701232229311)
(4.986204857375443 0.006307657025767434 0.001330369594590466)
(5.098139981448563 -0.08543762796580597 -0.04058120514153607)
(5.043282200671669 0.005117233530951996 -0.01184612843600855)
(4.843551066197225 -0.1411016541145975 -0.1914296479936447)
(5.015800052355539 0.2018405585171596 -0.1219315062089264)
(5.035940147981384 -0.04853148453515611 -0.02253452831975936)
(4.977575744882945 -0.03954871634215557 -0.05654996745994723)
(5.064866068443935 -0.01380266824372824 0.03944779070340733)
(1.963882011545224 -0.1075236213367122 -0.1444914143298389)
(5.012360785274532 -0.0141000918842318 -0.01497982161351734)
(5.021231163642305 0.001175274840989276 0.00212547652576696)
(5.031454549940213 5.966508395002619e-05 -0.03170698978332509)
(4.924848457801773 0.01391024559434775 -0.2133220818749498)
(5.019124948959385 -0.01322683866495723 0.007086089070371042)
(4.970713794361608 -0.01591056672505609 0.008154136479340338)
(5.764086341300977 1.132085849248621 0.5030304637443167)
(4.997827867495909 -0.03219037003230023 0.02245943517705905)
(5.036292273761184 0.1752471021939189 -0.03535190403803976)
(4.93705309441423 -0.06843803211974464 -0.03037586226255273)
(4.645356980017253 0.03590668194682568 0.3022680141139878)
(5.019960600924724 -0.03744452016196934 -0.008548016255077184)
(5.020888722397218 -0.03672258208440422 -0.01620803100205994)
(5.060581898439783 0.02596823801534008 0.01200190633706625)
(5.630895725553911 0.5826978491035184 -0.1827576716179989)
(3.770995836951595 -0.296731772891348 -0.004609103717049126)
(5.038732090455799 -0.02058146736701703 -0.01207193649457801)
(5.015807430798229 -0.02042876837478083 -0.0003984745955243987)
(5.002659017818746 0.6457460530951843 0.1355458278924822)
(2.646229677170741 -3.293409849181072 -1.77276844497624)
(5.027501148266947 0.01310287088781652 -0.01213491048172464)
(4.989941532907711 -0.145366644226399 -0.01776956882728095)
(5.031878584305453 -0.02428875271271184 0.01101901980590444)
(5.048680098078915 -0.09514158443796907 -0.04701457352787897)
(4.987671484387061 -0.08204907647619283 0.01678319479110141)
(5.074912651793921 -0.06523674821634298 0.08327970585927276)
(5.08629516720239 -0.01747013078866593 -0.08356804639413971)
(4.960409145993733 -0.03549288411078805 -0.1895086809396075)
(4.10802736502951 -0.1732306652257176 -0.194373490807786)
(5.093698719631024 -0.06097948482014819 -0.01810984851007843)
(3.711518228016945 0.04937442789192801 -0.09815998075288379)
(4.858193346388012 0.05342336419443823 0.1115845011585533)
(3.387810212636895 0.2948737493821617 -0.008593019430023316)
(4.603766809861895 -0.3119368194226527 -0.03731968489517751)
(4.999750020312317 0.270992373833347 -0.5035697071173946)
(5.080435048373817 -0.05102359113980857 0.0006182714020489124)
(5.033980387166414 0.02363843310162572 0.06641397551817134)
(4.94136893186011 -0.006300601043982665 -0.01811981302938609)
(5.066460917584502 0.0005690001782692598 0.006079240403750761)
(4.136943114264784 0.1658448812692177 -0.2087632193711873)
(5.05449832366726 -0.02736335541334928 -0.03621388482762011)
(4.976285247609193 -0.06411235377797908 0.06163957607288173)
(4.955538348176188 -0.03016457627410106 -0.2254589751519474)
(5.129636248567675 -0.1776831682280145 0.08551753119191632)
(5.036404785780957 0.004759516116364037 0.01831050906109509)
(5.037551867028111 0.002825654328795402 -0.07649894506030094)
(3.830736093082424 0.05205447932151588 0.2201767671972464)
(3.950041203091905 0.2494133684068015 0.3564319300076934)
(5.130547726043505 -0.1457727603845099 0.2764241121275531)
(4.839836221120274 -0.09064743504805163 -0.09956255356919969)
(5.112469790721059 -0.0666677530336741 -0.03155676528573335)
(3.526226391813351 0.08108717736712348 0.2105778563277529)
(4.988384465349894 0.03874121120036306 -0.4643215691145875)
(5.047897955286241 0.002804638344620348 -0.01375992232149735)
(4.970894090471405 -0.0171917365451779 0.02404823071232955)
(3.36019665523527 -0.2284273483607268 -0.07285180593782627)
(5.049213538578105 -0.03018050129275108 0.1148426759745951)
(3.540887255281933 -0.06382339295771912 0.2861706615213883)
(5.113728492560188 -0.1098113347372539 0.005109406445151185)
(5.133995281331359 -0.06024377295566139 0.007197251292827063)
(4.595440041464002 -0.261309754153711 -0.09229526944490461)
(5.048045837402699 -0.009484645011188175 -0.1225675954733603)
(3.598052027478615 -0.1638004690466245 -0.1184046358189174)
(5.055381026546912 -0.04965975514225308 -0.02637400314309751)
(4.581419135381529 -0.199003782482578 0.1222523442916711)
(2.21752064377476 -0.2012132876169453 -0.06184706305306757)
(5.052925064525579 0.0316355663438031 0.001047138916362175)
(2.059729035711805 -0.5031378969678487 -0.03788832164208812)
(4.835401634390005 0.1181383153106351 0.1294183641050258)
(4.072821121637634 0.06858557313440176 -0.1479970280125103)
(2.993290716464707 0.3699824435963821 -0.2116039933790206)
(5.115728822410262 -0.06753225171453629 -0.09122974984160294)
(5.087629556173749 -0.0807060466123955 0.05495797229896163)
(5.094103241773662 -0.1163445767243199 -0.1016279953555793)
(3.358690177965674 0.1087252386421287 -0.007847583294691913)
(3.58354840736234 -0.1649162838153358 0.09863098550038731)
(4.348730761540098 -0.1646023859410871 -0.1849991266114907)
(5.033945742651652 -0.01833062592469408 -0.1098639770586467)
(4.042055276319043 0.2187372533615897 -0.01419672112001714)
(5.116451441308433 0.05262245720101479 0.242510359444083)
(5.019988359363448 -0.1169559706839809 0.05540223999864981)
(5.085191698833381 -0.1346041113176087 -0.1759622866536798)
(5.058439138520348 0.03178673258874559 -0.02637393639818278)
(3.759480314266461 0.06277034740960494 0.6706872058099183)
(4.999884160856192 0.06262765613548742 -0.1540841322780493)
(5.083794793370417 -0.07789302899895308 0.06560282493559637)
(5.074475146544544 -0.06810332725676008 0.05095688426335231)
(5.007327896912665 -0.06006913603480448 0.02758463366657472)
(2.88206325430791 0.3542806225797514 0.1010067068330829)
(5.02229732882515 0.004597342741621226 0.02930300873346614)
(1.590990007900094 -0.1199540543082608 -0.01325190348899919)
(4.642466133546388 -0.09919625841202361 -0.003111409577105913)
(4.885717085243625 -0.1638067344856562 -0.03606808596768184)
(5.053021302551801 -0.02716612840932741 -0.002914748526462776)
(4.012278111725369 0.1502608966145507 -0.374216866934785)
(5.042092050972371 -0.03960111568602611 -0.002542367407544222)
(4.964575813025771 -0.02121257628649405 -0.001734564103062718)
(4.994274452052891 -0.0420297749004122 -0.008348872973780416)
(4.348113211261581 -0.1222807517318009 0.2562957631658249)
(5.029241921791258 -0.01961384442912727 -0.02272464166246212)
(2.565943416862822 0.009622534945841541 0.1472663592092518)
(3.12679904638512 0.01272035842798512 -0.03079391001207964)
(5.123471593546186 -0.1195779739438761 0.03158737589424062)
(4.755292810030298 -0.3365367878360854 -0.386396544508838)
(5.057190063701295 -0.005000406240339913 -0.07586361889196726)
(2.596969789057745 -0.1797461270999834 0.1389668340913666)
(5.003853398333688 0.03450686122994319 -0.01045619166789672)
(5.025318276810634 -0.2559583024213282 0.2689319610087646)
(5.016993176194426 0.0006331067693421386 0.05268157577664576)
(5.033145207355079 -0.01372005343149545 -0.003959981362372595)
(4.921241736558636 -0.05884238167431711 -0.02684187279329526)
(8.952997108078202 2.428846295468658 3.277201263158386)
(5.004068320568155 0.008436944532481207 0.01110153522747787)
(4.374003680225694 -0.121556288103554 0.2560713283573792)
(5.027395896257501 -0.02096219551160163 -0.001470083359283303)
(5.022589938198348 -0.0538561257660362 0.003289393289021406)
(5.047463244166755 -0.00412722461640663 0.02178867647217499)
(5.282617755158213 -0.442202702152923 0.3883586843087681)
(4.113120210926714 0.03536603401606526 0.02755060901464134)
(3.646755941935387 -0.3180286857166072 -0.5244785847291866)
(2.990947286430495 0.2992471156688238 0.4846380621747041)
(5.043507827235938 -0.005473909456086451 -0.04285340504939009)
(5.05297926832451 0.003385435029054031 0.007271636826686577)
(5.052065102798988 -0.08107321855082909 -0.03572671608331705)
(4.495908514011251 0.05000452161448194 0.1008020261950873)
(4.978486251039635 -0.04586161980877874 -0.028289740218834)
(5.063443842559741 -0.01295104032576819 -0.01475314969701128)
(4.816332499228934 -0.03814055137048088 0.05259469005686127)
(19.70209068425443 7.429877120182204 -1.047585029767578)
(5.039446314448625 0.002662480230405827 -0.2413691487982177)
(5.115477226401659 -0.06463304141817844 -0.05006054416036803)
(5.077739034725471 -0.05692492640307484 0.1097941826330556)
(5.057061927991626 -0.009957744506537086 -0.07942171669954888)
(5.047179230759977 -0.004056296945137268 -0.05946879980413682)
(4.999917696489055 0.0001871297657477644 0.004156715812551933)
(5.21020893485705 0.1228316283550867 -0.1261625960367397)
(4.41771214767296 -0.09321281108359444 0.1918477638111508)
(5.013318686395039 0.004852338451555779 -0.003530686682448052)
(5.069114783698308 -0.01092910420924317 -0.007722498389075658)
(5.050964039100371 -0.02355878253020027 0.03609834422147234)
(5.063359652813026 -0.03891913172473041 0.001489951018243154)
(5.003518146631499 -0.001336270459066235 0.02407012378601839)
(5.019162278212677 0.0302418903976903 -0.09839651954608988)
(3.091072606351476 0.2781447502793581 0.7206762638241351)
(5.080021659557656 -0.0349274176031848 -0.07931664275764531)
(5.087337549392799 -0.07420049878777202 -0.0543047782320621)
(5.036272004013181 -0.01666467146930031 -0.02116972738059749)
(5.014562175692026 -0.003064786593216106 -0.02191511778663502)
(4.968486600881984 0.067415212491826 -0.0504386747201773)
(4.201644663456635 -0.118771575700721 0.01492572881917788)
(4.923474399210044 -0.08207707993200145 -0.4314699404942619)
(5.028214564835138 -0.01490671133466099 0.01191687046074468)
(5.029560259919847 -0.001971147617843279 0.008066334406295372)
(5.01846363912254 -0.001502297788903158 0.001656166888334528)
(5.025378722931661 -0.01442657724028563 0.005854688987112267)
(5.144235067355305 -0.03708462671626515 0.008796469407946456)
(4.287638416546662 -0.2500796384000009 -0.09620097956464321)
(5.000388293333196 0.04871958713781637 -0.04492261153914933)
(4.834279969374458 -0.1288539468935879 -0.07232765430198423)
(5.000307529200147 0.008363218419745678 -0.06239570310199891)
(6.353630354463071 0.5861085549670401 -0.1746142374343543)
(4.918285105992285 -0.08996779197305377 -0.1043071611756511)
(4.558888012729441 0.582471636982673 0.1568713073801878)
(5.162558510984838 0.04997783517627058 0.02723532849969999)
(3.471038433488244 -0.03573757653406714 -0.2093915456869564)
(5.052280169103954 -0.01142862127640512 -0.00898329936568939)
(4.542066004643602 0.1268693732470857 0.01469375279316908)
(5.115894727058059 -0.1635476433431498 0.034218933257997)
(4.98101207480199 -0.02440237475391111 -0.05862112179784587)
(4.790070135964767 -0.003758943256954369 0.0405400578730082)
(5.074228226286475 0.009258586418126175 -0.0236184925650783)
(3.309902989702032 -0.002943247274616763 -0.3364604268413462)
(2.10614458850601 -0.01939681842154785 0.117041245626774)
(4.027937905363804 0.1236149140869489 -0.2071876016284161)
(4.995960343428512 0.005607470381423949 -0.00202809508741593)
(4.545427861192969 0.1549494141724058 -0.4089652349529255)
(5.047057984280982 -0.0257852709735175 -0.001988932676665233)
(2.600733088673616 -0.01757531462032713 -0.0586206712424067)
(5.087449014951596 -0.01589499362445122 -0.0582145683646575)
(4.922725280533731 0.09934246269908185 -0.1164144239577016)
(5.003636627148388 0.03024253260830886 -0.07356748865297554)
(3.651550961068408 0.2677313929988737 0.02940383962521956)
(5.155046263146385 0.004893703904225555 -0.1053972601471901)
(5.013890580298543 -0.0300444448677245 0.03982388285402133)
(4.607615626054745 -0.2062574066440984 0.07133503068109906)
(3.063117521843016 0.3640596822512061 -0.3386298468559054)
(4.947560446821438 -0.5225851515616748 0.4423829232302515)
(0.4990444252907171 -0.1313548595128404 4.566864613000943)
(5.011199044218579 0.1450362387140647 0.2247613455120843)
(2.442874346724295 0.04810564437110772 0.4046125922437123)
(4.24526275166384 0.1989857238555353 0.1524074512697354)
(5.060362688871042 -0.04504283280075429 -0.02441639317615914)
(5.010190324709164 -0.003582303372289348 -0.02878966808715334)
(4.949977229241517 0.001035874985836742 -0.008210593335900964)
(3.15682247694557 -0.001697882227993048 -0.0622381180650872)
(4.809526388875374 -0.8361881791731741 -0.1756241371026589)
(5.063495819717147 -0.09748435506730486 0.1022146564307721)
(5.068196267682891 -0.01789223525745651 0.007945176841107156)
(4.93627644157626 0.05417182265896074 -0.05545598411712441)
(5.073052572185605 -0.06250259456915425 -0.09480045531740516)
(4.984940668634139 -0.02054568706193612 -0.007062324756404639)
(5.015363929738443 -0.05258521369791872 -0.001432344471204981)
(4.210997294700183 0.1575455434469952 -0.1611253208006372)
(5.004322100032956 0.7285074841480176 -0.7932794709943042)
(4.794165465267002 -0.1908905990004204 -0.2089672599723056)
(5.087050782232098 0.05173445735230344 -0.0367600127354354)
(4.75712734260376 -0.1170617709430044 0.316683841287503)
(5.002224101466147 0.005322188994753138 -0.0221638454464483)
(4.805105101935039 -0.09348081247758123 -0.04782105630558223)
(5.163888825224396 0.2340450028466233 -0.07360372975796452)
(4.920271291424853 0.117528044985004 0.3027079694964241)
(4.986153251250123 0.04464137993012544 0.3543248405425148)
(2.814583505229069 -0.2302717204217621 0.1933804067583647)
(5.071221112336589 -0.09016598035317751 0.009189369604719319)
(5.082265971762422 -0.05900389343632319 -0.02692905171475295)
(4.675615052177845 -0.1224861366389521 -0.1228251569006124)
(4.65784146272529 -0.1378832163265557 0.0158556963186263)
(4.646325825028583 -0.1324309533980438 0.3032581777449737)
(4.70522871862597 -0.1028845489316364 -0.03528937972132182)
(2.523006740763023 -0.2013007258040626 -0.4768204963533244)
(1.908335857100591 -0.09749547518998247 -0.02289753802938402)
(4.907546538832396 0.004103632629852582 0.01149314133832729)
(5.069133060522163 -0.04754453315182143 0.1151857094941505)
(5.053786715033767 -0.02538799995445503 0.1258120114019794)
(5.107910703867228 -0.09625260332137554 -0.02176914329906457)
(4.065657245050076 -0.5450579732240832 -0.2704622259734021)
(5.121641377208705 -0.07779228596691345 0.03028119269485962)
(5.031685704980085 0.02919214200328728 0.01500825491128493)
(5.090018023534309 -0.06807911665732952 -0.0009524176197834444)
(5.841839333612203 0.6051825163159532 -0.5169822851483451)
(5.007984723214322 0.0008330050996946753 -0.003325983709675286)
(2.893209569593357 -0.5681140167325313 0.1193269414752598)
(2.557070935238264 -0.2164553462246133 -0.1227015527001146)
(4.985731740546941 -0.04983466702114508 -0.05755753187422611)
(5.128448241766292 -0.079749131830137 -0.009891085625524234)
(4.035165287308006 0.1306561297473714 -0.165615718966991)
(4.601650494257492 -0.07193292978207345 1.121044313709028)
(2.514524631102318 -0.05050801011289797 -0.01866864333523268)
(2.84847119060282 0.0742457827711224 -0.01339769322438563)
(5.160214178578782 0.1028105149341064 0.1235303086793365)
(4.79219727449828 0.0005715001509322363 -0.0116771380177607)
(2.085615370976827 0.09206519218883598 -7.735079944847629e-05)
(4.791445683558655 1.405717639944465 -1.08660135003447)
(5.08017609857441 -0.05211568535689116 0.06665520083474497)
(4.33761235781991 0.1165402045816821 -0.04817488180109408)
(5.094470920770429 0.07313276647992713 0.08971879620252145)
(3.952480451286832 0.04275801491830788 -0.232784627450096)
(4.010185195967581 0.1243828463881073 -0.07840649143051784)
(4.947849662246543 -0.07089723207150374 -0.2153160084602095)
(5.123977900019939 -0.1041657898400801 0.1654661012388641)
(5.179854385918434 0.7702719683577903 -0.8030392738387231)
(5.193278110109179 0.2691985542050466 0.1768516974655705)
(4.012480366338583 -0.2155340785251564 -0.2059184157293743)
(4.364930085099092 0.06826319728279642 0.04943697742741548)
(2.803432973956887 -0.3033212439980774 0.0390421757895125)
(3.715269607909696 0.2802756281103941 -0.06859548472947601)
(5.098272549462664 -0.1486862289061051 0.02081637610495997)
(3.862008556532317 0.3218907046595935 0.8514634288402609)
(4.844554797600201 -0.08433407683476282 -0.2079389653522384)
(3.579580556540694 -0.02092238794884795 -0.0424788643317193)
(5.016262162696543 -0.2734805771686139 -0.0898129863334088)
(5.063035992832309 -0.04782069602350473 0.01356674113050613)
(5.141874714117843 -0.06560690877238827 0.03602382100208788)
(3.809470099670874 -0.3192781423261067 0.05884753770269476)
(3.35927292556656 -0.6717516128803319 -0.0009929294134805445)
(5.078384600918053 -0.06216756170733287 0.05020361659258606)
(4.979391204699516 0.09612372860739359 0.01857545746498028)
(4.395123571004546 0.2600622692974 -0.3196461748682455)
(2.886557850436356 -0.08658476427101412 0.3413030836352843)
(5.079993027457528 -0.04689383404772192 -0.07587447584408438)
(5.065727631690614 -0.03034189815423587 -0.03190581266252234)
(4.520011126959586 -0.02919146674358381 -0.1209360826896173)
(5.07458078947479 -0.07523133169634326 -0.08603912613218495)
(5.006030809694685 0.0002847474471358766 -0.02485659553027368)
(5.072997048356466 -0.08356819427857586 0.06994580493072698)
(4.871468021615308 -0.4372293502665537 -0.202130763815463)
(5.096825009322597 0.0008498033402067464 -0.0912418853634582)
(4.918741681975187 -0.07790982853004863 -0.1922843467924403)
(4.538251315785794 -0.539894180518994 0.4581820379088054)
(4.999172981204542 0.09723483612915416 0.08129895504010327)
(5.040707329172108 -0.005958795153693012 0.006098371904126418)
(5.004569958755233 -0.004383264847063128 0.0007818749382952953)
(5.1115065872318 -0.3097950975943116 0.3271494221894953)
(4.783693387399637 0.234984157186851 0.205743824949893)
(4.238232681776887 -0.2232261255839141 0.03497003705592248)
(4.6197847970532 -0.07857028536171906 0.005348663591277105)
(3.134554159387941 -0.2370546274924069 -0.06443469332710386)
(3.970061567219222 -0.1982737294813524 -0.02833589600650105)
(4.830774434832987 0.3210167903973274 0.02692708610671583)
(4.930450760849025 0.03889979019630508 -0.01773144018019186)
(4.699550771628629 0.2802974901886484 -0.5680776611478294)
(4.553444023087399 0.1013180535159363 -0.1653346595479142)
(5.056622521609057 -0.01952285262263698 0.05756092335279445)
(1.929829928895173 -0.1225222471254005 0.1252779041918956)
(4.98163014645294 0.001594256533124381 -0.04222015242886835)
(4.930235828715411 0.004441853788006979 -0.04512026113089296)
(5.045734310710206 -0.0176140088831745 -0.04393795003641778)
(5.021967694080814 0.009214089461979567 0.004328801348765838)
(2.918459217289673 -0.1249057292815955 0.02417983164571084)
(4.731465827540677 -0.4003865352590765 -0.322106403347585)
(5.091660398786468 -0.03611217144213204 0.03010317262416251)
(5.041476536605573 0.002212644740937708 0.0213492425806779)
(5.017156414921242 -0.07030449907728613 0.1010174280390736)
(4.974804009921199 -0.01864718978656531 -0.02138282128313834)
(4.982770896233758 -0.01736909955786199 0.001946586361378204)
(3.639241739216617 -0.09714170472862481 -0.07463975600776435)
(5.003170616863438 -0.008468447893753228 0.01333734159280208)
(4.814448283077692 -0.2329023354075814 0.01493215111480167)
(1.289076085898622 -0.1576422121689333 0.01621285037472054)
(4.99490094866938 0.02530696612977146 -0.1874871712837531)
(4.61338836916683 0.09329547208552445 -0.03982850557941914)
(3.877778033942173 0.08850449729826873 -0.2181999406019916)
(3.693630911804481 -0.1019944299038111 -0.07402168424378598)
(5.029355648235269 -0.1486593894231429 -0.01135583994937769)
(4.416133563032181 -0.3711767478258519 0.2650627195728971)
(5.099099121152823 -0.0778067832906205 -0.08012706913528181)
(4.622977464329369 -0.7089933817046754 -1.135465227898236)
(4.999327653752393 0.05198348460396809 0.1719638389228358)
(5.053358432549792 -0.001284344179109719 -0.03797397190123114)
(5.018530563142598 0.04541198289149892 0.1088067773813306)
(5.017899854165262 0.070421337984755 0.1010813611795987)
(3.916959038313079 0.01784255049142077 -0.1121369060795436)
(5.020364223713255 0.02287465177648104 -0.04384882568649335)
(3.372585186228078 0.03227625864011335 -0.1208192511981292)
(4.163678075780521 -0.2825556990002041 -0.2428517315530118)
(4.988969516546894 -0.04587542871862011 -0.07026627255494272)
(5.083018216157261 -0.03075929501338249 0.03484776869969237)
(5.046719026066645 0.004558181611151787 0.02843351344904668)
(4.62312623339208 -0.315907076269984 0.06752720223736766)
(5.068673796271051 -0.02905466272251054 -0.006163149268899157)
(2.620425724175024 -0.08019126481332778 -0.07784326224259265)
(4.741636252243954 -0.1211415808577868 -0.2417226111999166)
(4.104010161564632 0.01277325629638437 -0.04954200304335524)
(5.043930831654586 -0.06289619285132754 0.02007739905767846)
(4.93606089108196 0.1357374419651955 0.3202116050471122)
(5.073874256196522 -0.06017980188096565 0.04652156099812899)
(5.097242628922207 0.01191899901153052 -0.0567811760839157)
(5.088055036858607 -0.04583602878671182 -0.04981429390027994)
(4.854879371987826 0.1481612094860209 -0.1423460986094866)
(3.368524648006646 0.1543083806891203 -0.2821370813334477)
(3.525501111597183 -0.002638611341848197 -0.2031327611017255)
(5.094746389152278 -0.06650116774843506 0.03634673622278273)
(3.756144045766286 -0.06276357817640525 -0.1010706659516021)
(5.074343988148555 -0.05966472315226871 0.1028560340394525)
(4.274714353924844 -0.2012111986851061 0.1515745842532204)
(5.089189222916053 -0.190401336223518 0.1944759571674414)
(4.949870307545434 -0.05622345490443666 -0.0869879794648617)
(5.104334621350918 -0.05905081384126787 0.006046986046172953)
(2.663445275000613 -0.433359488674347 0.1744241203053802)
(4.964777851058573 0.1206424321097476 -0.1056667682928447)
(5.039547140542637 0.003187631721594785 -0.1139689564813288)
(4.959944711335929 0.228780042572378 0.1086900141694052)
(5.075715165897189 -0.03080345268377781 0.03281465380538643)
(3.106322060612443 -1.148428368400895 0.2988744316370471)
(4.807389821247965 -0.1686687329404659 -0.2451247591749591)
(5.063333562194296 -0.05842709507112853 0.006955413597712949)
(4.658656188297379 -0.1057478701558718 -0.08222187361461124)
(4.986548835788087 -0.05687917701927595 0.02918089985803714)
(4.993747098505851 -0.0192000902770644 0.03243364415696434)
(4.999409264548895 0.01114331761432752 -0.05442961019603383)
(5.018574215947375 -0.0146985242983278 0.117360315091351)
(5.133001837299914 -0.02168884561981033 -0.08234712493411689)
(5.000605280479462 0.00179974927106679 -0.002398049095266063)
(4.860312491991801 1.363995195609407 -1.178358314709711)
(5.032161239447318 0.009950151078732261 0.01409223488419816)
(5.092668083485652 -0.0005951632663792119 0.005947166557183803)
(5.031669077196814 -0.07248514656358529 0.01721821506069536)
(3.353306533186263 0.1472267848507182 -0.01542405444911826)
(5.02549471097569 0.001804160818096311 0.005671594619691989)
(5.00546610528002 -0.04368363117402976 0.0410193603802017)
(4.996751698477611 -0.05288048524834955 0.01533939704111636)
(4.562562133410665 0.0935879934173172 -0.2778104863408933)
(5.240045101354585 -0.01887834351916579 0.4247620953626452)
(4.874924856256381 0.06963034884114122 0.09716859481665129)
(4.951358793737479 -0.003315737629433245 -0.08777055837180565)
(4.87902144624346 0.1551418162074166 0.1373930152072539)
(4.475129627168254 -0.1546856421070788 0.06764765003538067)
(4.653037123802992 -0.1017010485327992 0.1975989777043367)
(4.977737751644177 -0.01812560361564444 -0.001138135378314523)
(2.178281347153201 -0.1394929047407952 -0.02550928732164072)
(2.492324846476137 -0.3447899232763859 -0.2914997462583721)
(5.074157170747267 -0.08025049028040578 0.1177377798880135)
(4.9984874209123 -0.0004931687187099772 -0.01222832771589195)
(4.997364277379336 0.01577397339711181 0.006940820318199069)
(4.596730133476952 -0.1125997521198905 0.07011036993557385)
(4.718040031604811 0.296550675551249 0.7175810789236435)
(5.038383230928547 -0.1203933733511245 0.1085282385994252)
(1.939261874529628 0.01499054362742955 -0.06877959578762208)
(4.883809831510122 -0.007453282769403331 -0.08428572231338624)
(5.119756908312441 -0.2354047661362037 0.08247275830102624)
(2.114789546540246 -0.2930440509242721 -0.09878167917275207)
(3.860741493964128 -0.03967213449534582 -0.2473872766853067)
(1.506003455177277 -0.2427876496192484 -0.1647186865717962)
(4.039670861665892 -1.186699311715537 -0.1258953429408146)
(4.71676454775343 0.1214483274411689 -0.2489950314401574)
(2.194951240196042 -0.3004589206219738 -0.1975537386546792)
(5.004051868670527 -0.1079912092501923 -0.1741915811782168)
(1.885821435619723 -0.4251224259094756 -0.07185606437523141)
(4.432878037643679 -0.2620500997019453 0.3212183440917184)
(4.992706084367589 0.07187622947848032 -0.006783806844253364)
(5.100169230456768 -0.1916107909764593 0.03038779220790536)
(5.137887086734104 -0.06964433516150328 -0.03868479564478301)
(5.11117173421074 -0.1258980048635991 0.1048365529256782)
(3.99306901656236 -0.2625416351264583 0.1917081140719377)
(5.067463532973276 -0.01572597988589965 0.1217987198727533)
(3.770724753275666 -0.2730164657560749 0.5533214240785447)
(4.033432614548171 -0.1676609438997752 -0.0344526388716154)
(4.990918121211561 -0.007222540656390389 -0.07599411829193591)
(5.023729675168417 -0.04382744941844917 0.01866604269501182)
(4.91968163973627 0.2379383551575512 0.09342596350686522)
(4.767224088355233 -0.1988316669963546 0.6075118817176883)
(4.956291018836064 0.07814917860677573 0.09751268280481672)
(5.083774531051197 -0.006832337482170028 -0.03124027687068577)
(5.115535896022678 -0.05330290261868662 0.08630483827584591)
(4.867585665937557 -0.124939220909435 0.644869492199337)
(5.005241307628763 -0.02897205991069188 -0.09843159055031231)
(5.057770109297764 -0.02377309633443695 0.01939355091236928)
(4.966933257207514 -0.06008168328683865 0.09564217638828022)
(3.247030648903401 0.1084492640322077 0.410434054215459)
(3.758074539362574 -0.07697696601116494 0.07429395011557023)
(5.090608303252718 0.09307741795401933 -0.06125401103018355)
(5.018116889230734 -0.1768136051686337 -0.175295142884118)
(1.821061678668516 0.4484449559097894 -0.05477468609961694)
(5.006797141471254 -0.006061804705612139 0.00653876991367847)
(2.584915329719282 0.1251488279492757 0.1406760976215263)
(3.798458326640724 0.1835265252844613 0.2192056151805321)
(2.975180811332562 0.3439233179684621 -0.1509614176498056)
(5.003096154633991 0.0105882858431795 0.004983295823615824)
(5.105836266644371 0.006097391986673417 -0.1515463738069239)
(4.646291389280538 -0.5047690696561202 -0.05772114148372609)
(5.027491797778382 -0.1139209365209413 0.222040475217451)
(5.013199946916873 0.004632704836015918 0.0004222589330725078)
(2.696983563457843 0.247248296694152 0.06851286918192796)
(4.989467102468856 0.0006520264253556659 0.0169153731570241)
(2.433567682522572 -0.1277853118619475 -0.3047294999745411)
(2.273331066287222 0.06467256108388625 -0.2100160616945322)
(5.066023471430258 -0.03505907724541718 -0.001132386925670208)
(5.021567051304241 -0.1185970650296887 0.1421878455638258)
(4.854707630902676 -0.159932102984453 -0.06289143616857978)
(2.096629348569297 0.02413685112578355 -0.03974867227299356)
(2.826784066142975 0.02620861172856006 -0.119441184876229)
(4.997293646044945 -0.009527435154360707 0.005845883436937486)
(4.997020957919359 -0.008949967881647262 0.003600610028560797)
(5.021446608079772 0.04505669018066673 -0.05644493815021149)
(4.940945120683074 -0.1814833379131525 0.06422149725696891)
(5.084283070070598 -0.07003488835266337 0.04513605735750742)
(5.244799257194273 -0.1752829197335353 0.1497292446086506)
(4.752215934389458 -0.02586625266331943 0.1184762024611497)
(4.985455440623507 -0.01829785901802994 0.09795953892918155)
(4.639146721326142 -0.1125016265230274 -0.2311357341786492)
(5.018648561372649 -0.05099584977878266 -0.03103189197283358)
(4.892670319588548 -0.2077004131597521 0.01272575402320003)
(5.076237311964601 -0.04092330334504907 -0.001035099683500932)
(4.534207054534939 -0.1812388656188494 0.1751442520088802)
(4.644368778611794 -0.2505308763047837 0.1400793691024643)
(4.904084117101485 0.001107890648282363 -0.0007037752487280316)
(3.757570103577516 0.1313365805675212 0.05083674638500339)
(3.880792644264961 -0.01099319052908251 -0.2177932406994925)
(5.004896087191209 -0.1911818531868184 -0.2108683430523809)
(4.992831278952744 -0.04770641052776065 0.02371927956977038)
(5.014723669163472 0.001112311145809347 0.004184369338840409)
(3.138560768042174 -0.1523917866232093 -0.2052604152322021)
(5.10721582306913 -0.06946925488584177 0.004127682917170726)
(5.059542701022465 -0.07452510202973954 -0.04747622577384394)
(3.694872168882767 -0.01691853271329415 0.1453160780749274)
(3.262302841423288 -0.0157578129067278 0.002464086045243985)
(4.664386626611535 0.6119539844721352 0.08711950571305642)
(4.510333475918237 -0.1210620260672966 -0.03982826970800465)
(4.563739769578358 0.03892834655185873 0.007802546264998534)