/*--------------------------------*- C++ -*----------------------------------*\
| =========                 |                                                 |
| \\      /  F ield         | OpenFOAM: The Open Source CFD Toolbox           |
|  \\    /   O peration     | Version:  v1906                                 |
|   \\  /    A nd           | Web:      www.OpenFOAM.com                      |
|    \\/     M anipulation  |                                                 |
\*---------------------------------------------------------------------------*/
FoamFile
{
    version     2.0;
    format      ascii;
    class       volScalarField;
    location    "0.6";
    object      p;
}
// * * * * * * * * * * * * * * * * * * * * * * * * * * * * * * * * * * * * * //

dimensions      [0 2 -2 0 0 0 0];


internalField   nonuniform List<scalar> 
19632
(
-0.06996848207371027
-0.03741858167751638
-0.03674727561631147
-1.160746352017319
-0.05477643032602771
-0.03938671310367305
-0.1174494687463439
-0.02011184359581214
-0.05469794140409322
-0.3282152781857512
-0.131091668961663
-0.0276535922372531
-0.04887648792051417
-0.05084824876075127
-0.1424107820731756
-0.02655345010290318
-0.09236294599989195
-0.1132421098377859
-0.0277941000404572
-0.02885214122942876
-0.1645537498404961
-1.72196884641044
-0.160889676407899
-0.02675726280690853
-0.03241824956247942
-0.02815420396818772
-0.0269854552500544
-1.366653969476431
-0.04341403945413292
-0.05562251432236182
-0.02710946196480703
-0.1104024865876908
-0.3463253295316212
-1.253043443892401
-0.0426567046121696
-0.04756944342583443
-0.02940956272745385
-0.02810877580372893
-0.02956882094616905
-0.1303730286001027
-0.03063505037846716
-0.1272323026679498
-0.02799741700332999
-0.1665108473880598
-0.02947238391796272
-0.01678890889699062
-0.0235008336370229
-0.02778553510391393
-0.04623426869530631
-0.1319651305927261
-0.06230428510726607
-0.04561587685321251
-0.02281861338414792
-0.03311856438256305
-0.05192781133659987
-0.04377441893028355
-0.08425794367726192
-0.03710169260183806
-0.03038279572280909
-0.1519362424042728
-0.03056213856720884
-0.03233649419728752
-1.634399089722956
-1.881327366549639
-0.01930938639507014
-1.934096780807755
-1.763165362476555
-0.02116665382286602
-0.04626501190882421
-0.1321069719810917
-0.08388549779883644
-0.03253701079690562
-0.01808795212232446
-0.01613600251474483
-0.02819536376753868
-0.03021795413416232
-0.01612940166260925
-0.3589917431139153
-0.09083339719049836
-0.2108465051824621
-0.08813566581099923
0.04535440804627304
-0.03389814816291867
-0.04651318425248593
-0.0259336678682315
-0.09946887581686606
-0.0239108575655828
-0.02767068192343445
-0.07730812395670181
-0.05090075330247103
-0.1712316824889768
-0.03051964307666663
-0.1258577828844917
-0.06495274726253555
-0.03298878352015084
-0.04816550098249746
-0.0604420838903093
-0.04262037547688052
-0.02354341882307502
-0.0229928642599864
1.261432490327412
-0.02575730599226849
-0.08797958151398977
-0.02514042854433076
-0.3807967799484371
-0.333809842797321
-0.0296087428902947
-0.1774528572032842
-0.02366300316949586
-0.03675023327303879
0.09277926320739378
-0.0294104312517818
-0.04844198651821442
-1.91393206719143
-0.03519272483665917
-0.2063078771233973
-2.327306930585524
-0.3518739563390217
-0.08535023613592679
-0.02465431053786228
-0.03355329871750897
-0.041816340838687
-0.04505985805118964
-0.03293885253243926
-1.249870048763705
-0.27494601165767
-0.02903484130980114
-0.04647780668203668
-0.046936363701715
-0.01459965843973887
-0.05704492697868528
-0.04149813254194876
-0.2314788466609202
-0.01458533289211913
-0.06177080428292129
-0.1435961316022826
-0.06215201347350964
-0.040056843504526
-0.03092707564434302
-0.08917079027621441
-3.245913157601409
-3.54764497519282
-1.69245217159058
-2.018576971809336
-3.318711591020916
-0.01711898005195439
-0.03189801204950059
-0.1222295592147447
-0.07555932403187131
-0.02742770212458681
-0.1034771691103808
-0.1098610131237504
-0.09148514744872954
-0.03605177228864379
-0.05816996821958326
-0.08907670319690564
-0.01528991957634572
-0.03226203327540403
-0.1545494393097931
-2.341965665770822
-2.553912453400286
-1.863934289939641
-3.338515087636837
-1.317807204933214
-0.08138514328594357
-0.03277437279381767
-0.03236922974813685
-0.02421166798500383
-1.505326224080323
-0.02823248367110725
-0.02590320279284807
-0.076002969002613
-0.02944936894202531
-0.04417144686893321
-0.04692479441667065
-0.06481179653426093
-0.02308390865040874
-0.08046129407896874
-0.02342282109116136
-0.02465468316145963
-0.01682201832606669
-0.02470669849844375
-0.02315144330044662
-0.03184705915006229
-0.02898532724320542
-0.02874834756025609
-0.03877494647946069
-0.02340522500804641
-0.03337480669920402
-0.02158277452303899
-0.03531012470441386
-0.1215869540289954
-0.1886023970693461
-0.100564245160709
-0.01575228146328321
-0.03916599575399055
-0.05048717914542167
-0.363718378620888
-0.09187037866078593
-0.1140548660637345
-0.03186426839346868
-0.08702317093170436
-0.02987234543365565
-0.09799692391661602
-0.02760091326555017
-0.09344892525941655
-0.02962381062076269
-0.08357296810236092
-0.02641677193515008
-0.0292892422388747
-0.1087260623946529
-0.02148748846889928
-0.030620971196524
-0.03819733835008927
-0.03848190989795877
-0.02846055713718308
-0.06364397585733783
-0.03301349905190284
-0.02629535127675467
-0.09333518035460771
-0.03249349829551867
-0.06001467581500455
-0.04036157190351059
-0.02108704775423788
-0.04358403739536862
-0.02968472236474483
-0.03858211483356208
-0.08958479296456708
-0.04892029801826575
-0.04135090279853241
-0.03055666962893901
-0.02492004670390189
-0.02595001688334294
-0.03249057516920093
-0.1081886461558836
-0.0282273800328466
-0.03736616020470717
-0.03948454812231117
-0.1038187088367599
-0.05012752115621336
-0.0319644022976872
-0.1205392059270461
-0.1241891831756533
-0.03005199598688548
-0.03395061280484118
-0.05408549234519806
-0.03913878957106715
-0.1114625492085175
-0.02302777482379663
-0.03156039173596373
-0.01883343322388013
-0.03623677335185967
-0.03545979014540597
-0.0800125412844639
-0.1201528723093718
-0.08444279584324418
-0.02384711111150727
0.04227100107693516
-0.1989261087367652
-0.1130834373681819
-0.1177324171227157
-0.09810401366537393
-0.01635978110121589
-0.03470511464943281
-0.07514706243907163
-0.0311841915332022
-0.03830328659246193
-0.07377391387812024
-0.03907443848893773
-0.03004984223997754
-0.03396763576702867
-0.02604749710277329
-0.03038659297995258
-0.02353682036255794
-0.04918201170590885
-0.03534050535594157
-0.07406974201217954
-0.04815773190007823
-0.02769539809871496
-0.1159273657113443
-0.02060030079128557
-0.02638268532029406
-0.0753390294491694
-0.04133182947892852
0.2384579315842204
-0.07755464757663519
-0.1080509942807303
-0.1066444369749352
-0.1372469233589561
-0.1138440867430393
-0.02681944721078723
-0.09297261403011217
-0.04176891706149696
-0.02926740937665749
-0.02521345573135264
-0.02129404856244112
-0.02654564189176626
-0.1147315444860189
-0.03896136305493212
-0.04593469883208523
-0.1921646621293688
-0.0404539886644602
-0.04607001717138377
-0.02882778574358436
-1.461959996238419
-0.1371498114070139
-0.05441601628178017
-0.02280453130880493
-0.03674249028097686
-0.02160981698838696
-1.331941041328536
-1.325426942201792
-0.5804995015010238
-0.1090770564919197
-1.862246586789773
-2.774551261175212
-1.183287842632954
-0.01726775921380248
-1.82567720313684
-5.053366917170781
-0.02405316615139784
-0.03441488096316719
-0.2263407927013262
-1.312554042027927
-0.03680689110302944
-0.09072804321457183
-0.0301078574025332
-0.9714947025144739
-2.38835458949054
-0.04449368553812751
-0.03008347066288906
-0.02704333604056764
-0.03052976940632644
-0.1026754160286602
-0.03239156371242426
-0.0874672030901379
-0.05626569991817709
-3.030005365941534
-0.04315328524252392
-3.880624601487937
-0.08770154335087095
-1.749838809888897
-2.098037770536055
-0.06012416406616576
-1.4620038410611
-0.05348290338301605
-0.109224245177464
-0.1061482515211019
-0.07800328953919321
-2.035502768772707
-0.1009529682853922
-0.04370093388349029
-0.07320887658494041
-1.330244998757756
-0.03191839236833143
-0.03178847180629146
-0.01914692163196159
-0.04134756149531318
-0.04002853615327466
-0.0463029700839954
-0.1506222104892101
-0.01625566814846003
-0.171289635331703
-0.05411875264330721
-0.08157052943459908
-0.1182260365852529
-0.07981427298086655
-0.1450675522356431
-0.02673386635258634
-0.128668545124915
-0.1186055026978012
-0.03586614043515468
-0.1139235620380002
-0.08024009608407398
-0.08239423171149983
-0.05487911029822971
-1.173422417010307
-0.02484045522902188
-0.02286237915353897
-0.08709852027496816
0.09723776559535506
-0.03785151699830884
-0.08136226832936501
-0.02790639308093782
-0.1606627552095053
-0.03609979920982892
-0.02881758373688095
-0.09584169462018896
-0.1697153285233183
-0.03859501205655552
-0.03281039740189253
-0.08980081053287579
-0.07760454651812286
-0.03874018788054558
-0.05921170615118208
-0.06032303962933469
-0.06335464160869927
-0.06401515463137009
-0.01459401567526211
-0.04733359786947526
-0.07316709653839389
-0.06954582065386079
-0.1198540301361715
-0.07220939226870318
-0.0590929267637602
-0.02246992361506494
-0.03094197086618812
-0.07798947262170346
-0.3571920841976725
-0.02106239248879126
-0.1764304978083708
-0.04444349223738026
-0.3037562887193763
-0.04989465532965776
-0.07003998525247111
-0.08845763037140862
-0.07968059675289149
0.1210165989646567
-0.08767212768666685
-0.1169932747154707
-0.07222711172984705
-0.06135326045919552
-0.0216651468359743
-0.117352338600434
-0.05324203993734666
-0.02893955546433681
-0.04299688676221332
-0.03833428556774295
-0.02975796068467737
-0.4336464820619374
-0.04390934643884451
-0.04384735412697361
-0.04734009978112751
-0.04354119304595881
-0.03688313576253741
-0.03722792110345404
-0.04444864871344388
-0.05216286485649656
-0.0514358173913572
-0.04933770378677753
-0.09569260245289843
-0.08114060959129811
-0.08911767245072023
-0.08958839798473692
-0.0574307455918819
-0.08985891309919797
-0.02632265345373473
-0.09550262486357541
-0.0525508274765578
-0.05581497308677328
-0.09720762500277054
-0.0718351677555651
-0.02335406232064074
-0.07561666489538026
-0.0578551053166719
-0.06681740414596418
-0.02273139803511517
-0.01601258833504674
-0.01547405213250596
-0.09089738318339427
-0.1159189051627461
-0.03032557191296839
-0.07383220265397558
-0.02107682844871673
-0.01470522824897919
-0.01937349508957436
-0.01712880385489001
-0.07792312420395316
-0.01700975774347369
-0.03002738235373967
-0.02883271570448179
-0.1317614651068238
-0.04970575207497104
-0.04523336417183935
-0.03761577189080629
-0.08518887321324012
-1.224774892987262
-0.0309493045497213
-0.008146039307844766
-0.07404050666877514
-0.03990709242146156
-0.1101692778890388
-0.02766509639114036
-0.06029019526728281
-0.04297303293214695
-0.7985183320288062
-0.05989449206004851
-1.862332077429168
-0.03503009252647242
-0.05399888372470447
-0.03457551660513522
-0.1100673562734861
-0.0685844837731123
-0.05879291611187967
-0.06137160176594009
-0.04820937879108825
-0.03492404715286485
-0.07043474659397039
-0.1177684411040989
0.002282677748258286
-0.06387154728954919
-0.06881952545967986
-0.02234026633158648
-0.04144721370829451
-0.05699059369928699
-0.06392490925953193
-0.07247096341159386
-0.06098299198928879
-0.06787726168702124
-0.10583557120063
-0.06110890448510933
-0.4278503285388479
-0.08546641734744725
-0.3907643639092493
-0.103138551730482
-0.03416487861753033
-0.03020803326398007
-0.4537386934996448
-0.09064872180099147
-0.1714541099456156
-0.02285983285319043
-0.04749872762842097
-0.04986596217428859
-1.108892337330943
-0.07914192618210651
-0.08510072763750162
-0.06465683415225194
-0.08139949872350473
-0.0233794145982327
-0.07049895772956054
-0.05088793772982428
-0.02699934358875244
-0.04736729021415314
-0.02341106592134472
-0.08038525969004562
-0.07557131605457694
-0.05068416949168081
-0.1228742351186737
-0.08983084830076754
-0.1519699472289271
-0.1166826713711451
-0.02664290552276129
-0.02704743686565488
-0.02788992846331709
-0.0711323643043813
-0.03202012886199373
-0.1221695229317596
-0.04034547453440464
-0.04520364484898746
-0.05592069899699052
-0.1281886522971944
-0.03586076836811178
-0.02570976482157467
-0.02916565101942898
-0.08478096443586274
-1.026827049185782
-0.04735435120553015
-0.02739917503244162
-0.01909805282333019
-0.02693829397700992
-0.7392959208535759
-0.07756542098522565
-0.1102035144830308
-0.076567303333564
-0.09434308871870185
-0.1317409924213287
-1.100925466756902
-0.03418865409212076
-0.03575806467923918
-0.01964691582839525
-0.6296787865760907
-0.0306955619354214
-0.1110873277415413
-0.07362001378038635
-0.01610943941216784
0.653893706129709
-1.87716921090004
-0.2238172543718685
-0.2789610722269001
-0.02756141559401051
-0.04293399072320096
-0.07317418677761542
-0.1940967556011161
-0.04233869851302359
-0.03053290769654754
-0.06778310242602328
-0.03286166123583812
-0.06820563779150858
-0.03398453706589718
-0.05112059904702859
-0.3554997106028112
-0.03960549459748477
-0.03746164534053323
-0.1711239746000547
-0.02657843734859181
-0.06349671865842704
-0.0355259816276564
-0.02698212854566497
-0.02678162201361416
-0.0975625518792067
-0.09904731372655076
-0.05209361684782682
-0.03460417306668847
-0.07592856711593926
-0.07628591666062391
-0.03331941651658935
-0.06935619535736801
-0.0568132736284815
-0.07023949401076823
-0.1174395187710063
-0.03828637369254134
-0.03532893298841883
-0.03181998870314546
-0.06419949641645731
-0.03792957519720581
-0.4986858345553598
-0.03630380508371021
-0.1304847727502412
-0.6886883707881298
-0.03689271534934663
-0.03862421042651643
-0.03926881415576782
-0.03788315595418972
-0.01821293326430265
-0.01890942277877961
-0.3512390753883386
-0.03888710106650856
-0.0370298136236636
-0.03706210899862541
-0.03971756818955779
-0.03789812365074629
-0.0175269291077151
-0.1229884814103111
-0.3604563464533198
-0.04470890308117452
-0.03885630166678949
-0.02212862481605047
-0.0332590861871834
-0.09650759558752021
-0.02958928522380956
-0.03853490549462431
-0.03761943515502322
-0.08392537653484838
-0.1222709584162541
-0.5999906469709998
-0.06949855315343968
-0.03155406016494662
-0.05106247739987881
-0.01871682118629691
-0.03184815965678726
-0.1070072717447246
-0.03193661630702882
-0.02716989536405969
-0.02721572849555225
-0.1978877288315373
-0.1197694345558853
-0.0283067469878282
-0.02984414409603426
-0.04207822376730432
-0.02222152193128932
-0.5530457526211644
-0.09885307175737837
-0.0179941050548242
-0.1184035920764751
-0.06884750037186375
-0.01867073650781758
-0.8059418364560247
-0.03511404772331743
-0.05042632546850437
-0.03925785546287904
-0.07635725456499982
-0.03673084814598789
-0.08417915661614336
-0.08744408022366319
-0.1112713386890198
-0.9185098184120186
-0.3562014478598827
-0.07163020034163833
-0.03256760760807585
-0.05672340056463938
-0.04442595030457807
-0.02020128347544883
-0.0750302520045829
-0.026204450533416
-0.07465816125388355
-0.02335238233083856
-0.05933255414177201
-0.03088521801288636
-0.03011696516207811
-1.126717598652537
-0.02896565615451038
-0.04434604012988387
-0.03211262015908333
-0.03093764815366353
-0.03034116171943059
-0.04092081072248848
-1.443159536185862
-0.0260945586485658
-0.03052840182809825
-0.3206426875315506
-0.1100172265909749
-0.03819448108508194
-0.3698389081297924
-0.7585923236145617
-0.1023525053799669
-0.04889222778767902
-0.1171965838187014
-0.02101280498426542
-0.06483776421390659
-0.1148297837292861
-0.02176307411536803
-0.1175502961025553
-0.06989098341358271
-0.02111269831499811
-0.04427975527992244
-0.02142454761187877
-0.3020544310611811
-0.05622111629995133
-0.6631765160530614
-0.1154558053834341
-0.04531614992890953
-0.08927032767308904
-0.03768309220387352
-0.1232699690462857
-0.0614401451453431
-0.1028369852145681
-0.04257825068158222
-0.04736741904936272
-0.09690167826863877
-0.04405089303778807
-0.09121483124237956
-0.06855243709349725
-0.6387097822767467
-0.08536586192498316
-0.07542432873903705
-0.2525439184283373
-1.052055698858336
-0.07900006471876198
-0.02166581159545632
-0.04185247347176577
-0.1063545632464975
-0.04491921367686561
-0.05585646391796655
-0.8021972465507774
-0.08194878141011493
-0.5396998824554721
-0.1233082790662384
-0.07502832525287025
-0.05547248539025242
-0.1015375287835449
-0.1158044596560217
-0.05084886077785842
-0.124030065893945
-0.1233384567526827
-0.04140381910044184
-0.1617620097406676
-0.1173208194583254
-0.02981637307121891
-0.03290543145893991
-0.06189313589370071
-0.03334274272169706
-0.02975785054293956
-0.0274178501026658
-0.02652734410052088
-0.02703818239231388
-0.1182753981698027
-0.605037043155117
-0.02656170702483016
-0.02736437339380064
-0.02794946392561742
-0.03233204052368105
-0.02324287573446472
-0.0205162170848363
-0.03869290328110478
-0.06012215176054187
-0.02311276871966405
-0.02715660007875131
-0.03142300945136328
-0.03152470188209432
-0.03206184383691434
-0.05316097224565191
-0.03092358583381462
-0.09246704875263984
-0.06421862351666136
-0.03097393762179062
-0.01515454067484492
-0.06304256662221298
-0.3862553041011706
-0.1633733910359271
-0.03422989304798109
-0.03374851268543801
-0.1240122100479207
-1.254400366042998
-0.1006405974839352
-0.06569707272145474
0.0365700386157978
-0.03990298906877991
-0.07402690001825263
-0.07411776487050821
-0.1376268940056214
-0.006443567826640705
-0.05249839327038938
-0.2697804652194014
-0.1083103981131981
-0.1068909708627531
-0.4619702063498002
-0.1099224117645022
-0.1017232314177627
-0.1123039783511841
-0.04879707204845205
-0.1238882630555749
-0.1088733088197457
-0.1547922771289175
-0.0644182079727801
-0.1112310796828093
-0.1131196161706818
-0.08927345540058768
-0.7412365961508934
-0.05208123111792198
-0.06927884678826442
-0.03037864071359078
-0.08509513059835391
-0.03085553770335371
-0.03643376076406916
-0.0412146166269423
-0.03394585954102247
-0.03441904387652835
-0.07696759147719737
-0.163883434844968
-0.1228869952266825
-0.1117560849680897
-0.03323303827565215
-0.145857186415836
-0.1185684388234624
-0.02551004592729832
-0.116702480566474
-0.05771097282440008
-0.1632689817777341
-0.1945203096918421
-0.05378507115108939
-0.01781135070675862
-0.8452486308397668
-0.04377903694299785
-0.02224749209315478
-0.04539068873234623
-0.02134742594914974
-0.05960658785899202
-0.1283334243615812
-0.02346308954856958
-0.02240007615658891
-0.03878878256685429
-0.03499726018201615
-0.07869074557377347
-0.05816536707837825
-0.08275672931736237
-0.06257663466504007
-0.08256931992703057
-0.07430273829423779
-0.2293642794973689
-0.04216365872989458
-0.02951838455648216
-0.07865005127426666
-0.06515966002358607
-0.07052720195087907
-0.06191460826060653
-0.08683219990136633
-0.08115076744736752
-0.07942247876526679
-0.06266499809561128
-0.04776578590626371
-0.04798315844444524
-0.04685145536893669
-0.04885377627408031
-0.04082920461860179
-0.07985723217929762
-0.08868656487689618
-0.03087486531886369
-0.06511420235939681
-2.169825964277039
-0.08979558560647311
-0.08465707201824674
-0.05088242465944569
-0.09158189371190803
-0.1044311724915002
-0.1025356896913643
-0.1020401216842202
-0.1142529070930206
-0.01244129224740396
-0.01334292939439489
-0.04872370785076597
-0.2267559947818865
-0.7399773615507887
-0.718670809413993
-0.08948826074849425
-0.4083248971364922
-0.1136004287119391
-0.1147150430676211
-0.0871846326300182
-0.05746751516223888
-0.03893293019598617
-0.05063952645449932
-0.09902809684900683
-0.04603532125328802
-0.1294351670299739
0.103384018677777
-0.2321298791378209
-0.1368041854400982
-0.1040584227525001
-0.02188234961124232
-0.03818280365241874
-0.04376051299774605
-0.01824035399365658
-0.05419710267567728
-0.05207914139421183
-0.8939995075987156
-0.1254568378371423
-0.1329180991976426
-0.08322768397707045
-0.03581730236036756
-0.1272380303507023
-0.1235825106862146
-0.06328354211273128
-0.1173618352402161
-0.112851501184933
-0.1310204597465759
-0.04465437337126118
-0.2128801986438487
-0.0911227236134519
-0.05971426983609736
-0.05968934692533752
-0.03038468639686663
-0.0354799046837842
-0.03112272868225341
0.1633245427457932
-0.03312255220716055
-0.04350876362625447
-0.03518729450328795
-0.03440147141532982
-0.03229516056480847
-0.761987250321545
-0.02645869282552186
-0.09190190187251988
-1.042393676835445
-0.0527346471379521
-0.05360540482491478
-0.06787843900653798
-0.07009446889214709
-0.05919972131139813
-0.1062598440620244
-0.1977453986298059
-0.07433016617619319
-0.1081617128853999
-0.1026869738476281
-0.1743327991927582
-0.03056207977316198
-0.1014668424495222
-0.06702066784932958
-0.6920923547070111
-0.09754682487203251
-0.114894324469332
-0.1168930329501317
-0.1167430341759433
-0.1120547859930661
-0.03422393914909667
-0.03625511267230953
-0.02956712531802904
-0.07442985927233602
-0.07176046807176692
-0.02846668272195791
-0.02910240933660879
-0.7743818062245476
-0.04974927927084687
-0.0693994805069483
-0.05209304722464959
-0.01381105037566934
-1.329570950944142
-0.1321024214008218
-0.01553996394830731
-0.1186962165228882
-0.01782418529104765
-0.01660251841274213
-0.0179251960871756
-0.01917487743052116
-0.01709235769306643
-0.2374407187385637
-0.02483473578217636
-0.01649870245799675
-0.1267566912381802
-0.1079408126971398
-1.072362283552234
-0.01639969972106734
-0.04465495475359508
-0.04669267094750711
-0.03744676944421668
-1.035655224956885
-0.2087197282604678
-0.05913594527755216
-0.03998024400970381
-0.03560538354977318
-0.1150415105488874
-0.04650811818281928
-0.04090022378286782
-0.03681646731170869
-0.04557138645685922
-0.04764634666141677
-0.04038997447958553
-0.1482233832778137
-0.04173722617281478
-0.1474908826631802
-0.03655915223425394
-0.120718830639658
-0.04221071869224732
-0.05078511319771988
-0.06274515742526564
0.006254476738699063
-0.062402841914624
-0.1019146873391121
-0.1987722591090568
-0.5440579430410502
-0.6644609106725182
-0.1315208684175135
-0.3485720253703307
-1.440336836047272
-0.2690475026843974
-0.03054334103738734
-0.1276189587008281
-0.05602907255930185
-0.6048887910210518
-0.103016496153677
-0.07928465862681246
-0.08700849237721314
-0.4491479289315172
-0.1232702061533342
-0.2528232165159814
-0.7387818312227542
-0.1418775009966111
0.05965438419108516
-0.1397400129150446
-0.2764462546848876
-0.6058016676422704
-0.0824107697004909
-0.07018837497266711
-0.162947428853514
-0.1162704159832912
-0.05417792899864623
-0.2565424494695014
-0.1226414912746148
-0.09204448458126249
-0.0750718873695561
-0.6806674409000464
-0.1206515994056136
-0.9357468649951124
-0.2036578684152351
-0.2144965337123066
-0.09545549836817892
0.1252569310283115
-0.02589660673218176
-0.03304805137187368
-0.1216327696593528
-0.3111051745479717
-0.4313255216885761
-0.1010641674706275
-0.1332005726494455
-0.4406918332878902
-0.07210525418438191
-0.09374020596668449
-0.09800081256461159
-0.022102349682784
-0.02403767742808463
-0.01953832829859624
-0.0185611480130798
-0.01992036495942543
-0.1082420275557402
-0.08404602283025037
-0.3664658439011108
-0.119299539844638
-0.07688872144105832
-0.2689167841357215
-0.1269013798196654
-0.1379930674710247
-0.09418488654831114
-0.07126859819402889
-0.02501704188688149
-0.1771669383750624
-0.05580866498738139
-0.02127427827924412
-0.0822244929163853
-0.08030688115883207
-0.1238320638985495
-0.03798454850327247
-0.03978300400414795
-0.05893798157319416
-0.09859059859359895
-2.895104635724455
-0.03636260557467849
-0.0829106159492634
-0.1128893902033284
-0.1133631869015412
-0.05065294568510224
-0.03290302415848505
-0.03573317143299251
-0.02515925672059547
-0.437846240648493
-0.06733647465550564
-0.1572979017940051
-0.1224854044572835
-0.09021341138856383
-0.04105759744750195
-0.06644055273474254
-0.0988511839153252
-0.08605664891059095
-0.08070529703473649
-0.107811983506281
-0.0544364578081593
-0.1640196229397451
-0.07642854323485579
-0.1149084297473335
-0.1075715566144799
-0.08987416800582151
-0.03820820156204711
-0.02017366225633487
-0.1109777569895119
-0.06126636784133756
-0.1324172229507217
-0.1186232523090239
-0.2236241036318539
-0.02813869670571308
-0.123043114353113
-0.01765015195550279
-0.03335411511200098
-0.04493932356467557
-0.1306515680344137
-0.3254355634302281
-0.04148806111958638
-0.3134570945388097
-0.1746011806470627
-0.01435672850981118
0.1174641234957715
-0.07285300458566883
-0.06391955257468876
-0.06724135405829071
-0.05480355411970774
-0.05001415670083616
-0.05866268294698041
-0.06367632848370383
-0.06057540264099855
-0.02909229293552346
-0.06497159058753139
-1.168056043166657
-0.04481143035223664
-0.6531514136086393
-0.04659048443209391
-0.8629965141714008
-0.03784411007880528
-0.5540679511025118
-0.0240935805434218
-0.02303695619511162
-0.02283488529227583
-0.8402475795572442
-0.01909761976482666
-0.0272922012653817
-0.1005733331159298
-0.09919915101225123
-0.1056804254666055
-0.1091143693905951
-0.04342739401828437
-0.04593261460648605
-0.05065426364759605
-0.05957378641459062
-0.05449002935405353
-0.07346639449956802
-1.328402955676876
-0.0753005128638535
-0.3924299395379274
-0.1244433653977156
-0.09154749295401679
-0.08788353918159469
-0.3178165472328192
-0.1137173331068748
-0.3224113727595644
-0.226988529264671
-0.1135687042082524
-0.08174708187144052
-0.09960646518430571
-0.09042359329007976
-0.08810327105675056
-0.09144250446324627
-0.1025485696261766
-0.09257746736838229
-0.07712284015592133
-0.09654964277688616
-0.1112803402528961
-0.08484103679845341
-0.8807269803247751
-0.1095674858933701
-0.06091365558983124
-0.07235981705527229
-0.05528233416213572
-0.03210825745116993
-0.08489331909096942
-0.01844406899652752
-0.07671320307347906
-0.114701559206235
-0.03244608185956106
-0.6408471501073019
-0.08884016446476682
-0.04695504362861818
-0.2218208543263026
-0.1005199107865042
-0.04132358010868019
-0.03626823974582893
-0.4603502057000872
-0.07529143490620767
-0.03532468261276368
-0.1329209384464905
-0.1299681809167944
-0.03449758043847288
-0.0460356855338339
-0.03410852220432319
-0.01707202563817043
-0.04039074822302448
-0.09659355640471214
-0.02638953289394632
-0.1148600733506539
-0.1324957296493062
-0.119899705394509
-0.456443244252728
-0.07322981954752401
-0.1162007515324767
-0.1225431788223435
-0.0717429715609406
-0.09787492521408751
-0.04408536357298509
-0.02609820787451006
-0.04670889795619956
-0.03959940260150701
-0.03028424500774084
-0.07816730242397059
-0.5337145611798163
-0.5853750356745188
-0.0899329352501754
-0.8447031781449137
-0.05363551550009611
-0.1030423946942687
-0.9241243151916081
-0.07558752874775948
-0.03789394355602702
-0.05175485383573554
-0.03641664628192733
-0.1272478010296444
-0.08239984232682147
-0.0721336788504765
-0.07114363640268052
-0.0473415448155713
-0.2674889842585799
-0.1246577191346346
-0.03943934775404384
-0.01908939487786024
-0.06450209194382626
-0.02805713762022581
-0.08390670330188281
-0.0884139658106346
0.0005332805799963813
-0.1454498704779181
-0.05381042851118039
-0.08321008444049326
-0.1546647670941166
-0.1053949034376118
-0.2341819797248855
0.4603575944719889
-0.2607924583516046
-0.08368602695596072
-0.391657014104579
-0.4642958275806873
-0.536488095628488
-0.4999989137383485
-0.2083341974288416
-0.9103100425932115
-0.6501933946825924
-0.104774179104829
-0.09512443385730159
-0.1517417090542933
-0.2994140447306872
-0.371763383707379
-0.4992053844334094
-1.72782065734707
-1.158467093355802
-0.1133606933756083
-0.9630696636379472
-0.4153559574474487
-0.1749984669184036
-0.0832821799388293
-0.2248588209669671
-0.457885012259921
-0.2356106770575132
-0.08742930998564477
-0.6366852147660474
-0.06630958062050284
-0.01710808651886493
-1.414725762696454
-0.01700247106688282
-0.01643684763302521
-0.09413626283721796
-0.104985469153079
-0.02215425552763278
-0.0604019538406395
-0.01557634341374415
-0.09159686305142373
-0.1026471571313615
-0.3300899824950079
-0.1010015312288541
-0.1132081362125652
-0.1088876281114688
-0.09489080914782365
-0.1659764017337628
-0.04424200177166646
-0.04706475363433295
-0.05988093823588481
-0.1111994650364962
-0.0924462162666965
1.123542638568041
0.03420279989185088
-0.7659414075614746
-0.09060125550255164
-0.06308295479144137
-2.811135705643196
-0.2134457347432153
-0.04326052217128418
0.1519345058855869
-0.02276300681181107
-0.05473295461601833
-0.02411377880922846
-0.07591487196293496
-0.06949353214301375
-0.04349086150803902
-0.03143754832349103
-0.09046770398831029
-0.2018339319279092
-0.03116010334823493
0.002915170980950105
-0.06254501945999265
-0.2930819492056863
-0.6598550745544116
-0.1385958991079916
-0.2620027316681741
-0.04112560321876448
-0.1034556610746197
-0.06042507904153784
-0.1376564166000743
-0.1424517120054894
-0.1338507758841986
-0.2305013347149539
-0.1280369330257125
-0.6178982688033262
0.161328712691439
-1.709334615564077
-0.5489725614447482
-0.7614555952287785
-0.03042961981339872
-0.06139317803597919
-0.08694613178934989
-0.03959440684504782
-0.5850021987306436
-0.4355336952414806
-0.1298333629567326
-0.3602071172729497
-0.08317195836260909
-0.5981480699061944
-0.1338798333333
-0.1964810956216082
-0.3293291788496516
-1.249186231772776
0.08164582592783881
-0.09931250152325585
-0.2326702128996
-0.1197865139177665
-0.2034336446467592
-0.1154696777458151
-0.4073438455556844
-0.3648413563008708
-0.6596236837740003
-0.5076983540438291
-0.3414299388555682
-0.1313579279044428
-0.05658125056994193
-0.2174721982580947
-0.1100373023224272
0.01006336399842425
-0.2196481577841106
-0.0214672807094938
-0.03251009265002175
-0.07800502857485371
-0.02684260223645996
-0.04681850851864002
-0.02313544798949939
-0.1920584025946138
-0.1732354368491517
-0.4302616779979243
-0.1035590868693105
-0.02424560073502045
-0.02887127984712142
-0.08771131610291899
-0.3499230655052438
-0.1129709786284266
-0.1404669652719943
-0.02414246752607813
-0.02514420501385214
-0.1158895116217104
-0.02605275449146521
-0.08781105707095735
-0.07379554623449355
-0.7827631116994815
-0.05702011244007767
-0.0738012137683829
-0.04826432401891968
-0.06070090939759683
-0.07433645099497191
-0.06683884322754922
-0.04584059164268305
-0.06278880929346438
-0.06198142295954698