/*--------------------------------*- C++ -*----------------------------------*\
| =========                 |                                                 |
| \\      /  F ield         | OpenFOAM: The Open Source CFD Toolbox           |
|  \\    /   O peration     | Version:  v1906                                 |
|   \\  /    A nd           | Web:      www.OpenFOAM.com                      |
|    \\/     M anipulation  |                                                 |
\*---------------------------------------------------------------------------*/
FoamFile
{
    version     2.0;
    format      ascii;
    class       surfaceScalarField;
    location    "0.6";
    object      phi;
}
// * * * * * * * * * * * * * * * * * * * * * * * * * * * * * * * * * * * * * //

dimensions      [0 3 -1 0 0 0 0];
oriented        oriented;


internalField   nonuniform List<scalar> 
37377
(
0.01565749825070756
-0.8052471102646844
-1.449376635465225
2.238966247492411
20.61904275852861
-4.648259219824526
-15.97045921545929
-16.55977521912575
8.219624663147885
-13.28988778545238
21.63003834142964
0.2276720366055695
-0.009930175034015942
-0.03832746252670517
-0.1794143990526929
-13.91391393198722
-12.07976269951021
25.99417471462118
-15.08203434385822
-30.34915532993163
29.13058034597466
16.30060932781668
-8.944484285173566
-24.3520531978341
21.22956929156574
12.06696819145852
22.7558309980676
-22.15983695047454
0.5021749540147138
-1.098169001603757
-11.26778493605044
-5.807573187118057
17.07630735782352
0.1637297450848069
-0.4905570402828687
0.3968969569961844
-0.0700696618287395
-0.6933302314553369
0.5580911049319299
-0.6296640907933302
0.7649032172936239
26.58381971579639
-24.12489053923638
9.190330670551283
-11.64925984708833
1.512336815751926
-14.62357622062752
-14.31092832138348
27.42216772626784
-10.10261175492493
3.661919411317146
-11.81672514789597
18.25741749151689
-1.42956641016318
-0.6479866370126764
2.209677585536331
-4.877630542885949
-9.486180906851173
-3.427737750321825
-17.14070019268668
14.55135720567938
-25.46263289219522
28.05197587921062
-14.87648630381816
29.4476956647309
-14.57031322614491
5.336354090516147
-18.77962442190683
-5.077878815479668
18.52114914687383
-19.60237568235607
18.71695546150717
0.8856810474085264
-0.8220114766305479
0.3071828971425798
1.125008021147691
-0.6101794416821357
-0.2378523112427296
0.1647115630559016
0.2119745306302616
-0.1388337824515538
-14.04004097089823
17.86707712224332
-2.562421372852001
-1.264614778456327
-21.67239314038911
-14.9772577738179
17.04727523185137
-4.708362415841373
15.79260422816676
-23.88742458699054
12.80318277466622
14.84938794796753
-11.62176770436762
-0.379596116729281
-2.848024126870092
-17.09344274870994
-9.021962438570633
14.70178100424754
11.41362418303464
-0.02949992853537627
0.01931965389698269
9.727335905761564
-20.24887168466057
-8.186699498767846
-8.443377740823559
32.55774311062071
-27.4149275035923
3.300562133798449
39.66487583272035
-16.6347711809641
0.779188874076204
-23.80929352583047
23.52575322305974
-16.29539223637529
4.252650983099937
-11.48301196977846
0.1594838350532368
-0.2631707116656085
-0.4839474134234589
0.587634290012466
-0.1189073556010485
0.1050046470860647
0.01012294449051183
0.003779764017914317
-10.20516370909128
3.514233736472486
-11.99110493131579
18.68203490399823
-30.54002256550558
25.67253558573539
1.531405570060849
3.336081409716114
16.60632269676901
-19.01164477146085
-17.95788430509344
20.36320637978542
-26.56116503110984
-1.125878728815039
4.119933545353581
23.56711021457207
-3.482597797357126
4.908509201299669
18.21434123967781
-19.64025264361872
-0.9385544445791996
-1.52106923789335
1.351284217277508
1.108339465204666
-11.21731432841207
2.014655316842883
24.94859916700581
-15.74594015543661
14.27203172395539
7.285635816896374
-5.887906128178898
-15.66976141262657
7.322232655044373
19.97889076754038
-43.18906780335132
15.88794438076762
2.877108386779321
-19.3386667530461
-3.924550048569063
-12.71987962781595
-10.77367485734827
-15.57493424053287
39.06848872569709
-18.93604899476367
28.59449310652569
-5.703091543991166
-3.955352567768512
27.32008307488015
-27.16903014812252
-3.80004130904202
3.64898838228628
-21.59024692017267
-16.49568803200192
10.12421985474481
27.96171509742683
18.59693747905542
14.14178037816335
2.998801910005204
-35.73751976722194
-20.22344471809348
-6.321085576855563
28.07587848376713
-1.531348188781319
11.48377235452589
-20.38467930632932
9.051218167524087
-0.1503112157212799
14.56681168772022
-17.48556044579537
2.91924546837119
-23.26499562279513
11.40126341252158
10.94401764014
0.9197145701338812
21.60690464637879
5.1871909272872
-2.036431958842557
-24.75766361483362
31.03870154776804
-9.158308717937532
-0.9270295197141467
-20.9533633101078
-2.968636193791081
17.53595184622169
11.34461596104538
6.696104162113163
-18.90888527400361
0.8681651508891474
-17.5067010276726
-3.56621297521507
21.073251837329
10.31978117693528
-4.162702725810351
6.500873659053538
-12.65795211017622
-0.475571135733883
0.07043109079043249
-0.8857343356320262
1.290874380546287
-14.69464043604122
-2.094178952493334
16.78922373404605
36.6678393334526
-9.098200235731596
-16.74827698287105
-10.82136211484819
0.0294819627834625
-0.09842745757855564
-0.04996186080983214
0.05756799769703008
0.118429208875768
-0.07099255949263387
29.21759951501197
-20.03603494780679
18.4654016379994
-27.64696620520846
0.1392222110306912
-0.1268811210265545
-0.002218145518899676
0.2151175072364659
-0.08904539378574043
0.03863944960179855
-19.97357327560459
0.002935728679236727
19.97085365345405
-23.7940112206905
23.9638158788741
5.815269186351225
-5.985073844538178
-1.560035665699669
26.57977929190317
-10.69885461255777
-14.32088901358578
2.288481123629833
-2.21579331994158
-3.680349505811976
3.607661702093168
-0.1433159042525107
-17.28502187064058
2.527639999198997
14.90069777568667
5.841958158174538
-27.41438184518921
-2.277651158727022
23.85007484574253
0.0222134452999774
-19.99562079531068
35.21633434892337
-9.091974179911206
-46.46750533571834
20.34314516670879
-7.244841047095592
-4.340470849453235
32.36286923613125
-20.77755733958238
-23.05761253323998
14.8480858327582
6.140645679775326
2.0688810207051
-14.44350991598046
1.054684900072994
-5.756693879730231
-18.48509897168759
-8.561661672116138
13.80336260626384
13.24339803756932
0.8087837794481381
-0.5473640656689478
0.2055424913556827
-0.4669622051386806
-9.607088777011491
-20.25524412110936
9.230500209398331
0.07318896882565394
-0.1167116010847162
0.02642687050126052
0.01709576174975193
5.395570334294898
23.76590958884239
-7.650609114334011
0.05095145589253006
-28.53186223950832
25.79020667234458
2.690704111279185
2.398813262614314
-0.3932507536200638
12.56961216225128
-14.57517467124523
24.20917021868632
-0.2590302214077704
-5.278915895762668
-18.6712241015038
-15.87609137537173
-0.1662428388543415
-5.630058926161661
16.45297100176705
-18.38781167584721
-24.62632435702916
11.78481792811067
1.859892388631031
-15.06801858657031
1.423308269849171
-25.42320440635732
-0.5506689257988175
0.6519982207243074
25.32187511143321
0.8953545019815541
-0.9469458748029858
-0.3255997932277501
0.3771911660360249
-13.11598350119919
0.2208908308635751
12.89540189867857
-18.24934821252014
17.08084531675148
-17.0763142188145
18.24481711462751
-1.725000142626339
0.2434625023263818
1.456141335444753
0.02539630486956011
-6.397382879046832
22.85080362334534
13.00103030891601
-24.86081995735138
25.29594790629958
-13.43615825791779
15.6969745428639
-19.43710172214183
11.03888578312001
-7.298758603840419
27.80340367492433
-13.26397373035608
3.666715412468771
-18.20614535701071
17.65497845306045
21.89945580703175
-22.2743013218937
-17.28013293819579
16.75491150161155
0.9003329912366302
0.1531784738662846
-0.01123224864745236
-0.08314947813342423
-0.05879674709425547
1.843806469924988
14.08590479969049
-10.87173388203318
-5.057977387581809
2.798640890160054
1.385304106332785
-1.426073662075032
-2.757871334460015
-11.65699125229702
-5.960743403476648
-2.598201088962062
20.21593574473873
0.009645498539565889
-0.1244040334422654
0.03257998235466194
0.08217855254146522
0.3480126890414232
0.07029054065180666
-0.4156221388112723
-0.002681090890878167
0.001923838950999839
0.5464114903024273
-0.5897177164193658
0.04138238715613093
-0.7645152301967777
0.6919970328109523
-0.6006223214714513
0.673140518817008
-26.03339066180659
14.3764265947443
28.41187556867636
-13.88242330078764
-3.602631222203626
-0.0270868799988633
0.153560344738621
-0.1246819697095707
-0.001791495036782675
24.20821486409054
-23.65294931100204
-3.523901746879029
8.000606011473808
-13.58358920995201
23.76805119370349
-18.1850679951578
0.022753119816887
-0.04431244620392855
0.2366768336183654
4.27281411165862
-21.7791170318618
-0.3090343170341405
-0.2408625657515904
0.4077469394797361
0.1421499432913398
0.02626632636305114
0.1705238823616325
0.08521835050581524
-0.1289798997169666
0.05085254364144612
-0.007090994441584431
-17.79113178425229
17.28522279596476
4.548154915509403
-4.042245927226031
-15.7909261070713
23.34303232631755
-3.566538482003209
-19.77622394818103
4.776084349121407
-19.93278754736657
1.992763509117234
13.16393968903337
-27.2860147565773
-0.7011958089968123
31.60215348015663
-3.614942914577297
-6.58067623674195
-23.89719891516624
23.8057845021793
6.672090649733108
0.1058830573415733
-0.08093596564821916
0.001857929877137159
-0.02680502157888559
0.5058475455141789
-0.7245432857541976
-0.01236022631174541
0.2310559665303397
14.92363092592025
-0.1701726838443276
7.203680929390851
-21.95713917146572
-0.4489732802521744
1.084169021586541
-9.375100741588822
8.739905000274781
-9.638682535282415
-16.78023544744227
19.61472206175227
6.804195920979471
15.56336917012239
0.103333165492483
-15.55067861411682
-0.1160237214975977
19.76731823725319
-24.19616150007009
-8.45058949878263
12.87943276159844
13.16412457579409
18.19212151531567
-7.82400805013011
-23.53223804097896
-0.2087144059580756
-0.5397110884053913
0.3456200253876542
0.4028054689686578
-7.314806865793717
11.12077668560119
11.6018379183903
0.5215096594716184
22.05280741417932
-16.01540673216365
-6.55891034148859
-0.09988352826242725
1.43082615438749
-1.324977276840844
2.415780674665265
6.053321636321447
-9.719260340464647
1.250158029459218
-24.93566523233601
14.36501790574795
32.17755197294466
19.06936252576146
-8.149619920723632
4.003888320883121
-6.799446343425323
-1.402302665990549
9.520376469033819
-1.318627459655294
0.1034424620437956
-0.124472275946474
0.02102981389797813
0.0662662375507005
-0.1510340768149182
0.09302987739444102
-0.008262038134034122
0.08165162632686832
0.1016534785989307
-0.1278110455716564
-0.05549405935891887
-0.07509767650794337
0.1173567657101407
-0.01277712642344318
0.129708788405307
2.905357607544511
30.42868173966808
-25.1696226941108
-8.164416653102734
-5.749395693755302
2.591634914168766
-19.3934508280117
17.1026803306311
-10.07216155816159
-8.322817913602488
1.292299141136418
-1.754014326818622
1.884544338887767
4.444457326416091
-4.574987338550883
16.0146463327491
14.20161675407351
-17.08698550407962
-13.12927758274152
23.88842851767919
-8.361075487207563
-1.224733712150811
-14.30261931829835
14.39948642788964
9.380008117829558
0.1089339719782176
-14.87454496742042
3.036475118811564
-4.510941775789305
16.34901162442348
-16.9356195374121
20.58871934626038
-16.37297943666387
1.810055242326299
-10.5223286975854
-9.383175797280396
15.47342850564403
-18.28547578141341
12.19522307306582
2.774469324182399
23.12032787681425
1.169352339792253
-20.46550189153106
-2.427967781578407
22.89381582645793
-16.94602343267304
-13.58642042683762
5.853235908473332
24.67920795108061
0.006104150883217229
-0.1131921440279565
-0.01979312788574729
-0.1437750902943902
0.005902603218985702
0.1606256068884587
-0.146969687259666
0.0694608345141772
-0.08203528343113316
0.01265283293958702
-0.250867379719139
0.01485229867155376
-14.49356671794016
21.84692909450401
2.984872806596869
-10.33823518314785
10.48663718228309
9.269228540610131
-8.605731052803625
-11.15013467008935
-12.7252194231071
15.29831936769664
-19.07141534759344
16.4983154030047
22.33535709169255
-22.35370218194311
-0.2603401661672578
0.2786852564259727
-0.140979733880113
-0.008234167242415949
-27.09552244169609
16.42081639257948
1.940333827420445
8.734372221719441
2.338673094474812
-26.29588333675261
3.14059931503972
20.81661092723842
6.159261260653373
-0.9937439930679011
0.3468899033249728
-5.512407170975734
13.83565920288772
18.0704625381192
-17.33022899077739
-14.57589275022931
35.42107833923884
-13.28753639305559
3.238427967865115
-25.37196991404421
2.394449596919678
19.63832704074717
3.504118271510048
-25.53689490917267
-15.14806845410833
-2.789061234166967
-1.946760711803212
5.729919390192645
-3.108498542628504
24.14838168055726
0.5044966326906414
2.39726700464713
0.229802473764319
-3.131566111162855
-20.70033449808804
23.99691652131819
2.433337366963396
-0.9901418137526433
-20.04121556317946
-0.1393020054515242
21.17065938238278
2.425219978662739
-13.06750092220383
6.667526080929276
3.974754862613129
-28.48704923020479
28.52703465009372
-1.030127233643152
2.504558817557809
-30.35818615766326
7.812411776925398
-16.62026638981916
1.095527070508114
15.52508491035451
-2.32475833652838
-19.28200957792946
21.60708305433259
8.102479595822972
-7.835896097264504
22.03935030962019
-22.30593380817614
6.128663288539498
-12.12018084694486
-17.20366611001091
-11.56812212328981
12.07972733624584
-5.426680763775894
4.915075550820912
15.57955809247695
25.16665784425217
-44.83819981519559
4.091983878470689
-21.62996989984372
22.70249715432755
-29.55957648469155
-5.539705408900547
5.514666459822099
32.4832159665913
-32.45817701750819
-0.7089384518004769
-1.129969232760342
0.02187102459178037
1.817036659955403
0.3794044628531135
0.5838148539147613
-0.717330847426619
-11.81584909389333
-11.07766800990164
22.89488775396513
-2.733315049147458
8.185121412485566
6.683316594269167
-17.07281458746696
10.6263118892558
28.41723442167325
-21.97073172346903
0.5683442498891955
6.669022463304533
-7.686339993390387
-0.2669858934940474
-0.1664189320833462
0.1990658811110645
0.2343389444515579
15.23099611909944
-8.46560959387083
-14.80354109189243
8.038154566668025
18.83259854535608
-26.93712948469464
-19.17723912319401
27.28177006254583
-4.197114519829895
18.68145291702458
-14.48395193511026
-1.888070077485646
1.669773028976617
-1.295672751257865
1.513969799739185
0.4987685788233236
-20.26125674725855
1.311814566310441
18.45067360212718
-3.990568516046954
-20.29228654628912
24.05332719642552
0.2295278659088583
8.224041211011638
13.83981138776195
-10.05590020424683
-12.00795239452653
-22.8726144462094
11.0580522002283
6.781257249218696
-21.17960820900169
14.22817827593916
1.699781482380951
21.99689105496244
2.467481639526502
-26.16415417686708
13.05485968365613
-33.60763268283186
18.08742348380593
2.465349515370939
-34.73007829528063
-2.036928903421213
22.58434878207141
14.18265841662482
13.45347911884028
-12.66960428044541
5.298938482848318
-6.082813321305584
23.74202925008597
-20.54196304243498
-7.213540624939012
4.013474417294019
30.25947324622376
3.415259595906065
-8.734300105282934
-24.94043273684427
-35.14258572245357
24.90369902052855
18.43525243523674
-8.196365733344814
-16.17940756418892
24.54694242201195
-8.366886136677888
20.76999063427216
5.946809061433475
-19.51311876631444
1.165547564641433
-7.144761291990648
-4.779452265930105
10.75866599318751
14.72827974457608
3.197260855025985
-15.52389883698664
-2.401641762614255
26.10459623132204
-3.606122157129129
-29.07595977313717
6.57748569894553
-28.80688363264657
20.08607855228119
3.841044522736274
4.879760557646382
-3.227999519341456
-20.36544746739079
3.206876702530709
12.5232114099145
-8.387345503603232
9.747047735530575
-13.88291364183829
-12.19759304868826
12.155803811175
1.545493256836652
-1.503704019317723
21.44845727374052
-4.275013861565255
-18.3928061305771
1.219362718403083
-0.5381284079286139
-2.606991813704122
-16.30484426667431
15.078604168012
4.732066119316922
1.346980775240079
-21.1576510625679
-17.55116920393233
11.35472631934913
6.666152078016825
-0.4697091934338798
15.11671773929232
-21.10211919385841
-10.66581572192368
16.65121717649959
29.36757828538682
-8.925040481542707
1.361070082539765
-21.80360788634828
-22.11897608850113
-15.08739854105455
10.77633152721353
26.43004310235272
20.2508847745573
-5.435308386295273
0.2630277797505581
7.584368200442997
16.42916621502139
-30.27834298992873
5.928400459415308
13.87237416918192
10.47756836133258
-11.13817091378669
26.51017163223888
-0.4818094648823359
-14.89019125354269
12.59248736066603
0.7408614867570548
-17.77518912157479
4.441840274069921
30.73862983763718
-7.234373330001512
-21.05644498003807
-2.447811527597207
12.68632665330611
8.436632231079813
-0.5637422088302276
-20.55921667555624
-2.96063381941251
-1.177351550273196
-17.06003269419292
0.8209103345227059
-5.157057454652107
-1.43797654980898
5.774123669817771
-1.280035266227772
-22.13005405084952
22.89085927533805
0.5192300417466077
-21.64329118747591
-3.428544900165304
3.682918195875028
21.38891789176705
0.4715914760579618
-2.208389407444912
-17.45086275731118
-2.441523884224431
0.0476178381283164
0.03520146330582729
2.358704582699425
-15.53783545690883
12.04851783921722
-11.71699052315409
15.20630814084746
20.11403974635303
-18.43030741911993
22.66151746434884
-24.34524979157206
32.62170327305979
-12.85476394001193
11.27176221472479
0.01283079553292489
17.56030295191997
-17.57271319167613
1.921793098823504
1.71615667198355
-1.802153005095831
-1.83579676576176
4.264620496843191
-3.538724714260708
26.01733186477569
-26.74322764735524
22.59336756785003
-23.33213888121155
-4.795253304558452
5.534024617923285
20.59730627056761
5.669421856016697
-7.042080012492193
-19.22464811408797
-14.01172885248465
9.121020429115806
14.10660222850972
-9.215893805139977
18.66868092156184
-10.99393609708255
15.03348000339471
-22.70822482787223
4.265076975446793
1.232208660230977
0.6619756249025353
6.538908130842008
4.679294661595389
6.186257667120997
-17.40446045956179
-2.20860715628634
-10.23791132269549
-6.633651560268726
-20.47013485202994
-15.29965151158974
50.14621295836622
0.02125735145113845
0.2788035668550135
0.3022393502223581
-0.6023002685594566
0.6265793015670835
-1.34724651497713
0.4428898831532964
0.2777773302388009
22.52551998082084
-28.64200796173408
-8.849795720694164
14.96628370161385
6.679035272270142
-4.871864080475135
2.51554023595813
-4.322711427716111
12.74277598740915
4.639887836943355
6.549867962961021
-23.93253178731982
15.01710930220828
15.67628826153431
-15.76347178311774
-12.94748917392154
12.26643593133561
12.79984520326276
-12.11879196067664
-22.90215921684166
10.67252834591109
12.23047749337181
-21.95832135531051
10.01616234731116
-1.005330165923081
-8.969856315874614
-2.582398767074268
23.81869101429268
-23.66301637173813
-0.4285126544535814
-0.5711805169018437
24.66270954311904
24.44192659741029
-5.403604092473504
6.991971441897082
-26.03029394683132
5.881853109200729
15.25545080320249
-21.29612119575991
0.1588172833583884
-11.28522414007698
13.18987203734608
-19.94855335072677
18.04390545345923
15.72619370197608
29.44185544362885
-46.36853280897807
1.200483663374613
20.45668981768369
19.47294532442358
-32.60740248706214
-16.73148239620699
-0.33078787335855
21.3268907664105
-11.16538759861541
-21.0791698111679
25.65163904886726
6.592918360925107
19.94679880223842
-1.338680005550513
-18.60763056120408
15.76049110072778
-0.6525449229544524
1.611806574438498
-16.71975275224979
-6.116388430429259
32.35873052581783
-22.52110978903711
26.46100115951564
-15.57457999418749
4.614421374821048
-15.50084254014384
30.09659847152835
10.77028183706038
-38.7948690838472
-2.072011224706774
6.039957087435491
9.473146314433002
8.447275651885047
-23.96037905375209
22.62080510127056
-20.84075380743599
-1.779805904618978
14.84108905770867
8.902741323069719
-10.35064780767749
-13.39318257308707
20.44236746023091
1.922363619599982
-22.31658517064504
-0.04814590918628464
-0.03922159302994149
0.07833292796307008
0.1306616511241296
-0.1697729860664693
-15.84790911001634
10.31845470964702
5.530184035379176
26.73755879753559
-10.61939427613586
-2.10042018758912
-14.01774433380754
-9.61510820528011
-9.920760898745323
19.53744591571193
1.599308868720008
12.21524605954093
-16.92876903701778
3.11421410876555
-23.34071343150822
19.71711090028779
-14.87073162515626
18.49433415641541
-0.2533930955645263
-31.54482142685033
7.776653581472709
24.02156094095138
-16.26443619343313
-12.8302243813916
-8.140749855651897
37.23541043047401
-9.153595624642229
-32.40478211542973
10.6286943776551
30.92968336241864
-2.931017647011994
19.60412834342998
-17.6440898004141
0.9709791039955499
12.00016706536308
-13.85959608431651
12.40142179307248
-10.5419927741182
19.60588842946827
0.1964267668808769
-19.80210720863341
6.020453958057185
-6.238939666448866
-4.63454495820571
4.853030666597929
-4.080780305455791
-19.4635756774862
4.537005560627307
-8.496620302708447
10.46468614658743
17.41604250405168
-19.38410834793288
-1.72813144279008
19.57440369696476
-28.32144001697473
10.47516776280035
0.06234174680297235
0.8533089122490268
-0.2890713575038049
8.104465976068317
-7.711243529239606
-12.21342417824709
11.82020173141855
17.82727219523473
-5.81720135620801
16.94549682626936
-28.95556766529658
-1.654115349309768
14.42274060604665
6.663437608443554
-19.43206286517764
-0.01202899313138727
-0.1584506692876205
-17.68699348060083
30.39898953885269
-8.797141151791578
-21.79164498894476
12.20144388357245
18.38734225717067
-26.86857380377132
-2.856792677277249
12.99388408484284
5.699899041911269
5.807446916729437
-20.47144284648415
8.964096887844153
-24.19953254957592
-12.81158649101535
10.14254523682165
0.0942240512350785
-0.07490439734012735
0.1002971634489247
-0.006073112216362098
-0.0676224045590544
-0.2369853221837027
0.1293038377672577
0.1753038889542435
-7.161764605393051
6.517723205204055
-0.0902783185628144
0.7343197186992459
-0.02201569950063385
0.189677783922876
-0.09840442710023764
-0.01996369796537163
0.07828146394734799
-21.61373343583204
-16.43217583813874
42.1776601819395
-4.131750907968023
0.1394595541117412
-0.09917221110119809
-0.01925752911686183
0.09893248061108113
-11.43820154381306
15.46331325654096
13.4161178420775
-17.44122955480346
10.07770176866729
-10.31069240243471
11.79824723701925
-11.56525660325134
0.904915129620236
-3.820071942799681
0.0006791373287794997
-0.08271442076444881
25.00075672593024
-22.57734897537969
-6.239307965442917
3.815900214894174
15.58767215730774
-13.2014233234881
-5.666199731075348
3.279950897151983
9.623741704373161
15.54133227014865
-40.7029094314294
-0.1391609013763107
0.01854508535876982
-0.02543818227597367
-0.09153436066685915
-5.57386812191602
0.9256085681997569
-15.5800196337896
4.555991705638212
-16.80370782685333
12.7068742749835
-0.459158153775563
-8.671520091752406
1.511764663199652
-10.3794533028096
17.53920873136243
-8.2414060981188
-12.75770319625403
-16.46047608777025
37.45958538214604
3.556949084908363
-6.68058209925055
16.46820182312061
-13.34456880881226
-22.57882429156003
29.80930971031321
-7.23018491252222
-11.14295673640388
14.21734144473769
31.40321431591389
-34.47759902423081
24.11900592562287
-17.51248123993798
-9.777610747366076
3.171086061687824
-0.0005280535108434961
-0.09411900516134171
-11.97607482386755
-5.303230467042976
-5.177843967497395
-14.20532842452707
24.20182775161076
-17.38814059546434
7.391641268370052
-0.03743646485121601
-0.03766121165965199
-0.06287464712886
-6.055647727498933
-0.07774488167944077
5.400890194354617
0.7325024148188667
0.01103437820134432
-0.02625231875594089
0.1336471494254962
8.473446029345633
-12.84874329274105
7.849516341612363
-3.474219078223692
-1.046571434810684
-14.68556654938993
-3.664773728734994
10.67127722315045
-4.289775943969397
-13.6135127041965
7.232011424971697
2.65807703689384
-2.70249453398411
20.80704318559078
-20.76262568849774
0.0463642062144205
1.114583350268554
25.55374318591799
-22.1399010927292
-4.528425443417951
-24.54651238825782
6.480877674395265
0.2287133627853155
17.83692135107907
0.7127062915601013
24.02536519115417
-24.73700451376368
0.1069399583497501
0.1622283841637454
-8.413968782691652
11.52967620047428
20.22732490853544
-0.6558250381700025
13.2707784974677
-24.56942207594694
11.9544686166518
10.32700394936848
-0.739802454368936
-2.04723758110466
-7.539963913893718
-20.45749845659714
7.657975888862026
4.30290226502427
-2.73503844364186
-0.9993047539708515
20.99212319782783
-17.25778000020707
11.79907374008302
6.336159783149806
-18.13451369963641
-0.4682047070102318
0.00579842375787908
0.5120920884233102
-0.04968580519022002
15.22735287536693
-9.334423758819009
9.670440053574907
0.9754533214208061
0.1410477728322344
-0.002910261918932802
-1.113590832453612
1.226590574539218
27.40586632201276
0.7351213888735656
4.163724064947709
-1.258963089209061
9.397010459538148
-12.30177143526304
-3.900968131165915
-9.017115840913315
-0.4263017908764049
0.8905642442826255
5.198248327920496
14.21441484906801
-20.3032274212659
-0.430360834164898
1.453098269320056
0.9407955672845834
-1.963533002506946
17.57632429101064
4.741239571004681
7.583066055545342
15.54837752475651
-19.73951090643595
-3.391932673866493
-3.692517891372848
-0.3708728113403224
3.311427959933567
0.7519627427786407
-1.378683175341007
-15.06126837703143
16.44035918709188
1.11776875115385
-11.12743315145572
-7.184800443334849
-0.5863667612038285
-7.862017777062903
12.50617655357913
-4.057792015305295
14.48201750452401
-9.865466111733532
-5.202918153988944
4.983057917582613
0.1906816607735415
-7.485586384425439
2.311846806063217
-0.06752163011577203
-0.002694633283448464
0.02687376964629272
0.04334249374654729
-15.88256420126175
-3.027417146830307
18.17655338647025
0.7334279616245162
21.17470593806015
-22.24257060637678
2.320068636856506
-1.252203968536243
10.95426267650485
-6.637878960637071
10.16563378865602
-0.4725273752108455
0.3741276801486116
0.09591845432439058
0.002481240693216864
24.16422511505782
-5.665892077135521
-0.9872079976871491
-17.51112504022965
5.018844317236686
19.15216304642298
-1.002527530756737
-23.16847983287383
21.93072158545326
-12.22541136988026
-0.9454588172233866
-8.759851398344406
1.251444971509475
-0.2029141101117575
-0.9768144688291299
-0.07171639259171807
20.95846195670294
-13.36038919269279
4.156343495306122
-11.7544162593099
22.85236460373909
4.232106091657253
-9.350750593351465
-17.73372010204247
-16.93217720210684
-15.48247300327783
30.71247127562814
1.702178929747629
0.3291447147197433
-1.008044559799657
0.5439982890990039
0.1349015559516535
13.69497776196377
31.42770930980067
21.79560823775519
-3.365849828109566
-12.99722203866203
-5.43253637097729
0.3700073963950821
16.54349297020894
-18.41272586018008
1.499225493597725
-31.34273108443201
15.48702873034057
8.199599600877582
7.656102753231885
-20.23028346806154
-25.09585983241454
25.91433082034699
19.41181248012883
-2.355077825016335
-8.119148273515135
19.45526202827453
-8.981035929742349
25.16730013278771
-12.38809755323283
-15.13428040456725
17.53574393006158
-0.5806443653771154
8.212200568108431
-2.617172104862527
6.62337969858595
13.52953633634575
30.49370165385822
-39.18632100567647
-14.36499318142281
-26.32013324234714
-7.582938046880868
29.6937380868205
4.209333202412079
-13.49512373959212
16.639828031723
21.47836105527255
-24.62306534737976
29.01291247779315
-34.68355857312135
20.27671373777752
-14.60606764243013
-18.54528477394113
-8.350310523437612
22.99475098687933
3.900844310569541
11.48474600455573
-29.6300628362159
4.650193092118522
6.449771082432605
-10.85329636413041
6.997317325895652
-2.59379204430347
32.95586393975113
9.610356541819241
-1.658605171362818
36.35224861171928
-13.24326217011546
-21.4503812702321
23.210177300239
-11.89474237610421
-11.31469106100847
-16.35571277617307
19.11387841215269
-3.058173062048606
-16.05545621859611
-1.058090846035053
0.5623117873161038
-0.2633631734705094
0.7591422322075386
-10.94906450626542
-18.67518274266221
6.139240265333934
23.48500698357888
0.1584021928937524
-0.1724098615731542
26.07479451457505
-8.892305472795556
-3.895761369232131
-13.28672767255315
12.4559995345354
9.721042520287543
-10.69326970029756
-11.28845626970093
15.80941008712233
-21.38122093860747
16.86026712122599
5.431417931604122
2.842849669176939
19.02409252488763
-27.29836012566023
0.2911221721131577
-0.4059083667594619
0.3177099350045482
-0.2029237403929478
22.19215618418819
8.882997898792812
-25.64373615134633
22.41082027927493
-18.15967467664915
12.00399339054822
-16.25513899317059
32.32186089714915
1.082788857529626
-9.535420354639641
-23.86922940004826
2.439160627902801
-27.7805243987015
26.51017051528702
-1.168806744472996
-12.24361165066632
24.39909381259047
-18.87970106133996
6.724218899412699
-17.18078060243405
11.9285629161477
-4.819943871863179
12.70323444157582
-30.63749558964843
22.50046806504962
-4.56620691698031
4.409152798692378
-5.171768058516428
-21.19452391164116
-32.78407049248808
26.65024772429419
-3.609026922281356
9.742849690478886
-4.560183531946794
-22.27186283583173
13.57358851046682
13.25845785731264
14.21271407923915
-11.92179480780868
-5.805887392087326
3.514968120657434
-0.2942671322066581
-0.7226308312961701
0.5705257665203669
-23.79941196387865
26.12322536298721
-35.10788389159121
21.70978971264832
-2.20003317706161
7.140491188710606
-2.90037837506552
27.9943790237083
-2.614294940608415
-22.47970570802973
-21.95740963582933
24.5637921775143
5.384060382374489
-7.990442924053077
17.11055869326946
22.30119362381463
-28.95724193747875
-10.45451037961105
32.32901486536311
-30.13567039053862
3.544237627477123
-5.737582102310224
24.29184124410791
-14.49018606568661
-13.99320578353834
4.191550605121165
-34.38953522721513
12.18775692648994
32.90733972995643
-10.70556142922055
-24.23253906150552
12.35080819976957
-22.50780436547128
26.85817294877853
-13.15807920653323
0.3044010109439376
20.15089592904869
1.592124893041434
-22.04742183303524
-5.885763387311403
-19.78179547683709