/*--------------------------------*- C++ -*----------------------------------*\
| =========                 |                                                 |
| \\      /  F ield         | OpenFOAM: The Open Source CFD Toolbox           |
|  \\    /   O peration     | Version:  v1906                                 |
|   \\  /    A nd           | Web:      www.OpenFOAM.com                      |
|    \\/     M anipulation  |                                                 |
\*---------------------------------------------------------------------------*/
FoamFile
{
    version     2.0;
    format      ascii;
    class       volVectorField;
    location    "2.2";
    object      U;
}
// * * * * * * * * * * * * * * * * * * * * * * * * * * * * * * * * * * * * * //

dimensions      [0 1 -1 0 0 0 0];


internalField   nonuniform List<vector> 
19631
(
(5.028290176206015 0.09522139792746413 -0.0008231147323210194)
(4.813374017720005 0.1472343792255561 -0.1523926681932078)
(4.956251856675689 -0.01955011221768403 -0.01522152017536639)
(3.866416607023675 0.04195518786053239 1.086964850280602)
(5.01571727554978 0.1194058417859055 -0.08872507449456317)
(5.060209853071233 0.06639075268150404 -0.2639246767757167)
(4.890508563678059 -0.3455959382942854 -0.158146246562543)
(1.625840948940528 0.02838930009223914 0.07956492630869283)
(3.296432530145916 0.3477128113746536 0.4538440414813027)
(4.977222045987778 0.01629632458987159 0.007364146219254301)
(5.002198373284965 0.03471800881260433 -0.1163103623287347)
(5.025790104903638 -0.08552937632698648 0.1404202331048675)
(4.45587354589665 0.5531345144064035 0.05859055791888904)
(5.037606106144047 -0.01842001353702647 0.1816133660486937)
(4.983674007616248 -0.001202972493109211 0.03275306396864422)
(4.863897429480087 0.1508732843463908 -0.07404330706718318)
(4.997725501318826 -0.1016425829475792 0.02647583786504357)
(4.630814033196791 0.03076247202708529 0.03697143696809951)
(4.456023543956285 0.3558468838659385 0.2014619502096761)
(3.732544561813576 -0.317513803331857 0.173901397488928)
(4.997950635757316 0.09964361288106069 0.03540871890283385)
(5.05949184362898 -0.0468951184856559 0.02266565781587056)
(4.456266020262361 0.08295194171281541 0.428684041393721)
(4.928202153214273 0.02249153674381022 -0.02727232505042839)
(5.056790856137402 0.05066787633678019 0.07870302263686321)
(4.988019072100472 0.09638623186269615 -0.006321241200107774)
(4.991771647041576 -0.1332220568787182 -0.05175053327538694)
(3.395920974610102 0.01550120995616471 0.1330747110474156)
(5.012491078930527 0.1961450242776841 0.1384329690699248)
(4.958748483161768 0.01396028965101506 -0.05737626354811879)
(5.082548370524797 -0.01511749814990315 0.07041376468022523)
(5.09211593158386 -0.00819746790707711 0.04022602528339795)
(4.906124072037189 0.1494429269996874 -0.2372218828173752)
(4.997816766106408 0.09187657817825712 0.01906861258671134)
(4.370537065519246 0.2872287129624647 0.03892672184102343)
(4.462460465821064 0.02305819804272581 -0.4398524059661761)
(4.94550013280693 0.05372863171364643 0.03249519127696054)
(5.347815923109687 0.2873788137595574 -0.1519904258721768)
(4.994652823927239 0.1950351934543862 -0.07981346194057891)
(5.6323205170325 0.2742666694998701 0.1163728708580025)
(4.431211650192727 0.2182337685427117 0.4033654808680908)
(5.024657223651573 0.07517295002977292 0.06314010397397661)
(4.977942423491788 -0.005381015459856922 0.02951875439488761)
(4.955364702006583 0.0555426723009538 0.04844948480688085)
(4.370348355685691 -0.2760962797455192 0.1582527767544024)
(3.552124744021798 0.6068178812471595 0.9762389179068646)
(4.969120983799725 0.001603163268195129 -0.008177495436467643)
(5.031317938114044 0.1005478622797079 -0.1090925226795908)
(5.035914049905986 0.07075246721834645 0.07078726919587923)
(5.046818459437729 -0.04511565864740964 0.1160884164399186)
(4.481131562218597 0.3966214297635067 -0.1589712043652085)
(4.832530184423084 -0.4016969593055887 0.09028771926754765)
(5.073624486269672 -0.007286256827592468 0.09433531978892182)
(3.724352634358216 -0.03466518938961123 -0.7273787631732666)
(4.964805981894444 0.05773507327107926 0.05370294806002709)
(4.547859442114575 -0.0545806343989479 -0.1878500576061445)
(5.052505063174288 0.006096241140655911 0.08314577738870485)
(5.057384173661484 -0.03505521830209053 0.1870065169668702)
(3.669470612848567 0.3242265746908995 0.1407850944165596)
(4.986107126485753 0.01418850510506204 0.04739449250285008)
(5.002543144543266 0.009994985897121559 0.01369820556162248)
(2.212094956667346 -0.1173923327493131 -0.0649859886934137)
(3.079369274076474 -0.118967912177423 -0.1550324917357753)
(5.005829015890287 0.09381340702639931 -0.008789396383515337)
(5.045628212301331 -0.02908904858641489 0.01186130914060708)
(3.238447357765904 0.08257511290304856 -0.142431742077753)
(5.066897434198912 0.01131800600952243 0.08432430127547275)
(5.038814378092657 -0.04914891288265591 0.05977148026448946)
(4.900195251604498 -0.09061421885823448 -0.03804129857832955)
(4.985430565577317 0.01780246860534966 0.007060996425249703)
(4.980871866804251 0.008970006094310114 0.01035742357082113)
(4.403886562097826 0.3966457857249255 -0.6489747118405678)
(4.967951016131112 0.01234677486246554 -0.02037888169466216)
(5.075901345066181 -0.007292477546129688 0.06933552981536203)
(5.073386739805968 0.06637657105690403 0.1092646841627723)
(4.9668278804243 -0.08753838218678167 -0.1570660073281546)
(4.855562593037651 -0.05387928906493615 0.004369438349173319)
(4.902848697158006 0.01936469634384799 0.133773485799477)
(4.996378695430422 -0.05810834464758291 0.3848265372700608)
(0.9726784396119765 -0.129717963454037 0.18579271965725)
(4.960913845070476 0.06506270651682033 0.02865530317857646)
(4.999884273384848 -0.2520794024744177 0.1117224886195154)
(4.905845024820891 0.1853774095484569 0.06412115021811027)
(4.749934855369872 -0.04201126166243672 0.2094483362478287)
(1.696187241112753 -0.1132860174251005 -0.2459180346007226)
(2.012258855530358 0.2201648216188339 -0.506520886803321)
(5.088961941841881 -0.04377958667323859 0.06254470810733777)
(4.911018384506103 0.05030276394372327 0.06410648543858274)
(1.840824401409134 -0.0706330919806811 -0.04370802241101512)
(5.006055655357573 0.07597589563395916 0.05209883762414697)
(2.073145577609725 0.1369074548635156 -0.04611938121718146)
(5.070365493779457 -0.04115754286381304 0.06708854245126342)
(5.072926178070201 -0.02951824014964925 0.06219069240230346)
(5.063604632034698 -0.06246969634169763 0.1009708299750196)
(4.805367732714803 -0.06124617138519856 0.2994126913255638)
(2.667733496222567 0.1645003845513457 0.2933951808395243)
(5.014113574059333 0.0321015715924781 -0.07508581816882222)
(2.677016473988382 -0.1201800909597974 0.1101967912656404)
(5.063515979035679 0.06342698877082104 0.1157353902557457)
(5.044166545092382 0.01995518837904228 -0.002519929351282469)
(5.086299520091976 -0.004809278257944145 0.04421882935131959)
(3.429315461018632 0.4892755688665689 -0.1835540926848908)
(3.415818690553215 -0.03159558075612546 0.05125397544160729)
(5.002455849852081 0.08486278555416499 0.03517205212301806)
(3.862556850630657 0.1015058103051763 -0.04308339340616354)
(4.057361020292941 0.2076588988587448 0.2932909586429638)
(3.558259833608746 0.1932911457232302 0.01804237984915966)
(5.051632670644043 0.06093873351748286 0.1506238269190411)
(5.072380010322671 -0.01987213115956384 0.0777797220677454)
(3.354529395776442 -0.1855433561814765 -0.1147597490555101)
(4.983478837474171 0.3442866931886618 0.0822370461842441)
(5.0149974777183 0.1053325391842762 0.2044919953661967)
(4.618934976345741 0.7867455207195211 -0.2044434046360112)
(4.58586984827419 -0.386208830201961 -0.05090061637752764)
(5.019880804857266 0.04453602018637707 -0.04057556696787738)
(4.795916747229196 0.008470576442407878 0.09242542948573609)
(2.741355809476133 0.5464725750085374 -0.0984804048111444)
(5.039612840990484 0.1008593550641684 0.1404027406141506)
(4.866542489976061 0.1338029778810396 -0.09424329023438867)
(5.068818420810482 0.005164733640345261 0.007757514203140974)
(5.064933708921939 0.0002842257197671068 0.09310407004342043)
(5.040294267729653 0.06392030809079288 0.168109114731531)
(5.035611771895455 -0.02257096463146484 0.2601722010535064)
(3.355919677058659 -0.1737322461170435 -0.1421905572048159)
(5.04163808581221 -0.09183589100813526 -0.006956472542283848)
(5.035357829201758 0.006513255247286616 -0.003835402032032416)
(4.925230413115921 0.2453716832261228 -0.02731146659651191)
(5.001031998634686 -0.005773314887656952 0.2498615980038457)
(4.983374122873017 0.0419428096085511 0.04194558636373057)
(4.390062731669754 0.2364044503537479 0.3376968535190327)
(5.055905029039956 0.128481853257873 0.05782190939718694)
(5.001176277329716 0.09468188881552533 0.01714154395133853)
(5.03199347700448 0.08179631231954439 -0.2657118398691956)
(2.378814113728779 0.1414508901644113 0.3686189186855945)
(5.010116241990176 0.1632376684360653 0.01159356658193374)
(4.020552703335611 -0.001072478922973207 0.5563102976646491)
(3.560045491508675 0.2200613685328418 0.2184921115223446)
(5.11489720736812 -0.1278942678523079 -0.2192895738557215)
(2.266640513783438 0.3331202426252042 -0.6414247184573433)
(5.01812741436068 0.02666584695713265 0.08878780373766477)
(1.327490214975959 0.1538764081248582 -0.1214582494607403)
(4.226127645211189 0.5987048594100822 0.722864245467351)
(4.310925363559224 0.001370831779684772 0.02222430948716123)
(4.964406860117243 -0.00172471271371229 0.01007349402468064)
(5.071874228791873 0.1336026407646835 -0.1171252437744368)
(4.153283434035435 -0.05856362535800937 0.1837148301540476)
(5.029352629548873 0.0230400778914499 0.05141891175950052)
(4.984025373457491 0.01215214743011873 0.009709039044537656)
(4.968979233405612 0.02245179265502092 -0.02180790998545617)
(2.846747256071596 0.002762081176664807 0.0970366126782827)
(5.077840453684313 -0.02658379708998383 0.02565011650495366)
(5.066937407184279 0.03226988145290216 0.07631118117360659)
(5.05471466025388 0.006439928657264622 0.09280891432215156)
(4.990565557592801 0.05177352594311654 0.1306459645249746)
(5.05837565754968 -0.02978397933260389 0.1225377604996203)
(5.019209553963139 0.03535345983203018 0.135451444356488)
(5.010788112445657 -0.08593847132608254 -0.02334544311775162)
(4.971957336823492 0.3926580812866377 0.2803824613786175)
(2.443770533006041 0.01549412828893888 0.0688604426253448)
(4.426209178569355 0.2447423026882168 -0.05066006528687281)
(5.058348188699932 0.005534541209073485 0.03527803501803026)
(4.986757824268641 0.004836384490502654 -0.002477166654097576)
(5.063691474252623 -0.04019752801734939 0.03863429008995381)
(5.05762728942392 -0.04204096925927678 0.1040058374124795)
(4.954266832902221 -0.001760251482881662 -0.004700689649334466)
(4.957113323071379 0.1577887989831153 -0.07165693381272251)
(5.064377725511124 -0.07789943517894411 0.1238742767234179)
(5.100139941062808 0.08227605048880793 0.01965629578866156)
(3.23438593706577 -0.3732188632057228 0.5905555119848586)
(5.001325092847824 0.1045619373979333 0.05565051090871501)
(5.013759821768227 0.05215139020349292 0.1176238768291122)
(5.015196368903731 -0.07956456092981735 0.4798597509790961)
(5.069179595593701 -0.01756096003491297 0.2561900315841369)
(5.032820364229845 0.02833115825297629 0.1589571696556688)
(5.053665874688543 0.02109086948492634 0.09750360975582795)
(5.011101255574688 -0.004250379295369684 0.07240930589713931)
(4.958863804664464 -0.003260563557467584 -0.03080940574695134)
(5.069073738992463 -0.06952872701896973 0.1137647593809813)
(5.01994054132521 0.03488812528707901 0.1598776363643906)
(3.988645760381426 -0.03572280162842851 0.4363711788438554)
(4.998317305279518 0.001725999565856148 0.2822854102094721)
(5.009697596184629 0.008993851806082748 -0.01014529364724167)
(5.018485198890014 -0.04111024851629683 0.02169255211457368)
(4.476477129701994 0.1191468360175187 0.2939587574739045)
(4.982835251238146 0.117673976196017 0.02002871660836996)
(4.926708496301837 -0.03046331923282726 -0.005404149878781893)
(4.983771610342593 -0.02100510415859558 0.1025169504306593)
(5.020204411550095 0.03495148379917205 0.1615973980986753)
(5.05022951592862 0.06678944042493544 0.07654245527054869)
(5.03996186364328 0.0006481875276685835 0.04621115230039272)
(5.066369450865924 0.04690976918189851 0.02843174086991775)
(4.78152862588169 0.117400533808792 -0.1979752845250601)
(4.964771537408805 0.06245630608861925 0.1621179590257288)
(4.980313289923699 0.0011498478692232 0.01690471917670571)
(5.048114597401617 -0.0152912771348394 0.1114203770668431)
(4.540721269900788 -0.03971644952134448 -0.603047042381078)
(5.074524905018312 -0.009491841258593375 0.08033280427796345)
(5.006842659996141 0.02322763308606821 0.0443027157062461)
(4.923604918898376 0.02266559369969249 -0.1241169128084737)
(4.920099901752669 0.071615140559298 -0.05508268461014621)
(5.046702819786854 -0.005577421805397244 0.08316728375489127)
(5.029224037331144 0.08452128926714819 0.2296352488178753)
(5.026580124569803 0.02962761261170319 0.03054562836504065)
(5.040216792221251 0.004636612938636847 0.1647163612423737)
(4.996661906128089 -0.001026595327791285 -0.01325212463562166)
(5.110880243639838 -0.03780742172728211 0.3511739372006979)
(4.975063532584674 0.06499407807166867 0.2720750816272708)
(5.037794462446737 -0.05347016049274474 0.1171814042363441)
(4.750400495582276 -0.4600070400488513 0.005930339958729505)
(5.026311691848124 -0.1381091568568711 -0.06991365161083493)
(4.934285725309324 0.04156020810476917 -0.1151016678542057)
(5.015816382119437 -0.208858319374803 -0.2201878386740709)
(4.316426045594429 -0.1844350219441765 0.4610514006952986)
(4.97632890838645 0.02289317571746747 -0.002814106795055222)
(5.028173545706763 0.01154562498775317 0.1036459285455723)
(3.850499828043706 0.262208290914855 1.115794527791665)
(4.988678995121728 0.02934909016445853 0.02816868485116286)
(4.992486524891728 0.01289068873291543 0.03718561242860609)
(4.960130284057818 0.03252645944053205 -0.004283522043852589)
(2.597369615897529 -0.2107912763012867 0.04334334498327728)
(5.115713853628822 0.03934892395017318 0.08367537547340544)
(4.967191897703557 0.1852056167819321 0.01545111063808587)
(4.955904462199905 -0.02137109673536708 -0.03167071970942526)
(4.989440851391567 0.01183884913935022 -0.005189375443368875)
(5.01023319849098 0.009191620970901263 0.02916546695752943)
(4.952761587810222 0.1248849346053929 0.04092721758445517)
(5.02550499170655 0.08939439411214588 -0.08477549856212449)
(5.020308482791155 0.0717818652203094 -0.03242346795773099)
(0.6661005185860321 -0.09263145943422174 -0.2523305516753065)
(3.770653295439505 0.1440713809620845 -0.101123111578653)
(4.964922270921753 -0.01295414053417266 0.002933345990011148)
(0.02727105086162567 -0.01056529180786777 0.009169187651733707)
(0.00569306324989636 -0.02003219701682797 0.01005598346672905)
(3.147979736480458 -0.1248989169067062 -0.02970976999550485)
(3.527957968412878 -0.02369584954689027 -0.1355121185852144)
(4.798754399392132 0.2203150781779004 -0.2149708439536767)
(4.548380516923802 -0.2578340503609308 1.698387983306868)
(4.708708960571409 -0.3528110588754519 0.1930657246224695)
(4.988186263682377 -0.1128727920552021 -1.016026500332917)
(3.084316081897763 -0.3008754522540939 -0.06073624190408734)
(4.872902773512742 -0.005799184264686993 0.01225620755271948)
(5.150152399188329 0.07185638629500549 -0.08601757839178494)
(4.974390522138742 -0.04146247141420763 0.05583761503440524)
(5.15071687877075 -0.5790459782717318 -0.1227377193585961)
(4.968895791919573 -0.00844492978268808 0.003768342838899556)
(5.23249279508007 -0.1920260593601308 -0.3223010276791249)
(4.867891038521628 0.1451212951594342 0.1290918437138509)
(4.981791952490402 -0.06654153859108332 0.0318068110188159)
(4.746597806060862 0.0005378626612824783 0.2175243049782887)
(5.014645285323239 0.04623756060487396 0.02279445781942164)
(4.594634280112758 -0.06663131238248292 -0.3419262804960857)
(4.557128773381599 -0.2057826004375015 0.1911733739004229)
(4.934593384228259 0.1334037221787092 -0.07689028183124443)
(5.098781749061931 0.1907954708193746 -0.08382693614712239)
(4.844905508264169 -0.08994742681720592 -0.1073099566756485)
(4.609359324680208 -0.04737376367568506 0.5142233514441424)
(5.041984510806704 0.4254090183491689 -0.05645454404999526)
(3.486076360344694 0.07075482512783078 -0.1039086242341615)
(1.764309931632773 -0.06155641871268498 -0.1451717031063724)
(4.849889676644938 0.1084034618076123 -0.2643655096224363)
(4.963674600451501 0.05858555550481273 -0.03310438448935456)
(4.822051699819336 0.3512326979904611 -0.4085247533419611)
(4.219926620054078 0.2018906034151821 0.05300918962001158)
(4.884148111770813 0.001215310243998419 0.09013949169495034)
(5.047966996193598 0.08605593432044306 -0.1665352203858763)
(4.96427814314213 0.0304400331504776 -0.04152905103766617)
(4.969662762691234 0.1946003894837888 0.08939046814499786)
(4.997530144426852 -0.1983018951634267 0.3129209792798)
(1.757658600607999 0.007348305864789692 0.005467671866608397)
(3.686251079951553 0.8029827394418221 0.1138623671019109)
(2.434360571413601 0.1622828722373064 -0.1156121382869697)
(5.003523251414786 0.1293315727407332 -0.06639754654440103)
(3.094285613320273 0.07689438271242784 -0.07783178364201052)
(5.001383756055149 -0.005318816517158187 -0.02745967489205373)
(2.059563613749061 0.01300466369511784 0.05215587505313602)
(2.225926978231689 -0.1435349491891733 -0.2795268032623848)
(4.970668745609088 0.06483747798737614 -0.01856594751252398)
(4.227916675636273 0.01479085266704966 0.2377014998630679)
(2.555294202066833 -0.02882965342876023 0.03803884080431241)
(4.94506902756005 0.003930527082149101 -0.0471096304547886)
(4.815035716183559 -0.04254361944069867 -0.1523216472571418)
(4.957702811934664 0.304064002922977 -0.1866603554619668)
(4.76428710275244 0.00840055344222719 -0.1329253748826169)
(2.624988141385694 0.3328834644710045 0.1490718762683941)
(3.275799147605715 0.369970978269257 -0.2644009564755412)
(0.7821958207548828 0.04690771237651664 0.3087364673158113)
(1.689974036659777 0.1252836923251431 0.2753801025263648)
(2.408502154086885 0.06183998264702333 0.5737620341755877)
(5.04182635436423 0.08268410246767703 -0.09728885971293257)
(3.613138864149669 -0.1491804149020227 -0.07053035744328162)
(4.979674900147469 0.1345366154890434 -0.1152282562365304)
(4.936622060001833 0.05000417564949052 -0.006635458786840402)
(4.985173093577728 0.1117106744927399 -0.06176807835780854)
(2.527407453208642 -0.5470884850773072 -0.3215962772969961)
(5.144402936804001 0.1123914913330133 0.3318491149517652)
(4.984599709232647 0.01723046195914359 0.02414319993531895)
(4.968328553653824 0.1652727157393411 0.1869435877598498)
(3.370927260378135 -0.1386284800811552 -0.3911217383852398)
(4.969614763508389 0.04210911168567754 -0.02122525254474888)
(4.326076779009843 0.1869147596019002 0.1302302462853122)
(4.515175230855365 -0.0009964972844630111 0.3036600813350614)
(3.793095170303037 -0.2784219035530887 -0.6147956903569987)
(4.997454840251832 -0.09592363360361317 0.1853351988719725)
(4.523140450689066 0.1791194462380462 -0.1017771658813307)
(5.636693265653436 -0.7426448395312263 0.1609638623165822)
(5.032434301513619 0.06554722356919269 0.04965045409111776)
(3.024761021383624 -0.1438581809504852 0.05308214887730804)
(4.850859128633351 0.1154725303111561 -0.0714279693589826)
(5.011210832775029 0.05954660086048867 0.01346311741031471)
(4.899700745963689 0.318905721349298 -0.2013460132146082)
(4.96860759672627 0.155237571559707 -0.09509956014824648)
(4.980242876785502 0.0022726684738382 0.004072671379136751)
(4.953206587259414 -0.04809603966106146 0.002720511752508466)
(4.913501964823324 0.06314303648485127 -0.04512754641349728)
(4.993810156928181 0.06984129787370451 -0.275839990429537)
(3.047515200142831 -0.134781039058211 0.2126216112583766)
(4.089674892156593 -0.1362204008080412 0.3738099931623584)
(4.889118179325773 0.08131952290654938 -0.0091456752287285)
(4.848772525550046 0.2597998854250742 0.1113810359151225)
(4.991306853049284 -0.007065477016023585 0.06322646933747654)
(4.953274000867214 0.1035071915701787 0.2051347104231041)
(4.948387691508938 -0.1439179428244726 0.06114543524864158)
(3.81791979550514 -0.3537667263550829 0.0516056804290952)
(5.074194122471032 -0.08434989750327625 -0.06065031279449036)
(4.970341992507862 0.09610595273398935 0.03826075170529493)
(5.024206317153506 0.07629294029208354 0.03360431047943218)
(4.386815620465477 0.03379580607760128 0.3033944356560095)
(4.955330146503442 -0.01516800477626467 0.0133911563596904)
(4.991651682839237 0.04947770496480809 -0.08115261772579506)
(4.991474219420991 0.01507917807610616 0.005266410082535366)
(2.508251322916705 -0.009505495113238853 -0.3048505095719692)
(4.269100924561029 0.9025091648135852 -0.1286694767985892)
(4.843055540132691 0.3160791119301988 0.0273237761901594)
(5.058431145855859 0.0054734026318145 0.1166047934179119)
(4.880677617396553 0.085696687624342 -0.03792784678059521)
(3.108007506042633 -0.2835731354176409 -0.05988150145011959)
(5.022086759316222 0.05922170684956804 -0.06024050399882367)
(4.960759751906182 0.1913850179820264 0.1836008877314959)
(4.446246643277033 0.05294707156289392 0.02075332053476239)
(4.96189173787706 0.002689841087659601 0.004056493244509002)
(3.881356704604083 0.2500853101702532 0.08608022532349885)
(5.079566614073234 0.01373793200436022 0.1048057119883643)
(4.976527046534929 -0.0009112273812508262 -0.007779979669614604)
(5.073710521173744 0.2422103967646964 -0.4328317092891364)
(4.406402523840653 0.02326380296007828 -0.2379546065052173)
(4.988989836379302 0.06829135987608825 0.08068604061164029)
(4.418559372560368 -0.07568338413525913 0.07143133058917021)
(5.001063707239208 0.06241372062768206 0.1399458017618523)
(4.986985398653008 0.042261017158028 -0.03936198660581909)
(5.037774796395052 0.004405481312726685 -0.06221543143260752)
(5.053666077186302 0.03110609403385358 -0.07041155246476792)
(4.996221544746904 0.007257787483344011 0.01219419472930639)
(3.428291922121213 -0.2242513537579803 0.1952206995166543)
(4.940246911310067 0.0423087289526042 0.01587568847005713)
(5.061166302452187 0.07354003964995783 -0.02083697444915066)
(3.451153205198636 -0.07154532774597282 0.0279831180673009)
(5.001961942650004 0.09569131659496603 0.04182620958446981)
(4.684080642173146 -0.3105820350456441 0.2691193638986953)
(4.912250595723921 0.191226640269316 -0.004665007857564161)
(4.28773759210237 -0.9054626611059986 0.4110061137399562)
(4.166773032162085 -0.1781947910153707 -0.2161860816900993)
(4.067627855275292 1.333872998449481 1.600092557890478)
(2.933029863481609 -0.6539583026956021 0.1849607844904388)
(4.349121494747218 -0.03974975673564212 0.3484456845367354)
(5.019400520547377 0.1682442614915196 -0.08961318596978377)
(1.968359366362606 -0.2467346656327408 0.008447886873801443)
(4.99296577998272 0.09194052400468013 0.03211207046614552)
(5.069542386953482 0.09409610071008913 0.1088712502388776)
(4.096112391167256 0.09566700164951601 0.07564386372879463)
(4.93353088396408 0.1561568564580503 -0.006127318102866812)
(5.048588983623534 0.1322047934750705 0.04890786370478892)
(5.010191816832317 0.1631396287022636 0.04007277604565227)
(4.76536835668895 0.217461410755159 0.1870767105217079)
(4.955109872127277 0.5142647909415867 -0.4468223115003164)
(4.331594201911323 0.08051419594515255 -0.1132217411274907)
(4.823222088720399 -0.1506659327908924 0.06350498102707033)
(5.015506877980194 0.1152583187961859 0.06872825866499607)
(4.993806801341012 0.01668816694598485 -0.001545354640301402)
(4.518264752317602 0.003014133311939821 -0.2532314412226547)
(4.989449974579637 0.1804231143798791 0.2888308288018445)
(1.152187793311231 -0.2531298668071123 -0.03057795496456782)
(5.052271445644397 0.08278346014165727 -0.1009550619097417)
(2.505063654214954 0.2054379808348757 -0.1753358983867902)
(5.025472664739733 0.2582217827962882 -0.1109030164492909)
(4.860720494719617 0.07833901935402234 0.184401664842351)
(2.732239963981279 -0.1370378556520723 0.01760900761956904)
(2.532520898501872 -0.2185286298770465 0.02920798313949837)
(2.817859669374548 0.4340895964124539 -0.2537195694544635)
(4.261601902059596 -0.2121131053127144 0.1474196598313748)
(4.970677967691087 -0.02164292833555841 0.04839214698609846)
(4.907252601559812 0.01212937728556657 -0.04364018400728212)
(4.97177864605442 0.1411566228610965 0.08392200920695604)
(5.000341072928476 0.08347061566206847 0.03547540914390186)
(4.89882465926523 -0.08854363572884111 -0.05714245421791744)
(4.96819786684673 0.1797682681949466 -0.01114740940195357)
(4.96948418469416 0.001356572290940756 0.02303908337642644)
(5.030497644482469 0.0941526728112063 -0.08422764656343559)
(3.281439153860148 0.2723790298866468 -0.17993152383696)
(5.001872725075771 -0.03741083566731689 -0.07036837317412904)
(4.801907421811485 0.07765897575887142 0.0321722964615392)
(4.886417689269562 -0.04040237728343079 0.01893828881572713)
(5.092354890306106 0.01576108369488998 0.1156567181054648)
(4.285067529811958 0.3222982414614879 0.4619273449226866)
(5.020649256811321 0.106070868517604 -0.1025425335161328)
(4.474519112837862 0.08792422218412928 -0.04131905130815543)
(5.013217424597186 0.06692088323188253 0.01364438961097451)
(5.019134691025814 0.1495193724125093 -0.02920159392344975)
(5.026008275651957 0.08132309776719066 0.06086924271155462)
(4.987412061719835 0.1231757472094851 -0.03295593724636135)
(4.97655337436909 0.001527090573996573 -0.005272291046391148)
(4.97628255865321 0.0118852319899827 0.01844833180327176)
(4.863079208813797 0.3036324557379571 -0.06851621467929422)
(4.973011752680759 0.09788943278961239 0.03738370573024494)
(4.91619049505379 -0.04205614147637213 -0.07108908325069975)
(4.969975209164034 0.009040085836468174 -0.002068742363174188)
(4.996200465326684 0.1187957058602268 0.001807838215360929)
(3.967146081281974 0.2492110349195224 0.2856867608064465)
(4.344454452006727 -0.235538351961068 0.1001213792887347)
(4.959338287443423 0.02746567405081164 0.02000799514677022)
(5.0350476117249 -0.001653004601849894 -0.02492328671862476)
(0.3268579565059915 0.7485111450129026 2.724989959339107)
(5.009895640849327 0.08435359030939456 -0.01736441432520024)
(4.920566206757846 -0.02441693354594673 -0.02872168980133687)
(4.866673500812245 -0.01718178615890372 0.1291879498862455)
(4.95691850895785 0.03137961367703283 -0.01950621889884115)
(4.672749075715252 0.1714898489268477 -0.1231611634377685)
(3.413032949848635 0.5542716711959428 -0.0860843875311654)
(4.971950476077252 0.152689992089119 -0.02638429154734186)
(4.603887288041707 -0.04608202137306897 -0.1436590633127309)
(4.924649782562462 0.003661532115545464 -0.0006670682030053137)
(4.957062543740349 -0.01047924741865151 0.06702918489610253)
(2.199843941070394 0.07695812843521914 0.2052397121488238)
(2.558508583265363 -0.4610172481080743 0.2565577031464162)
(4.953581873561968 0.0224785670080084 -0.04978294884573612)
(1.91735151487718 0.1137000781245822 0.07543554901245202)
(4.980545090689514 0.003441250564535191 0.02095633417656174)
(4.97672104676186 -0.08827963332232394 0.07523137251756977)
(4.97517111493753 0.1921365673914159 0.1036106452804871)
(4.991261921088943 0.0001631955832743429 0.002374649262515845)
(2.212670776424179 0.2225493708375041 -0.07770682814420155)
(4.963195631064159 0.1568650544165545 0.08004361190986688)
(2.263942371515967 2.231505700526644 -0.1447115282516649)
(5.044841469596581 -0.004234073232787358 0.1017928019906741)
(4.815555002131946 0.002166891971818065 0.07434150529020292)
(4.008949856857805 -0.04587321266941946 -0.1157728530484604)
(4.955274169672206 0.1831268150134361 0.08478799423784716)
(1.870731169735963 -0.2112984575179478 -0.01837263480795751)
(4.365354032103892 -0.01273916004823885 -0.6489495025448003)
(4.68438339932335 0.08090062312436527 0.08496029032811048)
(4.709723108918714 0.1706253695257242 -0.1592656872980933)
(4.971431446019374 0.2185069237071515 0.04807920006423997)
(4.88737743945028 0.1559603730822998 0.3366334917753891)
(4.996342583419712 0.103248046562513 -0.04225780358176708)
(3.916846609817412 0.0546816423786617 -0.1019002006485961)
(5.008385035254909 0.3082726010754499 0.01174644884512018)
(4.974664083766335 0.01603187790812137 -0.004453968786570012)
(4.900419193826965 0.09893476813083335 -0.004082373033242897)
(5.00899795315925 0.05731835757677962 0.1814105509912522)
(3.935060998583828 -0.2177894276064937 0.5318894358424432)
(4.997485994292655 0.01821471994483027 -0.0200308852220233)
(5.047665926662386 0.1254041210649832 0.08975272289348418)
(2.038140156787636 -0.1771847988139241 0.01195609375911177)
(4.103169524825675 0.09627036529544372 -0.07155528144904943)
(4.974768081511831 0.005029704488697417 -0.02070038813841919)
(4.810610738717385 0.08322979349419782 -0.1267864951985628)
(4.824223624471416 -0.1691126943096445 -0.0437729340096329)
(5.018376758203033 0.0270397517335564 -0.1542310884142172)
(4.601434317124725 0.07874969199938746 -0.1773179435392277)
(4.206625282344449 0.04432595755063246 -0.3059438246367933)
(4.446027414526611 0.6130736957784667 -0.3797303401524181)
(5.054681343982831 0.1465680809205613 -0.08514496074075391)
(5.109798219215476 0.0849949707273219 -0.676625792869216)
(4.970059567761083 0.07591933983079198 0.05223518149918456)
(1.78009331873754 -0.06824590390774089 -0.4274488299606871)
(2.263729551670925 -0.05903110577581598 0.1827697750214781)
(4.355088296512394 -0.1007227182240812 0.1135095389897665)
(4.980736146570153 0.04657349559607832 0.02644851697008823)
(4.325142453756452 -0.09585727173622149 0.07358296066038658)
(5.004242942941889 -0.006544738441015985 0.008765711419584505)
(4.370373923725184 -0.1133154895649059 -0.2209635900873276)
(4.880771785739577 -0.04034541276388356 -0.01923152278057466)
(4.878913236725166 0.1458228310990357 -0.0976495828469176)
(5.020518308863162 0.1129720045803547 0.2504368617447297)
(4.688155688803554 0.03522260529590419 -0.1094089779614676)
(4.577442438731186 0.003219824070349984 0.1288992494312614)
(4.955590698682308 0.04373380873666605 0.1004735921604759)