/*--------------------------------*- C++ -*----------------------------------*\
| =========                 |                                                 |
| \\      /  F ield         | OpenFOAM: The Open Source CFD Toolbox           |
|  \\    /   O peration     | Version:  v1906                                 |
|   \\  /    A nd           | Web:      www.OpenFOAM.com                      |
|    \\/     M anipulation  |                                                 |
\*---------------------------------------------------------------------------*/
FoamFile
{
    version     2.0;
    format      ascii;
    class       volScalarField;
    location    "0.1";
    object      p;
}
// * * * * * * * * * * * * * * * * * * * * * * * * * * * * * * * * * * * * * //

dimensions      [0 2 -2 0 0 0 0];


internalField   nonuniform List<scalar> 
19632
(
0.03796812637991841
0.008811441888825579
0.0008641926029353593
0.002399364716950618
0.004430410470022491
0.02121391219930593
0.02215505585379899
0.005575731905599289
0.001449460629197132
-0.009580739278938741
0.005134641249430376
0.02117813667908227
-0.002932359309270024
0.004065566258668417
0.01409075290472463
0.01445250928350475
0.01342953303698516
0.01445455132949739
0.003642831382839326
0.0659140672840508
0.002762786671725532
0.04020859591358837
-0.01871256512056634
0.0135151862816899
0.007642590565363113
0.00275791924045454
0.01255242969593306
0.01700634231387308
0.004507477395802655
0.004437908260296806
0.0004958546895449818
0.01587770555864535
0.01237236610227174
0.01590552105702412
0.005638811055694708
0.01151173652059074
0.02620910273933998
0.004892043633766338
0.00956136856257191
0.004716069803187714
0.02951002079935106
0.01163141898968857
0.01424098457278852
0.02165648815147759
0.004911672700407456
0.05589543693720665
0.02028943003699157
0.02085956370716474
0.04314394958658196
0.00174918778182015
0.01203378405284028
0.002245839117020332
0.01003949172905575
0.04571904308763056
0.03019330116688696
0.04234048374214575
-0.00601031278363685
0.007925758069175545
0.02825990044611494
0.003618775843981454
0.006650017719603455
0.002332983981113774
0.005505228688790246
0.007792860640724881
0.0305059071465927
0.003333644073587329
0.03136735723244021
0.004201807113249483
0.003465607021243294
0.02557597326856474
0.006499523909229011
0.03571149197843135
0.03611512771742241
0.00771133777868331
0.001864565305882273
0.01845847515978237
0.007788284520279131
0.04104547422932386
0.03408931467311159
0.02901588904453393
0.07205371693571706
0.02353719088236277
0.03363364908598974
0.02206006319325394
0.04813143539949551
0.04985988368958481
0.00802479744058154
0.01107349801126614
0.09629497493669233
0.02140134168604941
0.008881699700798917
0.01492199397288973
-0.004549825153825006
0.00336090359251965
0.001403333068606694
0.007224518840974226
0.008041995393011349
0.003567706009218751
0.04594178939587915
0.004020315141415257
0.00287310277742689
0.01478015129440989
0.009536960142966898
0.008994899553135087
0.06744943665225912
0.002788280011130187
0.006831861179579974
0.004191138347256602
0.05780630101852129
0.004438921312237487
0.01928563757623912
-0.01909996233745365
0.02635861070857834
-0.01010279424124184
-0.02755910634525624
0.02247968124543667
-0.008427706320489649
-0.01216823420766301
0.02234321400908195
0.01916042545837933
0.02335805976169842
0.01443148071809495
0.00607706807879608
-0.02312419537189566
-0.02621204423571945
0.01925816520126713
0.01948143311114319
0.003242028734330321
0.002282327305351486
0.07588449752782522
0.08273381038478764
0.002434653740069698
0.02007448188343342
0.00226447473643965
0.00554773256030747
0.01233577846940558
-0.02589153432595279
0.01230140802779449
-0.0005380847382279258
0.01926685857444582
0.01308004347109826
0.03123351850462048
0.001394701736965154
-0.04675709719258378
0.003767183975466775
0.01918126330708836
0.001781071859364611
0.02070248164148189
0.01434184815026724
0.02866788170969274
0.004685408464865455
0.0518866008344047
0.02275625792172853
0.00275437926139157
0.02181922090522629
-0.008775130959498339
0.003455410323008089
-0.001484524564456623
0.03734623712300935
0.002480013538662238
-0.02034175345147265
0.01312263285547077
0.01636560736441989
0.01791760962523478
0.01831609772037686
0.07889146875401215
0.003138714477988182
0.01946136665461376
6.164533138177485e-05
0.01981625535625092
0.01341410234523333
0.01935969879629085
0.03437232697656058
0.004025777243547283
0.03515274605197232
0.06674012538618364
0.054383588986559
0.003178261817367793
0.004369360904523717
0.02678259131705129
0.001291009944185656
0.001210793908209422
0.005770635608380923
0.06915375898704876
0.007413432125614343
0.001025476784049787
0.0005092562849681057
0.002669169867061589
0.08171193248096104
0.0006784621393695368
0.04858042022468514
0.005712259980624024
0.004629284383011494
0.002971027450130006
0.01144749878102445
0.01091619830657336
0.001201260167825784
0.004962525574910549
0.003746284551884101
0.001483134952586613
0.002938651329043452
0.01018031519658854
2.391323390335625e-05
0.002415717718204206
0.0006215265685220222
0.004383093610425298
0.03720755552627383
0.00539047290540759
0.01767668037623632
0.002447083714856833
0.02668644786087757
0.009162005136602414
0.002252754144748739
0.002786227180927265
0.01108929685082221
0.0036948210422464
0.02049875239271113
0.01069972321469192
0.002689885328707706
0.008972989999349553
0.003809351208935827
0.0009599032640158767
0.01333606211424878
0.002329090650508726
0.002412917823024049
0.00371138211350845
-0.01938137385387421
0.003703935294529235
-0.02593642885229448
0.03422700680081399
0.0170195179102131
-0.002485821103797389
0.0003057051932375785
0.009314679087997615
0.002280139313694609
0.005997383249450318
0.002089724541121494
0.00574209555083888
0.004944576392320535
0.002127919027027469
-0.004961324468736657
0.004701423964620257
0.02959851199901171
0.01441294460721954
0.003616062478294656
0.0009350023830083595
0.01648680815475747
0.01403046982868124
0.007658705368474461
0.008384452649511017
0.001758871171185078
0.01105433475035013
0.01279868468604828
0.0126754893340148
0.0006224848583101437
0.01202322644165921
0.01242345393562257
0.003994065637386121
0.01640023550305855
0.016151775790365
0.01158461528583772
0.0324595762830091
-0.002044941415049887
0.003585022272453507
0.01366100362608647
0.002815710018971888
0.003272685796576315
0.005845338102836033
0.002492741600232962
-0.01018597817709773
0.005137180336291004
0.07898618991414649
0.0007256285830907474
-0.002753678554917488
0.0004590101804768024
-0.003647782210169289
0.002786527222178177
0.001400573572354291
0.00198561404869646
0.01625025840628128
0.0165474560471026
0.007853343427277828
0.0001123305162525045
0.005550008510697401
0.001866341669354468
0.001741349150439953
0.0367722996198635
0.002513747303621989
0.002582222914981541
0.002713390730332687
0.001468834965104304
0.003881312942591024
0.02119919627825679
0.002516968353562646
0.003690719207274531
0.01324424241617144
0.00374668148594029
0.01032841572200009
0.004936803818957679
0.0009637583656428774
0.01141830456547373
0.00378590000699171
0.002925815612632095
0.001001118667162776
0.01789950035518382
0.02220863173244098
0.000601911731053284
-0.01218403773562824
0.01740071134153243
0.01370465962402632
-0.004804703661418102
0.03525198808951294
0.01620581037024118
0.01681462839918219
0.003868216067423112
-1.123496366999618e-05
0.004469404981734472
-0.01759262273400723
0.0464131306676052
-0.003449243163455075
0.05469025777759101
-0.005502714111087575
-0.008914533871502699
-0.01080122134445266
0.04947489236496778
0.04812602730354629
0.05460226249538985
0.003871480705612295
0.004436268343227445
0.01171718021821604
0.003484768865802667
-0.0003772512465139532
0.05278491464470955
0.0517792919097265
0.003980198657439229
0.05358960075581489
0.006719694091286824
0.04284823298876774
0.005719301810348423
0.01603229961248459
0.04988030311870659
0.004012148173319454
0.01829721075558895
0.0211817854404022
0.04948258174755844
0.02468067934801362
0.002140850277041155
0.02144803108566807
0.003088147663306469
0.002366168906730538
0.004838133525820983
0.01489227979594423
0.003160642584721219
0.005797800135666854
0.04697592216564168
0.003173249847523591
0.003402632215323547
0.01288757581952392
0.05740270662564564
0.01128603585149043
0.005893375295659919
0.0043530806375393
0.01834187302272129
0.02423071852871172
0.01789833627144153
0.003169719945989599
0.003952062272828554
0.01575218921529607
0.004673424617135588
0.01472447237333045
0.01166999506893424
0.004890651965296056
0.01259021702924795
0.01025351357819158
0.003623540111450051
0.01859494873142483
0.002817993850047569
0.01379133681141623
0.01313558342727816
0.003942715673048105
0.007265135239104449
0.006481947101202837
0.03300552933553225
0.02003262989418005
0.001407290929508351
0.01161220532782922
0.009120867503953904
0.0585935204811531
0.02976830323171396
0.01806129310920777
0.006483744276111687
0.03570187129977416
0.01439168380266636
0.004635519136550155
0.03110088496128049
0.009214557086174044
0.01436095542743238
0.02214030220683453
0.03489696814661927
0.04696955121425971
0.0330470065584588
0.003518143129620329
0.006136182705818852
0.002899815452523577
0.0145111673100216
0.00587390170127872
0.05273747045335115
0.00530087263038693
0.04950962842150957
0.02103381941922865
0.007633102772020416
0.008636913538007825
0.004548782082403238
0.009888747927879131
0.005548951556831212
0.008395301272331969
0.00703515352951813
0.007649167467989351
0.02235252106745186
0.02032457911102148
0.01233137891975894
0.005673045344855971
0.002984759738503858
0.006411498267894544
-0.006238775709790379
0.002764050185476739
0.02113188125690352
0.008514646053512537
0.005679285626141359
0.01864646618276461
0.05442766092486961
0.006445607005981367
0.02065106438966634
0.05055955397831628
0.007068252042034841
0.009037419978125575
0.01362388374594447
0.02556291259955938
-0.005686014486765558
0.007820195247068668
0.001384195158910143
0.0002984202518756452
0.005886244684707451
0.007906783628470434
0.008525144514459094
-0.01025752459945962
0.008105201269143226
0.01787863189548532
0.004703888637375639
0.003625599789888837
0.004368060195226475
0.007916405992896239
6.150681899766014e-07
0.002263009987881966
0.007954484719831055
0.004205152975197769
0.0129478959198615
0.006436602381682218
0.003603508935914186
0.004190995273476194
0.1214765929304561
0.02257420775869693
-0.0002181767613000003
0.02148731018042627
0.03624272986844173
0.003994344987800227
0.005862973848567507
0.0002011989046971571
0.01004475594056738
0.01597031770932807
0.0249949399256281
0.02060689422882705
0.0141185553007147
0.01248010461062679
0.02933812901188298
0.03533767699246415
0.03115662968112672
0.01743570444372158
0.003110828003861554
0.0106153543356759
0.01912845819127543
0.01493764726393691
0.009513862309614946
0.004972909010480473
0.01438396441112215
0.001991580552224325
0.0003188968091350569
0.004892962468050491
0.006101774275015463
0.005270487882709454
0.00628779278657805
0.01740114868638227
0.007759859111693725
0.009614792596361697
0.001654297118511954
0.006001896661813598
0.002970428123006632
0.001445724644898845
0.0005716042996971756
0.008570503752724893
0.1354637551118484
0.003370716421498725
0.01684212589973951
0.0146195515601019
0.01629602966277366
0.01934700006638265
0.007540526795577714
0.01531194189366253
0.000817805383517909
0.01343472535419163
0.01369366032152502
0.01438724423773515
0.0105474740537498
0.005976733164142084
0.004289135220553733
0.05798844690020403
0.01626358951337123
0.01513501511124502
0.01426518889170754
0.001754837701777852
0.009205163291559872
0.0005245915369212813
0.0005693987312516013
0.001550183649348768
0.001596811887732225
0.0009847663997126692
0.0001612639396883842
-0.06070647130935636
0.02206707575377628
0.003912945348296593
0.01485949975123636
0.0304082367209152
0.02967388378438487
0.03239286988647515
-0.03010678919009837
0.07186270173301816
0.01163976882851916
0.01151292289882066
0.01347124637370711
0.0110293404171769
0.02585008771903838
0.03053042155750467
0.04133274409852197
0.002170890515605175
0.01934018595839808
0.02659798408792691
0.02490747994394676
0.03989038959121952
0.03894159787326903
0.02408534350080863
0.03120685250134688
0.01709631940164266
0.01772802733922194
0.03856815720408346
0.01736442302819227
0.01976911867705363
0.006172838898583117
0.01919611554052333
0.01910197224133289
0.01924196710485553
0.01826268821017104
0.04839998619891699
0.006712452283805778
0.01507161900965556
0.006066175282479916
0.016171412286553
0.004908808734439474
0.006683259861454192
0.00635947825524816
0.007010143823070641
0.008132778751746313
0.01535444332451017
0.007142580563549713
0.00636690927034079
-0.002515490583362326
0.01492535275949764
0.0005843551816493317
0.001695008161199411
0.001073549915500032
-0.001654054743701805
0.01954849845790036
-0.03131818884912481
0.001324839249462986
0.0014957502321369
0.01144268972353745
0.0210340752824726
0.01164677621251683
-0.0002470407835407454
0.008243383141818319
0.009098416437604175
-0.0007400438059258458
0.008992922736699226
-0.0006120948231892256
-0.0007806120276291414
0.005227902781381141
-0.005080973424646993
0.008427725573699151
0.03140104274374295
0.005438326870073601
0.005485471609285889
0.004285099660367214
0.003670839694593966
0.003953107250644765
0.004621180515166661
0.02094900575917249
0.004014558535516608
0.002606401179205843
0.04643730392170276
0.01115033145834245
0.00162759300251968
0.009735389860937459
0.001745368250356532
0.05774239734052331
0.0087563921093407
0.01412182596236217
0.04269288613976642
0.01828671287347576
0.01761228504205723
0.009721408655029837
-0.003414606652287926
0.02480716636033804
0.002305806475020794
0.001762649355158176
0.001616651119870348
0.002604454107520659
0.03481366405404544
0.002506764002471237
0.003237639145694594
-0.0003855910388800043
0.007502532196178331
0.006997342583339099
0.007978544673076167
0.008852395114876753
0.001686180113253474
0.00359876320189973
0.001052898122570048
0.01544340614748502
0.06283155938357469
0.03664798851174419
0.1148771034312582
0.0008517740192721438
-0.0005824816594611422
-0.02051351565180445
-0.001045577863115406
0.01424847494405381
-0.0003709737145454806
-0.0002459366371005978
-0.0006460102420067604
-0.0006623037935319312
-0.001169930459855994
0.00112508275923272
0.007449381085913785
0.007746090355196547
0.05786576025519259
0.0535675622218415
0.007082465087340148
0.007927349298765114
0.001247084075451806
0.006604710252705755
0.006959063758006282
0.006626472526770066
0.006272747974741475
0.006609989470438113
0.004673678012886625
0.002366789000505792
0.000408332774538323
0.007397393206981921
0.0008476871865931094
0.03425318360786903
-0.001369442819608534
-0.0005731697710595636
-0.0007137837309317633
-0.002425096819266315
0.007751002816594667
-0.001644379262292717
0.008260665502717528
0.008312238128725846
0.008589859500605311
0.03034630377858859
0.0005223527440186377
0.004721405167206143
0.008086422912200842
0.01019115241299956
-0.00664718700719976
0.008678993825157267
0.005835033447705692
0.007500783697897376
0.02511453886426823
0.01805445135109164
0.007219258200935749
0.008162533001555044
0.03354278755820873
0.006539247061793828
0.000296563045948772
0.007336666497369376
0.005105020196289923
0.002659510818982506
-0.003247153257041999
0.005293176301404054
0.005022212085606366
0.003663445641199148
0.05215282070202311
0.03031272652889985
0.005625575931499467
0.004396429543668859
0.005473964067653977
0.005255333027232279
0.009761800363884488
0.07987692418525515
0.03364707851405832
0.01887323356731262
0.02504403577510373
0.004902427632388974
0.005614169412632875
0.006806096652344389
0.003732693778087983
0.02198677972722824
0.004330431776125395
0.04326558924274058
0.006723595704789298
0.06280996647227489
0.01201354116415758
0.00208742893076525
-0.01680628198964704
0.01176164543807477
0.02320473995323688
0.001518030755983783
0.0008696710196913813
0.01107411167359906
0.04580462159474526
0.001241643355950464
0.0005656673287941802
0.0002560337630487448
0.03331316226188842
-0.0002828303708092982
0.002617183753717907
0.000322501192047486
0.02624722477250771
0.0206168458696649
0.007426955990951584
0.05952568205892449
-0.002499057467938374
0.00528240751226852
0.003870018861719624
0.003262288450207056
0.002476619734931774
0.02625425906544366
0.01233861695600937
0.02400842520625573
0.005761005870342099
0.00739904606004108
0.009922279250078067
0.003506087235867004
-0.003527480330184086
0.006626943687401933
0.001912491598693792
0.007854574038961075
0.001060998527599066
0.001661764404220474
0.1223522622905855
0.007184791210641727
0.008350387747752378
0.00145748454097202
0.02088304925589084
0.007698376059981701
0.008149687730175777
0.04456444778651014
0.006465841884644639
-0.0003788943484765114
-0.0009043242597998138
0.05770605554133392
0.02595305431990886
0.00146553051405119
0.001287932892824531
0.0009451725318853873
0.02285448826433467
0.005924681265633058
0.004636919274084278
0.005482428997682737
0.005550420325489221
-0.004283765886377753
0.00370851422825293
0.004165640703541675
-0.01608014398921014
0.1411910200960328
0.06873459611853286
0.06318453266664413
0.0002897992620326962
0.06305276649372631
0.07186496934266462
0.01198211848897689
0.11744076325942
0.007782203688037661
0.0717969008081548
0.02979372386237577
0.007400878007899959
0.007341536178507111
0.02767573006047713
0.02422897800423356
0.008989977774844209
0.07206074213627428
0.02248691034466699
0.03049191085608526
0.02137437811586521
0.02308481396036725
0.004465070005265128
0.004267491013696163
0.03005722936956077
0.0271491899009004
0.02364882244063129
0.01992769568275258
0.02289528055381628
0.08467281324891295
0.003394416283652554
-0.01688694896055302
0.003521677526763319
0.003570440349656051
0.02206556663663313
0.02818020900140169
0.03988748221721225
0.0340039801401608
0.004236008816092945
0.03955259081074496
0.03685205632413936
0.04247651296701049
0.05813967133847896
-0.007621195730154865
0.003556845115107158
0.01251262352879196
0.08719209295063908
0.05088485078830512
0.004519818502968406
0.03685696136666484
0.0737363163703777
-5.216200383523385e-05
0.003682275218922629
-0.007467039541697574
0.007555094936525528
0.003518496083567051
0.03415921975645411
0.006617353719059417
0.1235083919746185
-0.004134599415578382
0.04564555246878339
0.001603236542393144
0.001706413522252909
0.004361241418839146
0.002377349177092839
0.002004992402550219
0.1211408142005654
0.005350354269647266
0.004634243528519827
0.005564654603035983
0.005215603842691225
0.005616254740922538
0.03717001413960769
0.01996388552062403
0.007922162190101056
0.008469967967209967
0.0247881308585384
0.03034708351158385
0.1066571231803742
0.02400795135112727
0.1320070037265068
0.0242263927593963
0.01273384519820118
0.004419593494798768
0.002076642039488545
0.03860183845089137
0.01562856626901216
0.03232605285828517
0.01411464399585634
0.04177026726156954
0.04365755956544568
0.04353475570600135
0.04154017369753716
0.005426193519412323
0.05340291591574696
0.00781651167892055
0.008047079203218543
0.008068408901654349
0.007459831983658289
0.004054725492462286
0.004044788747633261
0.0281836592069162
-0.008727382763857169
0.007368014730058812
0.02361664992466238
0.005956853606416031
0.02767925022724927
0.04612246918425908
0.005491600575140691
0.1040894373147759
0.01845427353007391
0.005491758894995884
0.004095527990404367
0.003631680644770412
0.003160659627738835
0.003220090297735487
0.004843713926123603
0.004702267524193872
0.00493894188930922
0.005020498455096986
-0.01342037598808258
0.01160294646686222
0.01450332498805015
0.03541534915734597
0.06381675917315209
0.1382097390177564
0.06075858780131659
0.03197757014355071
0.004387607555367967
-0.02331352912406557
-3.217728624856726e-05
0.004569482475461412
0.02628589465488768
0.001549283261788978
0.001757561344978756
-0.004675047676100567
0.002811416224135529
0.002354137459025899
0.002383491315946125
-0.007967301086034525
0.002062532675811851
-0.03539342409210276
0.003012131620678887
0.04536114547225244
0.1111182068293154
0.003163639963542208
0.06749254141117275
0.03651369938034292
0.002825974977258288
0.003251557362706299
0.006563308585671826
0.006149024538584491
0.005588421964289349
0.005958076567732997
0.007865003772029446
0.005776406457271303
0.005523884938370299
0.003848359091063462
0.00611549608070661
0.0005623983299337652
0.006483227495224396
0.02915338511467394
0.05335640318177494
0.004141632913535342
-0.002828294769112058
0.03188454234628104
0.003962565212242562
0.07694771358496151
0.03457515895055305
0.02475913719483371
0.003687066390110824
0.004811257832961243
0.004704887630610252
0.004627961204410776
-0.01233864271436136
0.00481957095563911
0.004590212252359699
0.005079182948972756
0.004150819180909843
0.004794458384394295
0.05617879358624044
0.004258122219357943
0.02703775484412057
0.04531551025042788
0.004700631119256025
0.003954261381837076
0.006393253240384418
0.02328181543627252
0.004340687138262961
0.004275974495323946
0.004143002773975252
0.04938777286122376
0.04486398334647134
0.03566939455768657
0.04963374038363211
0.005553619803337319
0.04359827140431701
0.00595446143688827
0.04655605131310629
-0.01019910067274874
0.04672958415026159
0.03494250119044704
0.02715137153339716
0.05350342897717859
0.03516088131849194
0.0483070339640327
0.03087154886239149
0.04768234302295316
0.003035864498137899
0.003231955543164912
0.003396087059167279
0.002982050077111905
0.002995189436591105
0.01667372634546915
0.00335063347876459
0.004488651176493546
0.02099203305604586
0.03072178422013428
0.005653622155804307
0.03921365619725446
0.04452940802878302
0.04044900764429659
0.003814597973037743
0.03966380885155218
0.004291235756618003
0.03392638525124193
0.003732631764747119
-0.002870422566264089
0.00256774214984335
-0.002117143624892524
0.007473137714642476
0.004750195973333215
0.006976747878594723
0.07264144635192797
0.005984267364023211
0.1048176961905831
-0.0003274146630506936
-0.004478085190154279
-0.01984211990365177
0.001247087371217156
0.01252179638488794
-0.03136849558354171
0.003248473580612141
0.0298297140963198
0.03349403647938487
-0.03039508985198056
0.07961538235206345
0.004716194863824988
0.0004333039208026844
0.006274345876217767
0.004022484909365945
-0.004213943464806492
-0.002807662296388418
-0.003242935859393987
-0.007503727703709308
0.06159971230037698
-0.01559678883778891
-0.01152296137827869
-0.03494226185638011
0.002145293889458498
0.001490211220507798
0.005372589423078975
0.003817081262772619
0.00438784245507172
0.01421189383482406
0.00363220337251748
0.0008567804599186915
6.484876760766535e-05
0.001545991645807859
-0.000908017727211428
0.0002685965316184425
-0.001657908199833483
0.002364478093362336
0.0007152972222129676
0.003140687860858967
0.02691684711642536
0.03320191676983905
0.0280583705831745
0.001446150614674778
0.01867390051764835
0.02050792167159133
0.01546963980469286
0.01484855917122714
0.05079150560528534
0.00537739264001766
0.01792924083126545
0.06500005265674741
0.005149503197383672
0.004694665664463667
0.004578980948131292
0.01825865574645797
0.01755463400805777
0.005233782314226519
0.0027451164925539
0.004385719796888612
-0.0002610034998368876
0.004886707065928234
0.0242090751041573
0.01838954231686081
0.01838629213944068
0.01602146841043917
0.01633820899515646
-0.002262735020997833
0.0161947305222288
0.0172365868607892
0.01085526004984304
0.0110692418129055
0.003776874862923339
0.004832103216645434
0.007731725655516533
0.01155057147682362
0.01467973606749948
0.004023448208329189
0.004028077352936829
0.01273663183857155
0.006620579429882547
0.004284203428692831
-0.008161884474060086
0.005913296716638356
0.01665950765757487
0.004175206320444127
0.002185106592044378
0.00130446093722825
0.004666251495219019
0.006268735698183942
0.005106626748810125
0.01252451855821754
0.01192278173355903
0.01166563431989478
0.01514807361621528
0.01286446822211542
0.01282612935220346
0.01319311765160243
0.01279280684329842
0.01926181452878315
0.02291490476471108
0.02106325627330616
0.001271844429680446
0.0008298796733825747
0.001215582956892877
-0.00035197108884311
0.0001788713609447753
-0.0002442024583216143
0.005498553503521754
0.0493026647271877
0.004416983867992134
-0.0007617565107889897
0.002419123568176915
0.004205382285652171
0.003048484373702759
0.002662482488688056
0.00304322663613321
0.002655920316663846
0.001299161984689066
0.001193710162294618
0.00443972020563733
0.000812855692556775
0.04767830721903445
0.001432579110291475
0.00375043436066969
0.008412883870488197
0.008492195845027204
0.04311656009475492
0.01339234944990601
0.00508704176449252
0.009541790912397607
0.005179458238753282
0.04399729790485498
0.05127543979981169
0.01577060339294768
0.04210794438062442
0.02313675699816521
0.01339604065069166
0.02561082740449355
0.05724695451729933
0.05736756971801924
0.06061442281476877
0.0570409056340928
0.05353097207450359
0.01422297988670635
0.04816628416382124
0.04943078843506984
-0.002130374599780882
0.0002767038054319699
0.0006088921751841583
-0.0005902453281887855
-0.0006090625642010797
0.004183902868510058
0.003412364700612848
0.0013574272067318
0.009056285306387288
-0.008390857834368602
0.0255738110560932
0.004326280878974597
0.02335072868392316
0.006937639363850479
0.008964482150428778
0.004227798845769281
0.001156296537556377
0.004607823000176556
0.008313409476610363
0.00709917598370475
0.01150240202965839
0.009926370318539417
0.007250300991404019
0.005753957950861021
-0.03370167456794388
0.04177861051956855
0.04103430769404719
0.003888358109786359
0.01567920918345463
-0.006986781474424346
0.004096720517916503
0.001157195286884239
0.003857968770714697
0.00159919620452028
0.002895510518238961
0.0008667866901864933
-0.0004467858857778484
0.001128126975502018
0.001620628771439514
0.004317515088102393
0.003310842158348211
0.003005218290414062
-0.004369277388791236
0.001480800002868682
0.001606576283682366
0.02627086004138514
0.03047452351666489
0.02978620370306941
0.02542000329683284
0.02568485395211741
0.000366642047461875
0.02345608328871586
0.02360592795860912
0.0119726845005169
0.01328253548856694
0.01911316351303185
0.02495459311693811
0.02268106104661374
0.02551026571055885
-0.005409987107162675
0.02898894501525542
0.02991856834852947
0.02898223081602479
0.03387768961113272
0.03315094774300804
0.04197500428936714
0.04219173044625686
0.04700416832818113
-0.003038567569065445
-0.003690687139496906
-0.005535275480475854
0.02358395336296846
0.004117195142248083
0.003567284338525644
0.01195272873643673
0.01044440598652894
-0.0008422912341570086
0.002699100019838376
0.001803612000194042
0.001489921487074293
0.004392200620359049
-0.009172851203777976
0.01030985650763189
0.01163874942542317
0.009081233871806586
0.009493680927743723
0.007803108659076827
0.01966979217205449
0.02616579471282302
0.001149853129601593
0.008544025417268879
0.005954345490850117
0.05471345723259924
-0.003574526002565007
-0.003631996592632637
-0.01324186521926891
-0.004455494514356591
0.0008623418257396679
0.01139792773775618
0.001702804619095922
0.003464924079268895
-0.002014176185783108
0.02797244710635129
0.01224855353453976
0.005035359309438951
0.002343710920421993
0.01224479893094883
0.003346996977150076
0.0008716490296686774
0.0003980098960398907
0.001254174178963621
0.01277206627521733
0.01464767712442852
0.01484437197753629
0.01105495945411122
0.01155682320193158
0.0120024783858929
0.01636556532810598
0.01600018139579102
0.01526655721896421
0.01469140252049868
0.01635048863916894
0.01678175570608998
0.01111286084892252
0.01102072336763681
0.01090998822109527
0.01027276358448054
0.00925985205414433
0.01124224737197916
0.01186844580017667
0.0074950644564212
0.006850320417708523
-0.01774774617166053
0.01063662005230842
0.01064057946921911
0.01148632154610267
0.006829443223213412
0.006185161676724221
0.00768137150602046
0.02453016697569816
0.02181045040691371
0.02225459745071187
0.003065646750568997
0.02304441471790915
0.03545085584738942
0.03578338852646858
0.03755274268727121
0.01246097212284716
0.01268866853530034
0.01263254941573324
0.01489740908928905
0.01698694122602332
0.01509266345490414
0.001617264014269128
0.007238523954030776
0.008483927027664201
0.01047385707448633
-0.001572789144499104
-0.001510604819565015
-0.001489405100743439
0.006056749412591058
-0.001703479234505423
-0.0004511533563324711
0.02674927792610801
0.0146680487743493
0.01590869395320452
0.01613655304248269
0.01590749369033195
0.01487335035114919
0.01627500737072003
-0.05316044218553374
0.001973685619643189
0.0009165227665928982
0.004424998391175354
0.003679804267690245
0.00407111514512397
0.009111690669305545
0.003483003998531896
0.00566409982466869
-0.02417864398265139
0.01009240697426695
0.01112643997531771
0.007875606431301233
0.01149831285072778
0.01168920073858
0.01135645900719236
0.01181122436310204
0.002954621504419245
0.003643053293264629
0.002969204241706162
0.003563927526995389
0.002377120873373312
0.006021573279807985
0.003682647506509931
0.004238751060217701
0.009904141263693848
0.003329039006294793
-0.0005383533371476639
-0.003150961073088224
-0.003012021789797805
-0.001040995001175568
-0.0212229021123132
0.02082211554236284
0.01723808362045183
0.001126758035637091
0.005204308040994422
0.001626684833827061
0.001379355936160198
0.004102904398994116
0.005258756839762541
0.004491461424934219
0.00444991524875919
0.0004490420799789393
0.04230979538659368
0.0141192153187552
0.01316025136389326
0.01199139220953913
0.01094718779249554
0.01229379772061896
0.006711403679158645
0.003232521291691856
0.00336940629609989
0.003982175809538288
0.003868175735127395
0.006163368084010083
0.004908226348999966
0.001268250194032728
-0.0001238085946121747
0.001248480891477691
0.006944563447574693
0.008595904973945178
0.008163787733082694
0.01067622271669013
0.009471302880457057
0.007577421317649775
0.00363833511324176
0.002724454781409502
0.004888855637178097
0.004922969581825547
-0.01117016433617633
0.002740317967960359
0.004311667987617304
0.003785453031424668
0.001662486683882334
0.004357387354649879
0.002183837423375022
0.002119809224624792
0.001526633931977233
0.001088547034230518