/*--------------------------------*- C++ -*----------------------------------*\
| =========                 |                                                 |
| \\      /  F ield         | OpenFOAM: The Open Source CFD Toolbox           |
|  \\    /   O peration     | Version:  v1906                                 |
|   \\  /    A nd           | Web:      www.OpenFOAM.com                      |
|    \\/     M anipulation  |                                                 |
\*---------------------------------------------------------------------------*/
FoamFile
{
    version     2.0;
    format      ascii;
    class       surfaceScalarField;
    location    "0.1";
    object      phi;
}
// * * * * * * * * * * * * * * * * * * * * * * * * * * * * * * * * * * * * * //

dimensions      [0 3 -1 0 0 0 0];
oriented        oriented;


internalField   nonuniform List<scalar> 
37380
(
-0.3773545598864004
1.004659873377034
-2.771043566607809
2.143738253121739
-5.16284858641523
0.8076086878384205
52.36991973344998
-48.01467983487368
-18.28046674214705
21.92005333026538
-22.79490612073251
19.1553195326195
16.7985529728073
18.25903896814919
-18.54201196330819
-16.51557997764817
-5.078913036809781
16.72703389027456
2.824026388531697
-14.47214724199575
9.394692565416097
28.05496956751442
-20.94980947850924
-16.49985265441854
-10.1883663995504
-24.86026621010933
44.44332517507696
6.967060903475534
-2.972911465848263
7.602677355195551
-11.59682679283049
9.642331113498816
0.4368131537561576
-7.43438455561317
-2.644759711638409
-8.905768520624596
7.606353742601401
-3.174329783937423
4.473744561939002
-7.543200804397054
-7.298131966360442
14.84115356446769
44.35029684361219
-10.62840930993007
-22.33838263248795
-11.38350490119266
0.8332113558197589
4.851797912405773
6.941855179250755
-24.1284011719532
12.33474808029694
-14.94178345090364
23.74749117511936
-3.418471179662898
-5.387236544554971
-1.49712932240032
-0.9671285449130127
20.45712724929705
-17.99286938196333
4.407311858570739
-0.01990834535370312
-19.32918696412081
21.12272585288734
13.4125136218923
-10.78774829965968
-14.15855123815379
-9.921019237442318
-1.582606635029143
25.66217711062792
-17.9460577687674
2.319836825708161
0.3101083567335071
15.31611258631445
-0.07121685190604297
13.58601771984644
-6.54773996447384
7.275610689802005
2.774167472277562
2.51395393480551
-12.56373209694206
13.57676230309065
-1.525734112353598
8.276484898048766
16.64663012131041
-3.800389166468551
-8.327207683562069
15.13340487472544
11.09690142674997
-17.90309861793875
-6.216825125630025
-2.194269607991603
8.847907887365309
-9.729148367661058
5.60435417074634
-6.39599083615633
10.52078503303376
-3.236936662181779
-15.90343226035273
0.7812324397685653
18.35913648276278
-5.094203504835402
-16.72887262025817
6.428429630283413
15.39464649481124
13.994168213059
19.5353487706054
-0.9023722431359722
-32.62714474052866
-10.15146296867243
7.738086570787993
3.93473492729103
-1.521358529405784
20.8142103827905
0.3736478393569269
-24.4247948843293
-17.585206695276
-25.34683619698821
19.07857294179336
23.85346995048084
-14.33457688497191
15.42314110246198
19.72564616530225
8.562262760681039
-8.747503436812679
12.97298229306051
-12.7877416169268
-8.059845673868786
10.61205624446407
-12.91054743002706
10.3583368594335
-23.74714819106176
7.412701774683593
-9.021243629893007
25.35569004631214
9.291038721817504
8.778443185431842
-18.069619602122
4.578984339898809
2.628720575484272
-10.18061638124212
9.074330913845774
-7.308946052511754
7.525653860483811
-27.40012764971058
1.957107998809061
24.24464703096674
1.198372619930093
1.460722677945129
1.290520873583163
16.38466693824143
-12.80557815765697
-3.128346957212742
-0.4507418233709825
9.107310844121658
-23.36240250957901
14.86064926603292
-0.6055576005756782
9.209048677414367
-11.83669077659179
28.13104048371609
-25.50339838453712
19.30096805565214
-8.693662580766002
-8.235844955594519
-2.371460519280096
18.87375019925088
-18.9620033626748
-0.8039869282817682
0.8922400917137271
4.8285622944211
6.973120178289208
8.359492687561879
9.453555471240467
-16.69436373520493
-1.049458649787859
8.290266913757103
-1.89237564153111
29.90041356209382
-2.918557534425756
-25.08948038613379
-15.57763241105693
-9.504877780459983
10.26618182861564
14.81632836290306
-0.1414009319323305
-12.27619086823867
12.41753247287881
27.86224407929264
3.21830430356142
-10.75756280063735
-20.32298558221628
12.31187275005484
-6.314224202226658
-4.659078820578828
-1.338569727246765
37.09936565517749
-25.55043201621078
-34.52652483864804
22.97759119968991
0.1604816393410367
-28.50174104594688
-1.061367890864383
29.40262729747582
-16.11282346508095
13.55274155883371
6.850028537585053
-4.289946631352442
13.93573771356148
0.3509916902668354
-17.23807983825031
2.95135043443557
-22.2123129261434
15.41803034636028
9.947692173592102
-3.153409593804731
22.83129797222094
-22.06638391963506
-15.37959940870821
14.61468535612343
0.3892936962315292
6.645217921601929
-23.83762475358242
16.80311313575054
6.200525486722629
-8.321833812053654
-16.8216260809653
18.94293440629743
-22.63959247763765
2.169314711421436
20.07223218868594
0.3980455775272341
-6.765093177757194
-11.49444408181303
25.64211779255917
-7.382580532988233
-28.97081214265912
-17.0116983611603
16.94748845950068
29.03502204432333
-21.77882217772154
7.071964180166786
0.5977737740522246
14.10908422350336
13.8842228456125
-20.99885386573467
-20.28549662959745
-11.08916211728718
16.2984574524451
-9.212493629521578
4.00319829436406
13.57935676719944
-18.6746971073332
14.90687007692243
-9.811529736783839
-21.8785798321942
30.75505761865335
-24.9491535434187
16.07267575696614
23.17683294033325
7.011934325025919
-27.70149035040512
-2.487276914954239
-16.79192850774412
-3.70905811184961
12.22718432615403
8.273802293441856
-1.326220196160125
5.21273121802208
6.165536699100108
-7.80337748483787
-0.09902766725765454
13.08055806866844
-27.27914070786231
14.29761030646181
6.969872223760231
-16.30946596334557
18.82734283246403
-17.14587149680338
26.87557120755572
-9.729866173373193
-11.31775092153578
-10.44040462158727
21.75718919367772
24.59149548596286
-10.46335431298287
-0.2439183273689318
13.54895508110362
11.33353535985884
2.623272630284397
-27.50576307124396
-20.93156656680438
8.153688943073377
6.577519506346484
6.200358117426506
4.428302781820048
4.842507524359291
14.41809125690383
-23.68890156308503
-7.855327841640896
-12.4111449951258
2.351094407642757
17.91537842914838
10.46055884836998
0.7810171040667888
-15.84619344825288
4.604617495813256
-33.11646237223514
-1.730093752032587
8.337501256012898
26.50905486823253
-24.38094170219818
3.875633068185861
-12.61115373822688
-16.20843465574535
-1.05344914071501
30.44164264882439
-13.17975885236308
-15.43971154301257
15.93400927311481
-0.4946873931780009
-4.146362718799383
-12.65582552495498
18.44947091519547
15.51822813871791
-3.136368621476159
-1.416254433744677
-10.96560508350325
-6.600909241077898
5.867362311011999
-0.9767961636687449
-4.918201589080189
-0.7059114883387588
5.886107672807385
-0.2125295693866536
-14.55792911754686
15.03491414564556
-12.69914276218381
12.22215773408619
-0.8052539245861147
-7.704892185296076
6.2266167493861
-11.03228072951195
-19.34528940027523
-3.463117617443054
6.599972361973177
-14.25445447083212
-0.3035742417347982
-3.368215747328688
7.968020556700573
13.08402248498572
-17.68382729437908
-0.4345232209238052
18.54410997653201
-18.10966354531516
18.95415691608191
13.24484957273043
-21.8257422973028
-10.37326419150793
-38.07347827233115
0.06813419474325937
20.93505552754531
17.07028855004451
4.401080553919593
-30.7193284885285
-1.863212608958826
28.18146054357004
29.20775921937328
-25.17577856196309
0.369099896510648
-0.0747834454262948
-14.35631528503645
-10.76796914498255
25.199067875465
-13.39297093401639
-2.597766023097828
18.28317875900123
-2.292441801886713
-26.79590938795698
23.42698565285726
-30.65271952139017
34.02164325649437
11.85181061530033
-5.757490768109967
21.19782857647537
-18.59199608248838
-7.695652461682349
-7.459322448826269
15.15482368617589
11.23790163244652
-13.50978169919154
13.95704927698387
-11.68516921023663
-20.16905955701608
11.55607948444374
5.852066609570569
2.760913462988961
-4.957618775905585
20.56055678042926
3.26102657900455
-18.86396458353127
-16.99806332799164
12.53628363884921
-5.135949525319282
9.597729214439291
-9.904920112953974
0.7875167470145981
-3.095022777014364
1.035802531108112
0.990596612229833
-7.248529524297289
5.222130380959878
2.466622493218137
-5.911944262388658
-13.22869250186469
-17.67579412206291
29.31968048913762
-10.16733538452143
-1.476550982549248
7.060923322181306
1.197791212444247
-7.222912003526004
-19.53298042988662
-12.22448016344238
16.90162275934176
14.8558378339902
-1.719250326324268
8.155624257522586
17.77606137224154
-37.31310076126321
11.38141513149998
4.975963418237762
-3.324804046774283
-9.163294347435132
0.3029287425855746
6.808590309947169
15.06143375202133
-14.13752033053839
-7.732503731433805
1.555890897789478
-7.558105679421786
-15.79779055196227
6.971287051601961
15.455226530555
-6.628723030188783
23.13559912198767
2.756712737190157
-18.85584570310407
-7.036466156072033
-6.832633340615926
-0.5663482693992146
-13.53258495676391
10.77658101807324
0.7955896099446732
-5.737397788246308
-5.834772839781401
19.00348015959335
-18.38799637157371
23.11413147433403
-23.72961526235266
-6.077576683807172
-12.15898951092022
1.553564919037568
16.68300127569756
-0.2509181774351115
-13.0938780496462
13.34472252735178
17.28390605295197
12.65708363732534
-6.988692461070181
-22.95229722925449
13.12056149459187
-1.798352966398335
21.67684702965344
-32.99905555784469
-14.50143259103682
4.262574712587972
-18.35706806365216
14.12011857856368
-0.0256252275494962
-24.70477818587701
-11.80905706452487
-3.020946795514292
16.66292252801296
-12.84276005198393
-0.7992156805289785
20.67173228735269
-16.43597001066369
8.884799217904547
-9.054848621318177
9.133965766139415
-32.44143648745401
16.83798624221344
10.60606032613489
4.997389919106198
1.720880446919357
-2.546297217662969
0.3446054505565829
0.480811320185424
17.56207116851854
-10.62325844967833
-24.69966857629353
17.76085585745368
-6.40893677388932
9.625622379997141
-17.67215239825541
19.61061393750454
-11.56408391924592
-8.701807360028951
7.683165217727831
-27.69591782739804
28.71455996968542
-7.717016533874551
23.54439288550545
-2.681170186420734
-13.14620616520674
-9.708086262800784
5.751800911199907
-24.25440313502335
28.21068848661437
17.96331384313049
-9.185001444541886
-21.11474450094786
22.21976378973262
-18.31750632733086
6.246597371293672
-25.72802950811191
26.09153830270957
-6.610106165894266
6.519529592248868
-29.95005338882171
7.881265644221171
15.54925815235135
-0.456470439823919
-0.3836524279869233
0.9192267596523407
-0.07910389188976368
-12.12362841234825
5.744964448077271
7.951432033808812
7.834248793299304
25.30267747523127
14.21073361231241
-19.64012871017442
-19.87328237736247
-2.110792097612701
1.376596642105718
-8.320653165818674
20.27843903767879
-0.2746289281666011
-20.00386542369235
9.225055900985168
18.0155267698109
-12.97388786494728
-14.16067188999289
9.119032985132158
-16.56394193901471
-2.200362072868176
24.42080665370606
-5.656502641821539
-8.657326093085024
12.22073619798086
-20.12735204390905
-23.44389137521849
30.49267532387774
-2.774107217881057
-4.274676730780709
-2.684562073729508
-5.031639492691748
-1.644335938752898
9.360537505171855
-1.311681918085776
26.73373357299214
-25.42210308904255
-10.65497618421884
-29.73784473633507
16.94892954533682
-10.13460305003092
-4.88368804655164
-6.27073745378508
13.82627603497514
10.38921233126871
-20.84301468146631
10.4534956188187
-8.873652753997796
20.4995667161047
0.6240854242732062
32.50370961060377
-15.57855911226525
-17.54923592261032
-9.764611538359558
19.87909626439628
-10.11458871474388
-13.13260376763097
28.19202089202961
-3.631710071785666
-10.07875993438531
11.02590793243317
14.92357334288894
-9.896392751640628
-2.367746107725405
-2.659434483504648
-6.420354130409025
-14.34331416463526
21.67063326689391
-0.9069649718493898
9.378567514799945
9.188151989043522
-5.754521692295036
28.95701401555581
6.011842439840159
-29.21433476312731
-24.53334689227039
0.1385104421157125
24.39481324996013
20.10743774866751
0.7468833713928142
-1.535886038891786
-19.31843508116782
25.52089788477206
-16.99631431014294
7.12653440491846
-15.65111797954101
-4.10576327327657
13.53187564125203
-4.423064384440197
-5.003047983537229
16.71303465047869
5.942791141148551
-10.33887954480205
-12.31694624683035
-4.118866193082301
6.516061943781384
15.12032262146062
-17.51751837215916
12.44072178859577
-10.79995673764331
22.36572845833698
-24.00649350928907
0.02498732273345013
-0.03247901207484189
15.52421332860066
-15.51672163925769
3.164669434836419
5.926223256096925
1.685688327138394
-0.01380820143801566
-20.104623115412
20.10066406991035
0.01776724693999987
21.71422619291488
12.85976192240252
-22.75614875499233
-11.81783936031912
-8.419744194157161
-7.639900243668957
-2.012680717303293
18.07232515512976
-6.439350686902769
25.17399526794942
-15.67977930392683
-3.054865277113163
-11.3156458704237
30.63747809957584
-11.40186518939319
-7.919967039751984
16.20300094295056
-15.21933498665347
0.7278932891718511
-1.711559245462934
-1.92181296094194
-1.293826853689373
19.41864075758592
15.93611235132397
-22.13145598494497
-13.08729173105458
19.28263536467532
19.12146503923371
7.096828732688071
-23.69671495082033
-2.521578821097982
2.961872771046293
-20.02238027957433
17.06040614427556
14.30319968390785
-16.59636638373349
10.64970315879316
-8.356536458960276
22.35869323792737
-0.6297753811743652
-22.31182175011438
0.5829038933618422
-19.05310267919192
19.92543522199394
-2.794145503738994
1.583851904157308
-17.93622665499335
15.86818419806055
0.4841905527729816
16.73238844760597
9.197396099742203
-8.933753131778554
-13.09987838902819
13.16038806104144
-0.06053039537014405
-18.66666069211463
5.593987408175108
15.04251039746959
-1.969837113529606
18.95543715969596
-8.6955858714929
-10.26082216061261
-9.662588938991655
12.84330583689494
10.36105992217333
-27.57522968371794
-3.244895997194112
2.760718659412468
28.05940702151553
0.02215967977716384
-18.50840857490078
18.48619166098471
15.00376036785442
-26.43586392249145
16.82975373528667
-5.397650180648442
5.779468750984743
-5.46762787097723
-15.21250784989006
14.90066696988734
20.09985848561342
15.08448706492359
-14.90590651285743
5.776888338502269
1.72409302511024
8.69842805535041
-24.89111248928056
35.73856054411166
-2.809186817831036
-8.038261236992717
-14.61608137582857
35.71542023768981
-32.58091516698185
11.48157630512122
1.18487791443779
-21.70925546620167
2.999838394451515
17.52453915731357
-13.56606787830965
-9.100276457640058
30.79291689436878
-8.126572558422483
8.741454268953735
8.053021146775626
9.222958446177126
8.269932292752859
-17.49316916479643
-1.434406931042571
-27.38970645899579
29.43711223662795
-0.6129988465888304
21.78027681956808
-0.1420702206978056
-21.63822015470334
-20.02433775224872
14.20017443387887
6.508686963887749
-0.6845236455406858
21.06060957046278
-20.35073718693081
-11.68639298144623
10.97652059791431
-17.93560782136109
-15.31086408164377
20.12664058009638
13.11983132290872
-13.9213935677985
8.62520951880755
-14.8414038855356
20.13758793452639
9.967155362987597
-21.70767449101477
7.764003065692204
10.31800812077682
-12.2347619577086
-5.847249228759249
2.403536685594521
7.848421570741054
-25.60830894746079
4.954777402529476
1.177353227186901
19.47617831773714
3.843464718014938
-19.31521188515572
-5.634633290641366
21.10638045777944
-12.61903030279242
13.23578908283991
-15.14872169264684
14.53196291260424
12.27612916595878
-12.13282082311303
8.661957942219022
-8.805266285058467
-14.82458720382065
-5.609007499637633
6.249181393767548
14.18441330969527
-11.69560999880491
7.38279984799504
27.44840927279888
-1.672277562192416
-24.76261169571935
2.477135727370518
23.95775353054508
-15.50201314324053
-0.02057744011598274
15.52255022077856
-1.479437338056416
13.4768473125219
-11.9975071203845
-26.44380274147398
22.4155764978596
-1.091406961286534
5.119633204901961
-17.16189279904796
0.4910042025609679
17.42386742209838
-0.7529788256075749
-20.98199708268829
0.06977784878174237
10.77444370040728
29.24261702807732
12.45240668196727
-25.61128088340946
-16.08374282662803
10.21981134408256
9.114762938186237
-15.73569620656386
-18.36577185888489
10.79665156842931
23.3048164970221
13.44713189917337
-15.94514149486573
10.26201266138593
28.09724784009506
-22.27975159447599
-20.224018987458
14.40652274183982
-17.58848587986672
-10.1626651774443
14.35451266556765
13.39663839173435
9.502393229101907
-22.24145342982415
-2.996636005837226
-10.31254160291767
-6.433976435235873
16.7463588513449
-12.74379802155126
14.96730621634863
15.60863316221786
-17.83214135702182
0.3857542965432067
-0.2388898199844083
18.68977331939395
-18.83663779595188
-18.85024271512378
0.1314452252583992
18.71856493124951
-1.309756943702291
-14.93447375489717
25.74662392770618
18.73834774912437
-7.342792433646779
-12.70531225917274
-14.92881079178347
11.47923261594551
30.27843676662034
-23.01932163342988
-18.35397518666285
-8.588044177509735
12.00754560927782
-8.74586552504466
1.838623285244011
-7.073131923710966
13.98037416351188
-21.3673103051954
10.76335110924868
10.6035966230965
18.55401740254027
-5.855777018241702
8.057626688393917
-20.75586707269125
7.510647131029345
34.53690520870983
-3.028401781032148
-39.01915055872455
-1.005626216656902
-3.432306747096168
16.89797092291801
0.851959050400542
-14.31762322622024
6.127869583025189
-2.43058266502333
15.88981853333108
-19.58710545133874
-15.79067577827986
32.09615043296817
-2.155492574308913
-14.14998208037912
0.6342310129487506
-0.8619175744228638
31.20494698651503
-30.97726042502709
9.61351565070189
-0.5420159599563635
11.35992826642565
1.714976000800057
1.75213484403328
-14.82703911125578
-3.941689981376419
3.266808215807369
6.56098943837165
-15.61299867227477
18.68002004599779
-1.359730560619451
-1.707290813087672
-20.65850788448562
22.51215308675657
-5.734260401122781
18.53559070875057
-19.54053302129078
6.739202713666089
-1.439414647588282
7.111240316888265
0.6576607550717153
31.24783193960703
-3.278767066383708
-28.6267256282693
-12.31068495649884
1.020267899989963
13.61611475756702
-1.123632468501607
15.24129979839894
-27.73378208745004
-25.18981746585854
10.81427939271246
1.963144032960341
12.41239404020284
-6.88932213169242
-0.2740635913886035
-8.708761577411426
-9.750453423104902
3.863815809898491
19.82821766094673
-4.290501839949767
-29.5401983321056
-10.956583305105
10.85729337386778
-0.2478822145417346
-17.1719044798019
38.87573469189414
-21.455947997546
-33.26945632415546
17.80595104233268
-1.965251124705889
17.42875640652794
-0.06442384353471629
-20.25521965444386
0.05725696445707846
20.26238653352216
12.84813342783343
-34.8925790479143
12.76790441206853
9.276541208018694
-17.62375907088855
6.050056362605985
-15.28436068449884
15.28422709058184
11.45004329178843
21.97868401574977
-25.94899699336529
-7.479730314170324
0.08769413289390939
-22.61153813923988
-0.07622500074962026
22.60006900709788
-9.74343596883079
25.23585629257335
-26.14136806018702
10.64894773644502
2.877905174561033
-15.37852173681457
4.660508270390274
7.840108291870664
1.450950714050323
31.16122546038714
-21.16213288264746
11.99500395939953
-11.29066691390513
-6.573850604032314
5.869513558538769
-5.709381019140924
-4.039359448679421
24.56272526521227
-14.8139847973922
-35.54592538520937
5.729927893556646
2.529552833630144
27.28644465802384
9.390717507169089
19.34571723191898
-9.322674571669252
21.9804802511898
17.99299689158825
-25.68198041997222
-14.29149672281114
15.17124599199626
-15.49290137667941
-5.240320712227962
5.561976096911265
-11.51850657443049
21.37623744271459
-9.857930258946341
28.22674417773101
-23.06951004070693
-21.75982410056747
16.60258996358478
4.906794897068855
-18.99845016377604
12.4454038042265
1.646251462481235
-1.033773389632839
24.00902339289195
4.121536354253458
-27.09678635751188
2.133949486468749
39.71774989718801
-14.96834113060806
-26.88335825307655
-0.26283957513884
3.013791754563428
29.06512328465458
-31.81607546405733
6.599056501928614
2.752119136181699
-14.70481795386354
5.35364231575362
-4.895075951686768
15.25356360441108
-2.195914423126985
-8.162573229557912
-15.97251564855721
-9.64972644404185
3.317819550775138
22.30442254182257
4.742407943643104
-19.72091455816058
-5.444892155150277
20.42339876966754
6.923004753182585
14.08972609070651
1.082792150980245
5.337551073792243
-8.531135322393359
8.680097456465472
10.86942010221297
-0.6694670140384898
-18.88005054463518
-0.5293570535817321
5.443325140031032
-6.633218412775259
10.50992692761046
2.937116588908331
24.48281101287699
-16.05082112869363
-12.48551047507969
4.053520590895204
0.7830283571739033
-0.8019908152245816
-23.50846104312698
23.52742350118663
-2.663384762356325
11.10835999462515
-13.12274265364264
4.6777674213841
-10.26056016862192
34.56757365150609
-2.592787289965171
3.967767189347066
7.671513856563304
0.07207082499691068
-0.08216820505434283
0.5815776276655433
-0.5714802476354444
11.64184064680154
3.67156713695841
2.834323984521535
11.18406507613567
-0.1609144927746317
-1.425421368918299
19.37401560279108
4.861752886770216
0.3212044703681482
-24.55697295996165
2.850445412480781
-7.436901509699127
33.14831880243747
-28.56186270524214
-4.906717796837433
-17.14662466017875
1.086063098362832
2.721319456349178
13.33924210546978
17.03469171591382
-0.8923997377172963
-16.14240272192733
3.53970219233696
-17.67816564999409
20.90792386501927
-6.769460407350661
-14.87919928202546
17.20039970464517
16.58818400390534
-18.90938442652098
-41.74422543760195
-10.32844227755307
24.44391591005197
27.62875180510921
16.50048769272804
4.585617966003029
-20.72262706688997
-0.363478591816268
-37.28937362217305
27.87175825372278
9.622515944520417
-0.2049005761212199
20.13888983184233
-4.183820463348546
-25.04138305604049
9.086313687547865
16.97871369207621
18.88419626329971
-19.36242226259926
-12.060116053726
4.9315024720676
-11.36527918846236
18.49389277012197
4.304767343835668
-3.652541931177199
-1.734955183904879
1.082729771193685
-34.2605524054193
37.4935655893054
1.372883859245958
-4.605897043132815
28.97524351468743
-21.62644009260238
17.29089779875009
-24.63970122083255
-15.24763881813107
7.555406125380155
24.67094638485013
9.964394104847296
-16.27479234751501
13.52907638695737
-7.218678144288832
3.413317658784187
-27.0763678222675
16.83047487631393
6.832575287164663
4.764660148045827
-3.687799759019056
-14.04058160009948
12.9637212110702
-12.27635855327636
1.614337701151997
18.9568155426837
-2.689908002275444
-24.08673571045659
7.819828170047885
-6.931961282504468
-20.22917577230417
0.06564765652122104
27.09548939828878
7.327654074053886
20.6782563489383
-9.049094880304354
-14.32476800310015
1.901551271052672
12.42310617400422
17.58531848679997
-18.51610435963336
7.405591357297344
-6.474805484461416
-24.02995133823898
15.73777023382782
13.29911621368358
-5.006935109273526
-3.674449650580978
3.065027959434749
-19.25440820643414
19.86382989758375
0.6909546670960198
-12.16199490294049
6.598132908998365
4.872907326847339
-15.66763026783574
6.514847496372756
10.52774836664262
-1.374965595179672
-14.47533418040849
23.86906043702597
9.980289346167581
-10.09256880535305
28.05249080080659
-9.525249348838637
-8.434672646614278
-5.269612451508016
4.025748191488587
24.46032280690232
-23.2164585468783
-32.09399085656593
8.291039914042811
20.66124808425298
3.141702858270431
-24.34637038845049
0.1307771847616401
-10.15554724296087
34.37114044665858
27.55152835793792
14.94338495967934
-14.46576259949418
-28.02915071811857
-1.566806660854249
-7.685635622768002
21.56660163644309
-12.31415935282387
-9.507053457634587
31.50788374531931
-21.39014719786854
-0.6106830898154318
11.73640492047833
15.50681483065158
0.05845315595004112
-27.30167290707297
1.660747550045491
-23.41461865544922
-1.571192171289475
23.3250632766938
16.1683873675361
-13.27650466634944
-18.79531496154035
-0.4444567530835887
14.26723819686958
-13.82288753451602
-22.15318913172936
11.00357358955259
11.14952381555836
12.12224631307989
-22.63089941679621
-7.728303591365974
18.23695669508993
-16.72089610155896
13.8698309730305
2.850952711930621
-9.078949341406419
12.42903415557524
18.07692760502511
-21.42701241918481
-15.99108935419867
-2.810269554146397
17.50753205466237
0.7989633511924101
11.92222849499605
-24.30638855277351
11.58519670658679
-17.64496943876979
12.74022017331115
-11.08634008873396
-2.99039322209343
1.249538495436879
-18.42499834197021
20.16585306863279
5.782934812072108
11.84519268122956
12.99688871337323
-30.62501620667045
18.74969227630843
-2.130407647632141
-8.170718152587739
-8.448566476095047
7.499881693727291
-2.470539905447898
-21.39207624443405
16.36273445615483
8.91191417433477
-28.68158367115403
10.69072015541929
-4.794746858517724
-13.03958517028585
-2.719054337647559
20.55338636646143
-8.002278407552506
19.0914722341794
1.887610794303686
-12.97680462092852
3.019412897021921
13.85514869033645
2.047123599017164
3.933758582973691
-23.35651705368626
15.15973531677463
4.263023153939854
18.79119626622425
-15.0849347175415
1.559470727813186
-5.26573227649613
-14.4632456757974
1.14666801305126
-2.056344400975775
15.3729220636836
17.39820529981068
5.840570121828855
-19.06098583555837
-4.17778958607881
2.651871346572252
5.132339158052607
14.46202907505297
-22.24623957968145
20.66046206915754
0.1862936495357769
-25.45836603727044
4.61161031851427
29.34683981774403
-18.77096046762725
17.99672673067459
-28.57260608080132
4.608327224642832
11.40377540321047
1.777895996807674
-30.01977220484229
-3.236152605991082
20.45576459783076
12.80016021301348
-4.144025299761384
0.3550982543500027
19.24126437176571
-15.45233732635368
6.921650834898973
9.387823855054997
4.800393678136351
-21.10986836808852
12.146341109143
-7.089794066157184
-18.07195375976001
13.01540671677948
-18.49363933164166
10.04187705160302
16.12748866708812
-7.675726387048445
-18.56670624897065
19.88358178367751
9.087745885312104
-10.4046214200202
-7.963632536376078
25.56215217047634
-0.3904128694368305
-17.208106764667
-21.07913263965275
-3.374472666636763
22.78315282891336
1.670452477378982
-2.332854968007306
19.3135410522014
2.822573991345145
-22.3949948815763
-6.815744106911928
3.602430041018022
-26.91639432879684
26.25348074233461
-13.8124205939571
0.8925991672006397
-41.85430029774522
6.876962391671043
-18.671380801773
34.57847092931921
-22.78405251921617
17.70971104043598
-41.64711694904541
-13.70113558769249
37.63854149630373
26.44199695049913
-3.63072527369884
-22.3990609448174
-0.4122107319813454
4.331605600298539
-1.434336418593636
27.70398291827016
-30.60125209997314
24.21405397978026
-26.40094076688516
-1.141739221943329
3.328626009048688
15.54765726220366
-12.50547844113891
-24.43306938746879
21.39089056643058
-5.595821159010349
-12.91513287045723
14.29804864468233
4.212905384785259
33.3780212086377
-16.97182633838785
-19.77915898212887
3.37296411185691
-11.47054300246973
1.625288360886283
12.4612531287453
-2.615998487169088
8.003345130924931
9.725856207310054
0.07186860092114024
-6.278852478132968
-9.833926983396163
30.8585178477269
-14.74573838619658
9.917982787473942
-20.30760022431749
9.01987202710891
1.369745409734215
-19.44521231302034
25.25279743158183
3.440044350212855
-9.247629468778188
14.2938761965495
20.46819170953937
0.8252467866907522
-35.58731469278059
-27.20600049529575
-8.56814772155907
-11.61572410239733
47.38987231926978
37.76142007847182
-11.3164838649347
2.566500953605181
-29.01143716713535
15.62906335582508
-36.03017782821485
-8.399161504210751
28.8002759766039
21.47781286722128
-12.39845715834294
5.986295038429796
-15.06565074730506
-20.32986604920403
0.1175660614072463
-3.005706587379545
23.21800657517949
-21.24599137673771
0.07903440521688404
7.469295660973605
13.6976613105494
-10.94743076356228
-20.10844269176875
18.78914129600642
12.26673215933505
14.02251636830508
0.2324297371258173
-14.25504122734471
-14.44785696376797
18.78444998103368
33.42482706120389
-18.05851825654036
26.01838755727573
19.37602848692966
-27.33589778757001
18.90182101947104
-0.2249985288038835
0.2773344254152239
-10.63410815096931
-9.696321773599941
2.446256910234394
-23.0282210008206
-6.624036404703894
-21.15537198036398
10.51814852032522
-0.3102073035192766
3.467142031568442
14.9566899829771
-17.2389541001054
36.97700352334274
-16.93775319423316
-15.083602385006
-4.955647944073638
-4.206058070242614
10.89749878021988
-26.79988340173969
14.21754702809017
3.803742600121244
1.698562834717652
-19.71985246292321
1.292228251556705
8.782455752379882
10.57747352054354
-20.65215752449908
2.260005446775617
-3.668197033870348
0.5426865665716462
0.8655050205265361
6.405007521858696
13.0056070711029
-1.27074776336634
8.745816981824577
7.969466247881846
-0.3306162914650304
-3.64876728089675
-6.716204910301125
20.1679980908014
-9.803025899609155
-42.6776105014761
9.544198895986101
15.07489334900204
1.653719928182026
-19.68569748302231
0.9290999786178861
17.10287757623878
-10.8351068829533
20.94368407298501
2.360876390649106
-12.46945358068792
27.00921757592517
11.54507471874265
11.15954080599948
-49.71383310065762
11.33931582742471
5.469879704449017
-15.80901052298245
-1.000185008891742
-23.53033874767418
-5.929800202487451
1.333230012144258
28.12690893802263
1.218010315409127
0.5853993335439006
-25.3337483966226
-15.2912304737971
-5.592665559476
-8.037929834028125
15.43081805771418
-15.93366313226723
2.156565002754578
16.23198151366066
2.758125814774859
0.8585359764565882
-19.84864330489372
38.53817941313764
-20.81249751993438
3.584523127840379
-21.31020502104301
20.4324750549898
-27.22356382055467
6.791015615500952
-9.102623143911917
29.68562967299744
-1.453430749614005
-19.12957577947084
-17.34776970643755
-5.428413821421255
14.9356394251531
7.840544102707909
6.841782578909812
-6.6592948173608
-2.535542932187937
18.29098822697378
-12.99873255759511