/*--------------------------------*- C++ -*----------------------------------*\
| =========                 |                                                 |
| \\      /  F ield         | OpenFOAM: The Open Source CFD Toolbox           |
|  \\    /   O peration     | Version:  v1906                                 |
|   \\  /    A nd           | Web:      www.OpenFOAM.com                      |
|    \\/     M anipulation  |                                                 |
\*---------------------------------------------------------------------------*/
FoamFile
{
    version     2.0;
    format      ascii;
    class       volVectorField;
    location    "0.1";
    object      U;
}
// * * * * * * * * * * * * * * * * * * * * * * * * * * * * * * * * * * * * * //

dimensions      [0 1 -1 0 0 0 0];


internalField   nonuniform List<vector> 
19632
(
(5.003111514292014 0.008739463645187708 0.002360377995688948)
(4.999952603687521 5.816055168495936e-05 5.760515840647317e-05)
(5.000029427254516 1.664859146728121e-05 -2.703111798203834e-06)
(4.999994474322763 1.576039201913178e-05 -1.397200302733954e-05)
(4.999979325841794 3.257784544550017e-05 5.945365744899324e-07)
(4.999817892022312 0.0001820398017825525 -8.883951268127555e-05)
(4.999903307246899 0.0001267919041837295 -4.103536443573215e-06)
(5.001265585230826 0.0007503876690397199 0.001399866331348561)
(5.002152581834823 0.0004933877535994558 0.001919611366468717)
(5.002393728935981 0.000407755259234312 0.001512431919910503)
(4.999985513587828 0.0005170968471933101 -1.133555198863773e-06)
(4.999878050892889 0.0001372033593571185 8.542973100039857e-05)
(5.002131784550338 0.000862648101799574 0.00156724703303947)
(4.999983880366098 3.785707036506057e-05 4.801143226910257e-06)
(4.999906783924169 0.0001519962200874314 -0.0001218579998049012)
(4.999977566024337 0.000235080531732691 0.0001523786564978393)
(4.999963839790836 6.122509891604224e-05 -9.290854662379549e-05)
(4.999975034039998 0.0001359663382498672 -0.0001016237362231217)
(5.000011819627058 3.881179288053029e-05 1.524019645466157e-05)
(4.999538584436862 0.0003835480124750198 0.0002137178880621658)
(5.001288995188184 0.0005108748590920084 0.001132624314252451)
(5.000834546907439 0.002271670511588757 0.002287572747260872)
(5.003311918100988 0.0004892613704278966 0.001403734029455741)
(4.999997869000642 0.0001097401341563125 -0.0001036177702786683)
(5.000165622530525 0.0001566620841216142 5.297146488194754e-05)
(5.002372521489824 0.001456697778744251 0.002078424176204068)
(5.001799085137629 0.001683919491781808 0.001248112577065306)
(4.999912925539259 0.0001999356383142852 -5.5950150608829e-05)
(5.000000057675263 5.469699491373815e-05 4.070691725381138e-05)
(4.999976649973263 3.407329446818529e-05 1.293776712789095e-05)
(5.00000875720849 1.846267476566061e-06 -4.000905993369195e-06)
(4.999925916953829 0.0001114732816296929 -5.895003192439996e-05)
(4.999942578954937 0.0001665679322957384 4.123623129772689e-05)
(4.999890491250778 9.135921404321069e-05 -6.002338772057183e-05)
(4.999992490429801 6.42093974471254e-05 -9.458103460279264e-06)
(4.999974430778709 0.0001027674328001426 7.330727515915492e-05)
(5.00016136948999 0.0004146578951073487 0.0004706322736754724)
(4.99998108655806 0.0004376365786094256 -2.145844962909113e-07)
(5.001487269853192 0.0008294775640951932 0.001653644282608791)
(4.999987533161413 4.783816613658056e-05 1.128942793827726e-05)
(4.999815586438408 0.000285353021683432 6.344841700638642e-06)
(5.002066570781882 0.001102435267138952 0.002359373422987688)
(4.999982525078458 5.456367927151412e-05 4.622090323763539e-05)
(4.999874878151382 0.000206592281174831 7.753063962308593e-05)
(4.999993302952841 3.603486196367822e-05 4.012118633130619e-06)
(4.998730746288636 0.001536770808037259 -0.0005701273989571536)
(5.000104640595659 0.000169863419295138 -6.249802179384734e-05)
(4.999019033696153 8.859362126827258e-05 0.0001059100106216668)
(4.999682752128829 0.0005667131582086856 -8.031864370937735e-05)
(5.000026858602671 2.073017298715638e-05 4.365536716825256e-06)
(4.999857535896338 9.165587251151898e-05 -5.125925230574797e-05)
(5.000016352188353 1.618699023200666e-05 0.0002886473446162173)
(4.999961083406936 6.576315873135506e-05 4.722415318560449e-05)
(5.000259195116048 0.002515671512251538 -0.000731796473587026)
(4.999835234203308 9.136689486019772e-05 0.0001211364377341825)
(5.000191056271957 0.0002146377474503753 0.0003458423014436954)
(5.00153212211579 0.00025746289082248 0.0005223780848461324)
(5.00012498681853 3.419624302042151e-05 -6.89183605793277e-05)
(4.999889634023852 0.0001803003666478344 -4.118515817515084e-05)
(5.000004302042715 3.543286907793058e-05 7.203150973624449e-06)
(4.999975963007995 5.556487879548422e-05 1.241715745175599e-05)
(5.000007128616788 1.740465715110047e-05 1.225688479587701e-05)
(5.000009848111159 6.215694184303705e-05 -2.870515390617441e-05)
(4.999952853708961 7.662742548240568e-05 6.992600760707736e-05)
(4.999994638345889 9.973058063261737e-05 0.0002873504834572908)
(4.999988650951034 2.087337862247449e-05 -9.395560672850075e-06)
(4.999797820208852 0.0002883810732930496 8.429170069849232e-07)
(4.999981331347495 4.416075351475851e-05 2.319267922687056e-05)
(5.000041027475699 4.442445257009301e-05 2.145014375185182e-05)
(4.999897149697479 0.0001474089735487402 2.77034957554451e-05)
(4.999992152992983 5.809838244648955e-05 4.334525053566208e-05)
(4.999390945255207 0.0003925959469245642 -0.0001217998812149046)
(4.997027724014603 0.0001429878212982797 -2.672639598814027e-05)
(5.001823757077418 0.0009177401823243262 0.001808582836134016)
(5.00012290259321 5.000233047057566e-05 -4.927465956390402e-05)
(5.000212754365036 8.904096215309182e-05 -0.0002825410244007574)
(5.000000516058107 5.644266789938761e-05 -0.0006499985797073187)
(5.000018289808344 0.0001865245087549619 0.002849239758920465)
(4.999787766500692 0.0002434260493025881 0.000102705910899624)
(4.999814278825357 0.0001641839361456024 2.695608787418162e-05)
(4.998460578025548 0.001400242461191649 -0.001972854556792601)
(4.999817929109936 0.0001366975420394724 -6.152472618269409e-05)
(5.000261608267206 0.0007113424199605788 0.001631210263481208)
(4.999864947950901 0.0001349080062209123 -8.113497189548147e-05)
(4.999663244016569 0.000465831462900099 -3.407651181058599e-05)
(4.99957291893355 0.0003352860311463199 3.769507278405281e-05)
(4.999954169423936 4.32638801807516e-05 -1.004215033422231e-05)
(5.000058236767407 9.126135683093252e-05 -0.001766209113516769)
(4.997160016877498 0.002267422648785283 -0.0007425658701186445)
(4.999916338180143 0.000136202204607786 -0.000208804676235579)
(5.002017174619482 0.001071417164836491 0.002537737242608678)
(5.002308680774854 0.0006714504347784261 0.003436659810007289)
(5.002427451985887 0.0005711488085670056 0.00132260160107319)
(4.999997797645156 5.311553233123498e-05 -6.13264749464799e-06)
(5.001577526321511 0.0004184398171569173 0.001213511917651993)
(5.002218039290783 0.0008855376620910766 0.001603951133429061)
(4.999921192683064 6.872540389414026e-05 -1.914219646417895e-05)
(5.000000227659692 0.0003598454150908884 -1.429145323386909e-05)
(4.999952907774603 0.001411301208448231 -0.003373015257216366)
(5.000008564627119 2.962409893997574e-05 0.0003082580343910929)
(5.000005788075358 2.276664760518865e-05 1.0569654756611e-05)
(4.999878591118542 0.0001090667537282075 1.293311661587556e-05)
(4.999954821578117 7.5199794225487e-05 -1.613915644512496e-05)
(4.999961923363228 8.491450152175442e-05 -4.257963745778107e-05)
(4.999978589465374 0.0003655655211653947 0.0001751992763204988)
(4.999982706898954 2.573631617812407e-05 3.597463649877128e-06)
(4.999986365186669 5.721943136570444e-05 1.776043928831265e-05)
(5.00226909227534 0.0009027532054069365 0.001791676183827876)
(4.999676159812703 0.0003331793564360766 0.0003965435649169976)
(4.999985055250587 0.000504799223478321 -7.566177181294558e-06)
(4.999688157672637 8.592941233122094e-05 -8.849924548763964e-05)
(5.001982623376618 -0.0001654626056164353 0.0001576020470734321)
(4.999866197012892 0.0002488540210935513 -1.50503683513838e-05)
(5.001719767273802 0.0001026606431206087 0.001090573272755863)
(5.002337153805269 -0.0003095798518329531 0.000828071965536147)
(5.001723557412299 0.002591426115642522 0.004456875729776429)
(5.001479211498999 0.0001796401339807072 0.0008715487543168083)
(5.001962537207629 0.0002493856292392221 0.0008638671560425211)
(4.999925732865536 0.0001925928692418773 -2.81376989084198e-05)
(5.001535058660115 0.001297804280739049 0.002216729931129602)
(4.999385957593161 7.034849896258562e-05 1.374049908760419e-05)
(5.001808527717795 0.001236883777826646 0.002191946107462119)
(4.999992172148329 5.721979326663082e-05 -1.423330214689561e-05)
(5.001650119454171 -0.0002819323953874795 0.0001884823105472754)
(5.001865740391593 0.0003037048607798417 -0.0007619743204868221)
(4.999882429784462 0.0001713239186632178 -6.779377729552201e-05)
(5.000997327245801 0.001046643899487697 0.002123772197347709)
(5.000059549789746 7.626379977122514e-05 2.267388913495265e-05)
(5.000000696505834 1.780446186435486e-05 1.560915164845626e-05)
(4.998252229197555 0.001961265807468519 -0.002386966499888639)
(4.997779502691144 0.002679983797333613 -0.001184007334544092)
(5.000005451563793 2.490973181774066e-05 1.184760068382673e-05)
(4.99988963948293 0.0002078991775232104 -4.450531762490597e-05)
(5.000011066092376 0.0002718378650968409 1.101936389763171e-05)
(5.000526701300063 1.541962751080842e-05 -0.0002745545173036631)
(4.999919633565201 0.0001065601708322078 -3.079522411738378e-05)
(5.001914483883168 -0.000587104726593865 0.0001528317949023706)
(5.000245863220097 0.0001143265064923533 -0.0002666077765686945)
(5.000044963805208 3.842140258386845e-06 -6.431530466996336e-06)
(5.000067031461041 0.0001994988685538188 -0.0003114871514809583)
(4.999954761458685 0.0001033311922835223 -1.775911149033994e-05)
(5.001390300931785 -0.0001529032191949056 0.002026605744060194)
(5.000016752570047 9.138630185405952e-06 -4.880630875568532e-06)
(5.011673642330579 0.002330619320533282 -0.01025663624700221)
(4.999965441389121 1.653301804682178e-05 8.572117614076154e-06)
(5.002584001965915 0.001496405588724019 0.003107754306176158)
(5.000021272013835 1.165454713711412e-05 -1.931663901346006e-05)
(5.000201851317218 0.0002401166243747458 0.000411415942752973)
(4.999894518137331 0.0001373677166501332 -3.609089741093928e-05)
(4.999891974316951 0.0003720786663157427 -0.0002302721107582454)
(4.999986605313137 0.0004231840560619276 4.429054613964249e-06)
(4.999984029705859 1.771105195687174e-05 0.0002461330812356655)
(4.999885874984614 0.0002030156117249627 0.0001719543503128328)
(5.000009478984667 1.743821563314972e-05 -9.369234273839797e-06)
(5.003297752366462 0.01270352507527096 0.01155136626238059)
(5.001602212587436 0.0002075400520554275 0.000696843480557622)
(4.999814329012545 0.0002539863314659284 -5.608143715825987e-07)
(5.00151523296606 0.0007412529540868081 0.0006658060381221342)
(5.000886861753387 0.0008632731519111858 0.002960366459096424)
(5.000012082083734 0.0002322543605099641 -8.026580003982714e-06)
(5.002168721062577 -0.0002108728091118598 -0.0001254252220152263)
(4.999769187332422 6.149203001504489e-05 -6.691467397319048e-05)
(4.999970551084009 0.0001279937101233417 3.995884251068757e-05)
(4.999710505641371 0.000135515661381017 6.9906699621987e-06)
(4.999887679955674 9.185226019539765e-05 4.163661496128463e-05)
(4.999791445808888 0.005626459446876686 -0.005172706434020294)
(5.000007170880703 0.0001941015000168189 -1.934747976752394e-05)
(4.999728991346059 0.0001370880887743888 -1.659945156695216e-05)
(5.00002111125212 4.46126392331994e-06 3.089081801628598e-06)
(4.998791575373008 7.387309463285659e-05 1.927138932184231e-05)
(4.999913838831155 6.618252744534461e-05 -0.0008686263108033488)
(4.999647862240868 0.0001898338881771415 -1.597043450392209e-05)
(4.99993543323071 6.297210626113919e-05 -0.0004002052221306204)
(4.999985568060702 0.0002856407780496539 2.372376854270223e-06)
(5.000160401607308 0.0001831739852129828 -0.0002309730908385085)
(5.000045392573199 0.003151649217147683 -0.003686125967212502)
(5.000693702587696 0.001418600468523549 -0.003844318784986494)
(4.99999593908336 2.529825658610294e-05 -2.14182388104038e-05)
(4.999764844378316 1.734513369283487e-05 -0.0002591671536636437)
(4.999971826663001 0.0002972881230551616 -0.0004397486587176294)
(5.000011937441997 0.0001061704137796787 -1.148971175265888e-05)
(5.000024242022922 1.954539648616964e-05 -1.144816383572026e-05)
(4.999996289151912 4.414794548824301e-05 2.325377972883636e-05)
(4.998346215586573 0.00285903185042138 -0.001490861466240583)
(5.000240624329581 0.000363891629951855 6.50990296259992e-05)
(5.000016694226605 1.303528910999201e-05 -4.979105065152691e-06)
(5.000022955058884 1.408562969646068e-06 -6.894454679349047e-07)
(5.000017711608264 1.338453512308754e-05 6.645049293209403e-06)
(4.998056990859575 0.002817150960293014 -0.001287234363771772)
(5.000014302388251 1.565895749265105e-06 4.15052933314289e-06)
(4.99916942249635 0.0003210199857623506 0.0003230366681487373)
(4.999914226149809 3.43474135616234e-05 1.27954124598732e-05)
(5.000014189372776 5.123597428932133e-05 4.42001887819496e-05)
(5.000030717272146 5.010116421845647e-05 -1.154281593178735e-05)
(5.000017926358456 9.678969260929404e-05 -8.525894000050638e-05)
(4.999996690935775 0.0001241733222944621 -8.590698315350373e-05)
(5.000024532689855 7.388844302442214e-06 -8.770026494610375e-06)
(5.000017004363724 5.732716845267706e-05 2.50380513220358e-05)
(5.000005313647701 0.0003593000208810944 -6.164084824021889e-06)
(5.000058882143273 3.906852345019973e-05 -2.781190663209951e-05)
(4.999994691314587 2.565799389136485e-05 -1.206096235137954e-05)
(5.000025057176471 0.000126256511351984 -9.942026367652645e-05)
(5.00002840149772 1.35157587053953e-06 -8.651068477457021e-06)
(4.999876087506113 1.54496404636441e-05 2.58058668103085e-06)
(5.0000142533533 0.0001314294780624448 -3.217932194931884e-06)
(4.999976295561585 4.094678061675651e-05 2.132454370282653e-05)
(4.999523313678298 9.223979840372731e-05 0.002467082749225256)
(4.999662791111493 3.210415803573409e-05 3.465843127594082e-07)
(5.000111473832501 0.0001892265741987555 2.903755994582228e-05)
(5.00000335199222 0.0001654343347438695 1.427041644780494e-05)
(4.999899804229656 0.000244754754934484 0.0002118950889946965)
(5.000017679297976 6.368917375756969e-05 0.0001142894237205596)
(5.000019044889614 2.345797409605967e-05 -8.702530255229793e-06)
(4.999854571964843 1.847085765041543e-05 -1.195245785899054e-05)
(4.999983222320004 5.003908089345746e-05 -1.956804089660673e-05)
(4.999986739726807 2.036999156822067e-05 2.195185651188031e-05)
(4.99992355003983 4.364462780992136e-05 -0.0001653024243942271)
(5.000061388141375 0.0001031478757953568 -8.889671029773775e-05)
(4.999860778348451 0.0001756142075940089 -7.363627989492157e-06)
(4.999960480852878 6.240248142436236e-05 -0.0008773395020888551)
(4.999990283310031 2.303624347010654e-05 2.064965349585986e-05)
(5.000035537438572 1.109011800888708e-05 0.0001441434136591938)
(5.000055827251721 0.0001591908971353302 -0.0001194666089999798)
(4.999984904972573 1.398913693421445e-05 -7.11507270097422e-06)
(4.999981946702519 1.767778394948985e-05 2.887163960347151e-07)
(5.000010362267207 3.723202759430225e-05 -2.001447215971297e-05)
(5.001875273356335 -0.0002851626303729136 0.0003249323990194855)
(5.000005727911106 1.975549401363901e-05 9.198799025386729e-06)
(5.003343802032219 0.0001547642619045125 0.001045497471395252)
(4.999933586274222 0.0002409104122475778 -0.0002335467967333191)
(4.99992332878415 0.000195976952611444 4.163452482491849e-05)
(5.000271396780802 5.874371680656173e-06 -1.743244135353234e-05)
(5.000027568707881 1.234071088657364e-05 -1.116146697723014e-05)
(5.00002122528926 9.734431707862931e-05 7.364893157923318e-05)
(5.00000589375857 1.501750567823787e-05 1.349280669080685e-05)
(5.000027842155793 4.245335427623622e-05 5.475002979595748e-05)
(5.000026561885151 3.502645956672886e-05 0.0003123318002450396)
(4.999990692035521 4.425401889669217e-05 0.0005004442059565023)
(4.999998412445551 5.365346271722582e-05 5.154475103868043e-05)
(5.00002414213439 9.65611303207073e-06 1.526480410164982e-05)
(5.000281522472515 3.760532709907275e-05 -1.481262286787683e-05)
(5.000180852618444 0.000109854708228355 -2.758772364768884e-05)
(4.998388859440809 8.336032096569647e-05 0.001659289524611622)
(5.00001351530813 0.0002238168040492029 -0.0001322791717993593)
(5.000002227012103 4.448324862995902e-05 1.01459006472237e-05)
(5.000027981784118 1.261756056309836e-05 5.640413907835527e-06)
(5.000002700750205 0.0003078260963098845 -0.00012768066237347)
(4.999972188197474 0.0001406819685677569 -0.0001326417728221023)
(4.999988607008282 4.585831880253344e-05 0.000677633440939206)
(5.000365877633103 0.0001905884440376585 0.0002401160875198818)
(5.000024341122014 4.770646593670868e-06 -9.512999056233381e-06)
(5.000131190541055 5.333712890132906e-05 0.001864163860498575)
(4.999982170699758 0.0001309139324769424 -0.00010536478814467)
(5.000026713310253 0.0001270902833356502 -0.0001845634572156154)
(5.000009366015823 6.359535189171506e-05 5.518494557717029e-05)
(5.000021873325821 8.606691810622773e-05 -0.0001074519397032859)
(4.99995054821768 0.0001195343728877235 -8.652815132501412e-05)
(4.99993611571521 3.97638656781501e-05 -3.511564303028801e-06)
(4.999940600534271 9.910429658089789e-05 0.001390451890417982)
(4.999991341062551 0.0001885204018724428 -0.0001790778071712486)
(5.000122048610942 0.0002219034369456412 -0.0001732585616795374)
(5.001092031255031 0.001055536064958724 0.004218930923343398)
(5.000107353602395 4.612711357900131e-05 1.882486108338169e-05)
(5.003075336044998 0.00118193561334895 0.003104341489655504)
(4.999966730237037 6.034946893131721e-05 0.0001182225703729614)
(4.999966434508313 1.942674080589424e-05 2.102349201904249e-05)
(5.000081141759205 5.373566028553558e-05 -2.456719353612101e-06)
(5.002140596372744 0.0008755254811054045 0.00185124008773839)
(5.000186606818451 7.590834626849197e-05 -0.00017804763063543)
(5.002668326579406 0.0009162019195002571 0.001762889099848767)
(5.000127858144896 0.0001342074493053321 5.082931815856535e-05)
(4.998198663546696 0.002254788591397419 -0.001000945259661677)
(5.000030791320971 2.227539855420022e-06 -3.466748696899653e-06)
(5.003704150499464 0.0008653698748163639 0.002791579507038127)
(5.000404644663694 2.671635532229799e-05 0.0001123408827763056)
(5.001849582881879 0.0005073998075366574 0.001464488948121608)
(5.0000935153333 5.105455499877151e-05 -5.662369610166253e-05)
(5.000079607618744 -1.635534584827686e-06 -2.845659752138378e-05)
(5.001703316678024 0.0004123536941049417 0.001388002134546454)
(5.0011520974165 3.19363258488044e-05 0.002237341636118608)
(5.000967877231698 0.001620141286147288 0.001233165216633868)
(4.999466425472685 3.288314552239753e-05 6.194078771439377e-05)
(5.000021742597099 7.023631291494378e-06 5.270480598776485e-06)
(5.000046625436041 8.442203841088416e-05 1.854207107387409e-05)
(5.000011704049536 1.643236213646144e-05 -3.102614660743812e-06)
(5.000004750408557 3.990593823955531e-06 1.30991377636446e-05)
(4.999698302988697 0.0004793242745450039 -0.0003423907999980196)
(5.000104268712242 3.697256846258588e-05 -2.423318046985542e-05)
(5.000000163028922 0.0001657061945848345 0.0001520799933717961)
(5.00000845401809 2.996763552933554e-05 2.203198483459415e-05)
(5.000016915271248 7.782717064115616e-06 4.883588546651732e-06)
(4.999984867054146 2.200096603877109e-05 -6.665699054069576e-06)
(5.000439711350706 0.0008382821564602598 0.001491512113221344)
(5.00002127852217 3.38934975437993e-05 2.440009800834487e-05)
(4.999993576566525 3.234941337035145e-05 -2.342973879662532e-05)
(4.999915563287691 0.0001073076559987068 0.0001411002562384212)
(4.999975978855861 4.336738703841865e-05 -1.149873002210821e-05)
(4.999381475772375 5.505208060770564e-05 4.194611706901646e-05)
(5.000250469131342 9.032139249876765e-05 6.449064551320226e-05)
(5.000010614865354 1.964451180818979e-05 -6.818403076974077e-06)
(4.999977137629053 9.631435185961112e-05 0.000844540364498912)
(5.000405918877491 8.454373853352697e-06 0.0001413140441351008)
(4.999989967691743 2.512988970286956e-05 -2.38789143690081e-05)
(5.000034671575816 9.297768646091874e-06 -1.459944925993028e-05)
(5.000126016377732 0.0003009323540073869 -0.0001904115735156114)
(5.000029902063534 0.0003454513247903773 0.0003948247680308133)
(5.000015017926804 7.431610176173668e-07 -4.91430037816123e-06)
(5.000706121349499 -0.0002540588994865443 0.0001381296636957542)
(4.99993430445895 9.053576742978369e-05 0.0001752427030496637)
(5.0000207969924 0.0001628347975596339 9.452169925791531e-05)
(5.0011928151495 0.0005097573500092217 0.0006378644702175477)
(5.000516889651513 0.002116146489413019 0.002970925784501893)
(5.000041456204815 0.0002394524950213553 -0.0002005937231203365)
(5.001781387630114 0.0008479223722645012 0.002795896886252444)
(5.000002051120012 0.0004177859237804641 1.560442738460537e-05)
(5.000054838513479 1.951847971740767e-05 5.534214125501957e-06)
(5.000231023659684 0.0001109524207652663 1.768697996326553e-05)
(5.00237833928226 -1.640440976589571e-05 0.0001077764373001835)
(4.999894956527164 0.0002870224083578235 0.0002273234998610793)
(5.002163803999855 0.0008515897077031071 0.001141958658084385)
(5.007388183115284 0.01651313941761827 0.003376922052516997)
(5.002619301735039 0.001080794157435519 0.00162621480220192)
(5.001787759494126 0.0008691843457432677 0.0009388521973166551)
(5.001582078100597 0.000581926167189685 0.0007885589215332613)
(4.999926225901325 0.0003983781942330503 -0.0004746851766359706)
(4.999870761699499 0.0004532740565419938 -0.0002930194920747674)
(4.999641408774576 0.0004472606786117614 -0.000435783949542759)
(5.000021931802214 5.883122403960713e-05 -1.576937851161448e-06)
(5.000018343319593 3.0760617242656e-05 -0.0004738753722115489)
(5.000039365811578 0.0001399599765406418 3.293489796268363e-05)
(5.000007389791309 1.511734248067113e-05 -6.339411557302909e-06)
(5.000066552804887 3.442557254373935e-05 7.962325978493469e-06)
(4.999530450020519 0.000365352975331646 0.000387183167094618)
(4.999404263143417 0.0004881708975202332 -0.0007038810052810519)
(4.999999303172078 6.190861634192058e-05 2.86485200324509e-05)
(4.999483037110013 0.0004387761172047402 0.000432583331081766)
(4.999982067620721 4.784897742152368e-05 -4.780339165684427e-05)
(5.00483945895829 0.003384566651094338 0.006705154432144814)
(4.999994609528134 4.651837960638368e-05 -2.994546469455579e-05)
(4.999875312730893 4.259816165269436e-05 -8.456114459471074e-05)
(4.999459967158589 0.0006052755335139559 0.0003060440313867019)
(4.999998363897189 2.705566158217717e-05 2.076210307233106e-05)
(4.999877134295501 0.0001562101020175667 6.089328790503593e-05)
(4.999616014934237 0.0002463663402857721 -1.305707877911166e-05)
(4.999499609197989 0.0008887872592769283 0.0008585375253067227)
(4.999471845348677 4.421256233598812e-05 0.00010312252819302)
(5.000025610889347 2.185896705026843e-05 -9.666285438395322e-06)
(4.99988223253533 0.0002211615608083318 9.908159856991029e-05)
(5.000013192588383 0.0004228919702920429 -8.310660202638727e-06)
(5.000028065239837 2.143881199745223e-05 -3.141114077702728e-05)
(5.000133722902737 0.0001066352901348722 -8.963245935319421e-05)
(4.999975252511346 7.802561879319445e-05 0.0001479336780415232)
(4.999996122877083 2.389619894165474e-05 -1.567554955021044e-05)
(4.999974573929993 6.146733881328868e-05 -1.17243895448229e-05)
(4.999834622784336 0.0001641378306704738 -0.0002544595811514053)
(4.999990830434523 2.867551108441962e-05 7.397717244601945e-06)
(5.000012192504025 3.25530129252861e-05 -2.298786021804822e-05)
(4.99993479138142 8.093551921759547e-05 -6.099460039424403e-05)
(4.999542191420072 0.0004614794631176602 -2.946373534188635e-05)
(4.999915375628969 7.563729118062678e-05 -2.919814515149302e-05)
(5.000121532981779 0.0001059255592538765 -0.0001202467188417387)
(4.999982305516708 4.050769223316336e-05 6.660535441780771e-06)
(4.99990575082092 0.0001238874178911238 -8.369558600869389e-05)
(4.999916507728813 8.105999076669539e-05 -0.0002337153831181898)
(4.999832343696439 0.0001231999475727727 -0.0001279108689145888)
(5.000013552208075 0.0003994319171939656 -9.185834423643568e-06)
(4.99997019730711 0.0002939727500581606 -3.527451991550633e-06)
(4.99991450539023 0.0001419306426624989 8.866120746758418e-05)
(4.999988604155374 3.582161874421412e-05 0.0003944404538177577)
(4.999987873374375 0.0001388632507401668 -9.993346085079812e-05)
(5.000036474191295 0.0001066184321529436 -0.0001132841835506382)
(4.999980846443552 4.380473268846126e-05 5.757557214737963e-07)
(5.000011675655674 6.296211376490581e-05 -0.0001097477958404725)
(5.000001141229041 7.278300139598723e-05 -6.995463834282699e-05)
(5.000000277964157 2.423612617820069e-05 5.485333333979468e-06)
(4.999938092913195 0.0001730881360696894 -0.0001934379303975926)
(4.999985307202818 2.673404162708643e-05 -2.3684780679567e-05)
(4.999977820583335 0.0001173127484782633 -7.041133004319282e-05)
(4.999979669477939 8.910150898288416e-05 -9.692162444641203e-05)
(5.000010051127188 7.722773844009024e-05 -3.629637233103282e-05)
(4.999469048013287 3.816180537627471e-05 2.785195317849e-05)
(4.999973759787591 5.302446011766269e-05 1.624882970743744e-07)
(4.999947258882846 0.0001437223840255044 -0.000361340689315811)
(4.999967860316725 0.0002738743874393594 -0.0002355206496131586)
(5.000018748693675 1.49917771414139e-05 1.341046120709731e-05)
(5.000198728418805 0.0009355559978251317 -0.0004391966745000073)
(5.000360248208233 0.0006000806878368396 -0.0003614990554627635)
(4.999468310744613 0.0003299862363668232 3.693588222693265e-05)
(4.997259908402909 0.0001508516400745849 7.537418138406689e-05)
(5.000139474696184 0.0002428825330968632 0.0003956115876203549)
(4.999959937995246 7.011648762508921e-05 -4.690371529578581e-05)
(4.99994978871188 0.0001657223592188975 -0.0003022809670918178)
(5.000132069900991 0.0005688120125910196 0.0001223092835648123)
(5.000000761079946 5.391343228328591e-05 1.090589278026982e-05)
(4.999912643635075 0.000134823388656001 -0.0002392304516452358)
(5.000212339546843 0.0003643360310443291 -0.0005260814145796129)
(4.99993515319498 9.915736778119223e-05 -0.0001539942795250223)
(4.99835835378177 9.099633406598741e-05 1.223279303611616e-05)
(4.999875912461929 0.0003103104953951336 -0.0001875584795170886)
(4.999584531319467 0.0003702246636960556 -0.0002074872088021545)
(4.999870040593819 0.0001091245140648321 -0.0001960663723860717)
(4.999984686941337 3.036725663895257e-05 1.854991392942659e-05)
(4.999987498123681 6.38184459463371e-05 -2.468089045345263e-05)
(5.000002488180225 2.809807638696589e-05 8.256629784624054e-06)
(4.999908291887807 7.341511635854105e-05 5.895288677436765e-06)
(5.000004751090565 2.974730934920845e-05 -5.181924586767239e-05)
(4.9995370979947 0.0003246688340978724 8.354654055267867e-05)
(4.999982936564333 5.488723215498212e-05 3.588955575806148e-06)
(4.999887786109318 0.0002588928165392352 -0.000264388582185749)
(5.000009550773932 0.0003497643998183497 0.0002875537838673172)
(4.999480298962529 4.23742736868499e-05 1.528865982814295e-05)
(4.999944419206775 5.330736936386336e-05 -9.349365829305315e-06)
(4.999995208153153 4.248033582698901e-05 7.031424271830373e-06)
(5.000080922063665 0.0001907029648846754 3.67495501134195e-05)
(4.999966419675824 4.49017727078379e-05 5.90776530788937e-06)
(5.000028830899591 0.0001363537230385953 5.984625417535789e-05)
(5.000022241702658 0.0001125512872745686 1.21715138701105e-05)
(4.999990338463641 5.620396878430473e-05 -3.013343435193217e-05)
(4.999900592912017 6.745108940615585e-05 0.0001640249647779969)
(4.999905426072532 0.0001255332229692003 -0.0002616608184273729)
(4.999925541987684 6.893745995138221e-05 -7.281391166890268e-05)
(5.000050871666527 0.0001686499473259404 2.171657040743199e-05)
(5.00000531807006 0.0003028303450624264 -1.92500371191089e-05)
(5.000086045126732 8.88824977802653e-05 -2.335310607495913e-05)
(5.00090918834371 0.0002986231722224352 -3.260978090528502e-05)
(5.000015970193868 2.963403964267813e-05 1.674360981179408e-05)
(4.999895124468679 0.0001038301048147857 -0.001596692168267442)
(5.000008582785604 0.0001836253650206517 3.251818795770701e-05)
(5.000054946132269 8.779901756582849e-05 3.062120854522399e-05)
(4.999907790284339 9.766123620967798e-05 -0.0002392431150998208)
(5.000033177005626 0.0004657699127015067 0.000160725114365732)
(5.000048465830503 0.0001110193071781937 1.877660704409801e-05)
(4.999886495617662 0.0001811090716146095 -1.305815464375112e-05)
(4.999825574875878 0.0002800988434240481 8.895385630773842e-05)
(5.004484439275863 0.006135255998010809 0.001993665953155747)
(4.999239781412923 8.171288502439979e-05 7.790476226456636e-06)
(4.999912411116757 5.341962919116375e-05 8.504161600779118e-05)
(4.999829210826826 0.0002833971914680277 -9.249823907541839e-05)
(5.000794196042342 1.478447457230433e-05 -0.0001077035870745838)
(5.000064593708953 0.00017193229907379 1.910869683757976e-05)
(5.000051211968681 3.038121107515816e-05 -2.821332744156191e-05)
(5.000021919285759 2.092563444483496e-06 -1.35682676374778e-06)
(5.000005573809363 5.457715971111402e-05 -3.602844840427089e-05)
(5.000007061721949 0.0001185040008087973 9.202120601537467e-06)
(5.000030382089839 0.0001487017700629873 -3.221712395729038e-06)
(5.000921826417532 0.0004364534029826153 -0.0001416916703381519)
(5.000086980052239 0.0001479467796628693 -6.453663223131466e-06)
(4.999987491067365 8.230311646848841e-05 -0.0001080053675687904)
(4.999982939500255 2.918380573405762e-05 1.610039131807034e-05)
(5.000014815747281 0.0003622042538221016 -5.421328534439744e-06)
(4.999986970439117 3.554576420166831e-05 -6.367624423236694e-06)
(5.000001940749768 0.0001044698411784238 4.452995595820835e-05)
(5.000022534744651 2.285225271381471e-06 2.041276202773746e-06)
(5.000009378541407 2.844987425546163e-05 3.478753525333762e-05)
(5.000024079993887 0.0001905754120125571 3.61577879601941e-05)