/*--------------------------------*- C++ -*----------------------------------*\
| =========                 |                                                 |
| \\      /  F ield         | OpenFOAM: The Open Source CFD Toolbox           |
|  \\    /   O peration     | Version:  v1906                                 |
|   \\  /    A nd           | Web:      www.OpenFOAM.com                      |
|    \\/     M anipulation  |                                                 |
\*---------------------------------------------------------------------------*/
FoamFile
{
    version     2.0;
    format      ascii;
    class       volVectorField;
    location    "2.1";
    object      U;
}
// * * * * * * * * * * * * * * * * * * * * * * * * * * * * * * * * * * * * * //

dimensions      [0 1 -1 0 0 0 0];


internalField   nonuniform List<vector> 
19632
(
(5.009149965734718 0.01780829944540835 -0.01387965136702005)
(5.000420062551362 0.08479250505241578 -0.003944703874675617)
(4.999130376831543 0.00832520589936674 0.003066699079483377)
(5.045324879925319 0.132111561489418 -0.2316543217136807)
(5.009243675602248 0.01040641452466625 0.01562947815265977)
(4.994477293932567 0.00430148852993386 0.0009160212654267853)
(5.201855046250834 0.2958076731936153 -0.04838013612986269)
(5.000038033853705 -0.006472962697942632 0.0003795077503061455)
(5.000043188371871 0.01127001759867386 -0.1851864708562088)
(5.03390889140977 0.04560197932355303 0.01167223208858886)
(5.031278994678744 0.003566598350168179 0.004160166680702737)
(4.997069642251659 0.01049116750727954 0.03442258672289801)
(5.001618004496727 0.008851382292124468 -0.002291909633396586)
(4.993776347520049 0.01341802070158576 0.002831528756321069)
(5.017476386176966 -0.02285506942615882 0.008717711301693668)
(5.261794162752562 0.09305412193072975 0.007912143947280303)
(4.993319948152704 0.04398488395871852 -0.001520160167984672)
(5.270140312402739 -0.008183314373297806 -0.09559174271993721)
(4.999029632840128 0.002208242918922502 -0.002045760208761489)
(4.997238448071494 0.04352553281956895 -0.003919189906869334)
(5.022927959408702 0.005946228170031464 -0.005969092778933958)
(5.154275979542203 0.1929694657375602 -0.1353603145963536)
(4.733691505742365 0.1286647428090807 -0.7151882385883386)
(4.997083926506861 0.01077289294501587 0.000156571115574829)
(5.004404963382862 0.01927894944719144 0.001251922915457138)
(5.001012740247025 0.000386544821057306 -0.002380342950126254)
(4.992110981558842 -0.01224796386088898 -0.01006498117465345)
(4.968802257397583 0.1544831689048388 -0.3735637637624877)
(4.926407778661711 0.05067863135854705 0.06083302707509845)
(5.004980740106741 0.007304426644708238 -0.0003939610829561411)
(5.000445470771931 -0.00432482714630324 0.01125418876269945)
(4.988527177505146 -0.007758788474675198 -0.01506272793976499)
(5.053785466052024 0.004901429336042665 -0.07630732534722534)
(5.156387621061469 -0.2075809915300307 -0.2149952186569684)
(4.991819988491152 0.01240158409376178 0.004381064614650786)
(5.002522761220264 0.006569452982582416 0.00157532408058007)
(4.996211561110372 0.01243757247893622 -0.01167793953784569)
(4.992289956633883 0.001268220500319047 0.002281269915560747)
(4.999601402811728 0.006746892736152427 -0.002303163895730799)
(5.019330179841072 -0.001212148599945852 0.006429871771726907)
(5.002358290260692 0.00598021263752729 -0.004855423239112813)
(4.995773057555706 0.02090921893269727 0.06081560590568975)
(5.001492141897912 -0.02257733481372037 -0.00217698443312743)
(8.52657365505789 7.947294855769846 -2.337981882833277)
(5.006556593004965 0.002337399437524741 0.003223446809215814)
(5.003799255449524 0.001597968061595595 0.001796454265852729)
(4.999344869260695 0.005126289106284675 0.001248530235610965)
(4.999943737486997 0.004780718983124711 0.0005292856645234368)
(4.957045052156118 -0.02621948245129514 0.09279105671570599)
(4.826057050582345 -0.02863367493370767 0.1146656760701931)
(4.996572313950179 0.04240335951439569 0.01905729229575495)
(4.99749204763362 0.08146186011823466 -0.004069804536451903)
(4.997036437945123 0.01066634686544561 0.009803844749341416)
(4.980754783107369 -0.0029363611790703 0.0471082671842419)
(5.011775217915277 0.02229888462876762 0.009158908300052166)
(5.009947722875062 0.1261200211914116 0.01269552833780865)
(4.98669925547706 0.004842859836414375 -0.02058513501813508)
(4.996065990721796 0.05058180730682522 0.003150693006186707)
(4.989471316341391 0.01739382337008004 -0.001617486807513612)
(5.028700339120673 -0.01988106920419294 -0.0003179761365759796)
(5.001472069526044 0.04618029456728451 0.001099345331688561)
(4.993268889834723 0.007953644296490762 0.001675544844564097)
(4.92864913811284 -0.1252789262042583 -0.03987981755428626)
(4.318612187006496 0.9291536032192526 0.8600559835383749)
(4.999326566563769 0.004751098867112511 8.68545462157337e-05)
(5.077326215484672 -0.03366359303011251 -0.5603983327616394)
(5.228874986375787 0.05943245085302773 -0.06204962005132345)
(4.991498984470733 0.0562688957020844 -4.547393116340433e-06)
(4.998474613189549 0.01228922123071566 0.0003490815649289713)
(5.001077344374863 -0.01604103389435595 0.03882011686403333)
(5.004562841812869 0.006854158559514978 -0.001212502696834064)
(5.001722385004122 0.007774392260591781 -0.001666994156883101)
(4.996777859168228 0.01215043051893885 0.007953633569763294)
(4.989970852548978 0.04281116997016413 0.01455935277503374)
(4.999206430031256 0.003129716609757647 0.0002748968476903533)
(4.999090880430464 0.004327021963721744 0.0005341162051148891)
(4.999301828110389 0.004068441549148624 0.004327686786866695)
(4.362389367058824 5.111664682711031 -0.4442230203851061)
(4.255086125869471 -1.751210578612614 -1.332725566185688)
(5.041554609005853 0.003436536627005579 0.03098956517933908)
(-16.66556153059109 3.082394004878114 -24.81312723362349)
(4.94875356685979 0.3708088573216157 0.284490091030569)
(4.987513604518315 0.01470872628819228 -0.003972058983188833)
(5.002585133258878 0.01064223649676658 -0.003362025400688323)
(5.000642985752048 0.0008218504706404994 -0.003132713537495734)
(5.087367925299962 0.1697889257260269 -0.132084152598483)
(4.998045403452814 -0.0001128917775341224 0.003091279523095865)
(4.990280957738123 0.008861457968188529 0.002322908634820616)
(4.975101504764418 0.02589705971727545 -0.00794440687985647)
(4.9405263950596 0.1250365556841018 -0.1433758912715701)
(5.021889746647966 0.0185121887465018 -0.03317393868326083)
(5.000201905345192 0.0537995213103967 -0.007371297824749557)
(4.977953780363043 -0.05205868256988491 -0.06190184967536181)
(5.025332863823423 0.01604684709513651 0.04224187834419683)
(4.992482031103566 0.06501559042118782 0.003164287990594294)
(4.984294413517947 0.003402767489039785 -0.003488327576537117)
(4.993846523802816 0.008863625367870366 -0.002915238595444023)
(4.998400014305719 0.00871591758909881 0.001278598971053518)
(4.999492028185315 0.01265802948618714 0.005474029591572714)
(4.998557450766907 0.04620324059210467 -0.001678371035403731)
(4.623087298568258 0.6115652903757236 0.246286416479856)
(5.003432750919576 0.000793252994789428 -0.004383834727057377)
(5.005888870717404 0.005979692798752457 0.002412688929405748)
(4.999382442841972 0.003686802267014286 0.008730982888978287)
(5.023097277254749 0.09678945929080665 0.2483574865836504)
(5.051397476852868 0.0347987374185076 -0.04487126553749868)
(5.020884791153269 -0.05742822842373578 0.002592951548443674)
(5.027659490846126 -0.008173970662941017 -0.004763865980511418)
(4.999797396549826 0.01312907908655704 -0.0002482067825479028)
(4.993301417455704 0.07104530713735731 0.002944409056527948)
(4.925061052355139 0.2727577627403135 0.3219502785763051)
(5.004541351877401 -0.01367717486204821 -0.001703316034865302)
(4.984088791667423 0.009473648677311498 -0.0006570351550251926)
(5.152511928542235 0.1349249338401036 0.06805944713906412)
(4.998582649057914 0.03865373028816529 -0.003776556734493324)
(5.038593594002608 -0.03078259258653825 -0.01931555603314465)
(5.027934441911528 0.1559882797151931 -0.5756877137381596)
(5.04837347535675 0.1869911452512849 0.006118253746288684)
(4.996739727815758 0.0513215827430851 0.03904453935097953)
(4.998034649338565 0.00665266112856179 0.004071202851613692)
(4.992504986875621 0.0360999681680832 0.002458801243040754)
(4.995259916136257 0.004765029859250001 -0.004801526298281769)
(5.002867658439555 0.01120245286436636 -0.004249345556303369)
(4.998766897354127 0.005469085823866462 0.0006654385677762906)
(5.156319372713102 -0.02188959412134563 0.1310182641992464)
(5.043318931576677 0.005636900216909971 -0.03002748539168703)
(4.996738750922573 0.001007715844556751 0.001255352787044408)
(5.000640685621404 0.01133334970106953 -0.0004082411395250518)
(4.98266666145684 0.03267227877630386 0.01213728126724448)
(5.003109621009985 -0.007830438115149215 -0.0090512225939015)
(5.018446772094578 -0.002898410886576276 0.001443251228650056)
(5.000855016580037 0.001003551965425261 0.01157484274529665)
(5.044284005530328 -0.005317336800441279 -0.01590491720786001)
(4.998335094331294 0.006370700429181169 0.001042230691925361)
(5.060754075014684 0.05620205666937743 0.05543619441087516)
(5.023414376332019 -0.001530183732514235 -0.007367462796774068)
(4.998017664075353 0.001679021618329764 -0.003007326855370878)
(4.973905509817182 -0.01724262466353609 -0.002278177525190449)
(4.997603310199973 0.008150295788236488 -0.00588669091736184)
(4.9955382874921 -0.004032209022674405 -0.007636502096575355)
(4.476112688344169 -0.524231253326753 0.4226531204438542)
(4.952120266586517 0.6870215844503313 -0.1299032013049198)
(5.279418898125329 0.6847112588293365 -0.1696521902217475)
(4.075104049981736 0.2197109167566758 0.1950549276922581)
(3.091752571139163 -0.6844241989696883 -0.6367783767543914)
(4.998381812742218 0.004082975058629822 0.0007522654271303635)
(5.069759406082755 -0.003458504112314874 -0.02122843516145102)
(-1.924584000311117 0.5403012568439645 -1.211546785053447)
(5.007918365383535 0.012717277936454 -0.001041207051289915)
(5.000300629053807 0.003419198202914283 -0.00199714583627542)
(4.90654897273793 0.06174408130442709 0.02850856836105169)
(4.902222165324338 0.09203026532862982 0.02806822063662057)
(4.952559540037723 0.06278924981073243 -0.01979140957951737)
(4.99894142664993 0.001628765945667688 0.004133745196178571)
(5.152592419689149 -0.006443265829600101 -0.0405212119541221)
(4.928701455170996 0.02072324410526883 -0.01156216351304742)
(4.998473903870754 0.00432873644381195 0.0007246490193777666)
(4.990863248101704 0.05798291728287234 0.0006393006015340999)
(5.01153219140472 -0.05708952542255619 -0.01194601920156571)
(4.986787630403034 -0.3226474017345379 -0.233721581408376)
(5.084154290265455 0.2168556417370726 0.3481507797060638)
(5.081429922810574 0.1707297864959598 0.1886319411442047)
(4.688779597001807 0.1320372671283423 0.3286642190173803)
(5.221836151988872 0.2264343899501404 0.02820719986058389)
(4.953517931366155 0.03252514894948843 -0.0492162129310012)
(4.986467527634622 -0.0326728446233765 -0.05686152495271568)
(4.992185252643749 -0.02220429198410389 -0.01292327456942365)
(4.99999980980997 -0.007102174204087698 -0.1698351810006773)
(5.120788212589853 0.3280814536890296 -0.07950789230562713)
(4.991498905728678 0.008293239574789543 0.002190516969848588)
(5.000685901223341 0.003669494504277697 0.01472504717354584)
(5.004423211325977 0.004790617643825486 0.001464590021132508)
(5.30798701085266 0.8270047305994829 0.641503788728327)
(5.00380866307048 0.004445387760519542 -0.002793042245026791)
(5.007526819924785 0.00330975997132871 -0.003129924513929042)
(2.711847737943482 -0.2310612051398857 -0.1413820690876597)
(4.996525903089656 0.006654224527456196 -0.001956024246161106)
(5.006961811248461 0.008966129674551288 0.001377254527476315)
(4.997185391315895 0.005664545001362224 -0.006037516166776275)
(4.996860701716381 0.006243070585725916 -0.00529529738046365)
(5.002159943840773 0.002935641032270599 -0.002107102891589294)
(4.997460246297719 0.004927517192754603 -0.002686326687178867)
(4.997709955789329 0.005498220200944286 -0.002399075034487807)
(5.007773382261179 0.001678759008999281 0.03210244507174043)
(4.989977954969748 0.05464994201388886 0.0006007021063026073)
(4.99830490422326 0.003264779332848595 0.002324856362534608)
(5.18450159373702 0.02686683135824037 -0.02514970358744028)
(4.998284517245906 0.002840337251563003 -0.0008541509330628212)
(5.005372614380054 0.0003657705129571044 -0.00523823689834897)
(4.995984313410134 0.00429288627187381 -0.002507806403355973)
(5.002740950521193 0.003199515369619433 0.004129136717473065)
(5.015983319685459 0.010255893928589 -0.005379251733263705)
(5.027877260502403 -0.0126987600738414 -0.01440133812804075)
(4.996083074512029 0.02308665579591889 -0.3972250759735929)
(4.996352382848601 -0.003126548623391118 -0.003961097552716602)
(4.998787118067536 0.007768508935129431 0.002157635128149016)
(4.999836664105873 0.01093680759615577 0.002124425053293362)
(5.005065824454858 -0.1126235469295 0.06106148822955058)
(4.969450636369282 0.05223800172020807 -0.00424093951104034)
(4.728644832930646 0.04764618398236471 0.1289111892088884)
(4.999129558416041 0.0755426901074007 -0.002010691702766306)
(5.006245275569687 0.00568057713760233 0.004078846212205427)
(5.000124098604243 0.002929006885758325 -0.002220230046455524)
(4.965406020829365 0.04712708370288687 -0.008815303960136333)
(4.917425937062813 -0.128719687765033 0.1403923877743355)
(4.968749437374056 0.07298121188589737 -0.3056246491306845)
(4.998935718892907 0.004241002197710141 -0.001213783804574943)
(4.982627766461514 0.04791702312485684 -0.002331115869916007)
(4.996652014539744 0.001451032679419117 0.007867905462023631)
(5.00066711356761 0.006691277964441856 -0.001449102740842636)
(4.980579303626899 -0.02216540789831184 -0.01585029085229576)
(4.999134165671729 0.003747711812958868 0.0005938479768658888)
(4.998165518921294 0.002224372117641457 0.002177489217794176)
(4.977150235443524 0.0004662167633480496 -0.02290576688303533)
(5.001578107876478 -0.01064572353791296 -0.1351206585794665)
(5.000682686688754 0.003475298633977071 -0.01900486282077996)
(4.991828688770719 0.004343614876348873 -0.005558912350722728)
(4.999484503199188 0.003103904975818855 0.0006231925240040368)
(4.983480195440451 -0.004548536747527171 -0.01364616577662513)
(5.004087541420029 0.005721073301265188 0.04257475369948104)
(5.085845254433929 0.01725967927232143 0.01206581489783863)
(5.008565151062184 0.007382833060785562 -0.001545613505290636)
(5.000187387665472 0.008339177865953123 -0.005145943826614244)
(4.99946983068077 0.006778980336473734 0.001816509440309238)
(5.551491270404921 -0.1118716378200228 -0.1256163064035292)
(5.007794307432271 0.004695328777788741 -0.001604748227080771)
(4.992322018476078 -0.00525242111338738 -0.01424213541321462)
(4.994968915920777 0.03267491369821512 -0.004640808132458402)
(4.995661214766185 0.009644595103698424 -0.0009030033669970948)
(4.987369884174722 0.01189422358163849 -0.003057793040225038)
(4.999273359670708 -0.03124377568066438 0.01546909555383749)
(4.991158516423627 0.01083284938903662 -0.001576837266056182)
(5.004125795016201 0.008282533544673898 0.03614511972131227)
(4.989561939209734 0.00914163451909006 -0.0009132682143668186)
(4.992085833828956 -0.002161594032700518 0.01541199925111714)
(5.004981568308907 0.002493860609218208 -0.0017472313633076)
(5.001508781372555 0.004889668313210358 0.0003617483769555663)
(4.295874036330265 -0.04547289236300453 0.2097005105360892)
(5.013954741053921 0.002212022223995913 -0.004365790718754418)
(5.004642193554768 0.006468821538449468 -0.01556027445270801)
(5.003427722960494 0.001835916936745262 0.0008661577174280548)
(3.799279852427865 -1.497998275901273 2.337217438637421)
(5.019775092955663 -0.0005838974039159725 0.001774301804467779)
(4.918169953414968 -0.03376281360853092 0.04646977588282106)
(4.99937041027721 0.007401982250208176 -0.0004028309543150977)
(5.005913668911846 0.01410097594256882 -0.01024550632143417)
(4.996768698304595 0.08761303511671359 0.006782868780107501)
(5.018196050646702 0.0003325652568747318 0.007931908092607107)
(4.998484026582836 0.003174026650537545 0.00116952226808136)
(5.002271377782852 0.003796632167031488 0.005432380949187018)
(4.99901253526262 0.004671247971896898 0.0006436281388387594)
(5.00206074374724 0.003835980067594264 -0.001215174431068094)
(5.030441085179357 -0.007246338806266725 0.005116329178117001)
(5.004870011721053 0.00310443428677076 0.003921742364300428)
(4.933574232933897 -0.08843919921918722 0.004482114742222849)
(5.666738836488117 0.1092822201920525 -0.1621373437214654)
(4.998561392265607 0.007334176736641646 0.001925835500491584)
(5.012941774670753 0.04315528951062211 0.03669749426620129)
(5.028203434320966 -0.04965939240332829 -0.01463766713294867)
(4.806219576068044 0.2729962217275004 -0.02499992325433631)
(4.9698007189979 -0.04077146361272557 -0.01656432540678772)
(4.981126953347675 0.01274557610200808 0.002213192528322966)
(4.997473566788846 -0.01671685186361673 0.01187417683154292)
(4.996180883827283 0.01039785340599525 -0.001039299513289451)
(4.978243204696989 0.048543391595796 -0.2014132550241499)
(4.996460537169202 0.009820436343890696 -0.001024229471675278)
(4.994133722935358 0.01145491436509129 0.0009456527246270955)
(5.002196748863939 0.03480583931904556 0.0001049422433286491)
(4.996124934930391 0.01043971353762914 -0.00192469511439281)
(4.999445058877916 0.003689294112607555 0.0005869732212038844)
(4.994674349665259 0.009955971374044593 -0.00213100744621298)
(4.99901122183664 0.001180824590360863 -0.001294376801211071)
(5.010106067572766 0.03324010486056345 0.02864273484772005)
(4.998485700802356 0.003713126100277843 0.001375502565489366)
(4.973140038414994 0.0105773685012682 -0.006542093502025587)
(5.007109817762609 0.03177035297205225 0.006756191956096929)
(4.990200019137122 0.003177309132574821 -0.005536542036756215)
(4.977689717059141 -0.001658051797427025 -0.008762078246955816)
(4.998686800520929 0.004302577283663655 0.002184596890679776)
(4.929506768620981 0.6793789927545875 -0.3889660675339977)
(4.994987847605642 -0.008558149494283187 -0.0109604104868052)
(4.996920706482983 -0.0001230635832989492 0.1395941697008123)
(5.012653012519308 0.009032628962067274 -0.001749562984341182)
(5.000264795829525 0.01040379766635358 0.0002834900605202056)
(4.656737248360184 1.104308032524559 0.4265789335576615)
(4.953030429142315 0.04648285611874352 0.2855503017424147)
(4.982825115444988 -0.002715845300291493 -0.002933611805292261)
(5.011013695227149 0.08979493738390532 -0.4467040078342743)
(4.829547947794777 0.1582623188943665 0.199940694311752)
(5.000015222401476 -0.006901025411273332 0.004635493857937081)
(4.997987131801148 0.006416786199511848 0.0002250779299739489)
(4.9776967100563 0.04760946541308688 -0.03115173906135372)
(4.999539121379779 0.01174094493441796 0.02618138268658603)
(5.001731670081307 0.008319303609480473 -0.002774974233176569)
(4.996292903963765 0.001542822237899885 -0.01044701541526946)
(4.998807031426624 0.002862519393964335 -0.04451066467292136)
(5.014874137403495 0.02421150226304535 0.01127770344950821)
(5.588376594556567 0.2281741334820918 0.4777547930879032)
(5.004373492890958 0.002557411668012213 -0.003077888912054679)
(5.041299496581117 0.003860713707852946 0.05894832709143339)
(5.022874836900318 -0.02799314705357193 -0.004796752480347204)
(4.99129359477337 0.0265158471152462 0.05326635998886722)
(5.000604731324311 0.003971715068201427 0.00112304674788757)
(4.999787434616047 0.00638179292384116 -0.002439008886306974)
(4.992880421430541 0.3296544496320666 -0.3447731051086589)
(5.00826705467255 -0.009773767569773769 0.0424980869831926)
(4.994595419924517 0.01377276608834473 -0.003612395333161059)
(4.998509602403229 0.003679846855597349 0.0009974636164979545)
(5.002329629031467 0.003575856537420013 0.001106214818872468)
(4.997789273510925 0.002705127600886267 0.001146448339266377)
(4.273280107498777 0.1700319332301624 -0.04445859324143622)
(4.002553921712363 0.1818209477862327 -0.3124550827211156)
(5.069518800618495 0.02654213390659943 0.04825480877443614)
(4.986401654714149 -0.006747902226440378 -0.01488862911725978)
(5.017034050969681 0.2725390561224483 -0.1240818519723711)
(4.144324586366695 -0.5791374108933902 -0.01537960120536483)
(3.917951543163316 0.1552416090327266 -0.2431052578111662)
(5.004600266369679 0.005592080196000467 -0.002540077614644374)
(5.056101281291385 -0.06638431744957157 0.6780729145694723)
(5.025591259450272 0.3590421432550263 0.4822289807697712)
(5.005857525266063 0.01025021048733306 -0.004750108895274336)
(5.003990601054323 0.03623915211394578 -0.05140481439033263)
(22.8819421583597 -15.5940950250872 1.726142165365526)
(3.031373702421225 1.288296093578163 -0.649243063926526)
(5.000494599319137 0.005903751790678981 -0.0001988908265143607)
(4.988238051720343 -0.001194427115888191 -0.005613007483987467)
(4.999479637305845 0.01926398703550065 -0.009455075033086496)
(4.728188064763454 0.9671637381783839 -0.5712229185881663)
(4.952868478581284 0.1300723753704127 -0.05482207286467511)
(4.922484103905784 -0.0524609746637153 0.001570914945900614)
(4.9920651733016 0.01041783328094431 0.003845767709741195)
(4.99865413936206 0.003009627979654395 0.0003877116053649117)
(4.997927742276245 -0.0009399614140852643 0.003125730962295611)
(4.986653727065296 -0.005615527664570211 -0.02051448000396181)
(4.999974909314377 0.001836014743054714 0.0445860291911999)
(5.06251722285359 0.02615233840413916 0.02131459242528626)
(4.961944219771429 0.004464104156108966 0.04302720880986531)
(5.131193530882551 -0.06467094479882177 -0.3675740904108634)
(5.116005785559525 -0.002198559580444309 0.002890861417226847)
(3.532859527178481 0.4417851962295305 -0.2944557719518124)
(5.001787407284007 0.0222692718317659 0.01535087923945333)
(2.85211800726704 0.1598193702405075 0.2520428814886564)
(4.337549532499946 -0.0951310209688683 0.3479889974973401)
(4.997991332922244 0.001323526105928973 0.0001681688664643769)
(4.217054952737887 0.2963297546157869 -0.1085093593453715)
(4.995492713968986 0.006254376566870489 0.0005246031791688869)
(4.785665161078224 0.2646773674100693 0.1368887237239634)
(4.994816610418911 -0.01040813136845766 0.0177408369837858)
(5.119303650060549 2.322414247343831 -7.948786251890333)
(3.423734280117706 -0.1603293603553287 -0.3382427043510743)
(4.976335986239516 0.04865844627196112 -0.05574603657068136)
(5.002089223301281 0.007248537281958607 0.003766869708061108)
(4.938497527207837 0.05570249920565667 0.2848821416273539)
(4.110917863381174 -0.417767210196444 0.03477806910128464)
(4.997188787876262 0.000778676048987424 0.01502673150527571)
(5.001071684747575 0.00214633244629394 -0.001391108883282024)
(4.999515488292759 0.00754233743989167 -0.005415006156342241)
(5.002340786761468 0.007992997516129946 -0.002837050305402374)
(4.993156070444818 0.009817335382276028 -0.00393619156598844)
(4.999354397766713 0.01698457118385357 -0.08041021133406701)
(5.025481950681642 0.06037252361619166 0.002725735301855508)
(4.998156230496487 0.001871457862990102 -0.004901220338260227)
(5.018755450926819 -0.0158698139559542 -0.002939950879452893)
(4.99499093553514 0.008982250267740851 -0.001735753350937757)
(4.891013952872813 -0.002876832221264759 -0.03420795722106625)
(0.5741099159841955 0.4783081427829108 -0.9731151230880521)
(4.991098836180221 0.03768473498112996 0.002130077832364268)
(5.022438993398805 -0.01517231990624459 -0.004537176111993202)
(5.005809839266604 -0.005265420291817933 0.01238865233056184)
(6.979604632232364 -0.3994932889401992 4.464194217057507)
(5.008698965490319 0.002218805146972068 0.0004388815845520639)
(5.000501722482916 0.01793667966445908 -0.1224753022215549)
(6.11118554988587 -0.9566685347727142 -0.4593455641195909)
(4.990254076550195 0.03356963158652879 0.0136381608183546)
(4.988459895185546 0.03478374942178575 0.01504860014735547)
(4.999538633509646 0.00386917554304391 -0.0009034212176569524)
(4.28649988052112 -0.05206105789565645 0.1057697863663076)
(4.998408605282023 0.003857918949155644 0.001864768085528322)
(4.996915389513339 0.004738221128704337 6.637271357651781e-05)
(4.996008011284999 0.03152704558303852 0.01431308791953112)
(5.129017326350041 0.1716694498944973 0.07630373372667561)
(4.999735444361019 0.008210654774404481 0.0007882776632098778)
(4.994949358150243 0.02294947847382991 0.001477823493959243)
(5.000091466239968 0.00494338249135276 -0.002038620290275574)
(5.024805084035883 0.01006703855224994 0.00409036091800279)
(4.999192838464197 0.00853549074768792 0.002327897769367991)
(4.99954253097926 0.004346570499835555 -0.001277842344091058)
(4.965870580426697 0.05803010586363335 0.005545891046872267)
(5.029035759861328 -0.0002944305243532483 -0.01914486999169974)
(4.999052602619753 0.007049737504515963 -0.0002578323890862945)
(4.998046319594682 0.006790466571086653 0.0001650230272565348)
(4.987743930621181 0.01638580949352693 -0.006553052025358004)
(4.998925880520071 0.01388535293662519 -0.004903342118921407)
(5.000155547515525 0.004898852685011426 -0.0001781913080756452)
(5.003161810182926 0.0128477578403199 0.002916777496814106)
(4.999777535117026 0.01485684324571618 0.001560819611147497)
(4.999462418032911 0.01628928639467067 0.002686860217286922)
(4.999917950224197 0.02103425344435809 0.006659856044776006)
(4.999809105141989 0.003264834418454219 0.001889605527766073)
(4.997784582379678 0.007317898070050151 -0.0003220951061059358)
(4.993549996587252 0.01603133215130123 0.001152016633297767)
(4.999267932299231 0.0132988708883493 -0.001367537804255331)
(4.997741128177784 0.04711952943136102 0.007378748792113659)
(4.99254722876609 0.007830352283532351 0.001806469020030454)
(5.001545601841538 0.005680105935303359 0.0005026851674301909)
(4.996008138800294 0.006750219594522607 0.0001200871149309744)
(4.999358484608331 0.00601803213139393 0.0004663954181258856)
(5.021451347428953 0.0451630868001365 0.1350602707536885)
(22.59011479461965 -2.371322981519895 -11.29837121436084)
(4.999588006716416 -0.0007472672798672445 -0.1102701828698012)
(5.025693558596947 0.01758128087868059 -0.01770247407689965)
(5.00034817495081 0.007993893314137111 0.0009618958627081454)
(5.065865379470153 -0.07226880207358022 -0.002042977011200434)
(4.998790123967309 0.009513323232692739 -0.0006279241211499976)
(4.999361745552219 0.0632090322420043 -0.005431264995780305)
(4.995516018994024 0.02425094213863069 -0.01478420674483703)
(5.004145909623132 0.03560197181631856 0.004905824608976753)
(5.060401843021657 0.05764763561105144 0.03156210837696951)
(4.993191896627235 0.03081193801694937 0.003929684231854555)
(4.917533289016874 0.1332762323167178 -0.05067526345394984)
(5.000242034670501 0.01736586444607611 0.003075539170571126)
(4.9975108640728 0.02166724173792884 -0.006104976398337644)
(4.998496039555991 0.004816921441466544 0.001557709073217668)
(5.596624998737649 -1.132104558032099 2.043260587188989)
(5.022407496946668 -0.009404005130563775 0.009131953821572022)
(4.997299511889326 0.002508551662356928 0.007550296368029008)
(5.002700857380649 0.008179995776562581 -0.0006954215213285821)
(5.002964026447879 0.003252869056468367 -0.004032086547782793)
(5.01756993572396 0.04403389859964724 -0.003924412969619786)
(5.086943160636734 -0.009728647912978229 0.01675185019799258)
(5.001671846566051 0.007776596296761966 0.001445326126351059)
(5.001064276545757 0.00654752566380957 -0.0009691373815710974)
(5.000827469126432 0.006200517021686181 0.003049439370874751)
(5.002456204536626 0.005969909315820516 0.001400819518294668)
(5.000612300622854 0.006353767534668769 0.0004612380738507902)
(5.000890449768109 0.005771420510719411 -0.0001716908561873911)
(5.002078491607671 0.007787566762214912 0.002144239101558466)
(5.004260714030589 0.009568970017470304 -0.0008841540809198708)
(5.001597647180524 0.0102323440703862 -0.004217965206436088)
(5.001892598225981 0.01113250549630633 4.235239476054634e-05)
(4.992817869607745 0.04445527964403934 -0.01757466607410145)
(4.991689286258007 -0.01368269888216884 0.1758737789344727)
(4.979703153278441 0.03971167458887168 -0.007791013876760785)
(5.002313955075985 0.0411542417823199 -0.08431558848228032)
(5.044198211581032 0.06414676540236489 0.05973121428705985)
(4.973676980138538 0.05356612714381724 -0.009199136206475987)
(5.002979700590449 0.004651363409832789 -0.002961075859603279)
(4.971343302851743 0.05207463067957462 0.01032210868471455)
(4.994819366657845 0.02113807894647811 -0.003828699761134615)
(4.99449712138765 0.015058141790206 -0.006151405323893584)
(4.962533881136935 0.06607664197534689 -0.01249305893140904)
(5.002976577453651 0.02822949505069372 0.0005221610537366084)
(4.999230247519462 0.007444169646563146 0.00270929552158906)
(4.998427136907233 0.03077026385606445 -0.000583506506336959)
(4.995430089564314 0.01138281491455318 -0.004304493491064568)
(4.993676641729254 0.008811072170452041 -0.001185865998461299)
(4.995876306971581 0.004539337854701512 0.002061900770905844)
(4.990423217779606 0.011026944757973 0.005012784127688592)
(4.991590848035338 0.01694737449590729 0.006656586579421563)
(5.004948080510675 -0.004484716802411749 -0.001746252670506831)
(4.98932435715333 -0.02948222263056596 -0.1314631042428663)
(4.997166658051563 0.005716843118676506 -0.0007883121873929173)
(4.96969792831941 0.0321090311166977 -0.01697172197645876)
(4.992150761045644 0.01469653050181577 0.005448024071392686)
(4.994486444799286 0.008393224643901612 0.005275069280209197)
(4.996650228092123 0.005900105778320305 0.004191409608698402)
(4.994899306688058 0.006755574461680838 0.0038553004248687)
(5.019104173678844 0.04032819868515176 -0.01738788459407884)
(5.000353735718816 0.009919619864679843 -0.01109995947418304)
(5.003993371000874 0.04860719077848736 -0.01303948892758429)
(5.000154948603608 0.004036299823674759 0.0002625129066676867)
(4.936237773362585 0.08516086872846307 -0.07093342268559812)
(5.001790106223184 0.01263990784655367 0.002064376155802822)
(4.996604392552763 0.01894837545569066 -0.007357217271099357)
(4.990846159248068 0.01121352353826032 -0.002281644315202429)
(4.89239420007425 0.02323339821318783 -0.1045210112054474)