/*--------------------------------*- C++ -*----------------------------------*\
| =========                 |                                                 |
| \\      /  F ield         | OpenFOAM: The Open Source CFD Toolbox           |
|  \\    /   O peration     | Version:  v1906                                 |
|   \\  /    A nd           | Web:      www.OpenFOAM.com                      |
|    \\/     M anipulation  |                                                 |
\*---------------------------------------------------------------------------*/
FoamFile
{
    version     2.0;
    format      ascii;
    class       surfaceScalarField;
    location    "2";
    object      phi;
}
// * * * * * * * * * * * * * * * * * * * * * * * * * * * * * * * * * * * * * //

dimensions      [0 3 -1 0 0 0 0];
oriented        oriented;


internalField   nonuniform List<scalar> 
37423
(
-0.1073704412067722
0.4198538107056739
-0.4551495192357271
0.1426661495966466
10.86812083793208
4.445413664023375
-15.31353450178605
1.569959104493781
2.842480679221356
-1.479430521350465
-2.933009262792098
0.3658544333847696
-0.8488691580197489
0.4830147239211824
0.1170304879259789
-0.1680777499438685
0.02839948029113244
0.02264778151744517
0.04769683878734392
0.1440669618818863
0.3043633559712072
-0.4961271569201418
9.144697336509186
-4.579525460717934
-10.86390249438152
6.298730618070663
-0.03535286742096797
0.03729626831282318
-0.005102457658571735
0.003159056813643064
-0.1355632174845319
-0.01972096204342257
0.3207682473987936
-0.1654840679864742
8.655281066236318
0.5625197336777075
-0.4816486726084224
-1.397570343769859
0.4479158107749045
1.431303205102294
0.2379818205300605
-0.5106199509171012
0.7688817094415906
-0.4962435792107495
-1.092596495381359
1.375426635025975
-0.2828301400879343
-0.4676643915564206
0.4619511981715038
0.6253847377475618
-0.6196715443576862
-16.06516617452814
8.571301673423836
-0.05569579429537142
0.003579478808170158
-0.1230331340562321
0.1751494493861335
-0.4213921990380042
0.7757909939145858
-0.1164169744006408
0.182997338317736
0.008201227251472827
-0.1639679677319928
-0.02723059830120398
0.1115922556827788
0.02096726830613095
-0.005625436623980446
-0.1269340875354903
-0.01812810350504315
0.05031867438968977
0.02445845482582349
-0.05664902567252966
-0.221409830303909
0.377867401506468
-0.4223280708743654
0.2658704992692534
0.3980087296742671
0.6897423229566451
-0.2843474021537147
-0.8034036507463255
-0.1207928879049125
0.1263787270463294
-0.1028640747136161
0.0972782351808224
14.58420997865155
-17.47002807410923
-6.215535268932643
9.101353365077722
0.6061333508991311
-0.0895789349366804
0.09732940167209884
-0.613883817679879
-20.34784803922946
9.200273565689818
11.14757447361266
-0.1051828134515096
0.1590334597084607
-0.4752428453494029
0.07217504100836571
-0.07779074162313969
-0.1588923808989593
0.1645080813972998
0.1675065966130048
0.01151917069357783
-0.1798095221249045
0.0007837543467421441
-4.28844866350417
-22.19397930491305
2.599821250897289
23.8826067193428
0.2210443719286476
0.3998202705500509
-0.1623962070353669
-0.4584684355802258
-0.09256474520223675
0.7116178467573505
-0.02108092530619241
0.1085878631695572
-0.098746401615581
0.01123946371159011
0.06181179836629357
-0.6369005384100543
0.3262871439757027
0.2488015956764958
-0.03049300220425994
0.06348956460433308
0.08687449892276765
-0.1198710617547865
-0.03290855090974329
0.01112789053531519
0.114976384168397
-0.09319572407774661
0.4896658044955099
21.15765008157192
-19.17661523669839
-2.470700649430965
1.557021875649445
-10.36071330243577
8.28869255981486
0.5149988675732168
-0.0247576690788105
-0.04907915043219414
-0.09964014251929662
0.1734769620420986
1.572003415798348
-6.049277955652476
2.643861800912922
1.833412737873251
-0.120500442505495
-0.009351721312209151
0.139068983282135
-0.009216819693247162
0.5554102177521153
-0.6983444365888681
0.1883594354097398
-0.04542521696785616
-20.99520024865534
3.750171723712151
7.113452957423013
10.13157556827701
-0.215868509088164
-0.9233868709559723
1.000495509321013
0.1387598701052562
0.3209964344064434
0.03187380326452152
-0.4601622497951567
0.107292012166677
0.05611270983552581
0.6419908312143079
-0.1269438760746888
-0.5711596655857859
-3.552848743794705
-21.54316680871948
22.46565432655023
2.630361225907834
-0.9680509431881098
-0.6811781614406365
0.1639451387384971
1.485283965645756
0.515654777642205
0.2472291826638734
-0.5256473770887511
-0.2372365832167946
0.4042727757148002
-0.1538934525681348
0.4017986850218891
-0.6521780082958434
-1.610576623824012
-9.19140479823173
10.80198142217459
-0.7576314311999819
-2.800116182292743
1.23563495132657
2.322112660234402
-0.2843418744282517
0.5960499049344259
0.0003196060387330624
0.1926895468593436
0.03630915271699187
-0.2293183060670859
-0.1325521156479525
0.04272100370644453
0.1087312299210415
-0.01890011817638675
-0.4907785040651912
-0.09245845924835146
0.08545434634487212
0.4977826160731372
-0.02332807406186675
0.5656250345632252
-0.8828872032574099
0.3405902427078772
0.2847985283004011
-0.07170891934178295
-0.02556886053960695
0.01120870857687711
0.08606907102127202
-3.192964089848204
-0.5817182189237863
-3.114447654775823
7.353786464319639
0.03174847645258678
0.03407477016293227
-0.02948089790736913
-0.03634234870332071
-0.001364191091117354
-0.06969915767539882
-0.004017112760649664
0.07508046139328146
0.3965875852760491
-0.3783583055298237
-0.1353050370721853
0.1170757569221986
-0.3562118680091182
-0.116946271268716
1.162900462008279
0.0356662120617446
-0.09982905781746819
0.008110522951814927
0.05605232259433378
0.1096385802939673
-0.2979442802664454
-0.1528266716355376
0.3411323714546036
0.3553316413595497
-0.7935724961943745
0.2016742135646781
0.3697808200063223
-1.139325630780958
0.5678705966377054
-8.52579065541952
3.8939337265861
-4.800298909714255
0.08522724039172629
-0.05546672379304437
0.01342578079281953
-0.04318629759497077
-2.380467436024314
1.020690996195993
1.110859597093916
0.2489168421406471
-0.5447396458180503
0.5325829497888768
0.09369744009593153
-0.08154074422195574
0.02134663914486106
-0.2980339078912762
-0.3521182051073846
0.6288054736267489
0.119861942602083
0.07643579065628732
-0.1559132804565338
-0.04038445291636023
1.652132682517105
2.954603937988238
-0.9419005000001309
-3.664836121829779
-0.002476688156180159
-0.397270134754488
0.7004888817945201
-0.3007420595216839
0.5560239569987059
-1.831584149260386
0.5626220159518036
0.7129381755301618
-0.01600942599617182
0.007242781944420299
0.008766643931086806
13.88275293414982
-1.213071738419135
4.779675660974151
-17.44935685658919
0.7534295847240898
0.07471039792683784
-0.04507197001497718
-0.7830680130519249
-0.1794697686457297
-0.5362641125848424
0.03748982605414034
0.6782440546545435
0.2920116086667117
-0.139778303826377
0.1183139944505054
-0.2705472995170885
0.008597671384019817
0.05614368732093408
-0.057058994925339
-0.007682364072021735
0.0395992050899613
0.02955370398866171
-0.06915290915732453
-0.09323088904684612
-0.5392852884521826
0.3481743030126906
0.06498750546907398
-0.03930057568585748
-0.1072417825565381
0.08155485254507891
-0.04347311329578001
0.04175591055474022
0.001717202818717112
0.06274608203536568
0.4303637102191628
-0.05938158538198951
-0.433728206901961
0.03573009268722263
-0.01492784018407735
0.06505180811765154
-0.08585406073753023
-0.1136494713997611
-0.2346015052496597
0.4578895568451856
0.3013498369633869
-0.01517903793475356
-0.03038225900111556
-0.4610002292714346
0.5338402034160887
-0.04245771529787874
0.1605466753582646
-0.0282060209382405
-0.1684562024535881
0.03611554788991278
0.01025743671828829
0.04627761117167713
-0.0200368524489272
-0.0364981956367549
-0.1359285294896171
0.5448825034106425
-2.072675470382455
1.663721496150159
-0.5844286663872865
0.7720413515327595
-0.1416954880349316
-0.1683946653347854
0.1256196018705836
0.465205150651613
-1.149074640804909
0.5582498881082429
0.4682280379103027
0.02268461833422181
0.06145737142800605
-0.05969066723881156
-0.02445132258337438
0.03896257979017161
0.05998851909814544
-0.1903898692261859
0.09143877024560086
-0.6175222298739066
0.5894135196179807
0.2288745511032127
-0.2007658409746261
0.09116609878387195
-0.04551588907175889
-0.1065070233427231
0.06085681333454221
0.09156901419553903
-0.09531917104798546
0.4648135290315351
-0.4610633725915381
0.06193484473926614
-0.08008385384949998
0.1123824838717547
-0.09423347507735345
-0.1025026348219666
-0.1455742040827415
0.3803649502528545
-0.1322881114749014
-0.3222370174019534
0.4805333023027156
-0.2607989198146032
-0.02427362790730321
-0.02985714489181723
0.1212143670638371
-0.06708359445359735
0.1187621966037452
-0.04641707462970233
0.08920786697140687
-0.1615529892889117
0.1066241602700385
-0.002974492068543963
0.003593203930013148
-0.1072428724084967
-0.03276439396089913
0.07883033139762144
0.08773370974555343
-0.1337996475061644
0.441032624906553
-0.522320177093567
0.06674454367766586
0.01454300807374036
-0.4162836803601809
0.6412556479035978
-0.2053880081775241
-0.01958395984289133
0.05935429731826904
-0.2220858290181451
-0.1903553204158027
0.3530868521042784
0.01374927635923558
-0.01469142887454103
0.06018820840203835
-0.05924605589205755
0.6104537788903079
-0.3557174008231139
0.2900946447187615
-0.5448310228240352
0.09232433113770881
-0.08048875390074227
-0.02105347021415815
0.009217892993906945
0.1180893584962401
0.3155520505270832
0.03458662887915825
0.4540945259141373
0.1965777823297661
0.692355097300799
-0.112283577472951
0.2078903744667574
0.7844751591091199
-0.3000104363723299
-0.200153902230149
0.1566464881886376
0.1310536699446896
-0.08754625618388297
-0.5115001776244178
1.307896134113494
-0.5366356394405378
-0.8882067661162045
-0.03156053817789181
0.08714247793095843
-0.01909665896776596
-0.03648528076756351
-0.1698070547422196
-0.5071791140541902
0.37340032419393
0.3035858447068848
-3.147317979934413
-3.015470976885681
3.786765248062104
2.376023708166896
0.2991274218288997
-0.2650366466020945
-0.541501903829926
0.5074111279462862
1.831234562547939
-0.407131614936192
0.4887493839144421
-1.912852331899841
0.3494112209164263
-0.5302282676531314
0.2426288447904502
-0.0613147643302776
0.3271697306259482
-0.5314049392071041
0.2655499725668951
0.1167463769989774
-0.1235116563161214
0.06312376343264751
-0.05635848404929477
-0.1250386060405349
0.0396982804070337
0.3174228096522744
-0.2320824844120943
-0.06944121688960717
0.01280744814606212
0.05975943728300303
-0.003125668716959804
-0.1952025998220488
-0.005116204095014389
-0.01133485364233857
0.211653657249117
-0.06956264819583759
-0.4986818965777751
-0.009384443719182125
0.5776289880676261
-0.129953940134997
0.1091939410491354
0.02075999900433633
0.2215948775299057
0.02479747342582348
-0.1668957703686556
-0.07949658056531918
-0.02086207750524575
-0.07964747769279795
0.1225700536204934
-0.02206049846526939
0.1900455120714378
0.06632508426159943
-0.09607699003288717
-0.1602936066130577
0.3010286746635505
0.2099704612090474
-0.6692045435770411
0.1582054073325515
13.66147896390812
-9.128625244873868
-22.51104452885002
17.97819081058769
-0.5988763147558442
0.01930705439035934
0.6190868581580923
-0.03951759802248795
0.1060518813696889
0.04825244131570264
-0.02315250750916594
-0.1311518151524971
-0.0692111756846179
-0.5353611543435989
0.6104192871918387
-0.005846956978370749
-6.746920822681245
-5.437844930229666
-17.31534619536254
29.50011194937084
-7.760090063109133
10.99279054364832
4.244414197918255
-7.477114679560561
0.08485077861883232
-0.07462380344054355
0.04366381764435551
-0.05389079288648317
-0.4819087368042153
0.2262816406891295
0.07560486353029779
0.5371774191684184
-0.09556250903218835
-0.5172197738185214
0.2359649307077053
-0.1211288567040458
-0.2604102780988621
-0.2702632902222334
0.4935260038488692
0.436052030750738
-0.6593147442574552
0.01362551395864329
-0.1497320495747638
-0.4438450381912334
0.7538340357281386
-0.160256948399541
-13.67656058995454
6.089152205318007
1.180260841160195
6.407147543734249
0.07847824933166272
-0.006088046319003539
0.1742862027136549
-0.2466764061432553
0.0780380999333701
-0.06859286447396395
-0.009445235473968536
-0.2324050597427002
-6.799377285917354
7.031782345375139
0.3923082704957516
-0.3691717095981272
0.4777233191211543
-0.5008598802232778
-11.20271055783966
10.61913710654297
10.60135707705931
-0.04008638124165308
0.5260920917784704
-0.09400845262995319
0.08710274923469834
17.84748649733377
-17.81239140498462
-0.0350950919161456
11.70842973946084
-22.76263270944463
11.05420296997711
0.88882893641411
-0.147098358625837
-1.572345670110707
-0.04454116641829769
0.08833133520285572
-0.0003243359824066911
-0.04346583307400826
-0.1157146827371784
0.1771857669814386
0.2305926703294277
-0.2920637547175142
0.4638468060880727
-0.4420872635004723
-0.1956958074248628
0.1739362646629704
-0.1185941191109972
0.5349180698468765
0.433272635746496
0.09410352745218109
0.03824887136386287
0.4899487285292006
-0.6002046766425118
0.02871520382837122
-0.3072643734497105
0.09978144901007815
0.08635406772270177
-0.5975054927035219
1.157898799292743
20.70334490720506
4.594400967963666
-26.45564467497098
-0.5913242888288729
-0.2128214653603747
0.4905481627533355
-0.4135579978491079
-0.1360772054884279
0.05908704028665179
-0.0483116213934108
0.1793877710764416
0.02914778047094473
-0.1602239302681686
0.336983563917884
-2.57178447462355
-9.571924740803514
8.950745126068421
-10.4972452307731
6.431448862718243
1.494011893675251
19.1999877903585
-8.896895781184776
-10.30309200901701
1.088108687524576
12.3985568244072
-12.92414577803431
-13.72119298299699
5.950268504277871
21.10152589146441
-13.33060141286162
12.53159937652142
-11.78542593659577
8.403007746464574
-9.149181186776143
1.155300338431509
-0.6055986470886893
-0.2596070465689789
-0.4784656109071202
0.5835149057897534
-0.1451356761594771
-26.33009449308422
9.237398135002193
17.10969327870149
-0.01739239187875592
-0.1352845818536642
0.1907234731130549
-0.03804649943392583
15.88423001101656
6.67202766240406
-38.2224587563822
15.66620108256177
-0.08381930062862518
-0.6150525661788485
0.04669385842872854
0.0341218937136866
-0.1386502966613701
0.03520424263086298
0.0693241599275727
-0.01697123820407044
-1.634759122711126
-1.979546895985629
3.925982855491261
-0.3116768380669369
1.845697936834731
-1.183812440880997
-0.09620921845490008
-0.5656762782252562
1.365303926761702
0.1267703819039941
0.4706195579549377
-1.962693867516751
-1.136167196220887
0.1333612309387391
0.175591795349798
0.827214169980008
-0.0931504352309072
-4.672656254026621
-5.256837645926501
7.323121821328572
2.606372077812894
0.7274736131415365
0.1903627768868666
19.42553784309827
-20.8378304513199
-12.3089003754818
-0.1881244662829507
0.4530024367018993
-0.5273320579947176
-0.2631502951522272
0.2833032391366416
-0.3781218929461437
-10.27206366971328
21.36780955650152
-11.09574588660831
0.711038958125166
-0.5112006217375358
-0.7113385141669976
3.954963879724446
-0.07379977374238553
-8.553820360537642
0.1096125654512814
-0.02948644491438352
0.04058933375279972
-0.04540265522282574
0.03429976627902909
-13.76132243282122
14.7787969849601
-0.1908100688859546
-0.01832659617965135
-0.04136428234437357
0.2505009473737441
-0.2143724794354136
0.02363093683357302
0.2619927663436946
-0.07125122415601229
-2.801475758137905
3.548091504566974
7.147956193678461
-8.709347261226146
-3.238907842486368
3.887078372440429
-10.08294732333346
3.394393192551064
-0.02681125324802039
0.02218584987306649
-0.05845704586442169
-26.27892467640258
-0.4669806291745084
2.097757977712726
24.64814732870576
1.931030614915111
-7.873664682699504
1.833718819687913
4.108915245651849
1.894794810471946
-0.4331977618878074
-2.933615932097788
1.47201888252357
-8.713521029006158
3.949078345991549
36.23968865319012
-2.942284994242035
-8.489237477281563
8.143624715000435
-0.7788326084035934
0.04292015467782504
-0.04737112403775928
0.7832835774495347
-0.06167000965991976
-0.2730753787929744
-0.1381498842251193
0.4728952721016981
-0.3599028211959394
0.1668302240640071
0.06052831491924946
0.1325442822950385
0.0234638196868889
-0.01486614847849875
0.04150432004042447
-0.03653147757721735
0.1630470528853406
-0.1680198955542102
-6.535303089335012
6.570314304382227
-2.963667348533529
2.928656132243448
0.0004034006127801007
-0.0003147008374673355
-8.86998326967635e-05
0.0004034005751067986
-0.001568523436412698
-0.008655032628410973
-0.1105762733141954
0.07144518137146073
-0.01162089990411571
0.05918192799145912
-0.1190062095269053
-0.1389606894984501
-0.3321081853539012
0.4410301171428158
0.03003875710424585
0.4212441046819153
-0.4598545383641007
0.0163664958685455
0.02224393742918393
0.1644883875671825
-0.2383092030791288
-0.1044635121358022
0.1782843274988571
-19.02097786455261
-7.259694229097028
-0.04085362040699871
0.1152105796201125
-0.004580907670119775
-0.06977605164152838
13.02827202472393
3.777491722284217
3.284233068578026
0.02409143572985602
-0.3585184353030728
0.03892509672895994
0.2955019026748077
15.23801366906324
-13.98478089504802
-9.49938215839164
8.246149384414821
38.27593872579674
-19.77549170873231
7.510922837661269
-26.01136985460291
5.165853372565077
14.83993275038171
-1.410747131016362
-18.59503899162624
19.05085392213785
3.420596844504698
10.882132312464
-22.85995024603862
11.97781793323339
34.92134014860579
4.798189267379277
1.049397074108229
-40.76892648977081
-0.0771311944015276
0.1275385991591886
-0.2354473157852086
0.1850399107163168
0.1875415724103097
-0.1394573223975066
-0.6215387165075198
0.5734544661712394
-0.1355228644294137
0.2703943624695074
0.07337445146122307
-0.2082459494926114
-0.05890738672007782
-0.01394280421037944
0.09548819772129746
-0.02263800691511589
-0.1303638301134796
2.00714619764124
-0.3975521196832591
-1.479230248611929
0.2729992726701232
-0.5271429291817907
0.2235806845864953
0.03056297167837157
12.03541957172629
-5.645393951695747
-6.390025619671211
-0.2282435326859476
0.1244707664793985
-0.06169599267903871
0.165468758502914
-0.3489796460904768
0.4935566047016743
-0.2010599678149729
0.0564830088677085
0.1242034168609288
-0.08269909689474697
-0.05630627181117658
0.009667748861091105
0.04663852288005418
0.6491353213659192
0.4726243664000881
-0.4905936178861305
-0.6311660701369011
1.926894596652708
0.3773629291544666
-1.063536303059402
-1.240721223808736
-0.1344366401712779
0.105278181313076
-0.09753639578996402
0.1266948544978447
-0.06668927005801381
-0.1050367383180375
0.06782708349743968
0.103898924651364
-0.9251806839083109
-0.5611433633999362
1.739965449098773
-0.2536414022901661
0.3211571348894482
-3.877405894711538
3.36357476345612
0.1926739949416006
-0.8421473257372488
3.42345709296307
-2.597363647072776
0.0160538789266213
-0.4742877977387973
0.2351644918025943
0.3011982680843809
-0.06207496238773897
0.1852363935334657
-0.3191430045434262
0.5072709339066631
-0.3733643226655541
-0.0675492935353664
0.07280317442984016
-0.005253880989756904
0.1040586023550774
0.1125647735560776
-0.2166233759814712
-0.06524349434912548
0.001122599882416108
0.07288986820519773
-0.008768974085171072
-0.0610253455001035
-0.09765737016466247
-0.09989764724656595
0.2585803629522038
-0.05936224177433595
0.09292646330981544
0.156740292469304
-0.1903045138677187
21.20760704024993
-13.66233805627653
-13.99656941755386
6.451300434225041
-0.01956082003657662
-0.04053232874529174
0.007313063686241717
0.05278008502825315
-0.02329285877614128
0.0342542992747213
-0.0109614405948417
1.972386882852897
-2.583925302630801
13.51075952535804
-6.358966211176445
-7.151793314089828
0.03639050990757459
-0.07746054183931046
-0.007397800978285674
0.04846783295179641
-0.04613909620032973
-30.10379519799151
-0.1939547885893465
30.3438890832274
0.1060364483944378
-0.060405799271099
0.2037534264787726
-0.2493840756767159
-0.05000223084061382
-0.02482047568202604
0.06804361395671546
0.006779092458178838
0.06437403888535002
0.6052114905084431
-0.2461015829927363
-0.4234839467844837
-0.05954924247258771
-0.0003105067486565865
0.05985974909366185
0.01842950401536821
-0.01287654434581622
0.06566744978782169
-0.07122040961982212
-0.004236515158062
0.01907725472615241
-0.0109624342569603
-0.003878305554959698
0.03820914511794635
-0.0249931558094609
-0.01321598945625486
0.00507861888612283
0.05803986519206252
-0.06311848407085535
-0.149912732984802
0.5656723288929624
-0.3967717753743864
-0.01898782061439894
-0.01368979274700861
0.07112628932651444
-0.07266273477784338
0.01522623824940926
0.06013817510605494
-0.4201835204862656
0.3857040003148719
-0.02565865499105268
1.171413214137773
0.5609117655688237
4.172361694256908
-5.904686674835006
-0.2876880908435754
0.1456606297643134
0.04101895426677125
0.1010085066528908
0.08560181540737508
0.02737903080841043
-0.1129808465201421
-0.03206921576615766
0.1227906683648353
-0.6053379357347399
0.5146164826223485
16.47899574531465
-21.11273132070845
-0.07300545527002854
0.1453599684505019
0.002257340557335319
-0.07461185385378685
-0.5241823326688066
0.03221584081825402
0.4919664917632054
1.576730643971583
0.5813622430841889
-2.254069662757329
0.09597677544789453
0.8234501617075655
-0.0830416388159172
-0.5978121637701512
-0.142596359537144
-0.2312452320942963
0.2944518316833817
0.05681460927267484
-0.1200212090333924
-0.003788347607230802
0.3276981598611814
-0.3142642934668618
-0.009645519021328364
0.1152008018961377
-0.2829714143067492
0.1675879017362353
0.0001827103209654656
9.429519613648782
10.32697234023588
-0.2557985913231049
-0.1974820117356499
-0.1565252740631113
0.6098058769068755
-0.225185370717431
-0.4371213509395286
0.5895533380333245
0.07275338345474409
0.003802004911339427
-0.1259499882660483
-0.0190556251295271
0.1412036083588357
-0.2702119587788023
0.003492615785090452
-0.005621964797768012
0.2723413075854874
1.432659736920069
-0.5697693934619324
-1.669099898615048
0.8062095549639735
-0.025220243573741
0.1210927694582168
-0.106070708737609
0.01019818253046061
-0.01744818914027511
0.02770421469211416
-0.1027837979566656
0.09252777226901324
16.09765847705652
-23.64034585568418
-3.124160991183448
6.218406468101526
22.83854286487583
-1.352339748193186
-0.1707264216825743
2.157891163668735
-0.6348249943932699
0.1609090770551527
-0.2610811331515724
-0.2471262887774769
0.3472983444626831
-0.08332652780400619
0.01044467992852251
0.05239202337729722
0.02048982434459705
-0.09964609744665973
-0.00206143458243021
0.09766568198893789
0.004041849779346986
-0.1317168367366976
0.1734104391828938
-0.06645127150468008
0.4092703022257515
-0.158899004253747
-0.351618217863319
0.1012469198641893
3.210541824715261
24.60903725122211
0.0789236353402743
-0.02654993642399601
-0.2457674923664622
0.1933937932798211
-0.02035439941926846
0.3897053238426858
0.0711242483985032
-0.4404751726326949
-0.4966012787289599
0.07598222220248682
0.1007334028655483
0.3198856532774231
-0.520260386632768
0.04969714512641882
0.2568935137972991
-0.6086690160210132
-0.0527472179478664
0.7050930249005507
-0.04367679186231276
-0.01320478345289277
-0.2486571711918407
0.7428729037786556
-0.4810109497136785
-1.694448873471864
0.256526986958558
1.43792188600767
18.57816952907421
-7.365783892355549
1.815886387837611
0.1598371341262122
-0.2779215061512414
0.05152691689775694
0.06655745491232404
9.004683227394176
-32.52665608970097
32.21801436965156
0.0414957614093182
0.06374192958594142
-0.06627511121695069
-0.04225535934662888
0.1479346435857475
0.0009492196763642931
-0.1066285041596731
0.06705237226585946
0.02895857737332252
0.04493381796054842
-0.140944767861716
0.02618872076272142
0.2676165444461013
-0.07146950379779286
-0.2223357616199622
0.4392169858051445
-0.309115401840712
-0.504866191591959
0.3747646071168388
0.07174190027712293
-0.0239699289820515
-0.07188310479034261
0.02411113342114333
0.46524583545235
-1.092538697347226
0.2395266498771585
0.3877662117262334
-0.1045029836908985
0.05812139577581419
-0.02662386741967617
-0.0682966439612091
0.06060134186187125
-0.1199973088602607
0.1276926107526394
24.2802735723718
-13.05899910748571
-20.73418993366138
9.512915468877372
0.1891059402970151
-0.1734651400583969
-0.0156408005494972
-0.3166254986286414
-0.03197645552787413
0.4551921467262531
-0.1065901926377508
-11.58300943426805
14.87669491307511
-2.13051033218126
-1.163175147949441
-0.02221116365414054
0.1182335822346112
0.01628189221739339
-0.1123043110819355
0.0626272519426031
-0.1674683053042419
0.09261768912588525
0.01222336407222807
-1.281426635813893
0.9439399353189922
0.4442695813757317
-0.106782881351102
-0.01995793177818936
-0.1862965569584352
0.1907989387661621
0.01545554967484187
-0.8462695393551477
-0.6235934591955541
0.8642643515155904
-0.990811413242122
0.2058311155013232
2.554559751195359
-1.769579453606437
6.858092927042236
-17.50416129994654
12.39084283395933
-1.744774460475893
-0.1119710532760541
-0.5311341643458062
0.746781552774237
-0.1036763357108147
1.617935126765183
18.28127075307654
-23.45205462415613
-0.03081849848258632
0.08544856339682937
-0.03915776138826505
-0.01547230347481438
-0.5041121755902999
0.3042195847644863
0.2288255949855155
-0.02893300432733479
0.4993873553751923
-2.151750659051628
0.7115667763321029
0.1637554452915319
0.0566677213301658
-0.1489386794152479
-0.07148448702213317
0.4952871018847063
-0.04209258836472565
-0.4867453545767584
0.03355084097380633
-0.1037217696378131
-0.3721152178048207
0.3129063859669784
0.1629306013325663
-1.75579179174309
1.754561853184962
0.001229938204686122
0.1100590903032649
-0.114957365908318
0.01796254708647609
-0.01306427161939011
0.009269342315346821
0.09420571937021978
-0.08779109772237363
-0.01568396395898057
0.02022801738689558
0.01877765408578217
0.1103167958274011
-0.1493224675730853
-0.009611542035476532
-0.06638971537680688
-0.03780089234863396
0.01834228073567349
-0.2659488700064665
0.05208239195848438
0.1955241970438782
-0.1449343450953374
0.07533156297275877
0.1127680269003938
-0.04316524495939722
-0.1099341348059669
0.05651544866957836
0.1031136442443896
-0.04969495765858805
-0.5995385519202401
0.7163866442289011
-0.04928452342554889
-0.06756356990466664
-0.001836260261184731
-0.5172876856855837
0.1035424430780744
0.4155815029629751
0.01169672494350557
0.008413088384913281
0.1452938419805125
-0.1654036556575662
-0.3250762289129301
-0.1982136788750383
0.4304107448963023
0.09287916235400943
-0.0003618826337043194
0.1781532837232132
-0.1574567824282631
-0.02033461896685666
0.01063769605155258
-0.1428905281335453
-0.02652751039585638
0.1587803423381688
0.7234804293057211
3.756292627878933
-3.725592827420007
-0.7541802321843506
-4.201811724304964
-41.76172520181238
36.23421581317686
9.729321113050402
0.05958689142223375
-0.1467199637118536
0.07401852429493111
0.01311454781266581
21.64213410979138
0.439596100182449
-24.52180448964506
2.440074279970898
0.1498007624367498
-0.2008819675194975
0.04324563957346649
0.007835565215283186
8.16132831885794
-9.81422571403415
1.947405855964342
-2.573985783963379
0.8917961181101217
1.682189664961761
-0.1101850019654644
-0.05380647999848218
0.03324137555741023
0.1307501063327314
-0.04109775722087376
0.03421480559201983
0.006882951541790202
0.1293082463261948
-0.07255968800150084
-0.234543285348084
0.177794726876451
-0.006533086058217564
-0.003688250302001958
-0.06641837546743867
0.07663971157544337
-0.01619800040791014
0.09412277252743216
0.008576813198548847
-0.08650158550879562
-0.0729299788190943
0.006037608163265117
0.1693717434700098
-0.1024793728545733
0.01481198440634842
-0.07814032964643436
0.04067302287089013
0.02265532228652898
-0.05078332456186041
-0.004183966835364952
-0.0003019121019166783
0.0552692036293891
-0.4811743264073489
0.1145187846420753
0.3666555415853583
0.1098828499064714
0.0831669235026415
-0.1628087413620841
-0.03024103205208855
12.47068898064357
0.6198783567929502
-12.53015795299355
-0.5604093842637852
0.151008062908987
-0.1152505004850505
-2.212754551917903
2.176996988917862
0.3153623580539932
-0.3540797065870521
0.5126253532779265
-0.4739080050191105
0.6438568172704806
-0.4434343286348413
0.06460853248930537
-0.2650310212232989
0.2026484838869744
2.165496940233558
-3.674903701656739
1.306758276514137
12.92691225920367
-13.02821746166347
0.1013052025835579
-13.67204704560324
-10.29400077370737
10.20472538702444
-0.2231350185083839
-0.207261570413932
0.382515857729214
0.04788073092871316
0.3663764243666371
0.1744503467556653
-0.5408267715409047
13.82049232651529
-19.45995386992606
-0.1722152191490129
-0.02908385178215432
-0.1884631306609534
0.3897622018198609
3.172164896042029
-1.110806074507877
1.797087640031416
-3.858446461238095
0.4096844751892967
-0.9966726142670236
0.4920299701529859
0.09495816841833007
-0.0199792615820547
-0.005507460955449866
-0.06040905860242104
0.08589578101676186
0.3647115715346894
-0.4907478514479483
-0.06926898264293574
0.1953052621945745
-0.2506858425353031
-0.08088874397041051
0.2337186180354113
0.0978559681693035
1.302509335928433
-0.5304944730957116
0.6606448738763129
0.1395320575426195
0.07127357679670662
-0.1087916223543814
-0.102014012278667
0.2317734262773482
0.3140175697186942
0.01647295614100475
-0.5622639524398583
-0.2446715515491424
0.2217764921048102
-0.008019909209761342
0.03091496854951339
-9.48425369510918
-0.6441918000282403
-2.767359581103916
12.89580507608935
28.2174076953787
-0.6236031608246535
-4.203097017283723
-23.39070751763707
-0.00138623472532435
0.1423358883821001
-0.05980821849164446
-0.08114143559212467
8.373886964421422
-2.469882610018904
-1.338132789176435
0.7018694426935478
-0.4061118375838568
0.2487271294781696
-0.5444847351861242
-1.233774456434143
-0.227643220925499
0.08823686016054486
-0.3503622825968679
0.4897686430243296
-0.09464936210497481
0.02620565454551725
0.06844370740417392
0.3397204176922115
0.08124013713506656
-0.4026182743226305
-31.85746469370412
7.102152131087496
-3.671901596427333
28.42721415898645
4.294684813271478
-0.6480164245264683
-1.794151008610181
-1.852517381107506
0.01520073654289582
0.02154038599179454
-0.03674112277083674
-0.1911207864014215
-0.007129529896526952
0.6134581994518679
23.36495351757918
-0.03382927395589187
-0.02771213444281147
-23.30341210816674
0.1858381464341136