/*--------------------------------*- C++ -*----------------------------------*\
| =========                 |                                                 |
| \\      /  F ield         | OpenFOAM: The Open Source CFD Toolbox           |
|  \\    /   O peration     | Version:  v1906                                 |
|   \\  /    A nd           | Web:      www.OpenFOAM.com                      |
|    \\/     M anipulation  |                                                 |
\*---------------------------------------------------------------------------*/
FoamFile
{
    version     2.0;
    format      ascii;
    class       surfaceScalarField;
    location    "0.3";
    object      phi;
}
// * * * * * * * * * * * * * * * * * * * * * * * * * * * * * * * * * * * * * //

dimensions      [0 3 -1 0 0 0 0];
oriented        oriented;


internalField   nonuniform List<scalar> 
37377
(
0.01527048418381326
-0.803864507917371
-1.449694684173423
2.238288707903323
20.61852200803649
-4.64836725374501
-15.96998667993254
-16.56027611382848
8.21984086482731
-13.28833019461409
21.62876544361582
0.2283556768148874
-0.009607629744958003
-0.03738184197188417
-0.1813662050939603
-13.91144915781723
-12.0803233966065
25.99212412449949
-15.08190261173245
-30.34668768812837
29.13007752964816
16.29851277021175
-8.939749527907376
-24.36044052078317
21.2216465018237
12.07854354685718
22.75450363632861
-22.15918965306147
0.5020871087674627
-1.097401092037093
-11.26677530664053
-5.807271534594372
17.07450627937874
0.1648774762419724
-0.4814311233715449
0.3788592745064555
-0.0623056273616919
-0.6955785810800003
0.5626490707847508
-0.6357001932014029
0.7686297035091407
26.58219890689779
-24.12278977420485
9.189156136517989
-11.64856526922532
1.512842710768928
-14.62531490703364
-14.3082479209374
27.4207201171968
-10.10290531423894
3.661772576265109
-11.81427272854259
18.25540546650825
-1.42698297252745
-0.6493909368098835
2.210139052468642
-4.876381210343226
-9.486803988298073
-3.42847212185144
-17.13859148516788
14.55144118901029
-25.46218957203481
28.04933986818765
-14.87395194842276
29.4434632960843
-14.56876289328124
5.336032584614523
-18.77920472369363
-5.0778610258638
18.52103316494078
-19.60240207814909
18.7162971648968
0.886229380333084
-0.820806131805444
0.3070261512424313
1.124486607157156
-0.610706626582349
-0.2354548212636833
0.1662607863272217
0.2102305862985263
-0.1410365513581655
-14.01362754661258
17.83028798498914
-2.567441929368862
-1.249218509028886
-21.67278339939019
-14.97558196832997
17.04596328957081
-4.708232828800125
15.79307456684707
-23.88617247220347
12.80133073415587
14.8490255905214
-11.62242003907226
-0.3790209353125771
-2.847584616136885
-17.0935380456965
-9.020458599439516
14.69964867315864
11.41434797197639
-0.03185863273721616
0.02475948828908665
9.730063597433434
-20.24649334970699
-8.191770902589147
-8.442166176859049
32.55745308766252
-27.41339338279899
3.298106471993377
39.66441131183707
-16.63439588417216
0.7802677259941018
-23.81028315366024
23.52316561992208
-16.29773971297304
4.258800453090188
-11.48422636004232
0.1588320580101376
-0.2594321281982901
-0.485609386167247
0.5862094563670054
-0.118514438751718
0.1079037764029886
0.01028244130687849
0.0003282210451896268
-10.20538078317444
3.514623568671196
-11.98817193371617
18.67892914817856
-30.53923399106922
25.6706258938999
1.532187220588183
3.336420876577022
16.60504178132646
-19.01118284289931
-17.95805497401648
20.36419603558926
-26.56110408630813
-1.12610799591763
4.119625288545627
23.56758679367966
-3.482986953065955
4.909190484097672
18.21411551786514
-19.64031904889787
-0.939042908533716
-1.518749907536119
1.348779676950858
1.109013139118661
-11.21600216917125
2.013632216069877
24.94834640770469
-15.74597645460331
14.26926195065468
7.284101273133215
-5.883196775125464
-15.67016644868846
7.321950746025935
19.97890517596929
-43.18850208453463
15.88764616253876
2.842736403533369
-19.32209118424326
-3.906874463442716
-12.7205481729336
-10.77463343583467
-15.57518023067372
39.070361839442
-18.93554557357229
28.59355066463906
-5.703176685113675
-3.954828405954537
27.31915174956039
-27.16840779089068
-3.79956650775365
3.648822549082769
-21.59004765313421
-16.49478681696944
10.12416246522502
27.96067200488053
18.59891989923178
14.14287076489021
2.996098678074167
-35.73788934219739
-20.21880471077904
-6.325254592805234
28.07340417103136
-1.529344867468086
11.48294919438341
-20.38628618518124
9.052433543695603
-0.1490965528973985
14.56192029559772
-17.48240907257649
2.920705066586466
-23.26538094983551
11.40197372217194
10.9430652057093
0.9203420219540707
21.60366882189399
5.186871858330552
-2.037700732514407
-24.75283994770356
31.03935022952797
-9.163134445399653
-0.9273223820527149
-20.94889340208091
-2.969734778710355
17.53188512829217
11.33897863432235
6.699205652785357
-18.90891212640012
0.8707278392652877
-17.50329628970167
-3.5666938621224
21.07016141451379
10.32023290366822
-4.161990215880164
6.500274243348766
-12.65851693113821
-0.4852341368804418
0.07032065369916725
-0.8984262660875331
1.313339749284224
-14.69453493953287
-2.093481985905076
16.78821253620382
36.66757973071972
-9.098520848834186
-16.74859162306798
-10.82046725881862
0.03273428343108508
-0.09883732679981516
-0.05241139538122037
0.04807606838613371
0.1274822712098341
-0.06765456319010862
29.21625468734441
-20.03560281751453
18.46520922341241
-27.64586109323978
0.1372822778079299
-0.1215445692689928
-0.005455267229325036
0.2143975196382582
-0.08659096879014933
0.03845423548089659
-19.97160569764573
0.001521188380944318
19.97017782500457
-23.79266072626389
23.96251501192867
5.816009284774079
-5.985863570436626
-1.565286559181949
26.57854107624173
-10.69422533976429
-14.31902917732926
2.28715339314212
-2.213857678355933
-3.678939873940068
3.605644159171078
-0.1423160779285623
-17.2847828874216
2.527252886174882
14.89984607918019
5.841533532333253
-27.41334705285196
-2.277862117569049
23.84967563808723
0.02325242089277562
-19.99478714451221
35.2159160782266
-9.092729844254178
-46.46627890190814
20.3430926679341
-7.244085566066938
-4.340757663185493
32.36275539452349
-20.77791216527109
-23.05693795698178
14.84810824602789
6.14013829540131
2.068691415553389
-14.48977777046762
1.097950009490934
-5.754910323254353
-18.50785588173358
-8.582737151455699
13.83297665848191
13.25761637469011
0.8072311452529261
-0.5458927684893328
0.2052495772854644
-0.4665879540459976
-9.629294128489365
-20.21985118979398
9.217896786192426
0.07139804650066787
-0.1162294596119079
0.02832863095864548
0.01650278215688947
5.395312449550662
23.76257795472926
-7.64924430536487
0.0513542072556592
-28.53216786028412
25.78902701461699
2.691786638406639
2.399734138341449
-0.3934803596903755
12.56947867443668
-14.57573245308794
24.2079446346062
-0.2560486668545476
-5.282119239683912
-18.66977672807507
-15.87713903399206
-0.1654383468733525
-5.630206018525633
16.45264461350978
-18.38766952881678
-24.62607917100144
11.78188389494893
1.862176210383259
-15.06712467572903
1.42306457038396
-25.41739925338815
-0.5524544189879507
0.6514682994591502
25.31838537291629
0.8929527383541864
-0.9437034080714641
-0.328139661172562
0.3788903308970505
-13.11548997342299
0.221231812624303
12.89440912078764
-18.25086403696374
17.07561966269362
-17.07576577636114
18.2510101506048
-1.727358997659548
0.2422495465059981
1.456407664647276
0.02870178650217122
-6.396366391287481
22.84926266648724
12.99757383755736
-24.85217610690392
25.29044295716993
-13.43584068779021
15.69570932405665
-19.4360496802022
11.03968670215668
-7.299346346012126
27.80187624750738
-13.26458666193554
3.667596960945388
-18.20488654653321
17.65326383104588
21.90023419153959
-22.27303269526952
-17.28046532731761
16.75295017042571
0.9004688773224097
0.1551539478560658
-0.0106499038863691
-0.09035964421588417
-0.05414439974974673
1.843724801881274
14.08734021596109
-10.87209989918835
-5.058965118654309
2.797120927847696
1.384343852442798
-1.425484763213221
-2.75598001705043
-11.65656789965957
-5.961484329621059
-2.598526715427086
20.21657894470587
0.009197859401032595
-0.1255472928567738
0.03437640199951916
0.08197303145969068
0.3493147131740247
0.07000300623569002
-0.4138816068721096
-0.005436112533422231
0.01766283429942507
0.5848412751481167
-0.6052487708568396
0.002744661414239231
-0.7645997419982437
0.6914187257047276
-0.5995953168070955
0.6727763331216152
-26.03380340086762
14.37581634918794
28.41093722210383
-13.88178100596431
-3.600396233086704
-0.02364374325710462
0.1512771297093075
-0.1277976272839925
0.0001642408350594165
24.20934449046143
-23.65390586992239
-3.525173399249728
7.998397521280053
-13.58137536710091
23.76561375437476
-18.18263590859716
0.02291099638314073
-0.04935644611188009
0.2408429693694624
4.273216921664628
-21.77631208721639
-0.3089176053678739
-0.2450792526182774
0.4129247919047648
0.1410720660893222
0.01245499682139096
0.1729033493742712
0.08394721368515015
-0.1282684015125994
0.05027167406711396
-0.005950486234524956
-17.7892988134387
17.28752815422584
4.545356245526159
-4.04358558631068
-15.79013710898793
23.34305787276969
-3.566581423344776
-19.77634055078515
4.775737526313529
-19.92944994986742
1.992713385481854
13.16099903813039
-27.28525323392151
-0.7028685625684582
31.60331582113552
-3.615194024648693
-6.579974441071012
-23.89634534336463
23.80530119097241
6.671018593460595
0.1066161345193191
-0.08301138361327873
0.004961280498505131
-0.02856603140009879
0.5099642558224262
-0.7302048606546283
-0.008648632461214197
0.2288892373041242
14.92278727917364
-0.1698860558423334
7.20438478614484
-21.95728600947678
-0.4493295060976668
1.085428369658891
-9.372486316678668
8.736387453108129
-9.638311418127348
-16.78145749613127
19.61752376903958
6.802245145214676
15.56269522051306
0.1040502209837661
-15.55062580568114
-0.1161196358159586
19.76843199842385
-24.19561444943279
-8.449642295071261
12.87682474608087
13.1650122850225
18.19079322234168
-7.82319771703933
-23.53260779032528
-0.2116902983813775
-0.5397556638344719
0.3491669154273182
0.4022790467925297
-7.314687558059647
11.12028497653566
11.60159024889426
0.5255030953088764
22.04275215456409
-16.01076416237603
-6.557491087496142
-0.09971044821696545
1.430107787541556
-1.323209476484604
2.413738533901557
6.053299301184958
-9.71598467990396
1.248946844828823
-24.93121152028414
14.35970971050494
32.1751706316873
19.06899441636208
-8.149346221769928
4.003139084581068
-6.794694916786084
-1.402167492701414
9.519272423697929
-1.322410014186653
0.1271188806078128
-0.1377266658789689
0.01060778527358647
0.07587065869172582
-0.1451455195023287
0.08583876868594786
-0.01656390787308394
0.09601219836122714
0.09722514256339185
-0.1320908148305971
-0.061146526091511
-0.07700127744802651
0.1220860244402515
-0.01235046355881749
0.1395738774300206
2.905203866994502
30.42769269070508
-25.1690936934955
-8.163802864203518
-5.747122774769228
2.59151697040826
-19.39571682217354
17.13328842588313
-10.07289998176087
-8.325267799571151
1.26487935544683
-1.753660307822091
1.883889355536217
4.442140962739527
-4.572370010410682
16.01459610887695
14.20159886553311
-17.08710811852673
-13.12908685588421
23.88540657523598
-8.362456698162088
-1.223174701675465
-14.29977517541152
14.39907696200842
9.375081867518906
0.1112477456980914
-14.87054049416052
3.033559424487183
-4.510655869722786
16.34763693938127
-16.93583960175111
20.58713078794498
-16.3718393591277
1.809691207067311
-10.51931169120349
-9.383217024040796
15.47337535998219
-18.2819275125437
12.19176917659312
2.773912869669228
23.11963566055289
1.169617889660752
-20.46464474822837
-2.428215848029849
22.89304195532794
-16.93562807640609
-13.5901770709884
5.859369828237895
24.66643531913255
0.01094102380622913
-0.1096337155951521
-0.02285187747798266
-0.145171367707725
-0.00380476407924906
0.1718871281721347
-0.142808287403359
0.07350757838829852
-0.08403809518386171
0.03490477404462225
-0.2457020856279218
0.01630282943561857
-14.49249631202389
21.84104445360594
2.992531043003889
-10.34107918459344
10.48712898153053
9.268544741156955
-8.604749335573704
-11.15092438711393
-12.72512232888115
15.29671659403954
-19.07157801799924
16.49998375284035
22.33240849952291
-22.34906851656659
-0.2602294250629927
0.2768894421017808
-0.1419356681333879
-0.006541274929971826
-27.09222867129192
16.41685607973116
1.940621423176214
8.734751168369074
2.336662717033169
-26.29642251373872
3.141058393227883
20.81870140347745
6.15849849838706
-0.9935485124542087
0.3460692329731664
-5.511019218869978
13.83577292668083
18.06940806397914
-17.32911273064478
-14.57606826001531
35.42102586156133
-13.28597147924621
3.237205606850866
-25.37225998916851
2.395463412868923
19.63789484378235
3.503651119502566
-25.53700937615642
-15.14905542885562
-2.792949074752903
-1.942193938891221
5.729384258591692
-3.107190091280691
24.14636415497264
0.5053153837913361
2.396633696009242
0.2289508685357586
-3.130899948301497
-20.69928236669863
23.99602366434246
2.432642960947264
-0.9905870062932867
-20.04025469925687
-0.1392008042978522
21.1700425098485
2.424859331886587
-13.06728604508479
6.667623807149986
3.974802906047433
-28.48596376762788
28.52583612174951
-1.030459360414024
2.504124972834914
-30.35696928689967
7.812589614808229
-16.61902380827095
1.095381334858837
15.52379767293614
-2.324500758440906
-19.28092869410406
21.60560126188509
8.102554545285566
-7.836427434979561
22.03918661793747
-22.30531372824504
6.125715449142224
-12.12055303048016
-17.20045842115875
-11.56783906498453
12.07939777520076
-5.426969080129984
4.915410369913125
15.57887115719646
25.16606268990503
-44.83826990502666
4.093336057922609
-21.62932863159746
22.70157317263775
-29.55820830866648
-5.539635636779308
5.516694826672598
32.48186638365137
-32.45892557354752
-0.7094473914914048
-1.129780473255904
0.02251070540566589
1.816717159350155
0.3781605158353138
0.5845716159438311
-0.7155845910601455
-11.81154369187649
-11.07675042573042
22.8893082571795
-2.733263772838801
8.185015174414355
6.683253284157229
-17.07304242824043
10.62586228634268
28.41595918479038
-21.96877904288807
0.5683514680110475
6.66587926688944
-7.683560241029561
-0.2666663538434038
-0.1668170178039322
0.1921207523811769
0.2413626192736232
15.22881081410487
-8.463918362518195
-14.80284677488159
8.037954323292391
18.83699223977535
-26.93124296042712
-19.17747396606803
27.2717246867116
-4.195182907383137
18.68065890920161
-14.4852622671844
-1.887136190266907
1.668843105087706
-1.295368731626844
1.513661816820607
0.4986663483689202
-20.26105387656423
1.312098679863864
18.45028884832997
-3.987250246878736
-20.29238681740702
24.04936943727249
0.230267627014219
8.222876665975905
13.84036023111301
-10.05522711037163
-12.00800978671743
-22.87351837048994
11.06291111503508
6.782041014844878
-21.17962030139716
14.22769323070965
1.696889768986113
21.99645519020047
2.469641122250346
-26.16298608143865
13.05447048995436
-33.60748646797987
18.08801793628824
2.464998041736559
-34.729137939162
-2.037492060518748
22.58325536532198
14.18337463436218
13.45335106149233
-12.66726081340661
5.301887130098521
-6.087977378148192
23.74123342784121
-20.54132193658637
-7.213691112028683
4.013779620769978
30.25948390841306
3.41434719828104
-8.733713156757961
-24.94011794993776
-35.13654506795991
24.89984571314582
18.43569420939913
-8.198994854564859
-16.17741130786072
24.54521502262646
-8.367453827272509
20.7697039220224
5.946719931889224
-19.512039067767
1.168137371900115
-7.144674942941559
-4.778629050183212
10.75516662128397
14.7297556273162
3.196053427095986
-15.52248654611292
-2.403322508299971
26.10498218414123
-3.607369877563368
-29.07497312310496
6.577360816526316
-28.80550545435522
20.08066154508728
3.844216816822117
4.88062709243544
-3.227980184553076
-20.36374837778489
3.204924792737014
12.51650269874206
-8.379052568281152
9.745707829097169
-13.88315795956021
-12.19724869530467
12.15535355882832
1.546489976393137
-1.504594839920212
21.44786716968059
-4.274618094158268
-18.39250614433293
1.219257068809842
-0.5364697868118264
-2.602974795705209
-16.31065037893567
15.07791894928708
4.733181461607488
1.346514536472456
-21.15761494736769
-17.54953776422056
11.35366539414086
6.667305327252607
-0.4714329571727359
15.11524724239069
-21.10419750664678
-10.66486123506045
16.65381149931072
29.36193913682332
-8.922953136427916
1.363146056906077
-21.80213205732263
-22.11761135355921
-15.08516255033886
10.77503033369108
26.42774357020054
20.24962012112649
-5.432570831008581
0.2608696591688026
7.584188254479115
16.4266453120512
-30.2786696753517
5.929425235092567
13.87189930691095
10.47734513334753
-11.13691750507169
26.50724127158843
-0.481444454372958
-14.88887931216043
12.5862287005188
0.7484272678225552
-17.7756850481984
4.441029079901536
30.73835553959266
-7.232941379142971
-21.05646948317699
-2.448944677272919
12.68509799343623
8.437374119724778
-0.5636986877618444
-20.55877342539884
-2.958894176233898
-1.179598271327938
-17.05973667733214
0.8207969847054341
-5.155517097606602
-1.434823579273499
5.769543692246878
-1.277762941975856
-22.13152713610267
22.88912281550206
0.5201672625720555
-21.64326885585293
-3.429016695212134
3.682963886963041
21.38932166410149
0.4862306598938033
-2.218364401779616
-17.45569207537393
-2.440113918141731
0.04993721245382265
0.03416198605382324
2.356014719694465
-15.53776965696666
12.04706514970786
-11.71749649944163
15.20820100669934
20.11255889073574
-18.43035712384738
22.66111223286483
-24.34331399975887
32.62248139256481
-12.85409992935299
11.2709687663133
0.00950243218900145
17.56077922656268
-17.57009565195839
1.919796217672362
1.716373458939546
-1.802405144222158
-1.833764532357425
4.264499626729235
-3.538389991514665
26.01661134130036
-26.74272097651677
22.59442697133154
-23.33221573700697
-4.796516107197051
5.534304872870434
20.59677878059579
5.668689503065495
-7.0417023376649
-19.223765945999
-14.0115228586214
9.120187493874532
14.10694144059683
-9.215606075850507
18.67020640689565
-10.99446249446374
15.03266600742739
-22.70840991986038
4.262754367621028
1.234896362484306
0.6608477683218844
6.53887263557807
4.674729917724108
6.192040290169449
-17.40564284346899
-2.213348040130872
-10.23371916833127
-6.633254908245965
-20.47039376598041
-15.29854352167323
50.14475363684018
0.02200541240839334
0.2780129131581165
0.3017613174096553
-0.6017796429582984
0.6262378777891561
-1.345949206562221
0.4428423104611391
0.2768690183224002
22.52464993736762
-28.63949431494624
-8.854533628274352
14.96937800584949
6.680669492481588
-4.878601480250026
2.518110861068466
-4.320178873319011
12.7466686651886
4.635514829520424
6.546397811872991
-23.92858130657718
15.01662397109902
15.67566774888242
-15.76330599621418
-12.94586051568858
12.26582547210351
12.79872145143553
-12.11868640785057
-22.8962782212313
10.66745001318357
12.22939304707192
-21.9569331488282
10.01585001267424
-1.004777379534104
-8.968488492757153
-2.58286868279785
23.81718264765352
-23.65900309688688
-0.4300788366346946
-0.5730948698007007
24.66217680330636
24.44086726023984
-5.404170542186782
6.992260341524331
-26.028957059579
5.881447106674393
15.25452354649057
-21.29526370239143
0.1592930492254286
-11.28516187839479
13.18935977773726
-19.94652314952875
18.04232525018538
15.72567553554646
29.4409038943641
-46.36856873021807
1.201989300306604
20.45454169562435
19.47487247824863
-32.60746342784751
-16.73119891762406
-0.3307836006882877
21.32648214504046
-11.16295763186811
-21.08105412572616
25.6516538632782
6.592357894310457
19.9458351083006
-1.33644313126336
-18.60918629052967
15.76096896949862
-0.6527281287356662
1.607409130449241
-16.71564997118708
-6.115257381685456
32.34939124645155
-22.5183106518593
26.46062112598124
-15.57391693981546
4.613803143693163
-15.5005073298623
30.09158249427151
10.77322599205327
-38.7980460509304
-2.066762435415653
6.040637100322477
9.473164224368235
8.446411838586872
-23.96021316327848
22.61648578942603
-20.83637320899971
-1.779880757313043
14.83677023023025
8.905832374657431
-10.35276013260158
-13.3898424722942
20.4425409819911
1.921038919366269
-22.31449299775633
-0.04908690360024722
-0.05364494365647221
0.08753567305905205
0.1389691450832071
-0.1728598744807408
-15.844828014168
10.31774714501118
5.527769255988827
26.73130471533132
-10.61146381819346
-2.098327393965636
-14.02151350317263
-9.615872688190681
-9.915198157694265
19.53231399443714
1.600388027565539
12.21435415494182
-16.92349349529428
3.108751312781862
-23.34158900959936
19.71173308861015
-14.86306508335671
18.49292100432333
-0.254288994407978
-31.54280368487008
7.776935796167151
24.02015688310535
-16.26192866494682
-12.82797300989843
-8.145534388720273
37.23543606356705
-9.154453571449208
-32.40454574877642
10.62927158640186
30.9297277338227
-2.931870997271827
19.60498854242278
-17.64424217294997
0.9711246277993812
11.99926831111771
-13.86054301148947
12.40230180632369
-10.54102710595244
19.60555238409122
0.1966778681946514
-19.80214426104713
6.022013353306531
-6.239246120114671
-4.634364662389229
4.851597429197045
-4.088171792259084
-19.45594122915642
4.536666271278067
-8.498950820300104
10.46512738722374
17.41738359886885
-19.38356016579107
-1.727476937530549
19.57583239017302
-28.32210375593517
10.47374830329252
0.06208887846542525
0.8529117372132342
-0.2887627378791804
8.102108991261046
-7.713686072069448
-12.21287606466887
11.82445314547717
17.82573688290296
-5.818579278215232
16.94790603302896
-28.9550636377164
-1.653797968102676
14.42218213614898
6.663593746984325
-19.43197791503231
-0.01516507026997411
-0.158629230598892
-17.68760738583785
30.39158277731304
-8.797923962960978
-21.79007658017423
12.20008813290976
18.38791241022131
-26.86782646588297
-2.857132736917821
12.99376028517595
5.700284417377306
5.80740614873624
-20.47142004321432
8.96372947710034
-24.19864503952593
-12.81136861206188
10.14218718570377
0.09423872954068507
-0.06947924125050267
0.1077020874154622
-0.01346335787344702
-0.0701636173047441
-0.2187931473860351
0.1209001796898825
0.1680565850110571
-7.159719120578946
6.517213208371296
-0.09447913469145978
0.7369850469294138
-0.02563361283565955
0.1865077530243958
-0.09745642687557549
-0.02932921519586977
0.08206847458024304
-21.6134250402851
-16.43209741049074
42.17715124090595
-4.131628790130547
0.1422089026164794
-0.1101213510836191
-0.02147976625712657
0.08203400460797107
-11.43762553621431
15.46292641877493
13.41584520764987
-17.44114609021169
10.07901213152021
-10.30985056964753
11.79630200210798
-11.56546356398096
0.9143689941279941
-3.799349868385905
0.002672849906648193
-0.08671094508823816
25.00092153358645
-22.57643147173952
-6.239715131144024
3.81522506929599
15.58747332793943
-13.19861650492497
-5.664299933588855
3.275443110638171
9.624062693113705
15.54125922310741
-40.70309157318854
-0.1445830351929654
0.01990601579250796
-0.02001469948744839
-0.09872864310226445
-5.571406937602006
0.9231622943047901
-15.58019582126552
4.555267620642872
-16.80218331166411
12.70595667468903
-0.4590409836632228
-8.671769601004989
1.511866883532671
-10.37923885594939
17.53914157342167
-8.240742400538254
-12.75732765432231
-16.46165956528927
37.45972962014801
3.563380385241631
-6.685969009782784
16.46349286975153
-13.34090424518924
-22.57664730660802
29.80785684538229
-7.231036329671933
-11.14645758684872
14.20867249473527
31.40791082551407
-34.47012573341112
24.11988164788847
-17.51158905786713
-9.77786323839619
3.169570648370798
0.01542242226760442
-0.105150122068703
-11.9803795332078
-5.30227167561798
-5.174609793823667
-14.20469822719985
24.19998385798731
-17.38919630387455
7.393910673093321
-0.0411285927267912
-0.03587268471981228
-0.06114329221343393
-6.054699220313456
-0.07768262940905121
5.399000006154004
0.733381843573653
0.01541519802600518
-0.0320360893594962
0.1441031625458087
8.471464473369208
-12.84528243198983
7.847888370629279
-3.474070412003342
-1.039984902444387
-14.68950764699512
-3.667807386111566
10.66854843377721
-4.294222130037705
-13.60816237400047
7.23383607028485
2.642562204679655
-2.702205161451807
20.81783550708423
-20.75819255031377
0.05443146125169371
1.118006909458325
25.55080010052379
-22.14267641076657
-4.526130599238869
-24.54562014390738
6.481626619304965
0.2276294478207666
17.83636407678054
0.712031054584519
24.01505163754513
-24.72620781243799
0.116533900164923
0.1652488798834561
-8.414853220156321
11.52893663411425
20.22897445881145
-0.656308467893588
13.27075394739452
-24.56887147350559
11.95442599400311
10.32647315880902
-0.7394367608561643
-2.047011153002817
-7.540025244950739
-20.45790183511611
7.656622298179177
4.302328716638326
-2.735335607108003
-0.9987392673135302
20.9905350185452
-17.25646014412851
11.8025949815235
6.333088818535197
-18.13523535728961
-0.4664977242269884
0.006254935909645811
0.5107783035212518
-0.05053551519436201
15.22694468240827
-9.334349201974693
9.67009974007922
0.9738231999201058
0.1424892134225899
-0.003922213200516702
-1.112390200078728
1.22240992119399
27.40347595879692
0.7360532568078932
4.154428615674479
-1.261535152262929
9.413831954341269
-12.30672541776113
-3.897610865919832
-9.031252066906722
-0.4158073591815503
0.8918019919601663
5.198757493251367
14.21226264487666
-20.30282213009129
-0.4323151371801246
1.450464552982575
0.9412521181593216
-1.959401533926562
17.57430231445717
4.741265578545208
7.589125174773297
15.52949534008263
-19.73077614571422
-3.387844369141349
-3.690078896846954
-0.3698962559478026
3.309607430985787
0.7503677218105108
-1.378822742397738
-15.05980439014135
16.43883328507417
1.130580704389783
-11.14071773324502
-7.184533501470231
-0.5874777692339392
-7.859974103042774
12.50542592821726
-4.057974055944871
14.48048209806197
-9.86404772723378
-5.203912140065401
4.981327568551567
0.1903044917526104
-7.483640288022205
2.312008227723719
-0.06746787778886486
-0.004790614993513597
0.0300712873675696
0.0421872054170381
-15.88196409933462
-3.027518227714362
18.17640848391869
0.7330738431285956
21.17432079405457
-22.24194200843832
2.319906937534842
-1.252285723153346
10.95477296458609
-6.639103156209264
10.16481228968519
-0.4735989477449259
0.3746672462059709
0.0954932133844901
0.003438488178484884
24.16338491570257
-5.666691092869348
-0.9868319659118044
-17.50986185692479
5.017111585933637
19.15013812941446
-0.9992872014978322
-23.1679625138678
21.9302135339217
-12.22574381364149
-0.944992457898942
-8.759477262384442
1.251109334424302
-0.1992988009140078
-0.9769183470139549
-0.07489218648422347
20.95677810596584
-13.35992574184045
4.157270397441574
-11.75412276157089
22.85180784175331
4.231573237387428
-9.349779867760239
-17.73360121138196
-16.92929670717953
-15.48402448721195
30.70929975210112
1.704021442295697
0.3186152928578405
-1.000101113026816
0.5455755072505207
0.1359103129333512
13.6931569837899
31.42700603787631
21.7947827027044
-3.365949918900332
-12.99610602941806
-5.432726754389954
0.3692807468848895
16.54071122757393
-18.41225177027748
1.502259795805664
-31.34106390745614
15.48347855067318
8.203237546270106
7.654347810501874
-20.2314357248138
-25.09511111704666
25.91327489475091
19.41327194710971
-2.355477205902475
-8.117107173949003
19.45469539732533
-8.982111017474306
25.16593085598781
-12.38553523074481
-15.13587283114789
17.53538729488412
-0.5787070476046757
8.209250608705261
-2.61659213029691
6.624926280864979
13.52705314431156
30.49339363508689
-39.18538971357138
-14.36494187849665
-26.31982860783279
-7.582962477847287
29.69224978551308
4.210541300164247
-13.49605997071098
16.64169314825745
21.4747123204259
-24.6203454979866
29.01093236140812
-34.68091489773727
20.2774615019047
-14.60747896558789
-18.54685263196837
-8.350067368218465
22.98910073081958
3.907819269325971
11.48056383657504
-29.6274674608498
4.650843653533201
6.446345040540268
-10.84769326282359
6.994560128625681
-2.593211906280293
32.95064657443552
9.608841396206051
-1.659788886384214
36.35141852006672
-13.24271916508503
-21.44891046860305
23.20957282957018
-11.897193436654
-11.31173937614766
-16.38303304732236
19.11476454496501
-3.057789775048402
-16.05684822336232
-1.063283618351459
0.560655668162965
-0.2604867497988103
0.7631146999796617
-10.94973056276889
-18.67414100137983
6.140210164924615
23.48366139923337
0.1582802549976043
-0.1730006736386109
26.07383356196778
-8.8921047764695
-3.896496371513246
-13.28523241398122
12.45573627828903
9.718579451225908
-10.69136653513123
-11.2871056397077
15.807990971934
-21.38304225734395
16.86215692509371
5.427502608923382
2.845766964356156
19.02490339081255
-27.2981729640974
0.2914640244793725
-0.4049709890825636
0.3162167139429978
-0.2027097493220385
22.18970169171337
8.883418003751405
-25.64561708655971
22.40686062957168
-18.15870025264867
12.00963474921434
-16.25779512613928
32.31846980499784
1.083105334349951
-9.530875145322247
-23.87069999402033
2.436600034978153
-27.77850226533982
26.51076848336183
-1.168866253009399
-12.24293178290904
24.39822002889242
-18.87922787035191
6.723939624370478
-17.18027073236605
11.9318229142719
-4.824452163673715
12.70203153197736
-30.63758801904481
22.49935390864873
-4.563797421579308
4.41003577036125
-5.172826136166242
-21.1944956436721
-32.78470260843513
26.64974542000797
-3.607969244559193
9.742926432984161
-4.559418860867443
-22.27190317644042
13.57382471532248
13.2574973219848
14.2137614433863
-11.92305023894492
-5.805977286326925
3.515266081885185
-0.2914870364687193
-0.7205881303604951
0.5686030150909354
-23.80007321146926
26.12170693636562
-35.10633633333475
21.70802407457331
-2.199084640366264
7.14080598579905
-2.900174205597124
27.99450781737807
-2.616098205638798
-22.47823540614495
-21.95745836067644
24.56236582181566
5.384968678536866
-7.989876139679945
17.11138412034153
22.29971335720309
-28.95626179654672
-10.45483568099417
32.32737229389453
-30.13581342982145
3.54505557631993
-5.736614440387481
24.2915907481322
-14.48934376418083
-13.99440470572658
4.192157721772731
-34.38737227794842
12.18867918485142
32.90575835741252
-10.70706526432195
-24.23298736671271
12.35047302412398
-22.50485793536447
26.85704550451473
-13.15552360889646
0.3070077968242387
20.15364121207016
1.585203701038395
-22.0458527099321
-5.880993690879965
-19.77716679359346