/*--------------------------------*- C++ -*----------------------------------*\
| =========                 |                                                 |
| \\      /  F ield         | OpenFOAM: The Open Source CFD Toolbox           |
|  \\    /   O peration     | Version:  v1906                                 |
|   \\  /    A nd           | Web:      www.OpenFOAM.com                      |
|    \\/     M anipulation  |                                                 |
\*---------------------------------------------------------------------------*/
FoamFile
{
    version     2.0;
    format      ascii;
    class       volVectorField;
    location    "0.3";
    object      vorticity;
}
// * * * * * * * * * * * * * * * * * * * * * * * * * * * * * * * * * * * * * //

dimensions      [0 0 -1 0 0 0 0];


internalField   nonuniform List<vector> 
19632
(
(0.001752651139526747 -0.002264110460036257 -0.001990471802667865)
(-0.0003246877509966603 3.517025494584065e-05 1.519114889360914e-05)
(2.577739254867563e-05 2.150247208936131e-05 5.190447129841663e-05)
(1.118598218822729 -1.674509060818713 -5.509401074321257)
(-0.0001122747897696039 0.001483807446840648 0.000148103595702869)
(5.768518709775974e-05 1.903363777978873e-05 -3.311879458347872e-05)
(-0.0002311351432104639 -0.001593306989644985 -0.00015794184134246)
(-7.677716533396092e-05 -1.466444487894628e-05 -1.751329310599432e-05)
(-0.0005742001318755948 0.0004693268959485414 -2.953217499381563e-05)
(0.5464270759166308 -0.1076559268363365 -0.4522417063039672)
(0.06823605353137645 0.03439119316398916 -0.06841772809065691)
(0.0001456549545886107 -8.227163400395783e-05 -2.036032013582394e-05)
(-5.852998272140835e-05 -3.713844621663826e-05 -3.321735290022313e-05)
(4.723525172051045e-06 -3.343838491093859e-05 -2.649230337708211e-05)
(-0.01240001094459389 0.004733254392470737 -0.001890644573126821)
(-3.488175270824341e-05 0.0002788200502776489 0.0003249687692010015)
(4.262452959566622e-05 -6.306439361773868e-05 -2.252735569964444e-05)
(0.0009373999391524544 -0.001598348616970703 9.725414521634236e-05)
(2.07215662236603e-05 -3.132565101236229e-05 -2.473926693304977e-05)
(0.0002152563441493165 -1.422799456272641e-05 3.368638586614014e-05)
(0.006255309955847288 0.007021363085212009 0.006610743190014881)
(-1.141932055911676 -0.5415657896822417 4.594449875332562)
(-0.001404532947172379 -0.001227865798566532 -0.01898721504872724)
(-6.946590288659119e-05 8.192240328812873e-06 0.0001657562802224049)
(2.503643223591089e-05 1.535510196256896e-05 -0.0002692579692986657)
(-1.446461063891005e-05 -1.106016565784089e-05 -2.499365337364151e-05)
(-3.969435971211059e-06 1.978525340287342e-05 -5.363667646653902e-05)
(0.6452860610790367 -3.605376609388363 -2.110548667978842)
(0.0001543041300074816 -0.002996113083940553 0.004936093942395155)
(-3.80390670901253e-05 2.747976994905028e-05 -1.284446651310801e-05)
(-1.031769198096186e-07 -1.564232364740964e-05 -3.629056675127833e-08)
(0.0001080460295929371 1.034139503244662e-05 0.0002765977846543351)
(0.04904842826912776 0.00100035058835151 0.05182804695958011)
(-3.546582594079581 0.7176411687764811 -2.424929380383382)
(-0.0001874184776871849 -0.0002264523883599641 -1.937238932577044e-07)
(-3.540648274214506e-05 4.512250506946994e-06 -5.265109858971294e-05)
(3.099705244643229e-05 -0.0001219374001737011 -4.871571852000614e-05)
(-1.133564569095964e-06 -5.371460686372268e-06 -8.272699650606398e-06)
(2.649346714700302e-05 -1.868951103653105e-06 3.589693162976996e-05)
(-0.00197740265920019 -0.003369211260239864 0.005054047628303098)
(7.267383284718895e-05 -6.864516619542199e-07 3.831270186393815e-05)
(0.0002557794246205626 8.321663248028049e-05 0.0002164001592681663)
(5.648562006219743e-05 -1.237107991948373e-06 -2.91197772227921e-05)
(-0.00235346132717142 0.002904281445639905 -0.01848354934829212)
(-4.008907983246523e-05 1.729297489441606e-05 0.0001713190468515742)
(6.891782629427178e-06 9.367692907847043e-06 -1.754924001357701e-05)
(-1.794783142618273e-05 -1.140294198103612e-05 7.346827527972982e-06)
(5.538255913166735e-06 -2.343356474924071e-05 2.291788017854301e-05)
(-2.143521039837477e-05 -9.680058045945965e-05 -0.0001301207018554976)
(-8.810613193810612e-05 0.0001380648983589328 0.0002377194651326843)
(-0.0001356929718093231 -7.025957401714272e-05 -0.0001353406005460804)
(0.0007033208366583792 5.351306683331362e-06 -7.192933548221549e-05)
(-1.548186114856742e-05 -2.225056940272942e-05 4.354399620547471e-06)
(-0.000117047162667527 1.627920189605494e-05 6.617404232577265e-05)
(-3.258524425127766e-05 -0.000126415507375794 4.050790324602573e-05)
(-0.0006228844644362333 -1.270739216456807e-05 0.0004610408843584032)
(0.0002593389045684002 -0.0003841046401711354 7.329275891800655e-05)
(-6.18073952376758e-05 -4.557797170508346e-05 -0.0001957461887980024)
(-1.945532578856832e-05 -0.0003952634340138997 -0.0002642156120915707)
(0.05715945982348752 0.0529706536687649 0.03727143105286707)
(0.0003928341777075027 -5.872968105160266e-06 0.0001344810305658445)
(1.851069608704702e-05 2.177666802090321e-06 7.408908470221396e-06)
(-0.4834113142338389 3.954412194246534 -5.732677506043832)
(-5.7926341956881 -1.241381481643091 -8.660360956105832)
(-1.812279747220471e-05 -2.038602844361933e-05 -1.584998833197139e-06)
(0.4106393642986774 0.8428457613666251 0.9383303200486253)
(-1.061170932796644 -0.465847016067066 -1.170861669379654)
(0.0002161990496418431 4.057754622757376e-06 -8.771778291857313e-05)
(7.983871626142028e-05 -8.287486867999204e-05 5.169960343477553e-05)
(3.769145671420687e-05 0.000115801320474576 -2.788906316524307e-05)
(0.0009068308322114376 -0.0002868561046806101 -0.0009899175481221842)
(2.715973828116864e-06 7.961821389144141e-06 -2.441834352817807e-05)
(9.44062743245697e-06 3.509473826741044e-06 1.261105309418099e-05)
(-7.85846555869391e-05 -2.138860496442333e-05 -9.511727615723216e-05)
(-1.897892268175679e-05 -3.987432311124638e-07 1.984830112842911e-05)
(2.573410716356572e-05 2.357273870585764e-05 -3.770194787236691e-06)
(4.407904331192898e-06 6.262359416181157e-06 -3.055228159675483e-06)
(-0.002922786362579961 0.01266311428045647 0.01769350905378936)
(-0.0003940792738328516 0.00446185703611016 -0.006542613654179932)
(0.05989476475066877 -0.03437706109104906 0.01707714656755963)
(-0.004653496395064215 -0.0009093452404902265 0.01018908301465817)
(0.3959731220741165 0.4060580192845322 0.3310319197090137)
(-0.0001287282647843445 -2.122025915590217e-05 5.419819537887214e-05)
(-2.358879627740865e-05 4.550332616974149e-05 -9.673489260833211e-06)
(6.599117093953596e-05 -1.673172654096765e-05 -3.28210074308738e-05)
(0.0001066088614520465 9.437674681684752e-05 -0.000231743890456914)
(-1.708036652215996e-05 -2.821081912417248e-06 -5.287372366256555e-06)
(4.414377038446004e-05 1.334220713341117e-05 4.443029114075566e-05)
(-0.0001240922983117771 7.376344091208006e-05 9.368280758006069e-05)
(-0.0002318935851048309 0.0001228812563106982 0.0005582973590110225)
(0.06175734898852044 -0.09321296585427963 -0.03716129347033167)
(0.0004480560817258497 2.848670681429641e-05 -0.0004561664573754644)
(-9.067410733976808e-05 3.523297011960981e-05 -9.911643224146127e-06)
(-0.02408965329357681 -0.01058952531271172 0.001790508030948352)
(-0.0004789539850968868 1.428033856730118e-05 5.499649509158288e-05)
(0.0002797962870155231 -0.0002857526367127472 -0.0004238543981714952)
(0.0001290566981051125 0.0001754874198864369 -7.61633277851045e-05)
(3.738853840596005e-05 -4.727890184059153e-06 2.170462534889317e-05)
(-5.71968194754159e-05 -2.165427608775572e-05 9.332849671514793e-05)
(0.0004469889693582022 -1.670001877723727e-06 1.960492663466737e-05)
(4.16000472302144 8.469314061329051 -1.233432564773489)
(5.584881071774106e-05 3.92754026652764e-07 2.340622364199864e-05)
(0.0005125077312168976 -0.0008216150204865596 0.001665817861008527)
(-1.771955771952932e-05 2.027842236718468e-05 1.351946721063477e-07)
(-0.7307913901780518 -1.078010666254085 0.3881269656184105)
(-0.003958847154056311 0.0697115726003821 0.02225681273282404)
(-0.05048299980793083 0.05917430082020732 0.01801357072721355)
(-0.002994641586451014 -0.01796763931614088 0.04090619440816661)
(0.0002640500705423958 -1.216352895980188e-06 0.0004004592176637978)
(-0.0006622001130089718 -5.401741496477654e-05 -0.0001622013564851979)
(-1.01382804369519 0.577443742894085 -0.385518456794772)
(-7.124941659118511e-05 7.481352450794867e-05 -4.768328977262701e-05)
(-7.139268584170375e-05 0.0002361939056414568 0.0001231681514521494)
(2.466280323291251 -1.328645094547988 -1.608048412156604)
(0.0004079814756081627 3.505247939399577e-05 -0.0005336905589773697)
(-0.01556014817754628 -0.03904833187627358 -0.004938346840173566)
(-7.708408433861369 12.26585414978407 -3.44852508346751)
(0.548353392013868 -0.3498552629587423 -0.2636153361616542)
(9.198560555963103e-05 -0.0001719509296567135 5.083117537084991e-05)
(3.309844089368803e-05 2.026565743903727e-05 3.345837891812572e-06)
(-0.0002018519768941445 9.053922510973085e-06 1.177079868084696e-05)
(0.0003343071089697931 0.0001332604066327332 -0.0002360668252136109)
(2.538064880960556e-05 2.694978426960959e-05 7.75732166809409e-05)
(6.725991538648845e-05 4.239290665185643e-05 2.870903598720913e-05)
(-0.2088921037821964 -0.5353643360791536 -0.008946095631310727)
(0.01177695842560508 -0.3014454580688603 0.006130423966210469)
(7.199888020645323e-05 1.421298883580426e-05 2.554229404139127e-07)
(0.0009337661902307118 1.022175447494198e-07 0.0004969421242196983)
(-1.566472100724355e-05 0.0004885534998523774 -0.0008635071629035694)
(8.943517778279051e-05 1.745395577949038e-06 1.861764010475146e-08)
(-3.743004724580512e-06 -4.490938035582217e-05 -4.196893118300444e-05)
(-4.498044813568787e-07 1.683528103078731e-06 -1.353236978956227e-05)
(0.04522267909680125 -0.1486817457409098 0.01883987161845197)
(-4.359039520098079e-05 -2.905533133862754e-05 -1.278546798009072e-05)
(4.188025575393838e-05 -0.001450626058587524 -0.00274744529307012)
(-0.003180667194442492 -0.002680726818240112 -0.008386711312799642)
(-0.0005322355392382667 -0.0002615120247866359 -5.224358349605813e-05)
(9.800033753955649e-06 3.673035767284948e-05 4.829726347003091e-05)
(-0.0001050181590148684 7.43737469605326e-05 6.899441966109526e-06)
(0.0004130571402335226 2.034217045568658e-05 -0.001385237473458819)
(8.287488576287704 -15.13910999547298 -49.4214991090024)
(-0.9743468059819578 7.518416612928659 -12.66225630957359)
(-6.994771033223367 -9.942191400388859 4.640870205633311)
(1.130688468997943 12.47451271755117 -2.05978270818608)
(-6.234768689073705 5.283301965299838 -39.18007999837533)
(1.457599587905031e-05 1.199423676777523e-05 1.89348182679924e-06)
(-6.908724012842981e-06 0.0005941827117286657 0.000356707833124741)
(-0.0005468705321315116 0.001277350282553675 -0.00570164812653145)
(-0.001965945566700566 0.002377282519926788 -0.001307773941336642)
(6.003373890762552e-06 1.28540386313933e-05 2.706363416595236e-05)
(-0.0002230113327577259 0.0001596584773138099 -5.967913591440413e-06)
(-0.0001675465940452775 7.261378495936724e-05 0.0001294314726328244)
(-0.0005315837247120501 -8.433844625013106e-05 1.37160760168207e-05)
(8.349010562359855e-05 -3.342915859230088e-05 0.0002558175475676419)
(4.738176123725727e-05 -0.002704148892719148 -0.0003398500714398594)
(0.0001316010445822535 0.0001020552861389904 -0.0001243575557835931)
(-4.470644354135395e-06 -3.094269212030411e-05 1.260219576985611e-05)
(-8.788536026595032e-05 2.366871234252281e-05 -0.000340945609625186)
(-0.0001018810567442923 -7.059551025726417e-05 -9.283406273000572e-05)
(-2.71325115950049 6.037694466073667 -1.362598099563566)
(-1.47604685833621 -4.927594369316287 -2.684170029047326)
(-4.432998638730107 -4.099498947524952 -5.098499663703054)
(7.753220529648534 -3.846608264096863 -5.144546255345952)
(-1.1666508081422 -0.8583121544116742 -0.8594068522967943)
(-0.0001717943358952016 -3.144667352797592e-05 -7.545088462458892e-05)
(-0.0001322814744811036 -9.547529564859364e-05 -0.0001031829770856917)
(-7.187916750642343e-06 2.757054613623783e-05 -5.857247217203288e-05)
(0.0003875738466085911 9.311874867537311e-05 0.0004654959458751295)
(-1.250937416288255 -0.6693062016709159 0.4805633738130988)
(-5.107073474869554e-05 -7.992269421271463e-05 0.0001058600005122832)
(6.65562130668542e-05 -8.32569460836407e-05 -2.086303032630654e-05)
(0.001415170297086301 -0.0005421625946452967 -0.0004032376618856191)
(0.0001083644982786752 -6.237828276024141e-05 7.183361629223205e-06)
(6.885910554260374e-05 4.822807507424678e-05 -1.028461159486379e-06)
(-3.396843712066998e-05 1.201247285676466e-06 -2.91099595958288e-05)
(-5.030157751678368e-05 0.000789658504913905 -0.001155066143904416)
(8.361233423102198e-05 1.415408627668354e-05 1.367638378700859e-05)
(0.0006169533893624055 -0.001791854187111173 0.00488559780500962)
(1.56809650073986e-05 -1.961670022042461e-05 1.064906287914652e-05)
(-3.41888811776054e-05 1.296703700765047e-06 2.909404830458412e-05)
(-3.016724853158716e-05 -1.388763621700462e-05 -1.034175674724602e-05)
(5.569808863428089e-06 2.487075416214831e-05 1.068115338011145e-05)
(-4.804268060990912e-06 -4.230189205566732e-05 -6.240801835179755e-06)
(2.223019715876742e-05 0.0003681484816852864 8.006080638648573e-06)
(-0.0001756912548100069 1.050720512104152e-05 -0.0002733229631746142)
(-4.396102738280674e-06 -8.650840198173156e-06 3.887275545034899e-06)
(0.0001084397744244165 -0.001620038225415921 -0.0005415639191703644)
(-2.907576482065535e-05 -2.00143611640001e-05 1.996094395327627e-05)
(4.278153102062985e-07 8.343749503681425e-06 2.711065184967356e-05)
(-1.327636734724398e-05 -4.035895543500608e-05 8.12202221163446e-07)
(1.837215711013757e-05 -1.457052322615746e-06 1.371793602059735e-05)
(-0.0009212047818834524 6.551280331713004e-05 -0.003418042823396477)
(0.003459093842763851 -0.01054971991264416 0.006348068282819129)
(0.003032212741931282 0.00252361331929186 -0.0001595680582938855)
(-1.88078821058354e-05 -6.529061104065971e-06 1.149475576466752e-05)
(4.82189343702672e-06 -2.159575776743541e-07 1.059204733143276e-05)
(0.0002893056803767915 -0.001506124799934852 -0.001624004202433959)
(0.1686361392823611 0.2209129079317345 0.06638162027200484)
(-7.045315736647173e-05 5.434857950084976e-05 -2.543223578085836e-05)
(-4.309758575705627e-05 -0.0007289530112774059 7.827041612110793e-05)
(0.000481343844530919 -2.228903668788513e-05 0.0003310977319249744)
(-3.511966992967089e-05 -0.0003661068477696843 -0.002001022621064916)
(-3.181547127079199e-05 -2.757499796130995e-06 -1.049994204215639e-05)
(-0.0005311672228506127 -2.51790931344177e-05 8.71135355111835e-05)
(-0.0002726224108877733 -7.025873127134863e-05 -0.0001815074210511149)
(-0.003552656452205437 -0.001986717995319332 -3.84078783169724e-05)
(1.258638903303645e-05 -7.151608626671181e-07 -4.455330754920826e-06)
(0.0003484610821635433 -0.0001201817656337541 1.43977866064203e-05)
(-1.76365709299844e-05 6.627784649823159e-06 3.652458907112802e-06)
(-1.373605362762755e-05 1.93485021669959e-05 1.123043687956522e-05)
(-0.0001307460351047737 -0.0005794696330411475 0.0009320763795335324)
(-6.49633754943459e-05 6.097125800763923e-05 -1.857200155902303e-05)
(-2.616102925276387e-06 1.215196119761031e-05 -7.826680685253289e-06)
(-0.0001332037923652099 -0.0001231497365524633 -0.0001773535832151416)
(0.0004730087042516965 0.0003371131023268597 1.397441369575811e-06)
(-2.353894226768412e-05 0.0002717274412525727 -1.884274908350752e-05)
(0.0002062039443326459 -2.328412805046535e-05 6.813931727146692e-05)
(-0.0005364988242552191 6.699720161225849e-05 -0.0001235457358099297)
(-2.621792126166961e-05 4.22545025765321e-05 3.597897585422002e-05)
(-9.33475399712305e-05 -6.049174821643941e-05 -0.0003816596662381862)
(-0.0004228368571147271 0.001027296208234144 0.0002307932457166711)
(-0.0004781897281708664 -0.0002357587713944254 7.879749748818267e-05)
(-3.328791456988149e-05 3.10901126098788e-05 -2.926375001383511e-05)
(-6.059221911220666e-06 -5.172021473239468e-06 7.972804736915259e-07)
(1.538246392177601e-05 -0.0005523880054061564 0.001320554183227191)
(-9.411273004141061e-05 7.589598581015237e-05 -1.650774895490964e-05)
(-0.0001417860355752943 0.0001054623515979949 -0.0002110819574353768)
(-7.706622560215483e-05 0.0004547399734337237 -4.799371360891775e-05)
(3.186611879456675e-06 -9.699398920884987e-05 7.965059245657945e-05)
(3.265162962171493e-05 2.853066713174432e-05 8.640024005015684e-05)
(-3.003897026177362e-06 3.376086268952297e-05 -5.054466945208383e-05)
(-0.0001628928569867534 -8.733465360519806e-05 1.903805196751031e-05)
(-1.042762007142848e-05 6.120205833925243e-06 1.745517348907817e-05)
(3.391616261688664e-06 -8.264224346525539e-05 -2.75849772634898e-05)
(-0.0002098326198313936 -9.80162010265418e-05 0.0002739445957772988)
(4.176033966924165e-05 -2.981381478930062e-05 1.846597678698383e-05)
(-2.64316391876792e-05 -9.986935201478579e-06 1.445550934011723e-05)
(-3.404767393228205e-05 -0.0005932467146975373 -0.0003001214755845006)
(0.00203846314977084 -0.001807612717871528 -0.001209858281011543)
(-0.0002838582465453768 -9.48414048739441e-05 -1.795705242674447e-05)
(0.0001700213177847938 -2.517152489654889e-05 7.493523624126354e-05)
(0.003183206943321646 0.0006776929703188679 -0.006563004183584123)
(-0.0031348951530939 -0.004685315268258534 -0.0008676721044315724)
(2.118396909639549e-05 0.0001104108029013118 0.0001163759872214192)
(5.390511671709161e-05 6.11249855223135e-05 -1.715797456706873e-05)
(0.0005372981029231062 0.0002331941057275869 -0.0001985062400402285)
(-0.0001288563795638188 2.072765202182129e-05 0.0003224494741190836)
(0.009958190603977799 -0.000643901137083568 0.001606412547964506)
(5.457955866452413e-06 1.101726600402087e-05 -1.497077298244849e-05)
(-4.02629439004587e-05 -2.368340926537517e-05 3.620867251101424e-06)
(4.61638581974138e-05 8.879617910298125e-06 -1.021095615080585e-05)
(-4.861091443084466e-06 1.472872286609757e-05 -2.105383746384585e-05)
(5.520730766370249e-05 7.041722631929998e-05 -4.635902602957432e-05)
(-0.0005785483628708677 0.001857649183617464 0.0003602799264775131)
(-0.0005591142275478305 0.0001244486209804415 -0.0001415325898329346)
(-0.0001398574283118051 0.0001961106888712155 0.000912804943648919)
(-9.450732451432132e-06 -8.496499901986785e-07 2.307549596538284e-05)
(0.0222464623315499 -0.003285921018709149 0.0002957286341564642)
(0.02307795821484355 -0.001519164667651337 -0.009784588665276232)
(0.0002677067591765174 -2.146148460297142e-05 0.0001582345786224579)
(-0.001479163431417839 0.001335077177884766 -0.0009516722988615136)
(0.0004676467185965885 -1.967568313285617e-05 4.923468683758779e-05)
(-5.923768138422732e-06 4.348484638037147e-05 -4.774063603497002e-05)
(2.742126320023992e-06 -1.73852578784825e-06 2.16329800270072e-05)
(0.0007520205580029373 0.0008990864307020684 -7.311276731362572e-05)
(5.513872716769422e-05 -3.431406752776875e-05 -4.4683502185021e-05)
(1.599328887673375e-05 4.455364570886547e-06 4.19900018590522e-05)
(-3.253723459617276e-05 0.0001044043832534063 -7.339254243386332e-05)
(-2.772528753025928e-06 7.327461884808255e-05 2.06081401473039e-05)
(-3.065827131832077e-05 1.801215721565101e-05 -1.541258448168846e-06)
(-6.065309841479212e-05 -1.409816973352457e-05 -1.344845155711135e-05)
(-1.819169339354433e-05 4.125377134226324e-06 2.064400907423454e-05)
(3.316970620289444e-05 -0.0001139204522425921 5.542994992606828e-05)
(-5.559966089564097e-06 -9.116781043840172e-06 -1.472199233570447e-06)
(-4.118234067996847e-05 0.0006282852922430167 -0.0001444437171633549)
(0.0003777039379327618 -7.918744613256511e-05 -0.0003843499125565187)
(-0.000414647549628395 0.0003395142333049953 0.0001529565527827153)
(0.0002268989070175781 -4.36936379020771e-05 0.0001362350933732023)
(-1.161916172579948e-05 1.853839209379645e-08 1.152951941269103e-05)
(7.213455406644626e-06 6.756060382945105e-06 4.399618916598294e-05)
(6.387573816528367e-05 -2.449045973308547e-05 -2.586447925039823e-05)
(-0.0002686252074281886 -0.0007346137565614836 -7.823057830858127e-05)
(4.294097060185034e-05 0.0001016261655312017 7.106477839047246e-05)
(7.074383682337745e-05 -3.47034238042378e-06 -5.541409887943188e-05)
(3.149864309721865 7.048031949966068 -5.977210904124419)
(-0.0004145690306774622 0.001924041449719883 -3.645238916080443e-05)
(0.0003758539468055496 -0.0001371845096547738 -0.0002712557584956337)
(-0.003468345451641409 0.001926625647700822 -9.983309001589582e-05)
(0.0006633218510617386 -0.0001672636863899241 -0.000116883506833026)
(-1.189342100530309e-05 0.000101154388429335 0.0002359123920910192)
(-0.0001139993420888892 1.447829715129567e-06 -4.658265442957095e-05)
(1.75739618104757e-05 -5.495773306524797e-05 -0.0001843825469991394)
(-6.253419410228478e-05 -2.063647836424525e-05 -4.373771333954652e-05)
(4.053041685049179e-05 -1.722826586742958e-05 7.878234089960838e-06)
(-6.09568111431721e-05 -5.08323045400749e-05 -1.258734570232426e-05)
(0.0002811038875775978 0.0001026521259164626 5.901911255950819e-07)
(1.949960439074532e-05 -5.637127158893333e-05 -6.310221226425386e-05)
(-0.0004666120575024841 0.003321660772175112 -0.003256802272058053)
(3.613365271164961e-05 -8.20842695554511e-06 -2.015511318766256e-05)
(2.06307334966643e-05 7.194823068491935e-05 8.103432554378839e-06)
(-0.00181026910741804 -0.00190099819462836 -0.002899960650226499)
(-9.042540627063751e-05 -0.0003487513481546217 0.0001794437863419062)
(-3.350459334693368e-05 3.203365741378661e-05 2.633419558302256e-05)
(1.240815477232358e-05 -2.22105689346349e-07 1.016420183676222e-07)
(-2.49236954811014 -2.527495569698963 0.1143688392203495)
(0.0001749878626773127 0.000198130422284137 0.0002717839702895321)
(0.0001430229529955329 -8.152155529182661e-05 -8.489123273021319e-05)
(7.007695048147259e-06 -8.774129941449698e-06 3.968522993679746e-06)
(3.591904891655709e-05 1.81314899328639e-06 -7.186988822498467e-06)
(1.227220710410808e-06 5.590203696741942e-05 7.593491411880772e-06)
(-6.326135407209214 -65.94450155342419 -0.00949969883370283)
(3.347582128875876 -60.34217284887221 0.9849268355396694)
(4.65356205316929 -1.138511977554311 3.203233056563979)
(0.001352021938045235 0.0003507693935426925 -0.0005375129733587729)
(6.042982598456444 -0.8844986757843114 -2.657734186015015)
(3.217939251247298 -5.167151066802653 -16.98563406829646)
(-0.4390078602646564 -53.87334924357707 -9.211485979262577)
(3.243106559898889e-05 2.148064921492749e-05 1.035317776322795e-05)
(6.792066982916766 -7.848809871178378 -2.122717538737161)
(-4.226301068952257 -6.173486860121525 -67.49270342957777)
(3.633629797204949e-05 1.945191072712298e-05 8.123541347285643e-05)
(-8.200873357656571e-05 -1.297443056489318e-05 -7.975612182866901e-05)
(0.001019537863811279 0.007425275307403075 0.01739377404051914)
(-8.444813722661296 -7.824219604840923 -52.01661553918218)
(-1.591199872800101e-05 2.371437653412587e-05 2.392596517016056e-05)
(4.705270147325064e-05 0.0002529123205744291 -0.0004060032365048575)
(4.549280367746037e-05 6.697430366870759e-06 -2.676071075890096e-05)
(2.534117968574219 -11.03945330409944 -7.165979925197534)
(-8.56441221267572 5.607978315073186 -6.850562574820499)
(7.253169365752565e-05 0.0001662394382838998 -0.0009047411698956125)
(-8.638119189754039e-05 -4.191099641502948e-05 9.800555085223849e-05)
(2.533007945006658e-05 -1.278962611878779e-05 -8.993445294732979e-06)
(-1.412405099763681e-05 -2.272310487970268e-05 3.09240415962799e-05)
(0.0003394794221355999 0.0006053258575432745 -0.0004353587340485854)
(-0.000467537717117585 0.0002300291912441849 2.385970182241808e-05)
(-0.0009849622146330974 0.0007962018731423497 -2.294387138812072e-05)
(-4.782504199616079e-05 0.0001858390075707022 0.0005814296704333606)
(10.91709454502096 10.04003273310159 -5.367653676703974)
(-6.688106826147859e-05 0.001071885060574098 0.0007004223162425547)
(-1.581623498116989 5.225484729494356 -65.57124032816817)
(3.943449799776011e-05 0.0001562235940788811 -2.479963896030164e-05)
(-0.1600672386824002 65.48144955077885 1.30019462467983)
(-2.198929285626719 80.89004358116328 -12.40000325404924)
(-0.0004162289925518738 1.823899013575885e-05 -9.82184685320741e-05)
(0.5920301449850491 4.781705452539232 -1.047116979656439)
(0.000177351587739792 -0.0004337163431882115 -0.0005935847282721256)
(-0.0002474944422802355 0.002297976652543453 0.000476662724814216)
(-0.000213616668828669 0.0007872645254239801 -0.0007349055570591263)
(0.0002407227368392435 -0.005228714877862558 0.007910402168899986)
(0.3307328682324087 47.94791170736381 0.05896161000991362)
(-0.0002673231637930214 0.0002085460286571647 0.0002585123498638024)
(-9.40651007540496e-07 2.74353399068141e-05 1.575863994703278e-05)
(0.001569633933500743 0.0005328607279342853 -6.780682135365599e-05)
(1.827030748780791 -4.226838656957183 -2.48873609491878)
(1.706197164981976e-05 -4.57769297287839e-05 0.0002007833613225181)
(-1.83353120492596e-05 -5.558222173351722e-06 -8.387442526840006e-06)
(9.715222294931182e-06 8.287554426259598e-06 2.967409098898917e-05)
(-2.334704768422642e-05 5.464388799857007e-06 3.258781463144014e-05)
(0.000119906374860029 2.223812717301206e-06 -1.447113528860943e-05)
(-0.0009133835387301165 -0.0001883574982024428 6.720573517210736e-05)
(-0.01002210742292727 0.02891687483056683 0.02774482040112462)
(7.572118457617804e-07 4.901266964782725e-06 6.733407741138492e-06)
(0.004897855973742583 0.002426045007690733 0.005255812236498423)
(5.722869877041234e-05 -0.0002010093450109555 9.576006104459907e-05)
(0.0008714395869404627 -0.0001308704566320721 0.004793701642649584)
(0.0005182378390796384 0.001022685459294645 0.006128455403622469)
(-2.374959530623392e-05 -2.832131648001301e-05 -3.734734567353842e-05)
(-0.005452297419894531 -0.00762505331658163 -0.002713561453062991)
(-4.803715007749083e-05 7.461916282034103e-05 -5.103399900415579e-05)
(0.0007620007465019088 0.002298536641499461 -0.005684763355610826)
(-0.0003117251415799407 -0.001115391870302043 0.000238678013086212)
(-0.0001322886757312372 0.0004278420629114067 1.366050272750201e-06)
(0.000693337103061938 -0.003525520699074084 0.005138861921833445)
(-7.721863207026323e-05 -5.830821583260575e-05 -0.0001754997938780259)
(-4.940786830309098e-05 -1.155747392709125e-05 -5.346055595986434e-05)
(-0.0001409766816752041 -0.0005891765737338009 0.0005550273457567904)
(5.084178500270705 23.5423343897405 11.43557149864204)
(1.341996377437502e-05 4.368666069847529e-06 2.607180554662226e-05)
(5.065975779044501e-06 -9.030531893965426e-06 -9.870125651688797e-06)
(7.130758130563397e-05 -0.000148776117037466 3.566674159512338e-05)
(0.05391542002572551 -0.04602883230100758 -0.1684583207143422)
(-7.57776662288535e-06 5.161261559892139e-05 -7.420807556430243e-05)
(7.301617530438606e-05 2.396005941309083e-05 -7.871193013643368e-05)
(-1.310367863541259e-05 5.699981572497225e-06 1.590543106376305e-05)
(-0.01925918475868489 0.00298835229975389 -0.0002330603671602243)
(6.699746407453047e-05 1.950449383446739e-05 3.060392340886464e-05)
(-1.48294949298424e-05 1.976932356384636e-05 4.351334317288887e-06)
(0.0001137543414923454 9.911665962166383e-05 -7.932271349861842e-05)
(0.1289297750535315 0.2636682785014181 -0.1527172257615936)
(-5.836035959953542e-05 -5.160091866571541e-05 4.165324459586123e-06)
(3.816605861757032e-05 -1.950426753595263e-05 4.325030580292109e-05)
(2.278855474818065e-05 3.469489044886065e-05 -1.973576136799477e-05)
(3.92188230252804e-05 3.522718732022736e-05 6.258149714893347e-05)
(-5.732935072263219e-06 1.796701139991029e-05 6.586971903007388e-06)
(-2.454892841479476e-05 -1.376581596453032e-05 -1.094092531657619e-05)
(2.223569043685943e-05 -5.203366501873744e-05 2.748771825832652e-05)
(5.767284236583422e-05 3.520186030872841e-05 -0.0001127432482191069)
(-4.804437056606004e-05 -1.742601942837874e-05 6.231248978092093e-05)
(6.887997937833471e-06 2.688452913727865e-05 -5.207095770944558e-06)
(2.909297193183532e-05 3.947209340684549e-06 2.263583954861284e-05)
(5.261673619030066e-06 -6.064445648352437e-06 -9.953486288929655e-05)
(-0.0001736702797364514 0.0001131818490705794 0.0001655947294965615)
(0.0005289532856548628 0.001560929860483516 -0.0007187471214169337)
(-0.0002785459037929665 -3.953497759669819e-05 -7.125797683944952e-05)
(0.0008556375516694656 -0.0003735841619578419 0.0004278452149313569)
(0.0001091658457437289 9.828202183575627e-05 7.045114737565934e-05)
(-4.45254051648788e-05 -2.484712074773037e-05 1.763026035226523e-05)
(0.0005379837253923815 -0.0004420574342125705 0.0001034733811148408)
(-0.000178562473588638 -0.01395613298526607 0.002685221638146603)
(0.0001826639083761609 0.0002949289539114423 1.697673488176972e-06)
(0.04930221724280219 -0.002150530513487958 -0.0005631512700155876)
(5.274015359246049e-05 -3.06289478996457e-05 1.208028721806763e-05)
(0.008796696526300832 -0.02149320319367744 0.06530264922155518)
(3.72371820044624e-05 -0.0001081753434047519 -1.138366557914902e-05)
(-0.001845015457581438 0.0009899240437394317 -4.746558151091646e-05)
(8.476456465372645e-05 -2.175399732676619e-05 5.16220774673977e-05)
(0.0001315040413598063 -3.416964961152228e-05 1.37643746716603e-05)
(-0.01119504300015419 0.02326605872611932 -0.0002544050081472581)
(-1.13385572228632e-05 1.980012306984023e-06 7.74559338248964e-06)
(2.307204741080835e-05 8.234381133275672e-05 -0.0001152876258753646)
(-8.766027729437495e-05 1.991379169374128e-05 2.951692980900984e-05)
(-2.730073779270737e-06 7.125380608938528e-05 -5.523588067374884e-05)
(-4.3994009041324e-05 -2.711009391960496e-05 1.081315798601595e-05)
(-0.0009062836205053561 0.001087366015545983 0.000124049602497066)
(-1.375776271356176e-05 4.020470611771844e-05 0.0001122427318889508)
(-0.0001505135150396032 4.295640664450626e-05 5.577136950989192e-05)
(2.347012198696977e-05 -4.170948794984422e-06 -1.060242294062958e-05)
(7.647227198655396e-05 4.414294410509774e-05 1.206111068134047e-05)
(0.0001312460392751338 -8.982407483990042e-05 9.301899874848852e-05)
(0.2668770819365726 0.04408910925746025 -0.01394232312152769)
(1.141223388883045e-05 -4.545013343110473e-05 -5.677502522180833e-07)
(9.171693175298144e-06 -2.089140569548818e-05 -1.039254627275411e-05)