/*--------------------------------*- C++ -*----------------------------------*\
| =========                 |                                                 |
| \\      /  F ield         | OpenFOAM: The Open Source CFD Toolbox           |
|  \\    /   O peration     | Version:  v1906                                 |
|   \\  /    A nd           | Web:      www.OpenFOAM.com                      |
|    \\/     M anipulation  |                                                 |
\*---------------------------------------------------------------------------*/
FoamFile
{
    version     2.0;
    format      ascii;
    class       volScalarField;
    location    "0.2";
    object      p;
}
// * * * * * * * * * * * * * * * * * * * * * * * * * * * * * * * * * * * * * //

dimensions      [0 2 -2 0 0 0 0];


internalField   nonuniform List<scalar> 
19631
(
-0.05018327583538728
0.1670475233775812
0.1835967817781899
0.81065673062879
0.1684391799063426
-0.2237687535364752
0.1288629185780998
-0.665118163959843
-0.5672341291922846
-0.01120521488986402
0.4699179562254119
-0.2324019557082363
0.3942241727640598
-0.229579160194948
0.05264307199250196
0.3125209038446284
-0.2408022511348252
-1.10120712546451
-0.631386398807496
-0.3217394682027422
0.01764327377907049
-0.163416098908447
1.630239948742243
0.03411306515474542
-0.2437206031705706
0.1119781839147163
-0.2774103546498683
-0.7332449388016481
-0.07916852038076962
-0.01446809729032901
-0.199317997603233
-0.2083859694879752
-0.2168326144942339
0.06798740191689397
1.932775668611289
3.783326133978735
0.05394482736571829
0.1127655505194382
-0.3712557577164377
0.3029267940697214
-1.561120198524953
0.0229132144833802
0.05830657415810356
0.2002360128796791
-0.3111548141543145
0.3433301774360665
0.08713133033815842
0.06862511493033255
-0.03763442364774612
-0.2212934727800627
-0.0365666061630769
-0.1480504644937784
-0.2357395048044225
-0.08777443015517752
0.09777116822333781
0.02492824438702177
-0.2669853712897798
-0.2455400571445535
-1.877064843187184
0.009147294600201876
-0.01927298231685231
-0.3896066653226848
-0.351733111887427
0.07155360859734017
-0.1880326788380852
-0.527260183712063
-0.1788300423453123
-0.1839384465185943
0.5720563246538126
-0.0187003291134101
-0.0004507301892275708
1.686911777649475
0.1543637584114244
-0.2101908390903083
-0.2396060453685715
0.6119486903893659
0.08774678365092813
0.005655970184539455
0.5380480200222403
-2.219488258762405
0.07995772249255466
0.1057767212569575
0.5262900573626276
-0.8015867767077679
-0.09398631851277192
0.1725487912008462
-0.2340802361742688
0.23587462432959
0.5590801623220377
0.03542543657211657
0.1073809315280615
-0.1876758279110162
-0.1789124410714346
-0.2000131252623896
-0.2263796101805773
-2.067480064292138
0.01777919644179219
-0.3502610151730016
-0.2445033682532156
-0.1596982740571542
-0.2011456284761394
0.2695498901310143
-0.2899232163297319
0.009124680880321003
-0.5274705676780927
-0.1771642776668153
-2.235677484606371
-0.1914731311667879
-0.2091865306536299
-0.1887865443174274
0.2118459652816224
-0.7997523559169927
-0.1958234523292279
0.8410524306284048
-0.05143185912638325
-0.3725614352059687
-0.6333100935478929
-0.2124835343079313
-0.3518983757790266
-0.2332042816343662
-0.2178613820821211
-0.2040059927913816
-0.2277247759414989
-0.3187398722116001
-0.1983753668317648
-0.1852193955646622
0.781252637501973
-0.2082339240919513
-0.02864572267441609
0.05848481725681533
-0.1140860275157272
0.0709715905378486
-0.1988365671176787
-0.3992056354598508
0.0476603108055743
-1.618626787627628
-0.7899037155509578
-0.25133027000877
-0.4606501141572676
-0.1621112166230108
-0.7452394189448754
-0.6107740840085158
0.0272128401728817
0.04317463509732858
-0.1886668194896834
-0.3702766963677098
-0.1167584329559079
0.02271029301329896
0.08718868771364376
0.02646805528628058
-0.2206551702546807
-0.1556728158792653
-0.1585396886371995
-0.160493516299198
-0.148821183583853
-0.03674359510687707
0.1053215088543013
-0.1155868585407564
-0.3849831848486892
-0.01067355947752304
-0.1488509960146977
0.1011192458546522
-0.1692431482575215
-0.2041889199275781
0.07771251078772012
0.1140691736652439
-0.2426589275968755
-0.127077353182188
-0.6416026016736651
-0.02067256585941409
-0.3855387027627286
-0.2314370573378961
-0.2712104103831953
-0.2025981162650361
-0.1575271032296528
-0.2340334945448194
0.03835020943128936
-0.2112483075028651
-0.1528864973932791
-0.8143755601468512
-0.2187721590439647
0.01089162688911211
0.01740792717160337
0.2256273272122664
-0.01015065551525178
0.03483854261369623
0.03288460110535474
-0.2030502057416074
-0.219635690959549
-0.1685989134566882
-0.1669123666103644
0.1117235657693423
0.1481253105655961
0.09858186054076928
-0.219564403651676
1.342679256453706
-0.2380726933803615
0.0610165300514589
0.4029540912193304
0.3481688942796258
-0.2276539703134267
-0.2119178078716854
0.2004364451142911
-0.2558616471043167
0.02883437508397343
-0.2606728998145638
-0.1751291382845125
-0.2121755893460701
0.06261711048537921
-0.2024038560816152
0.1821197396685547
-0.2548220704013068
0.3388398832596681
-0.008841822557922327
-0.09812043545866928
-0.4006636612711925
-0.02107226834732952
0.009644290046766379
-0.01324212408826391
-0.5769009545614995
0.01689723626646049
0.1652920465498768
0.325107036290013
0.05659262721178918
-0.05465276308354034
0.1969280350163658
0.006023173403807534
0.03642714952995029
0.3550171723844009
0.2612067284146883
0.1735867000185199
-2.690341473265031
-2.759187472525958
-0.5132523062845932
-0.2469593966193942
-0.2399648930782512
0.7939213045589508
-0.2622494420612958
0.0845566683004417
0.02388842661278944
0.1309497102470132
-0.2129253901811593
0.05082499626149119
0.07668396080166938
0.09120965277342732
0.2099383740050836
0.104681039968462
0.01300365421064304
-0.3003615012002239
-0.04651356268303037
-0.2199638381892966
-0.8614456165960792
0.2820757630000591
-0.2068800043696272
0.08855186937234077
1.207200199488723
-0.204671206967198
-0.113121706538
-0.6376299231934536
-0.0125587004488152
0.1878811122406943
-0.1851155540276971
-0.2454839905996938
0.2618735123557243
0.01245640600922374
0.0821696572154906
0.23184200783239
-0.2642129760096225
0.476637477072277
-0.2988936343189065
-1.007904796539028
0.175200918789552
-0.2649083289937953
0.0281765201005482
-0.7658681079004721
0.3023998843907857
0.1532237025948093
0.1123695234569351
-0.196318596988465
0.03290929000849769
-0.144111849303298
0.2007696412228287
-0.03907201455498351
0.7568975407727401
-0.4106561936908467
-1.830412766453353
-2.707666342192103
0.2866564335105573
-0.1315015975609457
-0.3733722449964819
-0.1866464641009031
0.2160384746278616
0.1829204840489946
2.104376192191392
-0.4139561492662758
0.05267337555014388
-0.2847950741772172
0.04424852699995342
0.2751302190371772
0.473034379051791
-0.6991713211936627
-0.1757060586589999
-0.1388477254900544
0.2587438246137843
0.7266830103189493
-0.05910199456872739
-0.2575888872245571
-0.1266469504181446
-0.04205386263798386
0.5886587770502172
0.1804601051423261
0.03133882558092069
0.004536444947696408
0.292754335922168
-0.08384388019910313
-0.8605106893471496
-0.167339155398997
-0.3792417092058997
-0.3649946466521304
0.009145081370388346
-0.3470086370282812
-0.3049114497244914
-0.04544931806012972
-0.2469719355917342
0.2186872618901352
0.06099320137028084
0.09269938470850662
0.1111797975736701
0.212267368036521
0.05031500873787953
-0.3580601691670044
-0.242039676800033
-0.2021396386177361
-0.2052170910856546
0.5597007394334018
-0.06668661292954599
0.02353131901373651
-0.2956288726169697
0.6965455871457257
0.08904435061694016
1.410448971269286
-0.2592830049559315
0.08191814113572261
-1.026686178512922
-0.1760097405497282
0.06470446140632505
-0.3343944528703917
-0.1856375441684456
0.06565145216168235
-0.01213837793390724
-0.1133666397592138
0.07963639972837537
-0.2601213021657141
-0.06933223268881503
-0.04495653362262127
0.1014357344427249
-0.04820421298718139
-0.3124129090153021
0.4458869347163502
-0.1087506754150464
-0.3061416856629078
-0.08334468546547033
-0.8722550812339402
0.05688441252035543
-0.127908512008273
-1.176675259349107
0.1005630862975639
-0.2199151516036753
-0.3935651526269203
0.3897843780277336
-0.03157461326251046
0.005530333391598035
-0.07753437567196317
0.03859865073253461
-0.2625650286364614
0.01917617858115449
-0.08246598766678047
-0.00505094883977318
0.1131571046852795
0.2076137784944997
-0.905817389434125
-0.1174673697258411
-0.2843503357305319
-0.1207110550850096
0.1165319988748353
0.3087826229353495
-0.3604570140171939
-0.4889268879745406
-0.1090337639605663
0.07534760109727126
0.1942110260070228
0.1072056704385247
0.01452886856643719
0.09496772503307915
0.04604125285819596
-0.004945737918384498
0.05480850783403087
-0.3598971261079567
0.08583299946051028
-0.2557384681498462
0.3366644511369422
-0.03611793938845749
0.6075991624596884
-0.2072082288018988
-0.05644665567594841
-0.0444264749213143
0.03712352928423704
-0.0697355761127153
0.2174627047368121
-0.02159508833900233
0.06691616441762013
0.62395118919786
0.07603934116803179
0.4487997325070434
-0.01111948389992306
0.05295632581408499
-1.466749559970503
0.02387169514544377
0.0461278077811858
-0.09154244071567121
10.89753857057789
0.03094240318969164
0.0380634336919998
-0.3528692743397057
0.04823162620811056
-0.3546545173861262
0.2490375663042411
0.2687470845008385
-0.2484579705077474
0.03153802780231412
0.01974457331675016
-0.243565425161333
-0.3003320668383942
0.03955016992735957
-0.9193482557637161
0.09412619622426557
-0.1915141082621086
0.2723245026328668
0.05366385327177526
-0.1863964031101306
0.3604747963577173
0.109460318081598
-0.2098912072157036
-0.1871348290009316
-0.1430915983385452
0.860203582620368
-0.02811344001597674
-0.1867813764430445
-0.3779040009516899
-0.4161201020078177
0.1795263084591288
-0.0985004322775006
0.1203074730620645
0.06515659740357761
0.04831230438348764
0.08026318593483452
0.1622678836651979
0.2951181398116581
1.871069334750146
-0.02739909657978907
-0.208272168311075
-0.3993194045761887
-0.2522309431382872
0.00848727024823414
-0.3550289952520121
-0.1192077891237394
-0.2420448322074576
-0.3925566744754997
1.827803728770245
0.6717101154271826
0.07486075737975072
0.03035377371339526
0.1445842612563218
-0.03037789834193102
0.2026650930323011
0.05301016587394317
0.1316578932074931
0.0441844099230021
0.01226217926238441
-1.202996491419223
0.1619342015111907
0.6939604071483376
-0.07227806817618852
-0.1919080514868775
1.231301523905761
0.04481327066574025
0.2256031864777795
-0.350815306194115
-0.002430202393438086
0.1903036084348431
0.09220112216726566
-0.01205676008084438
0.268408677451598
-0.3669141651262716
-0.3074118901048013
-0.4213987593582738
0.03321285261474945
-0.1680515230474083
0.3034157819975709
0.7573497958891117
-0.04487565166793332
-0.1083174561701021
0.5180131510928212
0.2413688834861592
0.7681103036716554
-0.009264352051434641
0.08512895144200089
-3.450585012706607
-0.05397345323309254
-0.07893443749699645
-0.2779116154100784
0.07297681470921227
0.0221474976734803
-0.02299779294531093
-0.109775768350369
-0.2182143544179944
-0.1697850520195893
1.443473332610443
-0.3138018944291446
-0.3431269216519314
-0.2100249998023409
0.02486078700768389
-1.170297702963042
0.05975844722127363
-0.6723178330850446
-0.9650236861260759
-0.08189505905515936
-0.6403452482805658
0.1298051964599242
-0.1432774469871742
-0.07628489803750076
1.785804117085442
2.30701851025662
-0.2796893984861348
-1.181929950245207
-0.2705151517632561
-0.6708519920356333
0.2669442643228555
-0.4244879776069636
-0.7863268915726178
0.04527922017903318
0.3449702086012277
-0.5671849794661584
0.03841210231408455
0.1708247556925788
-0.2731428656255588
-0.1312773890117563
-0.1924333065325007
-0.8228473067950873
0.3186153857456241
-0.8725149997059836
-0.07596230241357299
-0.04327607702505007
-0.1781768004680537
-0.002445193476429993
-0.2690812745927256
-0.4300156955227925
-6.172126342006785
0.07223536636607142
-0.2696519954990553
-1.598006814831029
-0.3060853161757815
-1.188020030396659
-0.1675544315583793
-0.2863269041952442
-1.257680388470915
-0.5107818351980937
-0.08599116639886092
-0.08647665293337675
-0.1898899913170135
0.1410843780862217
0.2159457769452851
0.1246477850379301
-0.1401911493644671
-0.256736442172818
0.01216253279250376
-0.05564071409481642
-0.8595940055726161
0.1677634938095715
2.29315150805326
0.7657300252234038
0.2515936004448198
-0.4694676850140234
0.7715470483481295
-0.07632566776788806
-0.3749976064458506
2.067874677636714
-0.3492857491705418
0.1636249926325014
0.07223791294418547
-0.3851008647342623
-0.7536201546384829
0.3139459637733405
-0.1737385852144719
-0.5334859405432826
0.1408995712306959
-1.72986693764647
0.07176256015602685
0.03093424015597458
-0.007530645176839893
-0.1413148443876939
0.041859726182063
-0.04059957524293365
0.04200149633968558
1.181041086548507
-0.1977187908542664
-0.625555860669074
-0.3176217415232153
-1.281433504344597
-0.1787897059728556
-0.4077586289273375
0.3850980345872124
0.3643039098205975
0.1395682044847865
-0.1124199642087788
-0.4578004327406596
-1.50874392572456
-0.06934727037430032
-0.3762119891327527
0.7105887369474704
-0.00587090388282611
-0.02521220411262638
-0.04978548227028842
1.816755047107159
0.05280605360495832
0.005940489932371014
0.2569092396048293
-0.1098006076269643
0.188600080654547
0.05399147279785729
0.08855512969864512
0.1985525440761337
0.07268442912883527
2.487318104222435
-0.2110602480369144
-0.2633844564872322
0.2487657508413016
-1.537606737858965
0.1073649082741362
-0.07113391191441172
-0.1215147819881881
0.1543807262231097
0.1456825929216592
-0.3790576619493904
-1.038032478668631
0.09422960136624006
0.3853149230127549
0.4216759526140224
0.3287893644345142
0.4547427156009735
-1.335750049496226
-0.1319443612049546
-0.3864390361651898
0.9241191102300346
0.5508367931261563
0.03413295442815441
-0.1817787439062198
0.317336428439027
-1.12577038589593
0.07037199470089316
-0.8838357402233404
-0.235555483037358
-0.42135028846534
-0.5452868488353364
-0.2622670752196938
-0.1519661003040789
-0.3000548005214765
0.1345070669059583
-0.09154184606334367
-1.619266368703113
-0.254478079054564
-0.1849790650057883
-0.9683326217820816
-0.1016688737889005
0.5438834431849819
-0.3005804705339545
-0.3429119216101221
-0.1921693143157383
0.2378152332750623
-0.275044559426421
0.09279602407849295
-0.2612173609623786
-0.5835971873371074
0.9086236729482624
-0.2165514387693216
-0.5547153601120944
0.08233087924441017
0.08183961842472996
0.06365235549417206
0.06942939390667063
0.06386743705591935
-0.175910345289811
-0.3559061201151241
-0.1427188547230652
0.1668828723924703
-0.04883987418631177
0.1428945726688139
-0.4103140314073855
-0.1857242172298095
-0.2096097277154894
-0.184371114118395
-0.6085486007084026
0.3116096824010431
0.09184505709799561
-1.286670748346506
0.01624490501424904
-0.01190613395795978
-0.3970863131634209
-0.2664982835972286
-0.04831407205309413
0.1414492894833581
-0.3390174824109278
-0.4050606800480508
-0.1003206826729501
-0.5801749995707882
-0.1921061042926487
-0.08264728308698396
-0.3650652930187755
0.3900683121737289
0.1999712248872852
-0.4079239242739739
0.02802161204266513
-0.06913592664008947
0.01109926350736527
-0.04026640790307741
-0.2400934612923311
-0.1269621287955912
-2.008201671823207
-0.185445290936785
-0.3565221740344293
-0.3932429939502113
-0.4844248374722027
0.09024114313773818
-0.3610913626746298
-0.14872969699547
-0.2170003812594518
0.4711795153002766
0.0180729921513154
-0.2368672826830307
-0.02608894269382393
-0.4123223956718918
-0.0585552623249763
0.03202209159858128
0.1723512454637122
-0.3013957444081915
-0.3419376284398407
-0.2660371693812722
-0.3761855179582219
-0.2289129754916724
-0.1326968376760154
0.04426138243265918
-0.1825415351297413
-0.4830932034791122
-0.3250324656441928
-0.3631745028733313
-0.2875926638170467
-0.3195722972682405
-0.3667559858962054
-0.3273635060357075
-0.4777167423779969
-0.1156208318160084
-0.2193656374969834
-0.2963128437951257
-0.9731361689179701
-0.1801109649703634
-0.5782554483663348
0.07666490334391447
-0.2147327614611681
-0.09872845996601351
-0.4960241033395616
0.3298650255816113
-0.06395042161639884
0.02447642964020856
-0.4040117081970438
-0.4199866684592222
-0.05204518823037659
-0.3006402581584439
-0.06959206850662585
-0.3692896780427274
-0.1855584553413434
0.1038933641418814
-0.4106182769906453
-0.2281094957170202
0.2474930611647062
-0.2344667379251815
0.1026150592257705
-0.3647419627446167
0.1658196516752964
-0.7017726833915932
-0.04214530011011596
-0.787476485886922
-0.2513050459072325
-0.3178004511280317
0.2866562145080369
0.7074705127347968
-0.0532517725191199
-0.2796903566591913
-0.3487125282364289
-0.1825200691813299
-0.7315793946003238
-0.1529140492152643
0.00962464167196578
-0.3126757893324869
-0.6442002703537485
-0.3131259591789632
0.2075688479209614
-0.1869566541627063
-0.01679556738191603
-0.1725808524042179
0.01749281061846051
-0.3007836179112833
0.02937433604204668
-0.28136456525479
0.5616943676735187
-0.05929761192369722
-0.08253847166336453
-0.3455265503536771
-0.836223685356923
-0.2458254526051662
-0.68989265902325
0.07957908079961756
-0.5152882578003634
0.6297193405886574
-0.2555139374725106
-0.3698286792203451
-0.3081580126501894
0.02845165437960862
0.2349221604233478
-0.355493855645907
-0.1540522045434637
0.02471603081436596
0.3929766792876435
-0.02980602521657748
0.04732166136344176
0.01962582567248754
0.02155871426949752
-0.07047965444047877
0.004919944787303319
-0.3681733096957724
-0.01412494468351459
1.430253606061368
-0.394856734274502
-0.3178592189694311
-0.278176976629244
-0.4566579295714285
0.004894724658522327
-0.2827541273544107
-0.1982496755584107
0.0559052898975624
-0.2688334702058626
0.2451453357171759
-0.1697823943482093
0.02031995511162435
-0.8952258666613435
-0.8260218681962873
0.08549028353586591
-0.3802481528027638
0.6704307631800116
-0.2084081328161626
-0.4512975151076864
-0.1255440946263388
-0.09193754043121267
-0.09167912810892098
-0.3835487404904984
-0.08873953305031541
-0.4205310208061256
-0.3373795021055332
-0.1464626738237023
0.3287612854069182
0.1020339341378636
-0.3711317435997309
-0.2359443934960603
0.1543950239123348
-0.2900291687500303
0.09768706179093709
-0.4874511913971339
0.1254771980640175
0.1932312518796915
-0.1827398813932856
0.8342772238656547
-0.04241094124297097
0.2882478894573847
-0.3016253181900839
-0.5062443735349504
-0.3276415395453707
0.7651187870290651
-0.1133221032182798
-0.5866997000931218
-0.3813271755682427
0.5872068164974173
-0.2033862120031688
0.01038515352394168
-0.4889993606747938
-0.1891785489590553
-0.3315822807821169
-0.4182907353240576
-0.1287848972746575
-0.3526052866151752
-0.496476031911216
0.521041186761807
-0.2923816309079411
-0.3873859461475565
-0.01029302018116768
-0.2719370549344448
-0.0149653024560544
-0.3889729168668522
-0.05647366192497197
-0.3778193265963847
0.2587759795295001
-0.2850023723668746
-0.1053085297551932
-0.190352345621956
-0.5056527217498206
0.1246517330361508
-0.2650060197607154
-0.5890278866815351
-0.1210094982640228
-0.2871838278264389
-1.546967855714609
0.8986590864415762
-0.3855925150438312
-0.2975832648153538
-0.6793917246358517
-0.009337893704853172
1.59634017511953
-0.7354169285866062
-0.410408652904762
0.09676023453667695
-0.3497699199219321
0.07055954624492142
0.08446245760471401
0.1451451239363297
0.1539963893718338
0.7441785316494047
0.2116676168062183
-0.2520258666252006
-0.2039773590658586
0.08900537916976671
-0.03451227565509594
-0.2435789430644674
-0.4427328527131006
0.107408310136309
0.01633730093673828
-0.244466950813252
-0.04380496789607124
-0.1335728486346921
0.8688359239979955
-0.2494814053452699
0.09795133862057526
0.1406969822093173
-0.0234642848779081
-0.1568829381774172
-0.07071640155274742
0.569332784812718
-0.3046724059368589
0.6593241869759275
-0.4739232966573322
0.7770168527892738
-0.279885986986834
-0.1768822654461875
-0.1480737952451847
-0.143979685067385
-0.134857767046953
0.02479158778653178
0.9287755412199814
-0.3578498039732476
-0.9028925384956209
0.7469004561441516
-0.2306087729801451
0.3785068676312005
0.3881515285447582
0.2588737073491139
-0.6587317572325923
-0.2710349036145757
-0.2714266519408688
-0.2791078870885658
0.48918364636068
-0.5689553064303965
-0.5081952488157234
0.0256146934250303
-2.622409294775847
-0.7067915940999349
-0.1588962940474013
-0.2544279317774481
-2.247832648583192
-2.023670838413255
-2.587002015820806
-0.2408898735022726
-0.08701322956203544
0.4239484891431153
-0.7992847980980109
-0.6908146540511233
-0.1753210076405711
-1.598180356205937
-0.09523333341739844
-0.2381657100471594
-0.09952607700220188
0.1992610361775646
-0.1998220170532326
-0.1788278776900694
0.08692997917372478
0.02183993226634682
-0.4495190552102575
-0.76968626433216
-0.2244916024660168
-0.2512026579180319
0.060396875540055
-0.2419684196584845
-0.2563192967418309
0.09901061223586563
-0.3467610327341613
0.01291751468876084
-0.3381557308755181
0.1261943639214771
0.1047290664826639
-0.7341942898776843
-1.015801781115693
1.15157151123753
-1.267694674677178
-1.717968379507549
0.356513705211738
-0.1665283332128361
0.6233630570410811
0.2857502692304497
-0.3172566397075928
-0.0889775067011097
-0.3501187908707042
-0.7258017907595863
-0.03641368789347133
1.971137726391188
-0.05533215344824948
-0.1352694199835718
1.851953096912205
-0.09826892628226384
0.0456559146520796
0.2678560975171323
-0.2069855919430185
-0.02418142228893323
0.204424023146985
0.8584463122440846
0.2030083101156022
0.2162457465635617
0.1939905988372792
-0.3000541688445873
0.1733886905746345
-0.6076026958445082
-0.3325224931183242
0.0282448305975855
0.02399523313869677
-0.1628445219142972
0.08820804470938896
-0.0251229525111727
-0.02011858490397874
0.1924326083841526
0.1376869936463872
0.2490486858952286
-0.2922365783559234
0.2013247106838787
0.1086311980282544
-0.333207791934774
0.4704902996957719
0.117746174755098
1.066022656860878
0.01577101525647078
2.727541679103684
0.35270087448142
1.43671821312362
2.172368215909458
0.03959301996731615
-0.01499309709136049
0.186977498982306
3.87388712717896
3.67110703579826
-1.048784306159954
3.042048024703599
3.138126264712203
2.876818929527081
0.01510394242789782
0.0104396266538631
-0.6051497809163628
-0.3084164950868696
2.649336135479737
0.03701227742729171
3.322387936040397
-0.3414936127529835
0.04702479124660965
0.04305284702051734
0.04532165027444571
0.04458978948012252
0.08423098166827116
0.08325153899573662
0.09664676389687264
0.09512238061987216
0.1029409802565842
0.3165381205456165
0.0762292169322874
3.476593808829695
-0.3529382221371947
3.223200840927279
0.01489741819102495
2.487031624806816
0.3200106781233302
-0.5472409426365288
0.3210789362628657
-0.9128893392424822
-0.3893584878512537
-2.330372318269946
0.1672489502788347
0.3597137046825092
-0.002393893371822998
0.335450052689527
0.2938310927555568
-0.1258646803278532
0.08145702069236206
0.09435937058699842
-8.742260768333161
0.1143348351663204
0.1990134035262961
0.2261335775337444
0.1102444339942148
-1.810797199532246
0.03415580954755344
-2.609363523700803
-0.1257694128949545
-0.3319551580025273
-1.679929361976613
-2.028318226851721
-0.1077176355010737
0.255816444567071
0.342774672434093
-0.001210736145546298
-0.2948049658869383
0.2996281002863974
-0.009338575541058568
0.1861891557625222
0.2070773902316468
-0.8523254533023626
-0.0683547512898577
0.9054173065972039
0.06507622960604478
0.05909174772450036
0.7858043630890875
0.8872115034007964
0.1777843947651011
-0.6511644908114863
-0.1777420639038558
-0.01534157065478882
0.8857535522254817
-0.5861242011861079
0.04164882277356923
0.9123254913168852
0.05037458979057665
0.9429841271419133
0.03078868040043437
0.04973389379903903
0.5070088855177672
-0.1134816471832243
0.08251920667927422
-0.163749942242252
0.3051545392237397
-0.1080367198444838
-0.3217839775656416
0.8230039025622835
0.2038294595934525
-0.1138854981145208
-0.07885087264196045
-0.5334113258579478
-0.06643846451045621
0.0639221585048559
0.2305519520084583
0.1441025078143456
-0.1751797699304394
-0.008536021119054518
0.1462799194471585
0.1520498997124236
0.3117445554543912
0.1094141775659651
0.4585020719768432
-0.4526235931813978
-0.5013653027966365
-0.1638846275886657
-0.3534397943331465
-0.6831156102283502
-0.7250409803367133
-0.3933688163589615
-0.2424574868535423
0.05440727640426144
-0.5141198363889198
0.1452754493020182
-0.7532166269943278
-0.9736952695277574
-1.045754653583181
-0.1161064006359406
0.08012707284615922
1.836948213080696
-0.3895922029811694
-0.0717764445261711
-0.2456083483351571
-0.0373255895397156
0.05477589065554708
0.01000103138126105
-0.3121999280068377
-0.2584104797491092
-0.424614113877561
0.1633444850828048
1.553236829306992
0.01391367117551096
-0.01385897567400121
-0.03811296869415476
-0.1267809666674857
-0.02916614484950808
0.01883400812307907
0.02346682186252034
-0.8774594707483514
0.1046975345920968
0.4197281341338622
0.5851668576496852
-0.1849345031929865
-0.03167993132083704
-0.7247922558352716
-0.1687047860420888
0.1058342265890296
0.1160037125785745
0.7516607529863565
-0.01307136435595682
2.374366471224733e-06
-0.05889356766959602
3.169524697634983
-0.09990105877527723
-0.006038647687321196
0.153309275873291
0.5685031675639596
0.2304033842350161
-0.07759999729661397
-0.1310383564541062
-0.195919486433994
-0.2774788949973389
0.3234099455790305
9.122435384573008
-0.06843938692959167
0.3792035612459371
1.523322227241428
3.163662348355133
0.355082367071819
0.3358756723372711
0.8525592124066316
-0.09588143177785538
0.09522783017457434
-0.07465926518497353
-0.1172555213401138
-0.2560795038431294
0.1824913780064387
-1.175975278584809
-0.07251991829785265
5.891563563180653
0.01617753558186787
0.3262539724849384
-0.2400880056678836
0.08229418444555371
0.2592849043003195
-0.02709325992822522
-0.03593918966589847
8.378039470316432
1.39201244277443
0.2211458413921034
0.04369334006528344
-0.2204983069069897
0.3709839569361895
0.2829267946709361
0.04019397591479099
0.9877625809326752
-0.1117220718496194
-0.2605447717960296
-0.2170446329960025
3.724261017209609
0.1302133313382837
1.219778255470396
-0.1836263412571637
0.08132457735813024
-1.115093834507793
-0.08472851946155671
-0.1030829594158254
0.6805603594687212
-0.1437202730512622
0.3723780407175427
0.1278430396514611
0.02287649914090458
0.3605461022282845
-1.557777506073464
-0.1665144788705065
-0.131434304979349
-0.04017245605950853
-2.179821083489037
0.1006527581809494
0.001563334988838457
-1.707578551052383
-1.481444329531161
0.56950132439613
0.2330847132846935
0.1312401126595656
-0.1876337656359669
0.1738473063783084
0.1187838212179446
-0.09707198933003161
0.2191690510640621
0.7578742901796364
-0.8700841334581217
0.2123497642390302
3.664756830445159
-0.1188157955816057
-0.1771565798039159
-0.2123326174213634
-0.2307501833215878
0.2817720356982883
-0.2321158980794945
4.056754409396746
-0.6715519562068377
-0.04185084530467634
-0.0530386539668797
-0.1993776435984959
-0.1161728647512732
-0.0009707643023075392
-0.1240695931973971
0.7339971606837539
-0.1629706935029057
-0.0305546038195749
-0.1339348134374042
1.058201841170466
0.1069047446562413
-0.01182504582875374
-0.09709109814519633
-0.03262121579655151
0.164252183248166
0.05700071257292447
-0.06682359319913594
0.04557410778865027
0.08386218185859866
0.1850344971500978
0.04407107090575305
0.03188101268742156
0.162123761090481
1.681343098578354
0.241624428839491
-0.4018182791333661
-0.2465336316436023
-0.1163707930395638
-0.2463856254553911
-0.1413576208464495
-0.09192111849009754
-0.1613779234266139
-0.6990351670693065
-0.1593534887981041
0.06157662375124511
-0.1522649382690694
-0.1011490435824919
-0.3446556361845955
0.07623911956981402
-0.23530099464042
-0.0280395243900149
-3.393060204251015
-0.5425367883868547
-0.1581480342979583
0.00634833492292377
-0.05321040636361179
-0.165923486239261
0.1865650167141915
0.3571355638589574
-0.1499372502163419
0.08771372199488159
-0.01764503998167746
-0.01208760832464881
-0.08057306401085938
0.1414222210214001
0.1880196259003154
-0.1840852032037269
0.3121194537117287
-0.3112125026848685
0.0804468049591896
0.1892492049935253
0.04039182787521143
0.05290020649434758
-0.1307527934736177
0.02823555664317602
-0.09172612441539063
-0.04144545977508809
-0.1244862662280748
0.1212134574260309
-0.01968959167752187
-0.1666257653543867
-0.009050595760266242
-0.2099192772460001
-0.1323370056528339
0.1822357803020133
0.7901658307806633
-0.2241949281285666
0.1155738453204973
0.1427708636161751
-0.03253141859808167
-0.1375225197942999
-0.3511767126599103
-0.2949739027627661
-0.0649427246628569
0.1346504421670468
0.1129723328185493
-0.1626225969623252
0.08748431845470911
-0.09250919534686375
0.006703655383811537
0.1942114793298627
-0.07748588893714731
-0.3812527866070388
0.2663220491990801
-0.3904485941346742
0.3108521288646487
-0.02680829018985522
-0.08346561799797905
-0.05627909400438943
0.37073973963266
0.04591498420607446
0.02158154018534039
0.06841747065509785
-0.08676488280783834
0.1821635105148199
-1.609962003524599
0.03584173212729252
0.5506592649696728
0.0005778598332687576
-1.835688312867932
0.6843045853281577
0.1423332556027081
-0.1221102642566901
0.05052963269538872
0.05179600776078998
-0.304952868091723
-0.333302316064066
-0.4818733521409715
0.01381172520155063
0.1267941377499175
-0.1026772010728041
-0.3405849320314771
-0.3240061014055092
-0.3463334589983585
-0.04478006200437474
-0.5384437895268208
-0.004356050774289954
0.07653448490467987
0.09543215547156844
0.01076028280543522
-0.3474163730953887
-0.7136292286625672
-0.04916267289697856
-0.6885038680835899
0.577709258534972
-0.03955704651922861
-0.1827300278879295
0.11765363168514
-0.3696758929551601
0.05438345721199413
0.7983365891595596
0.06893907512318548
0.2431799978655398
-0.005881849033447311
-0.1459705101425597
0.118246343048747
1.812778083964594
0.0076370698803272
0.08252763657879474
-0.150750738024803
-0.03044863155758028
0.05533113596660164
0.07210706229558143
-0.01241857826098712
-0.04761969800508449
-0.03255456827503192
-0.168046595967908
1.187710918630938
-0.2486983314262964
-0.03994719701218287
0.1062446702508417
-0.1346570961278435