/*--------------------------------*- C++ -*----------------------------------*\
| =========                 |                                                 |
| \\      /  F ield         | OpenFOAM: The Open Source CFD Toolbox           |
|  \\    /   O peration     | Version:  v1906                                 |
|   \\  /    A nd           | Web:      www.OpenFOAM.com                      |
|    \\/     M anipulation  |                                                 |
\*---------------------------------------------------------------------------*/
FoamFile
{
    version     2.0;
    format      ascii;
    class       surfaceScalarField;
    location    "0.2";
    object      phi;
}
// * * * * * * * * * * * * * * * * * * * * * * * * * * * * * * * * * * * * * //

dimensions      [0 3 -1 0 0 0 0];
oriented        oriented;


internalField   nonuniform List<scalar> 
37423
(
-0.1098590174030286
0.4260084531999866
-0.4539948687793373
0.1378454329828782
10.96058957103691
4.819668597291508
-15.78025816830752
1.581840903752685
2.854562687734117
-1.480903060838378
-2.955500530655972
0.6512677903496077
-1.214269424927412
0.5630016345539194
0.1178228264152358
-0.164857073856679
0.02860293333507246
0.01843131410206499
0.04651282702487974
0.1448380347807556
0.3022264064074093
-0.4935772682268618
9.164401304827233
-4.658233424860289
-10.85691282592957
6.350744945961348
-0.08372299779757156
0.09345704541109712
-0.00959142562526568
-0.0001426219953604132
-0.2187019629638009
-0.01737424213945986
0.4611499205680062
-0.225073715471445
8.633230591559618
0.6851545532270378
-0.4787280941960545
-1.401755473207247
0.4501457272172614
1.430337840179667
0.2980706773475834
-0.5475060171619726
0.7625523723881893
-0.5131170326000323
-1.123392965149749
1.406874055322685
-0.2834810901816599
-0.4540575631592728
0.4893020848880493
0.6003666181242511
-0.6356111398749408
-16.27845760994246
8.93424437695079
-0.06261034128436814
-8.169048990602459e-05
-0.1177966179099939
0.1804886496787633
-0.4659861189164619
0.8086101545548312
-0.04455335830316357
0.2094430069597646
0.04877390510829029
-0.1807345240326862
-0.07748238804481519
0.1196405085205552
0.01625580980506078
-0.007677409322568864
-0.128218909009216
-0.0263065913970701
0.06888150015210105
0.0345945360884362
-0.07716944484958697
-0.2153139827969003
0.3816887315361271
-0.4252545748869521
0.2588798261432487
0.4080588664873137
0.6677087163050233
-0.2606378218597046
-0.8151297609513319
-0.1214208246771561
0.1299185974097739
-0.1124249322248495
0.103927159485482
14.79158262221715
-17.66818184642654
-6.363806885046424
9.240406109305992
0.5825067156287561
-0.06720450699836585
0.09108575068354012
-0.6063879593163758
-20.49631070244727
9.38435455560049
11.11195614684971
-0.1815140863910354
0.1324369669707038
-0.4169089995075356
0.1085924911360396
-0.114466000495004
-0.2165957318577947
0.2224692412115822
0.1705060127217023
0.01352647411889188
-0.1819913973473068
-0.002041089502273822
-4.258199445716913
-22.43936453508034
2.751958252778361
23.94560572809048
0.2103012338400427
0.3964469325066156
-0.1517732087610733
-0.4549749575950359
-0.08015921953832987
0.6985193198616694
-0.01634130971371629
0.1084459514055308
-0.1063203060850963
0.01421566438747789
0.06244945502719968
-0.6360096755069957
0.3316411929287469
0.2419190275373227
-0.02237783388933606
0.06315743315686238
0.09334205336190322
-0.1341216526399083
-0.04601793304678204
0.01592037622820968
0.1215964337638447
-0.09149887695003614
0.2749522059789404
21.66535258839039
-19.61239948838583
-2.327905305980301
1.16947349183645
-10.38759065753313
9.350851671066231
-0.1327345053295743
-0.02435785367208605
-0.04473918520017547
-0.1018515885341152
0.1709486274005811
1.632323568454379
-5.716582561923937
2.364860685373514
1.719398308064008
-0.1474826180691493
0.007704575785083099
0.1641862544140819
-0.02440821213413477
0.5529585130661842
-0.7025368236501001
0.1945647560832746
-0.04498644550466492
-20.99385868972911
3.666703908632257
7.165708513087532
10.16144626803412
-0.2194518969922328
-0.9253483418041669
0.9970429093371295
0.1477573294307295
0.3997693920151646
0.002200369322173461
-0.5458997510477731
0.1439299897105779
0.06274187435006633
0.6751718575262108
-0.06447971051824732
-0.6734340213750263
-3.603568022259678
-21.7054352377128
22.59320515931429
2.71579810066318
-0.9448632196749237
-0.6804638131405408
0.1795925340743951
1.445734498739552
0.5150283012787773
0.2473549258384738
-0.5167663860389126
-0.2456168410844861
0.4195965131504111
-0.1844059385930151
0.3675772118558037
-0.6027677864220308
-1.048761641089641
-9.920035067564626
10.96879670870083
-0.6711712067258335
-2.832461592141285
1.163084761869019
2.340548036899514
-0.2451536380635749
0.5845909316731216
0.03021276949780431
0.2068343732355127
0.04567917035587214
-0.2827263130982905
-0.1321955886946583
0.04219990633404583
0.1109061990372482
-0.02091051668147418
-0.5345761399978174
-0.09703160526940083
0.108160265385971
0.5234474798560362
-0.09295715335364814
0.5873374836635585
-0.8603103341641692
0.3659300038437607
0.2615954380388766
-0.07570001828503858
-0.01682872194693671
0.008194474865882788
0.08433426536281532
-3.216726730048305
-0.5592342779130302
-3.05719855637104
7.244990813231522
0.06771047103184719
0.05234715637792443
-0.0435535649563515
-0.07650406245726335
-0.009068162051995936
-0.1032266317996092
-0.005171161001293213
0.1174659548497313
0.3875596575507047
-0.3767115069162535
-0.1327056021735359
0.1218574515275025
-0.3127091364503159
-0.1602555430175496
1.140673395755571
0.03123265413740315
-0.1294652561569989
0.01257840201621137
0.08565419999620928
0.1150648353287635
-0.2967971089918351
-0.1582129702614027
0.3399452439179281
0.3358462879244389
-0.7808900483883877
0.2155622908460369
0.3703344672356991
-1.148592535507203
0.5626957774127413
-8.53711207528853
3.96575210005085
-4.771945910928634
0.09098564383678294
-0.05605428072885245
0.01654451437717485
-0.05147587749357543
-2.396178840344046
1.031748094979339
1.105736318911364
0.2586944264386686
-0.5250051569470039
0.5302412267588897
0.09120785614077467
-0.09644392596758181
0.01413243846055636
-0.2775742262212982
-0.3620223266681812
0.6254641144261772
0.1147247825996278
0.07564747314710184
-0.1508766606646375
-0.03949559509040047
1.675767932744407
2.979940949969668
-0.9524936201642445
-3.703215262604163
-0.008275178669756965
-0.3973195878068904
0.7143664704550511
-0.3087717040056069
0.6764485257721069
-2.029600891369837
0.4038312380037584
0.9493211275750669
-0.04602664229370378
0.02573810191155139
0.02028854037848322
13.83388946616308
-1.121257213735915
4.761492835855491
-17.47412508825367
0.7317530009687644
0.07313733751002208
-0.006469331844840543
-0.798421006642353
-0.1814572196712379
-0.534792909792688
0.03141488256863861
0.6848352468858618
0.334336096255748
-0.1525571809214992
0.09354974225911739
-0.275328657604011
0.00619525058809121
0.1663177892220916
-0.14352484844885
-0.02898819136745781
0.06308843539005192
0.03920568151864639
-0.1022941169123869
-0.08169467215613745
-0.5226320269467645
0.3591730610386281
0.06898160397794378
-0.0450949518630449
-0.1089867745138602
0.08510012239300783
-0.1013221784138163
0.09845572034543111
0.002866458063285775
0.05893176753827866
0.4304980187144425
-0.0605293938800796
-0.4289003923809097
0.07743414976458229
-0.03624871238231615
0.1690685728955708
-0.2102540102820957
-0.1174629509797831
-0.227209087175735
0.4597368734801589
0.2915924826272039
-0.01260850110700156
-0.03388372747075546
-0.4557691086965467
0.5328980305167039
-0.04324519435892048
0.161089101848165
-0.01539111640495415
-0.1691531329765198
0.0234551475225696
0.03062193182193464
0.06958322234131613
-0.03673179436337518
-0.06347335980519912
-0.1037998450852158
0.5062762624773849
-2.063274901342508
1.660798483929872
-0.8731224623040632
0.7668406071357987
-0.1325174500177921
-0.145021072246187
0.199830429200291
0.4222931911544906
-1.173950342989206
0.5518267226219161
0.4651066455396454
0.01950094000362654
0.08593774241715008
-0.07810449906184457
-0.02733418336463859
0.0659341154437528
0.07064307521078915
-0.246835443654597
0.1102582529937494
-0.6216123224005584
0.5862925776049727
0.2354155262538422
-0.2000957814645019
0.1105220549671499
-0.04972759357348876
-0.1435081152977517
0.08271365389843044
0.1096110756070195
-0.08905874881227933
0.5241593182625318
-0.5447116450621067
0.05725487558396983
-0.08161826547984602
0.1372935937765545
-0.1129302038869667
-0.099674116537214
-0.1495701160059459
0.37535496671741
-0.1261107341733619
-0.3228058218631671
0.4688145038677271
-0.2456827985402706
-0.03801137907474373
-0.0504664689703607
0.1840650461676483
-0.09558719812775097
0.1227866673237236
-0.04833749072190476
0.08493007768188793
-0.1593792542910413
0.09707647989713478
0.004241406242499694
0.0007338146603284351
-0.1020517008039543
-0.07070855692845586
0.03127539437207248
0.1335214010916142
-0.09408823854628226
0.434277422103687
-0.5651579354887065
0.1074093597652726
0.02347115361624135
-0.428953779240448
0.6549848274283486
-0.2283765920895774
0.002345543892743204
0.0712171910569587
-0.2298489838949804
-0.205925602798964
0.3645573956306219
0.05865089863298795
-0.04463595435291185
0.1219204354474716
-0.1359353797322972
0.6127181777136899
-0.3569584097607342
0.2866290934849119
-0.5423888614546081
0.09866798709757417
-0.08498738808486032
-0.02462202947379368
0.01094143045592035
0.1124434330211967
0.317473792688993
0.03518941981906935
0.4533542154559092
0.1893304443183335
0.6934016286432231
-0.1145671784119383
0.2159417950822388
0.7801010011948312
-0.3026411676440744
-0.2656673150542653
0.1847976214720702
0.206550008465444
-0.1256803148896888
-0.5243688656937127
1.295094635047174
-0.5596086308592154
-0.8957415472152004
-0.03084674798518985
0.08682385380123979
-0.0209876090989413
-0.03498949672243247
-0.1363381642033091
-0.519369537154597
0.3617811638275706
0.2939265374997477
-3.182102953209479
-2.978669444944707
3.794589697089696
2.366182701093502
0.35119127109799
-0.3226096414265912
-0.6443866420810311
0.6158050123898238
1.816267760689232
-0.3964285191707634
0.4706080031675908
-1.89044724468584
0.3539520806681362
-0.528663997066482
0.2371613714160468
-0.04715836424033345
0.3363373878485985
-0.5427849737420267
0.2536059501287471
0.2357903368683258
-0.2288956787612524
0.1075613014563093
-0.1144559595719972
-0.1287877640368743
0.0391037742793441
0.3164034936080116
-0.2267195038580485
-0.08038336221449602
0.01126295035031714
0.0729963936040291
-0.003875981744492068
-0.2675429354674053
0.01861758290016956
-0.01643370773034744
0.2653590602907617
-0.07874592405777341
-0.5042226063877804
-0.01209119961686772
0.595059730051648
-0.2539578340860351
0.1682136475841801
0.08574418649875064
0.2226830729373201
0.02865063087096288
-0.168712519030904
-0.08262118478817723
-0.03265264149392885
-0.1676618409257652
0.2379590862393815
-0.03764460382584538
0.2110240376139548
0.06950416819926677
-0.09454831059363493
-0.1859798952262668
0.3497854062604518
0.2261966471294121
-0.7798570221319066
0.2038749687297842
13.68579279422864
-9.168123089776948
-22.54926487446539
18.03159517003924
-0.5732015277794944
0.02032245286596937
0.6110947652524787
-0.05821569035162799
0.1245102322106689
0.04248991218473364
-0.004336629688782617
-0.1626635147166781
-0.07267369667042993
-0.528322094056633
0.6077707501236795
-0.006774959402393371
-6.781074693223427
-5.397988915442538
-17.39641880466904
29.57548241339943
-7.672549053580906
10.95724610638355
4.230318817832512
-7.515015870657099
0.1242905771629673
-0.1104742266098069
0.06673262383458696
-0.08054897439370129
-0.4656457036958935
0.2321778227791844
0.08001796115447006
0.5336633835500542
-0.09961433628576878
-0.5140670084289762
0.230323942255733
-0.1179605043474616
-0.2619335539172979
-0.2905963676730677
0.5040877127533804
0.421250203921428
-0.6347415490200192
0.01354479441755113
-0.1387773079437588
-0.4473558658598006
0.7525805479276954
-0.1664473741358538
-13.63535365866223
6.126872533572371
1.084118857816132
6.424362267301556
0.08847611154301505
-0.007063465645720923
0.1630213920352394
-0.2444340379396156
0.1147694570364075
-0.09781768300889214
-0.01695177403170254
0.1433894288886786
-7.581116904782983
7.437727475936009
0.3882295658917831
-0.3628419121816499
0.4752306716971343
-0.5006183254148674
-11.16015296243242
10.56550962802728
10.6930284575177
-0.04340167426292733
0.5228390962941354
-0.08773840917139396
0.08532351592763161
18.10345008423297
-18.02626772674035
-0.07718235747731365
11.89658913912556
-23.06470830171056
11.16811916258555
0.8859465753643713
-0.1371067497695274
-1.543198148786205
-0.09314347499197462
0.1645934361539956
0.01375244511173317
-0.08520240627784205
-0.1131361774758374
0.182432489791007
0.2258668663564358
-0.2951631786728281
0.4655293915250179
-0.436625925901823
-0.1936601904321256
0.1647567248025063
-0.131778439054989
0.5416606364199903
0.4290515586056042
0.09646817421632967
0.06181775083497783
0.4855758671540666
-0.6004052621043474
0.01838546897215638
-0.3058072596811581
0.1045724661995958
0.08327428913219347
-0.5372864806128396
0.8874762199118739
20.84305110492463
4.71885201488081
-26.44937933973262
-0.5737732132705902
-0.214678312290241
0.4942216012750487
-0.3976313499048746
-0.143101776611771
0.0465115252344609
-0.0462842088534408
0.2237331009814254
0.03025416087276303
-0.2077030530048493
0.3322500148592303
-2.639008379292788
-9.539588995080218
8.961870644361959
-10.46577097194536
6.269164153243566
1.557598439434529
19.71063453227699
-9.48299970867091
-10.22763482360136
1.090046438148151
12.40310086434758
-12.80799274924474
-13.7001729141763
5.836418974724037
21.19786771217247
-13.33411377272275
12.53784105041692
-11.55517291880333
8.592032383583923
-9.574700515206809
1.150013187909869
-0.6077983122323668
-0.2555857822141689
-0.4824439635441887
0.5763636896387768
-0.1373214003611257
-27.48062480386321
10.19850450680396
17.27891899192451
-0.01843075917637366
-0.132669989718614
0.1891692341209225
-0.03806848523464369
15.953893849009
6.719956332729828
-38.28989125416455
15.61604107241848
-0.05579322144409127
-0.5981375088261408
0.0511629438453916
0.03089272982816027
-0.1519405728668974
0.0551602739698606
0.06588756906117599
0.004081467238106358
-1.662659229055031
-1.962053847955741
3.936627193854022
-0.3119141168729652
1.852061065564765
-1.201164260369371
-0.1077162433774759
-0.5431805618338151
1.39365984456987
0.09298732162208315
0.4857114515909657
-1.97235861780415
-1.13347130619102
0.131682683233296
0.1765124264123907
0.8252761965105747
-0.09802529669890658
-4.707695173971654
-5.200265083732957
7.353508693497166
2.554451564190597
0.7308256817359366
0.1809580026833941
19.38684619387312
-20.84579451685
-12.24122459122021
-0.1676377779187876
0.4516682642734707
-0.5120108137218349
-0.2822398771635367
0.2748811537119442
-0.3850695812126732
-10.15987192111571
21.67266508567501
-11.51279316454459
0.760790094884083
-0.58268988692065
-0.7024690736728409
3.879208192777525
-0.004988349540371791
-8.581915017219886
0.06615897588954389
-0.03270845542696391
0.04862927051276968
-0.04861993129786027
0.0326991162096232
-13.80645725256813
14.87523287972287
-0.1927938555745801
-0.0148346352725714
-0.0388863923730428
0.2465148832097944
-0.2465652662541453
0.01587781120520003
0.3204531199940563
-0.08976566495120245
-2.75987979922596
3.543528946078802
7.196927798641498
-8.781864370950174
-3.187009338606838
3.921333620844494
-10.11072384909249
3.429510429046844
-0.03885919208388718
0.03753707400625655
-0.1079941832572954
-25.23381495582155
0.007648956911257227
-0.009416131191177818
25.23558213013127
1.856114547274671
-7.993406205227982
1.923389972197823
4.213901685679438
1.902930949765244
-0.3980530542780885
-2.94498014625893
1.440102250747114
-8.728208814384072
3.889707587225564
36.30887783605407
-2.95536046632664
-8.4509532353471
8.135105733291933
-0.7824585539861987
0.05677295214290029
-0.05838051099872234
0.7840661128322639
-0.05396833154919364
-0.2750823305871554
-0.1387936588565383
0.4678443209772797
-0.3542441709986804
0.1712121089290011
0.04298175033541381
0.1400503117215231
0.07668763345961867
-0.07049238287570909
0.05839171686168639
-0.0546432788104353
0.2251345897346265
-0.2288830277935772
-6.559192185279385
6.564762896794234
-2.942207679273082
2.936636967724696
0.0003408383191851709
0.0005230195312628676
-0.0008638578509503349
0.0003408383189219234
0.003012881004634043
-0.01817817557783757
-0.1769305736063269
0.1040346851583887
-0.0216199059950392
0.09197703009840878
-0.1743918092685833
-0.1824912815991471
-0.3157089908559511
0.4474249851436187
0.05077528730399417
0.4186776291661211
-0.5342373259439889
0.03822961168713683
0.07733008508769881
0.1763754356961794
-0.2678610245553721
-0.09500426826981051
0.186489857121547
-19.62612889546999
-7.857568433977799
-0.06800319410937256
0.1866750983123608
0.006495806474134691
-0.1251677106843708
12.97608130604556
3.740114296415561
3.380852054933706
0.02036386264149732
-0.3539959206737394
0.04104397253686544
0.2925880854859157
15.45964626869603
-14.0365843251123
-9.724203445550682
8.30114150196831
37.62714039385683
-19.54399904591459
8.108379081808652
-26.19152042974729
5.262823530595682
14.72764275444856
-1.461535077980115
-18.52893120705519
19.63046795553006
2.831120313916253
10.95829398645141
-22.85915103773597
11.90085705127583
35.2098289515485
4.953010758946955
0.6019190237155337
-40.76475873415556
-0.07557397279384216
0.1369107552232502
-0.2508999602588358
0.1895631778202464
0.1945716901203647
-0.1451968705586185
-0.6176964252412009
0.5683216056792061
-0.1556861679492589
0.3044601149192383
0.07612801883228637
-0.2249019658127746
-0.06604730301773949
-0.005813215043334142
0.09726043526941226
-0.02539991721031644
-0.1293427851022453
2.011393109564071
-0.3783849834016298
-1.503665341073678
0.2823520746734742
-0.5203371875168079
0.2028479194827447
0.03513719335823681
12.31332122811245
-5.719067775454864
-6.59425345264316
-0.2369084575202124
0.123699970199098
-0.04510088056370066
0.1583093678792456
-0.3524640276911562
0.4963656946630147
-0.2122112714285746
0.06830960444914841
0.1852904579721284
-0.1268987411131422
-0.1036604704222565
0.02390722119177384
0.07975324922781613
0.6644949633304964
0.4973355084049891
-0.5202152762167835
-0.6416151955503013
1.932752977350768
0.3828112913863754
-1.086110215451495
-1.229454053313882
-0.1367388211684127
0.1053782039185564
-0.1007333308865808
0.1320939481296014
-0.05557654405541385
-0.1404853202761115
0.09192142821059431
0.1041404361148007
-0.8540601722125447
-0.7321008065773333
1.731493263600834
-0.1453322848251666
0.3635241834833211
-3.851947575346085
3.319720181929927
0.1687032098937354
-0.8425325635856147
3.412166214681283
-2.607262958573322
0.03762930745999815
-0.4747318643775464
0.2394308490422454
0.304679095213726
-0.06937807988816352
0.1761614963882896
-0.3136460078922855
0.5143946957159835
-0.3769101842222284
-0.1073817884830208
0.1162550301205614
-0.008873241642478198
0.1321846781881062
0.1811579120294291
-0.3133425902189916
-0.1116520958182925
0.0005100079219198317
0.1192772778666531
-0.008135189974869117
-0.05801832692876725
-0.09475936391839064
-0.1068586097130393
0.2596363005489274
-0.1152165660855487
0.1463518524518631
0.2383300146309041
-0.2694653010034598
21.17626937779206
-13.62100597997127
-13.98095560454081
6.425692206742803
-0.01853019402395154
-0.07865453007842066
0.000387591104157281
0.09679713299295462
-0.05523711547792437
0.06960561284285376
-0.01436849736656765
1.979378849215894
-2.5733370504734
14.62834662890725
-7.029515068388966
-7.598831560501027
0.05728932111976687
-0.1456435213063602
0.006686503482224524
0.08166769669837345
-0.02020464537212672
-30.38188384663291
0.001347645429767729
30.40074084659438
0.1166022665460148
-0.07255042703685961
0.2193974649165593
-0.2634493044316731
-0.04801609345091608
-0.02634680894160418
0.0675903139913988
0.00677258839686662
0.05706850036843045
0.6314807465510706
-0.2525395524709134
-0.4360096944660086
-0.08432613697552618
0.001205037591175855
0.08312109937968062
0.01531518490503903
-0.01650518758183864
0.08759307485925509
-0.08640307218665601
-0.016221901907177
0.07558430558227802
-0.03647917331782358
-0.02288323036245256
0.08581322975600678
-0.05538449215330786
-0.03042873760620565
-0.007001654209210528
0.1112649735202214
-0.1042633193147256
-0.1274360681026352
0.5673634347581343
-0.4169092366727627
-0.02301812999318224
-0.01379635291317297
0.1043613962201792
-0.1089160156938717
0.01835097238054178
0.08522562426630841
-0.421038543179711
0.4123619892294976
-0.07654907033243169
1.268132997971117
0.5092198034601192
4.219692514472838
-5.99704531592071
-0.2814014148521808
0.1364771250522124
0.04445454704336837
0.1004697427497372
0.1121752403182969
-0.003057503078056975
-0.1091177372463343
-0.01497751696487347
0.1537326969024378
-0.6251086299599788
0.4863534500098066
16.49351584117126
-21.12319245473647
-0.07545983092574512
0.1497721882174911
-0.006257243919895769
-0.06805511337702953
-0.5423930725516848
-0.03220201888438328
0.57459509141195
1.579786261289639
0.6146089221866582
-2.272719617107706
0.07832443363512397
0.8428521332236162
-0.05595194060598566
-0.6991246389588015
-0.08777555366709504
-0.2611673821709647
0.3172848640588482
0.08808443341350478
-0.1442019153104814
-0.0244818665205147
0.4173640606665526
-0.4305833464872779
0.03770115232918612
0.1309560672020645
-0.2883216118539382
0.1622111790285796
-0.004845634381857146
9.908697501366673
9.896766971912701
0.04833697058378695
-0.4539711434126798
0.07002790112155231
0.3356062717000566
-0.2219132759438628
-0.4401774794317486
0.5885261811429147
0.07356457422989526
0.01991262094390151
-0.2124416078530791
-0.02301700344022845
0.215545990342989
-0.2769841184749455
0.007986157673406397
-0.007691520883620882
0.2766894816778754
1.427293224522692
-0.5623989737038123
-1.672044969489892
0.8071507186497096
-0.02382962545164281
0.1232856254523686
-0.1080518336183393
0.008595833608556584
-0.01591063366947272
0.0244162099036319
-0.1016461123466667
0.09314053610907459
16.13179291914043
-23.66307361425685
-3.143233193051373
6.294010978077715
23.03952931928812
-1.386207460609928
-0.1767814371637491
2.169434591552895
-0.6064456937908157
0.1710350699502432
-0.2694702594091222
-0.2442169712067537
0.3426521606604715
-0.1223469206407318
0.02482216394541158
0.04682252228425364
0.05070223440588892
-0.1240276716005767
0.001963811098600923
0.105921309360099
0.01614255113876828
-0.1363008408149511
0.1788827727542085
-0.06693978561760267
0.4830043950374657
-0.1894270713177177
-0.3939694039361495
0.100392080207487
3.252717928204626
24.67486835732159
0.08632892613662463
-0.04593485986310773
-0.2387716309380978
0.1983775646563848
0.005587731054788849
0.3840999872045574
0.07889845229339761
-0.4685861705628371
-0.5622205188295378
0.0679625071426721
0.08061160852923703
0.4136464031475145
-0.513486514520516
0.05025908116202382
0.2542551315617311
-0.6180740253182536
-0.04244618635875248
0.7026975297678872
-0.04217731812453928
-0.01803727486717722
-0.2534430982429172
0.7427925707376212
-0.4713121976460332
-1.814519847472825
0.1071905169061669
1.707329330565583
18.58710639478457
-7.361727170161431
1.750702081418394
0.1566995476811642
-0.2709578510551149
0.04869668287215794
0.06556162048999203
9.016677098309625
-32.49964370555378
32.20751481726451
0.06574926567828063
0.1128421734029872
-0.1126573236418549
-0.0426443742026936
0.1640068169738108
-0.002076517505392307
-0.1192859252711541
0.05988494670299311
0.03649721916188444
0.04663571157970333
-0.1430178774491867
0.03934747683981546
0.259689878673068
-0.08334686126164771
-0.2156904942582232
0.422123848261496
-0.2995146404791222
-0.5129725203774801
0.3903633125840905
0.09359620648040617
-0.0320144663383112
-0.1001149005106339
0.03853316036494329
0.4805943920085102
-1.104799566871453
0.253926909684423
0.3702782651562471
-0.1002672659942111
0.06089948283169488
-0.03609204776605618
-0.07466538507442204
0.06129373952437353
-0.1249346942408867
0.1383063397881133
24.09807044804207
-12.9289021782213
-20.7531884318749
9.584020162059923
0.2148847364813983
-0.1938056711199125
-0.02107906536577599
-0.3170860753887357
-0.03620225874410151
0.4528439548352525
-0.09955562070739021
-11.60666619833956
14.86981311785176
-2.144045663545718
-1.11910125599749
-0.02307604108089082
0.1224885465432396
0.0181583334189358
-0.1175708388855177
0.06345528012224691
-0.1877922346232709
0.107980691432426
0.01635626306331153
-1.287470553332298
0.9666871949184012
0.4433119609085914
-0.1225286025031391
-0.02857925017182705
-0.2245631534615541
0.224880830543646
0.02826157308354876
-0.8404806396240747
-0.6219475894588684
0.8546299168405859
-0.977639096222642
0.2158502091477819
2.544628480738778
-1.782839593658183
6.930803288976454
-17.35662940085297
12.40518268329281
-1.979356571342648
-0.1108879231299689
-0.5241986133142704
0.7442538686531184
-0.1091673322070776
1.573758194140555
18.28668213289464
-23.46400834930511
-0.05372252164823053
0.112199044424803
-0.04498190756173125
-0.01349461522032459
-0.5149245262932211
0.3199805082246842
0.2285132247617436
-0.03356920670190573
0.4969403200583131
-2.143509772128744
0.6853326237660526
0.2371205049006291
0.07649607591696092
-0.2042703418428183
-0.1093462389828514
0.4916308703876404
-0.04277987806229724
-0.4863331402625445
0.03748214793833419
-0.09492140431947205
-0.4066764188070135
0.3255783490981813
0.1760194740200846
-1.799648533353625
1.681025502750622
0.1186230305969307
0.1353019047235474
-0.1367417501751585
0.01821095811003235
-0.01677111266598873
0.01059049784516711
0.1170813159504522
-0.1108412418364847
-0.01683057196606937
0.01241902361642178
0.01551552706946278
0.1188952366358239
-0.1468297873272158
-0.02356927665098864
-0.08808601373475358
-0.0674395555567414
-0.00338826543633802
-0.3230870834693096
0.06725529339995384
0.2592200555004701
-0.1455911686389305
0.07937994423115385
0.1114692819104081
-0.04525805750831256
-0.2349220132268673
0.1310939505049036
0.2344549068399011
-0.1306268441299205
-0.5954159002103178
0.7170825044778482
-0.04531116729126394
-0.07635543701221174
-0.01156866168620924
-0.5127217458606983
0.1077168216931457
0.4165735858510718
0.008428119792153946
-0.000671537776257045
0.1808357071660193
-0.1885922891845687
-0.3214896685027271
-0.2062676406081574
0.4310464845122736
0.09671082458507252
0.003364160104921028
0.1770680828324418
-0.1618812651500808
-0.0185509777961553
0.009654077339891789
-0.143128663600768
-0.022048629857237
0.1555232161120621
0.8751360305965462
3.879130983376283
-3.927233617859537
-0.827033396204966
-3.978679348683114
-40.78508191180421
36.56139683431766
8.202364426173023
0.06314568405176275
-0.1763077314245239
0.1011796921600626
0.01198235520781168
23.03180543174712
0.3165249177779353
-23.1707393398912
-0.1775910096245401
0.1482987761735908
-0.2044397296710817
0.04586597303497277
0.01027498045374275
8.156395425932798
-9.79593368520667
1.905573914816866
-2.797422568088056
0.8280152617520128
1.969407306328923
-0.1097655936609038
-0.04763342525361528
0.02476229354960505
0.1326367253578462
-0.09609521318565332
0.08626161959074152
0.009833593590509239
0.1260941054799006
-0.06107788937675308
-0.2398323876719275
0.1748161715610543
-0.000262394392046126
-0.002058449368188119
-0.09586875245750427
0.09818959621471271
-0.01675990145115984
0.09286856525533062
0.0106317167147361
-0.08674038052505291
-0.06740345018857577
0.003277539750920381
0.1667195344008317
-0.1025936239702609
0.02505374865608559
-0.1061757984361677
0.05547457268680238
0.02564747708706785
-0.09467494176771236
-0.0007905045644400178
-0.002718780158128362
0.098184226485663
-0.6791703620628657
0.1536543605892005
0.5255160014685027
0.1283121925356599
0.09447141993613957
-0.1882287571400492
-0.0345548553377748
12.52823740259186
0.6978408746163342
-12.73016766061499
-0.4959106165681506
0.17986201507229
-0.1057692068735156
-2.25415105260451
2.180058244387968
0.3253533624146095
-0.3661571921221381
0.515319861017461
-0.4745160313198109
0.6493031334329716
-0.4414783013363696
0.05554287879397108
-0.2633677108995207
0.2326792283262815
2.212467295788077
-3.704964807374747
1.259818283225916
13.40490054554151
-13.46165810821613
0.05675756268049342
-13.65164369651617
-10.39174781573732
10.23693425971858
-0.2300416626543368
-0.202006454588603
0.3773361465220388
0.05471197070843584
0.4467058203748484
0.2412886761754332
-0.6879944965716961
13.58077576423584
-19.29743109037731
-0.1855162093944418
-0.03320955474672844
-0.1854674594819634
0.404193223614061
3.393390050550587
-1.210411734860714
1.77511804437531
-3.958096360031196
0.3990316509188129
-1.001143047393991
0.4709489989537673
0.1311623975046375
-0.01851592877605327
-0.01164955480412699
-0.06142376361887567
0.09158924719308567
0.3702007408053875
-0.4932842544560012
-0.06166262581762095
0.1847461394637765
-0.2682209159161136
-0.09506063727392021
0.2588237123794281
0.1044578408019946
1.301565119996733
-0.5240273565683465
0.6497554610780689
0.1355162262477396
0.07849917086706776
-0.1145859539480281
-0.09942944317282004
0.2233278581516707
0.3230334456890468
0.01350686438349294
-0.5598681682297751
-0.245974871916286
0.2208998152792116
-0.002518911492179198
0.02759396811705834
-9.558415833671084
-0.6037600516654903
-2.690037597632758
12.85221348296189
28.11928303878454
-0.747841884206651
-3.728074793709416
-23.64336636087404
-0.004372921460692245
0.144702262134845
-0.05808307165239368
-0.0822462690310332
8.316411201342826
-2.356361410573024
-1.361718783243646
0.7076372388030611
-0.407732452180275
0.2499823334823177
-0.5498871201239154
-1.214506195254817
-0.2217765498703387
0.08415209614953828
-0.351898859466431
0.4895233131746382
-0.09908538592182187
0.02452459135200645
0.07456079456888341
0.3618835533545197
0.08547747308156155
-0.4507492918783408
-31.82919373733004
7.021195436501107
-3.645302535378404
28.45330083621208
4.295053230711929
-0.6908207296598564
-1.782558705918975
-1.821673795127307
0.02410943842127126
0.01823456011927649
-0.04234399854433719
-0.1896674279398083
-0.002866049831435127
0.6115777735703262
23.60396877171969
0.05596588814515265
-0.05589241167198122
-23.60404224815482
0.1949679248973069
-0.009418256880189498
0.1513316963968206
-0.3368813644182331