/*--------------------------------*- C++ -*----------------------------------*\
| =========                 |                                                 |
| \\      /  F ield         | OpenFOAM: The Open Source CFD Toolbox           |
|  \\    /   O peration     | Version:  v1906                                 |
|   \\  /    A nd           | Web:      www.OpenFOAM.com                      |
|    \\/     M anipulation  |                                                 |
\*---------------------------------------------------------------------------*/
FoamFile
{
    version     2.0;
    format      ascii;
    class       volVectorField;
    location    "0.2";
    object      U;
}
// * * * * * * * * * * * * * * * * * * * * * * * * * * * * * * * * * * * * * //

dimensions      [0 1 -1 0 0 0 0];


internalField   nonuniform List<vector> 
19631
(
(5.025070998034371 0.005534852376825037 0.02469345747250859)
(4.978097711810707 0.01851755512084894 -0.003603665770517297)
(4.996325946155654 0.01010869473741029 -0.008039465451419417)
(4.878469574230855 0.1768583800297548 -0.01145881559109546)
(4.98485083761765 -0.005194181012581679 -0.07272695187266429)
(5.035273791821095 -0.05317006058555375 -0.01042339359595598)
(4.993857975393674 0.003508246996028859 0.001737986521558011)
(3.824934437656278 -0.05784959082055788 0.1353035389104821)
(4.969499966888137 0.108162154664432 -0.1071276720451079)
(5.004189367245894 -9.974941812034484e-05 0.002213331831358717)
(4.965527169055191 0.01522510119965841 -0.01298328403412869)
(5.034896925065257 -0.008730929183418062 -0.01011761639001486)
(4.763548889427193 -0.0003157120970080486 -0.08470266380466056)
(5.030297594008549 -0.02424713742206583 -0.002110516387753183)
(5.000078942420846 0.0002050045823620503 0.0001691545219889034)
(4.973913614759462 0.04113398019883938 0.03841114530257573)
(5.03630680160401 -0.02990675714200005 -0.00142888875432519)
(5.039090364912352 -0.04412812360706513 -0.2797035594732273)
(4.827101923904101 0.008830732663153698 -0.01420387568578701)
(5.107342804552337 0.0009862713829626247 0.01710698277825384)
(5.01914202991045 0.03241162204233977 0.02822015509834454)
(5.037040619918028 -0.01573062624430415 0.009260609097569955)
(4.686959685390157 0.1359933873743758 0.4388909129602652)
(5.001594303265347 0.006640100418665039 9.760741169580244e-05)
(5.042755858827182 -0.02940888622719639 0.00469522389567827)
(4.991017152842362 0.004052589061603946 8.713763262956317e-05)
(5.04116393711725 -0.02915665286428921 -0.006521684105642897)
(4.863104590517897 0.06471554357478743 -0.1524255134668127)
(5.069224527670945 0.1107052324214566 0.1364858617205661)
(5.000840325018657 -0.001187278164564214 -9.734368458476617e-05)
(5.032054069887925 -0.01804883098692302 0.01592803965022911)
(5.033054969589112 -0.0158762746897553 0.00332067124649792)
(5.010504064868937 0.0007680570489368788 -0.02065767993181679)
(5.002435241679854 0.02046362345240968 0.009345460462095345)
(4.597515954176556 0.1209525194948379 -0.1504628585272544)
(4.379206559325832 -0.7325834358035855 -0.3164295083377874)
(4.996894683079116 0.0009463489553814288 0.0009695170980353008)
(4.984130291809769 0.005487500405215858 -0.00924156453886818)
(5.045139670835107 -0.05331771421627886 -0.009277661462734704)
(4.973505760085078 -0.0005350239966669039 0.004000262036647355)
(5.285670182453821 0.1278585764304886 -0.02243976925689267)
(5.026301799453993 0.01922316451986282 0.04496803014682224)
(4.999133933459677 0.001048423539027579 0.0001516232499148077)
(4.99697199646019 0.02118486418292272 0.04018407214983898)
(5.048169872925263 -0.03998287155840596 0.012425282394103)
(4.911426390523252 0.08450118078007214 0.04815700925261429)
(4.999331809840631 0.0005443551376448333 0.001308511553212388)
(5.018145352414285 0.01262610016886944 0.03205635037221154)
(5.017235907138717 0.0001363633707124794 0.02282630098585086)
(5.035098675555711 -0.02129407991568331 0.005534446458908483)
(4.971424490591512 -0.002533454534876436 0.0004621711193636284)
(5.014356110285413 -0.002323204537134601 0.005613022778487359)
(5.035303161202692 -0.02869468321953166 0.006378068881831294)
(4.992210550023144 -0.00340623688288312 -0.03077911016618705)
(4.988744675457103 -0.02064054735366542 0.05933263465131921)
(5.054537734158393 0.05234193801997682 0.06017908722332074)
(5.037892627212699 -0.03239262511954814 -0.01228565705898047)
(5.029882482669449 -0.02415281263220419 -0.003643323746713799)
(3.921728248786523 -0.514391681070157 -0.03919994832291308)
(5.002073535113048 0.0008273857980642885 0.00156554581849527)
(5.003937665516626 -0.0001318087753582027 0.001915242882174095)
(4.146759286733545 -0.09632662017711881 -0.01741774640868908)
(4.698884998664773 -0.1961157407259451 -0.1042094118750073)
(5.001089106840265 0.02365208147716719 -0.01284883504605305)
(5.035530485913756 0.005306807803967552 -0.01724974916339929)
(4.830790652353421 -0.01495199429763705 -0.02976436973482375)
(5.030141164791024 -0.02706458762200038 0.01525283689635499)
(5.035592246108307 -0.01939830113507645 0.003651620730145015)
(4.947718308062648 0.02586462516101872 0.007679273645467312)
(5.005139112758416 -4.343419217138473e-06 0.003088930640454125)
(5.00403425125504 0.002970405317080051 0.002899138992036106)
(4.449193990315527 0.7420861435958415 -0.2233274474387464)
(4.999081199333593 0.01680403599837733 -0.01571314102005362)
(5.03086799482369 -0.02453959125474149 0.01202010239919259)
(5.057447847359347 -0.01394718784749045 0.0174678692631356)
(4.927048813532524 0.03088573965614601 -0.1132582799323658)
(5.005745427054463 0.005535180766315344 -0.01449968762847355)
(5.034210798981129 -0.0001183087129155326 0.02438887284653657)
(4.980593284133675 0.06531343684972173 -0.008024534173901553)
(2.993084211986771 -0.3338961262316125 0.2287580056542787)
(4.997733018683106 0.001686430600354005 0.002588800981186136)
(5.010026705203443 -0.007401422370131437 0.04976957517537787)
(4.966468524745664 0.1252990582453133 0.05272367486953165)
(5.232135596548819 -0.0009431806270731103 0.003717648215817783)
(4.065271878253061 -0.3552817810051281 -0.4223446915191566)
(3.770610921399638 -0.1277148436411637 -0.2567457931142415)
(5.035588459762983 -0.02984616971292605 -3.622412760009521e-05)
(4.96804769151277 -0.04728542771170705 -0.05648160231918744)
(3.843894100465717 0.1711567522070043 -0.01615806810041546)
(5.010471904423321 0.0217485805027604 0.03342392419098982)
(4.960047332974996 0.276355190352687 0.1449759918809467)
(5.030783480010667 -0.02514969971466329 0.009548341188701692)
(5.028522124788307 -0.02898374999410129 0.0139852959421151)
(5.028046773993305 -0.03290329647110451 0.005004617266847121)
(5.04680405998423 -0.07603870993577519 -0.01502904527200202)
(5.02048857140358 0.2956251634105672 -0.08161010356712434)
(5.018986108756772 0.008090684751126931 -0.02356525706623833)
(4.299547482963327 0.07635299054894816 0.222172062810916)
(5.031298267493713 -0.02458131445003271 -0.004715667860314795)
(5.032176853507196 -0.01108143988428799 0.006962971846082606)
(5.033378463032094 -0.01837070960380609 0.006326402780518068)
(4.480367558001013 -0.3707593880206558 -0.2253894895292503)
(4.728633120189513 -0.2654631111367141 -0.3746371806106101)
(5.015724582691824 0.01919456585609455 0.01582552365554483)
(4.835108994959924 -0.1400877338743861 0.04148656250514753)
(5.025085756092881 0.08779589739890592 -0.0296459475053392)
(3.928821734633956 0.003720740210663167 0.1564130019137757)
(5.030676318561954 -0.03389529057669667 0.02113828268040216)
(5.031554010988107 -0.03295744258995952 0.01152658856844699)
(4.769867218602755 -0.05917403990089396 0.005485903369262617)
(5.005548082232307 0.2173614652102061 0.08036276872628487)
(5.050430213426594 0.1488323747208146 0.04103285727131366)
(5.047524798745664 -0.05930099975004886 0.02540567508873747)
(4.922957762958029 0.01020447879118601 -0.1746749465582563)
(5.017005195603889 -0.007886524335806524 -0.01818985514351753)
(5.048801742116418 -0.06828308411807507 -0.003483754447898602)
(4.899791697512901 -0.09446938297737563 0.06908067919263185)
(5.028411499905134 -0.01804354229581999 9.275504891879691e-05)
(5.045756428715938 -0.04082474282999216 -0.01572064707546824)
(5.034089959855175 -0.03063672576643547 0.006392530195734109)
(5.028558007615983 -0.02608666037907319 0.01422320885559187)
(5.028860925574378 -0.01934040102609543 0.001200366745516854)
(5.030626983704984 -0.02264936690158711 -0.00216416540968909)
(4.715153766444833 0.005144163890700017 0.00579992975829717)
(5.036296543352561 -0.01958532816681674 0.004975380060455026)
(5.033587357210719 -0.01133121064757347 0.006618515094879525)
(4.916105285661012 0.1200637992701234 -0.07964665705881556)
(5.031518853063365 -0.01366669332736891 -0.008442288258476243)
(5.006164200173523 0.0005239701686947953 0.003049190568921745)
(5.031697521843743 -0.06449003392841131 0.02507014569669378)
(5.015127248023712 -0.00422295187152319 0.001070564620149502)
(5.002264627028213 0.03958264537145909 0.01270306867644439)
(5.106039077872529 -0.01945512091134577 -0.06624186911100757)
(4.690519096322803 -0.2953234555417421 0.06090134263217888)
(5.007887760596591 0.03980560404669141 -0.04321088384461739)
(4.245122698503596 -0.4519788056614229 -0.147683403777807)
(4.851632257981663 -0.1012339005578545 0.006132605807643285)
(5.045238186383086 -0.02652410026986094 0.02222777067639489)
(4.351555968542075 0.3786613042446708 -0.2055443761460667)
(5.026521896300832 -0.05755343358363593 0.02869342765217003)
(4.924355917653044 0.01865633047779442 -0.2525390508332487)
(5.13896559381114 -0.08101004157520178 -0.0017481354226897)
(4.96266731208882 -0.05075325108901114 -0.02577821150798188)
(5.00134477754006 6.260280240027262e-05 0.001549056204406288)
(5.037427924698773 -0.03548155920747365 0.007203900156679341)
(5.027831073765059 0.08025211241794361 0.07077425946748954)
(5.019144671595522 -0.01650700897458459 0.03575684385038415)
(5.000505115048242 0.0002593365600925398 0.002233281582944946)
(4.996276890818517 0.002076664158158687 0.002402838439286409)
(4.291698508488901 -0.05983319630655252 -0.04768146732611882)
(5.03408870357542 -0.03143561425242642 0.009456595937330097)
(5.031310232910212 -0.0201241764295772 0.02030287253375213)
(5.030525216297233 -0.02290307266350902 0.01291985299128872)
(5.027286722711756 -0.01625325863261248 0.01264290260581325)
(5.03015084155254 -0.03007480102253426 0.01948172942368277)
(5.039995812206635 0.01081591928993268 0.03943202216283159)
(4.995254772589239 0.003766858901463698 0.0005255113579526632)
(5.084270242369794 0.04924595542061486 0.1592652383425622)
(3.806254238945605 -0.009812091438956795 0.1705995097311061)
(4.96555448903327 0.002236118621196171 0.00359994839748348)
(5.02737924081024 -0.01710083712638662 0.01147794515455902)
(4.996482853295484 0.004136361687947336 -0.002113776386312275)
(5.026694581663385 -0.02090905474268689 0.01253761039337485)
(5.026598778831637 -0.02730741971921526 0.006775989092304915)
(4.990523393394092 0.006391531454338472 0.001308986366210645)
(4.990795418130283 0.002474063555011341 0.0005842915092610141)
(5.03467148295733 -0.0231926967602104 0.006008641712268513)
(5.015032741293738 -0.004725682397430477 0.0008001515504440554)
(4.694503364887766 -0.1843945088789053 0.07581356775323567)
(5.027256750561109 0.01079821101358157 0.02813020829566539)
(5.052419367075296 0.02110181972036021 0.02368077571869886)
(5.030466523100498 -0.01704905773986357 -0.004260657885743152)
(5.035805546381812 -0.03261071374659232 -0.009669458917788127)
(5.031807002461198 -0.0150808798741424 0.002833592553164408)
(5.030700667464408 -0.0244227854695611 0.02535698871653629)
(5.035822102528651 -0.03990061373272456 -0.01590842804970927)
(5.00216501528587 0.0005958504224971548 0.001364855197156292)
(5.036045009680057 -0.02511482841095115 0.006113108703774552)
(5.061753591993907 0.0161432027344671 0.03521870186003323)
(4.945471862068421 0.224189889974648 0.1272187785868411)
(5.029556622903764 -0.01623248054177191 -0.001067510135178215)
(5.002487328442339 0.000262078820766673 0.003485794384735356)
(5.002891834877309 0.001422157132037638 0.003047677660966201)
(4.973680062286504 0.005358283439537792 0.004330674097470166)
(5.003570982720203 0.0006140433753987492 0.001439214217945389)
(4.995705066397203 -0.007914147045129832 -0.0005293726756484126)
(5.001536107555858 0.0002775901939549859 0.001370140317439296)
(5.030215123663115 -0.01448140425961036 -0.001302793604739947)
(5.029492429779775 -0.01993458589306173 0.005163127229641674)
(5.028026088420387 -0.01140537417304158 0.008394014046904492)
(5.029476147844758 -0.01651989892703894 0.01582688020872826)
(5.000570118934849 0.002362568843862351 0.01727304433703042)
(4.963602864190798 0.03926177476291141 0.1787960745118057)
(4.997848773899062 0.002823537009736194 0.001307037142812169)
(5.034485635140847 -0.02734282804230745 0.002221291669911389)
(4.908873903328675 0.02542584193970838 -0.2914219000539631)
(5.038898727455998 -0.03350473755165375 -0.003106628452472991)
(5.006670444319631 0.005047200086264718 0.01315813921339614)
(4.969689375785523 0.03087539624624444 -0.02594183094883783)
(4.973916684759733 0.03870730320481332 -0.03624743929097364)
(5.030359318850428 -0.01742611946027026 0.0002857916185047459)
(5.030210706284667 -0.01593442261924957 -0.001299225055623407)
(4.99109703188632 0.009967188107782578 -0.01169567243292594)
(5.033212332391012 -0.02060266439729914 -0.001257621463925201)
(4.999827538238335 -0.0002790501619139851 0.0005097329696544626)
(5.034159316577414 -0.02822143209152144 -0.002694009894865243)
(5.028419554958663 -0.01690095394624772 -0.0001502833981572012)
(5.032652709391055 -0.03367049376563803 0.01930452222424545)
(4.98228638276967 -0.004657843317222808 0.00033480790164165)
(5.038035844051423 -0.01003980237661269 0.001086250584808103)
(4.991404472583067 0.007665925802202581 -0.005533132516516228)
(5.039741977206341 -0.009753709428339048 -0.003707651573435594)
(4.75362301055007 0.08179593213777789 0.04273486696629897)
(5.002729839621163 0.0003469266550194408 0.001192446446103693)
(5.018368171307084 -0.0255796871093175 0.05968011810419848)
(4.896298030773415 0.0234985805526531 0.2102792815238899)
(5.005405705855812 -2.855882770776257e-05 0.002202502224745705)
(5.003362090616646 0.001842141846219333 0.003724834702863852)
(5.006860073658572 -0.0001804545397943725 0.004674640818842468)
(5.138258842839419 0.01224389963918803 -0.006232736614680238)
(5.000672600664461 0.001004969256317825 0.0003130108681338677)
(4.998781888589206 0.002993863792160052 -0.01155584241402011)
(4.979852878974921 0.01817421058539593 -0.01497859629839827)
(4.999915439247321 0.0004165267491269622 -0.0006694096159914472)
(5.006891282697007 -0.00274228399026486 0.001236502205398264)
(4.996931848159824 0.05419442391808485 0.02202380776911089)
(5.032527308026131 0.01070506145675767 -0.03291392973980586)
(5.007872949360882 -0.01401471800386433 -0.05327317769726139)
(2.604547275409769 0.07064561071664764 -0.3435718096938125)
(5.030055298129724 -0.03225046209626783 -0.07984463425342601)
(4.993091087362869 0.008411804747298277 -0.005150610089652934)
(0.1147932450328169 -0.03636350307923397 -0.03290891966729146)
(0.02889719146287159 -0.04813104746727727 0.02209784207235926)
(4.592505649800145 -0.1040023719221514 0.0148590704423931)
(5.094900583295431 -0.08695267224166081 -0.3212876446841763)
(5.079127271566784 -0.02356301849818677 0.01178456113459867)
(4.671768141363643 -0.03018719965236633 -0.2421900891049347)
(5.075706607606814 -0.05358090446994452 -0.07153612416207482)
(5.000586643828886 -0.002617448433046065 0.01207244119761841)
(4.700926943563057 -0.1748414685581746 0.06458673213732566)
(4.98875455007005 0.00197058963916285 0.0001006206293877735)
(5.041593380108715 -0.03649416326214175 0.01049559595236467)
(4.999762384102498 0.000333252723314526 0.001333261793552599)
(5.001027574625867 0.001746179147333177 0.001033570921775223)
(4.998631013628361 0.002168220069363293 -0.0001331069182230583)
(4.974469665092156 0.001879195750469079 0.0005471331351014639)
(4.987142518585701 -0.000714955497288868 0.0007824525402202145)
(5.000927415624378 0.0005173604844463434 0.0008193075794043709)
(5.058002309309139 -0.07114757967530771 -0.01410294537076355)
(5.010774444360075 0.005194241433794783 0.03009962634636237)
(5.010569404101478 -0.02308759879484625 0.05393192522791213)
(4.794676679836233 0.1011838392674314 0.0304368639715304)
(4.989989907183742 0.044301416498168 -0.02454732841852043)
(5.049229716405702 -0.03008117270478113 0.005548565194154698)
(4.978788717415116 0.006427742344916381 -0.0004432422418390991)
(4.840992124853005 0.0765971628901024 0.1526034624930391)
(5.041301064623871 -0.05186723846916153 0.01955066643566927)
(4.88312804898333 -0.1579726754460762 -0.09238724209340622)
(3.717589122711221 -0.007207120375240425 -0.2550694017283582)
(5.031291059391109 -0.009528265832610339 -0.007861408565141998)
(4.998605193782529 0.02955717615626572 -0.03089009595659158)
(5.041468178956498 -0.04630706535718503 0.02235140707566257)
(5.0336996203164 -0.008799049519227393 0.03952294636442221)
(4.999105323877125 -0.005095268718399143 0.06086979542772087)
(5.01467292518047 -0.001400523975698725 0.01636720644686868)
(5.005904411748999 0.01714324898372817 -0.01963268813423854)
(5.004151820102599 0.07597863528958645 0.06906611105422654)
(5.033897300745702 -0.03914426776513385 0.009195854253838988)
(3.230516029321463 -0.02617174000819242 0.03748241465264012)
(4.725233256650549 0.04243148872848043 0.1034545726276957)
(4.131867935487601 -0.1255355828117651 -0.07863651191276763)
(4.972906616254066 0.05003924172899372 -0.06658391930592776)
(4.85243908172924 -0.0667401246581998 -0.01501293947109297)
(5.001899694870689 0.0007349398019354809 -0.000615142299886818)
(4.1677201250176 -0.1032524628503138 0.2179233035489703)
(4.072108963906339 -0.1773149029134918 -0.1526880812594777)
(4.99671574050477 0.02131911728412783 -0.01080296913115862)
(4.955715942423216 -0.006273372868767575 -0.001767845167211295)
(4.556115502442105 -0.2843433478523061 0.1611050994142935)
(4.99985114463087 0.001308258552317927 -0.0005021600892227532)
(5.032574060199587 -0.08048755693871207 -0.0121966364392437)
(4.971621953986238 -0.03979864462760168 -0.1187651246122807)
(5.040107354820221 0.006631304963108989 -0.06509830208417812)
(3.786288417099671 0.3355167149350293 -0.005396783906551607)
(4.041394706860985 -0.0494776251585432 -0.09943465679617619)
(2.59898721065436 0.1491584869504916 0.9342092062999576)
(3.576426742656652 -0.1180728251127108 0.2205213767139496)
(4.349189074116537 -0.03735115887840565 0.2501879659209359)
(5.04118891846457 -0.0100562343480571 -0.003446331637830836)
(5.021387772463129 -0.07120439767447842 -0.04090176259306835)
(5.04906246659514 -0.01494581167468145 0.02817051191361491)
(4.987927291110446 0.01400332153774009 -0.00150013960084722)
(4.979413331939038 -0.01371504128024866 -0.07943035056802784)
(3.784369178896397 0.2023454467189351 -0.06832792342704434)
(5.152517647469102 -0.01047742327391809 0.03972217319520841)
(5.00008930665869 0.0007829588453542247 0.0005753157350646249)
(5.055499470465687 -0.05456948374959598 -0.0157670388101305)
(4.024964821980817 0.01940132197073197 -0.2293991559003515)
(4.988470708646447 0.02682762110554248 -0.02731183835374885)
(4.957544503792178 0.03756371778685833 -0.07805984650392636)
(5.193486695880526 0.03875529101287782 0.05910645169470514)
(4.963419943056449 0.09560773884475844 -0.03008583477751759)
(5.041689748455929 -0.01181635942128802 -0.008146473007732488)
(4.959581965273514 0.0001706119675455906 0.0001074846987772304)
(4.933853877908654 0.05269129071149287 0.1540964029910543)
(5.022379624842206 0.0007096318612798347 0.0175490679574906)
(4.659975581855639 -0.09838399812404355 -0.05737348422383931)
(5.030663971224707 -0.04969706005718748 0.01938479148989853)
(5.02187978773484 0.002470155764629523 0.02133564612166963)
(5.011811180408592 0.2048199789969803 -0.1157064607077285)
(4.956240223411449 0.07749815249250561 0.02368049106946055)
(5.000980332108806 0.0003309150973817194 0.0003622926293956873)
(5.001604838032097 0.001208419845519312 0.0005897799461708255)
(4.991202536705913 0.005939334518054031 -0.05743127217516748)
(5.089240916637835 0.04168136996692925 -0.1398330574441902)
(4.914022687802755 -0.1026352613562049 0.2409381771630766)
(4.933895196736938 -0.0590923858880089 -0.1067970037488909)
(5.045506814626606 -0.05247955033381897 -0.006220765360427313)
(5.047243121450927 -0.03449531933138418 -0.02882750782672425)
(5.001201961612241 0.0003968050260211898 0.001273904029755759)
(5.033026917513642 -0.04504072376369234 -0.01499411930138287)
(5.030240065701246 -0.04565244619781188 0.01147162322244169)
(4.783330310559857 -0.1298815484701249 0.01489342836344494)
(5.037437301240387 -0.02793747426582726 0.008249929932473881)
(4.994725420153746 0.0401894034641718 0.00863723132386646)
(5.029890449055317 0.01517724410306115 0.05734482049245548)
(4.971710495382751 0.07545006987348424 0.001524917808932178)
(4.997826640043603 0.003063794647188891 0.001044550542671386)
(4.977570723539088 0.05540076510529763 -0.06288450831042704)
(5.000354955833644 -0.0001429525878147049 -0.000424522863303156)
(4.230196037292448 -0.3933515891109041 0.001590434527793662)
(5.02651770700652 -0.001502187179907653 -0.03230598229820113)
(5.082771497036918 0.06475960779637083 0.3949855490027869)
(5.030372947082435 -0.04597693437343496 0.02653431448363178)
(4.946121849140342 0.05404553916606353 0.006282970862492316)
(4.267001196926214 -0.1220782466061026 -0.1474111241944935)
(5.017002929605447 0.01599644683479793 -0.01568995381062882)
(5.084305885569669 -0.0238665189785586 -0.01418307160910213)
(4.935989473949866 -0.01578655334096027 -0.01965724051227204)
(5.001834419529213 0.0009054713195359323 5.121624298997785e-06)
(4.381348758108166 0.04243712057445762 0.08979421119337327)
(5.038310488992404 -0.06040307618602426 0.01983984227281127)
(4.997363754008529 0.001288237667571089 0.0005323929336460535)
(5.376714209485809 0.02168251954042394 -0.239965529540217)
(4.993868573553185 -0.1100564418141611 0.01632818524589516)
(5.014071313815827 0.02397701037104736 0.03082296172552947)
(4.975202033754571 -0.01524246077047286 -0.02986552512764187)
(5.029041087016759 -0.01382122822992099 0.005808521291922863)
(5.009868036965172 0.009944268553841434 -0.01373316118386402)
(5.005309558204177 0.0007494129340946612 0.003114988380963783)
(5.024182910399853 -0.02216272092705109 -0.008777467895930318)
(4.999358782456264 0.001160143661586449 -3.295049309422421e-05)
(4.932564022304702 0.03927934931624485 -0.2237877867800273)
(5.024428324867619 -0.04713141029469925 0.0001131299967935767)
(5.011386656100784 -0.00254154558935682 -0.01073305659565107)
(4.893117162736107 0.04628980872195192 0.07641059232847471)
(5.026741481124097 0.01306829302863386 0.02559743150533647)
(5.031617866672938 -0.0118091457724398 -0.02230114863932194)
(4.944065511987746 0.09972509779430358 -0.009201638856317055)
(5.014061239112463 -0.07066938839851836 -0.015127154011455)
(4.980672693891175 -0.07020377682830431 0.04249881413523334)
(5.0856681397955 -0.07029295363673871 0.1017324460772603)
(4.820531837375905 -0.1299110334286893 0.02683110880546307)
(5.085064058951573 -0.02929283530766528 0.08267047578202091)
(5.056414684774591 -0.01679839490630568 -0.0360730124003197)
(5.01399516552629 0.2022389945404094 -0.09747731326010695)
(5.007211932412879 0.03631833476031887 0.02072159595274665)
(5.056462879577928 -0.02998030235528664 0.02292212712191244)
(4.885544549627906 -0.08496892365442056 0.01078735480824966)
(4.980185804871125 0.08839383280131927 0.04096843850446721)
(5.038900771084691 0.01607471364184965 0.01194909277962001)
(5.015510495661889 0.005928165294680672 0.06378029788478466)
(5.014967196088125 0.004013443341901042 -0.003602525802439089)
(4.999746354196392 -0.0003528382476971036 -1.814656280128791e-05)
(5.026008181209964 -0.06178691424143619 0.0875593532285663)
(4.999626170798848 0.000255811278076871 0.0001668364989475283)
(5.047214087896314 0.02479494835765633 0.03417137264610759)
(5.003370965039039 -0.0004866241351092408 -0.001526307321699248)
(4.923508550957928 -0.03307121667117452 -0.02658782648716537)
(4.965288224010799 -0.1290131467563803 0.09546779104000437)
(3.065161485024113 -0.03384061589184171 0.08577651495113023)
(5.036377563462048 -0.02740804073711104 -0.02247476685381578)
(4.39656062104118 0.5720501527003589 -0.4663102075518489)
(5.063807016923105 0.1404474816215272 0.04135519559170336)
(4.988240145518492 -0.09557509119165804 0.1082450871723341)
(4.420537831850603 0.05621842982450329 0.07373797929016958)
(5.0317491705435 -0.03645635405732158 0.1174087430662396)
(4.736901192239974 0.09843597343187115 0.0428675945430932)
(5.037695038590392 -0.02601379140893882 0.001558665603649648)
(4.99738007213721 -0.0009069099782672619 -0.0004895754631352922)
(4.999417384549806 0.01525844730799264 -0.03355719047889571)
(5.016434022377999 0.03828557722453791 0.06481706054958827)
(5.010320398550798 0.01377567895685048 0.01701760269237467)
(5.008242037216822 0.008065746352541366 0.01734287758531256)
(4.990283120925967 0.007220560172239122 0.0007677895047262357)
(5.003176021973075 0.0009361379316631416 0.001350270009017052)
(4.999183215766936 0.0008268841793527968 -0.03942916813900613)
(4.273598101127911 0.1646200930549523 0.03359831680253793)
(5.000690566311462 0.0006929404891879278 -0.0007220932870588591)
(5.037891322005824 -0.04375537816119249 0.01492373011910894)
(4.993454587391279 0.01982297700554526 -0.01052564429911994)
(5.037228572602327 -0.001865740860558072 0.02798457040068548)
(4.560344037431467 0.3394679076477991 0.5564861130071589)
(5.073669537629769 -0.008903217289659622 -0.0241463465204754)
(5.024149027863205 0.04619652220308731 0.0242716943337814)
(5.020623401043406 0.001795732673562574 0.0215875719186583)
(5.021780977304044 0.02272892122312236 -0.007360603474620881)
(5.036829107303793 0.01145037407652696 0.03892784241665233)
(4.978505450390774 0.05124017183007862 -0.006341843697985802)
(5.002667268285027 -1.493379161306287e-06 -0.0003684644674751076)
(4.999588852286489 -0.0001072698191064048 -0.0009782666021099463)
(4.92413401910397 0.1973619567476974 -0.07640418014150878)
(4.999759353585768 0.005417165863410156 0.00638222599095213)
(4.971038524448833 0.03441124913169605 -0.04774748125636726)
(5.000939996390055 -0.0003474514275334667 -0.0006113167230590561)
(5.013353579834588 0.03062993520130299 -0.005922912276522135)
(4.168071628250623 0.007222613058806272 0.02789382689060007)
(5.069833348212508 0.01573441623636069 0.075709470039486)
(4.999686986842509 0.00210805389140383 -0.003005523037136209)
(5.014917731991124 -0.006081152353597092 -0.002605133968331667)
(2.162077469827443 1.321349293092974 2.075153518245575)
(5.006380959810852 0.02454775162407277 0.002723359254830441)
(5.00018880900605 0.001106464869781341 -0.001424507177478814)
(5.044331618569116 -0.06351883956007415 -0.008462981048001472)
(4.989660139800222 0.003762106413055561 -0.001827850447575177)
(5.032896046365265 -0.01318829321111959 -0.003659290465588986)
(3.595098202941057 0.3988701409977169 -0.3891234919750003)
(4.968542927287254 0.09812604791839748 -0.006833861140140552)
(5.029724924065525 -0.08356622739443172 0.04016813865026667)
(4.990851444696658 0.004256498094158423 0.000175575721281473)
(5.000996369804164 -2.656523062824323e-05 0.0003090662526584505)
(4.172484068949847 0.04557589192146284 0.1063976307528358)
(4.144652635310443 -0.2690210850603252 0.1594134842341003)
(4.990771374849792 0.003213763315885243 -0.0008278161664337914)
(3.751141468330874 -0.008433730603547213 0.005695423711465439)
(5.001508179806339 0.006987547845626605 0.01174808777251261)
(5.030265845808134 -0.113600107019874 0.02949370175218471)
(4.997342389103917 0.1077007577313973 0.07912939989061449)
(5.000122711016695 0.000264840633150811 -0.0006362554232239912)
(3.986687486453674 0.09864154235953262 -0.06758021960087655)
(4.991384651326304 0.07850273589649516 0.09273757634310394)
(4.157852884867056 -0.1797578659868058 -0.1867901009018043)
(5.030574103180303 -0.0513618336930264 0.04668399206209449)
(5.037687773751118 -0.03670985996454016 -0.007541973982907672)
(5.012726719425193 -0.04180930107837699 0.06767697022626927)
(4.909096412083485 0.02641803609080757 0.07140179656681664)
(3.962625378768272 -0.1418509483325114 0.2648641811245597)
(5.023220917392563 -0.04733898345480401 0.003457098754227661)
(5.053651725070517 -0.04512336798898469 -0.01893313428897579)
(5.050211512819353 -0.07352356658767763 -0.03868534255422312)
(5.025174975812003 0.1256864550900916 0.1063716238988398)
(5.005960667642789 -0.003419701817083177 0.002141594630936826)
(4.991018127530391 0.001027194537129327 0.006321790103529713)
(4.57904451718495 0.01799283438030377 -0.04945711921382701)
(5.045478555455301 0.187556564087835 0.03965434178159549)
(4.998574027220902 0.002348420381295102 0.006265146593733803)
(4.992014074658277 0.005043811408706324 -0.001071919035363991)
(4.984024531347612 0.01687585436661618 0.0340587119830602)
(4.783158435380276 -0.0950313793118276 -0.1475569052844728)
(5.01735949666322 0.000503624370428893 -0.01025297232352598)
(5.073502905498696 0.02818428904036469 0.08858430031858242)
(3.93477822482892 -0.09529418658045918 0.2395267170646989)
(5.0186323511827 -0.1067715469047856 -0.01867573869111009)
(5.004492879365433 0.001128399595223771 -0.003159675928825947)
(5.042233425673991 -0.05421195632258843 -0.01751629514138161)
(5.052493514322626 -0.03153003584948933 0.01679144765816925)
(5.041446034151378 -0.1128973684002848 -0.0335410901210139)
(5.044533642832957 -0.03984004309209814 -0.1222986070548197)
(4.865651478756332 -0.005451401625772631 0.04575155874422575)
(4.89038580790665 0.09277536489413618 -0.04878492350155167)
(5.001668007308298 0.01567297968843727 -0.02475893783907964)
(5.124730587774501 -0.04346299850390978 -0.3579484269803687)
(4.999118023341887 0.03177515834516143 0.02011181854443001)
(3.739868697790517 -0.1418645112433517 0.1372657021906173)
(3.545969578787486 0.1454948142222618 0.2742621256412108)