/*--------------------------------*- C++ -*----------------------------------*\
| =========                 |                                                 |
| \\      /  F ield         | OpenFOAM: The Open Source CFD Toolbox           |
|  \\    /   O peration     | Version:  v1906                                 |
|   \\  /    A nd           | Web:      www.OpenFOAM.com                      |
|    \\/     M anipulation  |                                                 |
\*---------------------------------------------------------------------------*/
FoamFile
{
    version     2.0;
    format      ascii;
    class       volVectorField;
    location    "0.2";
    object      vorticity;
}
// * * * * * * * * * * * * * * * * * * * * * * * * * * * * * * * * * * * * * //

dimensions      [0 0 -1 0 0 0 0];


internalField   nonuniform List<vector> 
19631
(
(-0.0008729609319916108 -0.002956848585052903 -0.01039562799712733)
(0.01696672426544588 -0.03836927171135546 -7.892430487807327)
(-0.006915254884070046 0.0266690697991778 0.003796830342900387)
(1.541337543431633 -0.7944400911386134 -24.40302410946171)
(0.2134826589267472 -0.1337340367680752 -0.06271735568178591)
(-0.1098096537350557 0.05449211651123419 -0.03009156149318961)
(0.001165433724172971 -0.001645207909876661 -0.001342535618096024)
(1.58592311467933 9.625964689583723 -3.923142709562155)
(-0.3931807585299499 -0.2351897600339639 -0.8615133617265504)
(0.0009524792740094687 0.001238027293461042 -0.0008998665974402558)
(-0.00615109115584976 0.002890021751080291 0.005880854519561357)
(0.01914154446076312 -0.05726222018711673 -0.06035765220405315)
(-0.3511387116988268 -0.08236025313148096 -20.51127881003217)
(0.01069013091722215 0.06738982811331663 0.04729076715894923)
(-0.000580648972468317 3.427539840899042e-05 -0.0002802346116857467)
(0.3114884514449864 -0.1378107179127705 -0.334416604787512)
(-0.09417986849544281 0.0001732933387866651 0.007355939997539221)
(-3.023797827297741 4.144337605110647 5.766676324499428)
(0.5691330997991714 4.210149657001316 2.449635349911452)
(-0.1246955799984128 0.1108700425980143 -0.01161681651724155)
(-0.02603054857920318 -0.01806642443114323 -0.001790806198567828)
(-0.02453201821135849 0.06400320113499436 0.0327853131333945)
(-0.3047975711793279 0.5942620821867994 1.175987103605486)
(-3.792891960773201e-05 0.002428419721116991 -0.005017521316686197)
(0.01356288344419329 -0.005024306733474843 0.00857479124714455)
(-0.0001564401566396937 -0.0004904221795786278 -5.460528156029786)
(0.01232740088885558 -0.0122539827624508 0.009430256449817334)
(1.70534717712852 0.6625725929081643 -5.282881734824699)
(-0.330208041553305 0.03064430518064794 0.00392287052217849)
(-7.869733963746189e-05 1.020706151384335e-06 -0.0005834398731030884)
(-0.02252966088138803 -0.007528017618580605 -0.03022215917426965)
(0.01092265091747708 0.01618844620806771 0.01161248821662436)
(0.255237965792064 -1.341242573716345 -0.2933880751864249)
(0.01793564496442106 -0.003311613586019551 0.03140124616912549)
(1.182260759980053 -0.02068008297430719 -0.05284037869447039)
(8.144560719887082 7.261343524751249 2.238047562696756)
(-0.0004553148535830401 -0.0005979435282705191 0.0005951811493827806)
(-0.01067569750612396 0.01518857609006553 0.01590688341844134)
(0.07975569779516418 -0.007462026680404011 0.0596874951586755)
(-0.03465659012091021 0.02143086515202066 0.02053513533944397)
(-0.1103024945383194 0.2381023424199815 -2.084869758956184)
(0.07920554505076347 0.04699981556309518 -0.01616932740711396)
(0.0004396872246208815 0.0005532806479666763 0.0007104212029407461)
(0.08073035848667509 0.004757867216071222 -0.02736425475156927)
(0.05328035960771084 -0.1229272823168399 -0.3524699985858085)
(-0.7631109233638825 0.8503653627818947 -1.004653393422156)
(0.0005297653785139535 -0.001088502990866694 -0.0001681075862361517)
(-0.01838962423214011 0.02336449365599665 0.04062291761925479)
(0.001191199273251717 -0.005201092040704774 0.002386728785874282)
(0.0518885015036121 0.02084730551010309 -0.02138713605079104)
(0.002674551101514441 0.02736837079965274 -7.241084234326873)
(0.00900334759552298 0.2839218960764014 -0.4620251801040147)
(-0.04466475347111756 -0.001138710487038208 0.002883921576766885)
(-0.9949618880180454 1.625274400768555 -1.515400929761271)
(0.5280066146958589 -0.2672667244443808 0.1563066887640752)
(-0.5192476117002389 0.1867736382581912 0.310958346979044)
(-0.06516476896395162 -0.05540273217255862 0.01734615212951528)
(-0.01377177564824288 -0.003652483872300452 0.008805343868180552)
(3.544261144214579 -7.879440410861065 -4.273474673457327)
(0.0006684072736590967 -0.001694166781495937 0.000662702008959286)
(-0.0007022196608875489 -0.0006333960924153122 0.0001017321985406379)
(-0.0461704404419353 -6.75277077263384 -1.566996576181021)
(0.4229435907030985 -5.140501095997138 5.250253368004855)
(0.02582469009427376 -0.01473152659470298 -0.014523800106254)
(0.01004503239522783 -0.07949490714889108 -0.05305386055598788)
(-1.294557902231457 -5.683242949983034 2.326272628183415)
(-0.007873956338520428 0.02875197932236265 -0.005703675626406914)
(0.001257809985202297 0.01358745599634122 -0.006174473200679919)
(0.1021291339299049 0.02550405121265533 -0.03793656510081123)
(0.001317749821860836 7.989327256012555e-05 -0.001689334729187768)
(-0.001042011765035714 0.0005503634984606865 -0.0009552963670256778)
(3.121470836752887 -7.887524716890233 -4.972799279462116)
(-0.02282337694730929 -0.00198906779620516 0.0002750403324234186)
(-0.01024550425283842 -0.0274942906654476 -0.01306868110526874)
(-0.1160758005394755 0.01815170636114252 0.0515008356744352)
(0.1755810059117983 0.5775497760571544 0.6994325280663911)
(0.01196478872808559 -0.009477869768179699 0.002369612997007428)
(-0.06410546114304946 0.05223409838762005 -0.006277091248627246)
(0.05922092946872279 0.02381173245341787 -0.1224788968502099)
(3.958278294259108 -16.71205205306475 -120.5793006783259)
(-0.00321313466772487 -0.0004390633654401822 -0.001764458523101281)
(0.03042419562355522 -0.04176687238794485 -0.02469024038564139)
(-0.1539831829911685 0.2358623976420873 -0.07929127240851436)
(0.277761078951441 -0.07426469124209678 -0.149092867042045)
(4.456967621567456 9.393554590724641 1.036161612430478)
(-1.502023629127457 -67.84064256469878 5.215008156770983)
(0.01919904964285921 -0.01479210164503588 0.01913378665766235)
(-0.09824119565966445 0.2940775216132279 0.1308010381719414)
(0.6266747856545635 9.774365818705718 39.88244705604475)
(0.01234657778587783 0.02756845397539128 -0.08062755328826872)
(-3.142227345865235 -0.05849633469551851 0.4083141517323465)
(-0.01825252142572622 -0.03154778693326802 -0.02761458146360455)
(0.006295915239451395 0.02677387307969463 0.01241845655810727)
(0.009985237380342009 0.0006402396038891743 0.0313405416908001)
(-0.004335688021783107 -0.0310087453153945 0.03032975635055274)
(0.7135219707602208 13.68605632515353 -2.283125038365882)
(0.006865371649362463 -0.002987410984319973 -0.005260964578951394)
(0.6647164352085729 0.1627452166345602 -31.45978849218692)
(0.002440075378127172 -0.00108216202577526 0.02617023481720122)
(0.0003411052353896951 0.001237441746322163 0.002175208062511994)
(0.01448761036110068 -0.006726591263229397 -0.02106064162044136)
(3.608636491727102 -0.7439388982813044 1.975739516577212)
(-2.201059668349271 1.519121975061955 -2.493567050473287)
(-0.007710402501495508 0.003828366470876324 -0.01840849196058678)
(-0.5902016040191405 -3.42513681002506 -1.047582957277226)
(0.4691598800925157 0.4256985537206625 0.03157006510741422)
(1.288097849015467 7.180136827908807 0.1961202294865069)
(0.03499386852748944 0.02793664572985175 0.008679107793986474)
(0.02968842130521282 0.01180604287080086 -0.001626155108591104)
(-0.5136919701445255 -3.318243894258364 -1.144505606746878)
(0.06761065347067083 -0.0004661723894970743 -0.2424383486249826)
(-0.1117872307640899 -5.236425356328077 1.424268076531003)
(-0.1582816434746721 0.04561197407978219 0.089858906648025)
(0.4117131906578629 -0.1634483088025184 0.2222750507216923)
(0.01480773541679948 0.01132861627988037 0.006651569941759921)
(-0.03359456462624887 -0.01669681098014662 -0.05980021244084517)
(1.43094942516288 4.773344354870804 0.8771786709791489)
(0.004986777664259687 0.007381213428783957 0.007487238563505401)
(0.06275690803487957 -0.01313195564037515 0.01727823906262265)
(-0.01286180700991081 -0.03936035422582668 -0.0328256930853256)
(-0.02091910918083482 0.00256265782184765 0.007550692157773134)
(-0.03419159349288966 0.005964917670091685 -0.01252516798598384)
(0.01405908409940716 -0.01565944336765825 -0.006278126814468068)
(1.170181454240785 -0.1975918507893762 -4.957633023995984)
(-0.03993158411660572 0.03993586974993595 0.02710701705506591)
(0.07922939560659428 0.01248473483705715 -0.008111407038990815)
(0.2044125459950657 0.3588522849249217 -0.1247683226352397)
(0.01222178381542879 0.02306079279714735 0.00872136713604681)
(0.001078389178021036 -0.0002273361277062643 0.001413274804584289)
(0.05139888832596012 -1.835045397165882 -0.8735773685008996)
(2.586828266040232e-05 -0.0003189651732136531 -0.0005572534661170576)
(0.02870894708541876 -0.002099981865246682 -0.05850632877076545)
(0.1690753904171035 -0.06766442617356894 0.04881965213544882)
(0.8869781593737347 0.5074876957526714 -3.087309878827352)
(-0.05027646434444483 -0.2698270941019115 0.04559029921326116)
(5.14886630314856 15.56474710910305 -6.194228808529915)
(-2.819980275240949 4.400189771327239 0.7270638054540031)
(0.005136145977780122 0.04398160212120476 -0.02059093388368698)
(-1.125883161984158 5.406702826661854 -49.57940026653691)
(0.2638252150684819 0.028482931807374 0.01793596742403027)
(-5.904248642496492 1.961027160169956 0.4592802210067244)
(-0.1465828483560705 1.512926598787504 -2.413031606587304)
(-0.7397282162685109 -0.2274608309355474 0.03153078060741998)
(0.001513929715434208 -0.0002130454370935517 0.0008564092445942156)
(-0.003649399944862072 0.01047864623454847 0.00613238824620646)
(-0.6474281377849377 0.3271425620803825 -1.280554855423408)
(0.03088596361832682 0.0209314260473904 0.003017001718981584)
(3.471291499737442e-06 0.0005553373026391973 -0.0003821171334738118)
(0.001589971526191219 0.00059803545551271 -0.0005811916730877777)
(0.6726197324251759 7.224673318641821 -3.477662608310804)
(-0.01556643210997529 -0.01422908602470917 -0.01027379590080879)
(-0.01190614480458636 -0.01608821292241687 -0.02494581653976081)
(0.0103685739321463 -0.02999661384327171 -0.04750632664187426)
(-0.02387617979922724 -0.002701949986497168 0.007581285277037158)
(0.05246217377726226 0.01066257172187629 0.02151662546667125)
(0.01438314340574861 -0.03686682934219722 0.01069600367564544)
(-0.0008715595920012773 -0.00012793538489664 0.001346658163343873)
(-0.1973054586276202 0.03366322412811157 0.233843472651462)
(-1.110636320130387 52.53843345387324 6.749778656562124)
(0.0007980945650945051 0.04626926703070645 -8.968811101465189)
(0.006923818981000261 -0.007705360044162927 0.003750493690302489)
(0.002171478511113364 0.0005681949357366846 -0.0003029464925800422)
(-0.02345294018539722 -0.008892841972049283 0.003471915209171283)
(0.002810302263803816 0.009506774236054252 -0.008785432662817411)
(0.001389498105836148 0.002541734419894015 -5.568977182118008)
(0.001458960868556552 0.003932374693071345 -4.907695761025916)
(-0.01403665027367209 -0.01078122651398633 0.007201756820304773)
(-0.006489896027741464 0.005606623210366838 -0.0009262077916401567)
(0.08520151956934496 -3.410188078721848 2.348167818519504)
(-0.04511992111299529 4.437638980014794e-05 -0.02092078775451594)
(-0.3531651684181457 -0.03687367000344588 0.04949242983302035)
(-0.01984760556290539 -0.006980503732676713 0.006920150655164468)
(0.05363359143222789 -0.03858577673959863 0.02456414008892882)
(-0.01204332286611297 0.04384872696358658 0.02413705352538312)
(-0.02303040239008448 -0.03369359344975311 0.07182334398129193)
(0.05514677207262039 0.01961960210162229 -0.02204678176133826)
(-9.657855984987549e-05 0.0004004751712140352 -0.001011141764073779)
(-0.07142431167022721 -0.01207578723830646 -0.03573863950763117)
(-0.07470346683043963 -0.02175498739565216 -0.0336405116868488)
(-1.069175428947857 -1.006282955182639 -1.384291564801863)
(-0.03449970116367844 0.003643931200014734 0.02489392656223595)
(-0.0007571519339084334 0.0002646244672994742 0.001145810123835864)
(0.001681804031576635 0.0006224740640263989 -5.681402940667379e-06)
(6.215346408860968e-06 0.01002894277327018 -5.729241309315075)
(-0.0002722682536137813 0.0002598970327231107 -0.0007331643324698985)
(-0.001713590403650552 -0.0002381196204352127 -0.003833403736825497)
(0.00301499265962374 -0.003563603945554481 -0.01723861727286927)
(0.01501278005807 0.01560712237428956 -0.001068362742329035)
(0.03164590451646485 0.03044141141456565 0.0009124094380251247)
(-0.0004674180590314662 0.008571591766655765 0.008257351152213696)
(-0.02412118998006471 0.01658455338843021 -0.008166421841646003)
(0.002323481839647592 0.00608493051357465 0.001471244472826339)
(0.3503667647735704 0.02799839211210389 -0.1223630778759863)
(0.001352317110628879 -0.0008652350715951427 0.001233352620852056)
(0.01605836041320594 -0.01968760054029804 -0.01956358786768277)
(0.3677902693485932 -0.4930764371573639 -0.4689082239989514)
(-0.05086889714989564 -0.01420574080589311 -0.002467696963227017)
(-0.002237527298627841 -0.003611644551637469 0.007206986859332443)
(-0.02539975053020511 -0.008072614940771418 0.001823657919293627)
(0.01465308109117986 -0.006224773684545472 -0.005600061060763453)
(0.0176520100484354 -0.004671746614484324 0.001036769695004334)
(-0.01794190676528556 -0.005015115528765069 -0.001704804010733316)
(0.006586272276468042 -0.001332158414924644 0.001872978515183737)
(0.0087981405973039 -0.003598302629381844 0.005125788812612782)
(0.003411723695302328 -0.0009427862469190511 -0.003483488973030985)
(0.01104503318184421 -0.01629958435719542 0.01745856003675083)
(0.02641565146649589 0.03829051631745661 0.02214242644475823)
(0.08657849029642131 0.02725134873672993 -0.01880941385671424)
(0.001188303092348861 0.005794071895849451 -4.901124078016098)
(0.008504619732231723 -0.008394096687102184 -0.01981253055765569)
(0.001092507171476991 0.002640119155908024 0.0002567890001847505)
(-0.04836768829946603 0.02455378672760913 0.005540679707552952)
(1.215519324335696 4.656481461597114 -3.774667956585001)
(1.096716498489143e-05 0.0001244896209858676 0.0001023158572950436)
(-0.1305189419451012 0.02430360618681173 0.02211374014447683)
(0.1393163338811909 0.462159935256684 -0.7238922757507092)
(-1.339674647620467e-05 0.0002099632436772417 0.001610336019744523)
(-0.004053623354367101 -0.003017529290706176 0.001240975442948247)
(0.0001034996543897592 0.003197777155674029 0.001688773568358272)
(3.557657953182444 0.8716568638537259 -0.3261050931736216)
(-0.001417588122933451 0.000611131773160549 -0.00917601622113905)
(-0.004128893029526875 -0.01497369163739337 -0.01829661028719946)
(0.01514355880197193 -0.008484433095997935 0.00420721471163776)
(-0.0004335270657695818 -9.449303054575003e-06 -6.914375971200488e-05)
(0.005005298943917642 0.0009901688385640461 -0.0002291956942575674)
(-0.01761612485812084 -0.01601196777849116 -0.01310662797417339)
(-0.02906712231238439 -0.0007051996555081201 0.0246762057123606)
(0.03494395650488143 0.06385413833401715 0.0451859950220938)
(7.57169771198255 12.67844285242574 28.28042687091568)
(-0.2698392054936784 -3.424141286598473 3.331329457515384)
(0.01032994710447127 0.009285047361524131 0.006012847148454142)
(1.956241676860158 -2.2337076968798 11.01612932139382)
(-3.138824915210682 1.742817227438705 4.685556150279107)
(0.6099394028075998 6.369284260864119 -0.8473950723627648)
(0.7230217020750404 -2.399279229365995 -2.531646482835141)
(0.2127668288864135 -0.1673559671596795 -0.07997132977203894)
(-0.5600082268867823 0.6769959699623826 -1.554683158441973)
(0.08016727627041099 -0.2348552442310418 -0.6998739248496981)
(-0.007016029852102429 -0.0013264156354497 -0.00671806830004041)
(-0.736458362702666 -2.128822214769022 0.8116051913659909)
(-0.0002414405355067193 0.003517418745316464 0.003535310789356987)
(0.02533234882769265 0.01121091988224318 0.004610921529586254)
(0.0004316968226369307 0.001238475162402121 -0.008298872164002801)
(0.0006070021573429881 0.0006575803186470963 -0.001473245573746763)
(0.0001812258467823773 0.0002573549652415478 -0.0003974483903804909)
(0.0005102628104389678 -0.01169088613539681 -5.078358441595149)
(0.001549167245391015 -0.006833201893139116 -4.884175198940385)
(0.0002595728006171325 7.775390334108202e-06 -0.0003258415662608294)
(0.08429929106134519 0.1126574517105253 -0.02812689751093856)
(0.009608495170545284 0.004737093268239127 -0.003300952228018348)
(-0.119993881132963 -0.4932213274236656 -0.07070672027795043)
(2.719704108523759 1.894736987340154 2.115634637239794)
(0.04143619827544559 -0.00372391455156213 -0.02077374390487504)
(-0.03478046162453571 0.04630630944768804 0.001303017894934699)
(-0.001832146132839736 -0.00926855316630083 -7.949169800484018)
(-0.1397535988805168 -0.8004931068425726 0.1261524174625003)
(0.1249119208036091 0.121572329359283 0.1184442670239128)
(-1.498293982945448 -50.47387859488557 -0.7109545334900911)
(-1.299117954533715 -57.42535932153723 -3.826229534795729)
(0.1252179664556449 -0.02016829713582648 0.09708478877884924)
(0.01630318320299191 -0.006123272335140424 -0.008304346464133947)
(-0.01164847025810933 0.02654035563342139 0.01330320436551109)
(-0.1806579679425018 0.04982739481241361 -0.08563571389721726)
(-0.01019129373148938 0.04971680236539372 -0.0306591390762006)
(0.0004029240060528004 0.005612015135958887 0.007774006111304285)
(0.0233346030671458 -0.01317510961859972 -0.005456287045246261)
(-0.04972692761169759 0.00587568705955107 -0.03787112040890693)
(0.009323992373338086 0.01299719816239505 -0.005929994844461467)
(0.9991408500807701 -42.90359432022176 3.80808537310984)
(0.6360360284904523 -1.364050590702993 -43.84708960120359)
(-2.909930213440685 -4.925316302819776 -0.6991556282450193)
(-0.1889329114256807 0.07355445697216902 0.05966469324610003)
(-0.7706741949081836 -2.001284195321819 -4.312723665718548)
(-6.468055995806227e-05 -0.0004609792643962833 -0.001106900509938257)
(0.6906557376725515 7.07500626255243 2.181651865165568)
(-1.789085015695569 -69.59395178950142 2.695761915265352)
(-0.002859610558305504 0.008175464881776114 -0.005143420940252422)
(0.004567940041727051 0.01251809105887389 -7.729892735807731)
(1.198241028967156 0.2846140291400605 -1.353012943458222)
(-0.00177162016862034 0.0004502637434968317 -0.006106035324520412)
(0.2035962907211118 -0.5020092427481759 0.2652798485293717)
(-0.2396986415141127 0.2440859159439257 -0.05136279298438801)
(0.06353414836128098 -0.01767950840381665 -0.003421551654807235)
(1.422239819936033 1.947079246324364 -56.56241333410916)
(-0.9508913003796491 -5.994842865271431 -1.193203991112822)
(-20.01267203214806 -17.40803613710451 -5.944373651845487)
(4.199418491376554 -17.6997775771394 -71.91460552462959)
(0.3360504048233588 65.03440340777217 -5.839165173779209)
(0.02316086409290165 0.04540556008263031 -0.005455325183986202)
(0.3938902256617673 1.99603845023574 0.1694831563002663)
(-0.01340987939161481 -0.02324597982992247 0.02053069347297463)
(-0.006394422474318191 0.001211057578378431 -0.002528880364861812)
(-0.2479744467944213 0.1131491084876947 0.1084559914939439)
(-3.905343937166315 -7.620582680830195 -60.206521810311)
(0.02785813174232477 0.02017946725619041 -0.1037369965400551)
(-5.806891898373351e-06 -3.558245994469862e-05 6.342977139117722e-05)
(0.07155882486754639 -0.3494018156446858 -0.2076597001622781)
(-0.735065428344824 -0.5739715810439714 -32.49289646344607)
(0.03718990664929126 0.003848498128550022 0.00396605348568716)
(-0.013992274933294 0.4444976799070307 -0.1815416044269512)
(0.2764066351796649 0.1369274142188329 -0.1827437407277642)
(0.190601150090784 -1.02054192182991 -0.9444945171217061)
(-0.05028290969037489 0.03458870274506771 0.009165394748462001)
(-0.001367723652926347 -0.003110414242118519 -5.745020768171057)
(-0.09350687301656023 0.2261554261946326 -0.158100977331922)
(0.01038507630866221 -0.02200234806171518 0.01477195142796726)
(0.1843075137501309 -2.264991305848921 -0.440886127707)
(-0.06121342814169412 0.08877043294602037 0.05709261584613613)
(0.01852782322553513 0.002928483077710921 -0.01102771756152896)
(-2.673185183153963 -0.3173487280104013 -1.457279039824808)
(-1.576694638158004 -0.07980358360248857 -0.03375165439776923)
(-0.0002364929346863048 0.0003647111807739972 -0.000184418215263897)
(-0.0003075303134392766 -0.0002946584032603182 0.000368294515242874)
(-0.004987202874385414 -0.02024029127553283 0.02385224864118001)
(0.3728911212991389 0.08329898243654794 -0.07500859536583895)
(0.3191831592155568 -2.969492668456815 -0.4349042163666919)
(5.834467016525958 -2.734378734116655 -1.245382443391037)
(-0.09228533814783073 0.07482243571224229 0.007679192627226075)
(-0.1456805562954043 -0.01752856071534612 0.1024232410408049)
(-0.0002566786441214616 -0.0002119585784217943 3.824265412626082e-05)
(-0.01580187095808377 0.003304243662303612 0.001815778602735947)
(0.08522814886037038 0.08118675139861226 0.006354828661966059)
(0.007691663758984169 0.04215908266432211 -0.4410834731397043)
(0.005174863130978292 0.005717614203875567 0.0004805787169450603)
(0.04536810274335887 0.02270377406114618 -0.005420777583316178)
(0.0147576642329877 -0.004507403861160456 -0.01518173085037145)
(0.007857821589713335 -0.3528046781722243 -19.7790933197017)
(-0.001042449148102128 0.0007542736283607952 -0.0003938782349794123)
(-0.1560348100043403 -0.01600761100360813 -0.1223843074083159)
(-0.0005301647679360644 -0.0002398144790142028 -0.0001729617688395954)
(-3.486627812857802 -1.5967642431536 -4.539534568825272)
(0.5203164258876518 -0.7340315666794732 0.3090272820607058)
(0.113966182427168 -0.7680421596799982 -0.6859092676919624)
(-0.08109875203757448 0.01011202916239686 -0.02328374331519511)
(0.07589635643259365 0.04248618650927514 -0.01943153305480642)
(-0.1312699322751105 -1.702972811249067 0.2116685621195007)
(-0.00155747854930246 -0.001901425900267535 -0.000116321339461439)
(0.3967496610123207 -0.2774812376668063 -0.5527533966054524)
(0.7085456786049162 -1.222377995466486 1.120936411251728)
(0.0009952110680936164 0.001810177328203242 -0.009549437864751058)
(2.196801165268056 -0.4400134710913439 -50.73686306207598)
(-0.05777102037168852 -0.03664233237715746 -0.01871187862516972)
(0.00195445620517914 0.0002348763108589341 -0.0004407803560833427)
(2.035656369541383 0.556979909051644 -3.862477453284328)
(-0.9611120505964068 -2.235959891149835 -0.4598182052317543)
(0.02218892993181532 0.02228092777509593 -0.02254758387965792)
(0.4141944941580005 3.290052092949308 2.563569430934152)
(-0.009805373843611246 0.02314677074007622 0.01200517600316315)
(0.02139067116373702 0.00119010338578153 -0.007514134387274638)
(-0.0002527637655423552 -5.075262608634969e-05 0.0001296006990074963)
(-0.0078502647941636 0.009521800968737348 0.01535659657161101)
(-0.0005223855527401631 -0.0003139213126200083 8.874604196652103e-05)
(2.730305206123084 -1.983787807208961 0.5546548497905467)
(0.1247229184431871 0.1817072184616319 0.01538169354561122)
(0.006009761203873089 0.009377305469163918 0.01323317851409817)
(-0.6044965440366064 0.7625546579967259 1.937737319600098)
(0.03663097182554984 -0.005683716365428165 0.03645203450329645)
(0.03559984735013386 0.05593541418719415 -0.03572163174627451)
(-0.05922498302435338 0.04094728743052665 -19.52290363466231)
(-0.05706806614356882 0.07867046329636368 0.034242495329331)
(0.3174841529176372 -0.2440772294350026 -0.3893194519239198)
(-1.031830398561347 -3.549708262450324 0.04293535575136648)
(-0.4177519146553583 6.881091899829368 1.834119345014028)
(-0.1140131144828416 0.03451443502016593 -0.8251608690233248)
(-0.1771615748355338 -0.1083231902013326 -0.0550836741607443)
(4.293530856224577 -6.060849145809009 -3.788879310630234)
(0.02084552023437649 0.00948660268237236 -0.0240073591654304)
(-0.007408433664236415 0.05259621269217693 -0.0288441740524773)
(-0.3413601344648322 -3.068408682351125 0.3724700840781294)
(-0.1557667363069105 -0.07620171196114145 0.007358447056425091)
(0.1164405220667453 0.03641313550203143 -0.0002310569499116982)
(0.3275087226010704 0.2245195394426528 0.00631438134146009)
(-0.03892678922472646 0.1845770702600628 -0.1315634350555362)
(0.0006715577207610542 0.0002294001486482171 0.0009734750828452526)
(0.09617207073943734 -0.4506184525565649 -0.3729315516973471)
(-0.001428051250638685 0.0001681907615690511 0.0001146626604330403)
(-0.2888784122624985 -0.02448871855686025 0.07701357751185883)
(0.0003501640540190654 0.00230631549491405 0.0003983781147803378)
(-0.3347478024205062 -0.4081837215198939 -17.43730052872696)
(-0.1384088835669105 1.129316965275973 -0.4479381385955833)
(2.608216840295289 54.45003946151156 2.841031516614724)
(-0.07594075363048602 0.02686208435228368 -0.01677636711759603)
(-6.528011568211737 -12.58382087237858 -9.470996418486752)
(-0.008679114083624866 0.02073651584645439 -0.1345273214948363)
(0.2129768328448229 0.07814886066386438 -0.7557451079787489)
(3.103121543248273 -1.504867516779052 2.839309371664496)
(0.7265216336532377 2.37801080217893 6.197883773336723)
(1.340308778392425 1.702254349279462 -33.1734579213177)
(0.3165196226167223 -0.4500122426955868 -0.7839481747593756)
(0.0001961684014630852 0.003574606258180642 -0.0007288280881365268)
(-0.05667678059702855 0.01760864491329753 -0.001635197926807202)
(-0.02368608117010575 -0.03463820587544346 0.1132912568909283)
(-0.003778715075554867 0.004942234486748906 -0.001410188052218986)
(-0.003036262627219784 0.001646438866277393 -0.002767826994221742)
(0.004941300096160461 -0.005312664224860415 -5.53590107387719)
(0.0004724806347111774 5.848939997639646e-05 -0.00163277806942827)
(-0.02130549368354748 -0.008100732306363843 0.01754761871621745)
(0.2772864526373986 -0.1193835130046928 -30.47228831616061)
(-0.0004211161546661131 -0.001532356062341025 0.001238753769553083)
(-0.01052598194664888 -0.01129085988697998 -0.04872640711125229)
(0.0155566701054348 0.0554744265177031 -0.0003249750544312432)
(0.03982077097745503 0.02540623509721308 -0.01717654589763447)
(7.693927185067683 10.28265131274024 -1.259153467103439)
(0.0004259161721632508 0.06734059110879966 -0.03270824863921257)
(-0.05825065686537943 -0.07525939400914096 -0.1303557422292911)
(-0.009967151808410591 0.02298893137587869 -0.005169723776912155)
(-0.02963286559217625 0.08733676115549832 0.007017262940577286)
(0.03155474410187601 0.0134751153611984 -0.02813592120605241)
(-0.1449961925132514 0.0263124729371171 -0.05029278713800563)
(0.001037202291175469 -0.0005083520387646055 -0.0001494544608455177)
(-0.0002373684901426689 -2.521303408523224e-05 -0.0007328887998821987)
(0.5249503656296912 -0.03436378743481997 -0.4459694903712145)
(0.00535426851088149 -0.002383450968708122 0.003805446839987934)
(-0.01059479761804896 0.05536519104996045 0.01087035337107993)
(-0.0003159710775724112 0.000222043552783254 6.089245842345279e-05)
(-0.02245788695619629 0.0236453355544386 -0.01130786157344271)
(-1.255314544975585 62.11654156849492 -9.375492131045345)
(-0.1355983377193599 -0.1331192401372353 0.1789645620858063)
(0.0006258074579528845 -0.001206647259204378 -0.001162448982220603)
(-0.002280466723245694 0.004923555301614601 0.003751641640114623)
(3.559279383702449 43.59864209850413 9.249674608459529)
(0.01609297761898697 0.02700392614315283 0.02435500999470645)
(-0.003614481424806401 0.004762150418895075 -0.008162896652380385)
(0.03824165895821616 0.08807220057156387 0.01000265759972642)
(-0.002763263550693823 -0.002429244464153391 -5.0083971815194)
(0.08388996786628669 0.004979188247076299 0.03615611540091608)
(-12.46121275731571 -2.482094739709698 2.251054551296353)
(0.4075654091155725 0.2028385450015382 0.3559397357888489)
(0.08257808611802658 -0.8435575782312934 -0.2192516658927703)
(-0.0001324449736059073 -0.002851969276285391 -4.816687676524713)
(-0.000377814937860358 -0.001519442692144697 -0.00151757300681693)
(-0.690203164115577 88.25247815205715 5.218943365906374)
(2.666353406728151 63.12683601828114 -2.986897005543711)
(-2.993121342136974e-05 -0.008177331166459387 -5.016378490036317)
(-0.6109983483864192 8.5594890892521 6.574449194659677)
(-0.002313528312914273 0.00596723599048877 -0.002405984568475036)
(0.03641061833096926 -0.05742409158567471 0.05137933868107093)
(-0.1885410896745971 -0.04373231218532336 0.108385805882976)
(-0.0001271017480550564 -0.0001127003845119442 -0.0001544406076154118)
(0.373511461356152 -42.49935221127671 -0.2608942084862513)
(0.1658208978490754 -0.03179288895455736 0.09074508040152912)
(-2.81689939075389 -81.82398331810552 -5.789280264702721)
(0.01569088871464448 0.01144893869219323 0.01015284017732563)
(-0.07668670311234271 1.773711526415617e-05 0.06702923166073818)
(-0.385235980466798 0.1328915176082002 -0.08733049095360995)
(0.07247952869762495 -0.03459142273855181 -0.04363338311618715)
(2.391130876440548 44.56848852307156 -0.3435691919735498)
(0.1890868786463464 -0.1571926535283554 0.1023976830085451)
(-0.07062165673964702 -0.0341549749541584 -0.02497077790901624)
(0.3989382991232543 -0.01999593894170257 -0.1006624458047004)
(-0.05940923020485187 0.141135338289865 -0.151664595809795)
(-0.01754112158187912 0.02722330321657764 -0.1508889722930012)
(-0.002206879116041145 0.0007907116018385082 0.004813088550653447)
(-0.2931585144584952 -0.287319458315648 -26.70613188768124)
(-0.01351948953215071 0.005287249913976305 -0.2070239005455177)
(0.001157313721057531 -6.739431366251515e-05 0.0001919831026785202)
(0.007362819094109516 0.00110164568215004 0.002247800040800901)
(-0.1271896152947103 -0.0115007283743238 -0.01674575007954633)
(-0.8375870890468586 -1.048737804255283 -1.891053527772625)
(0.002299614058068256 -0.0010427015278938 -0.001496231647665039)
(-0.2421259169036195 0.2034867491904245 -0.02902702026437647)
(-0.2443236185270697 12.88775132014447 -3.909188078410332)
(0.5617936353413781 2.319712487607672 0.1959216535201687)