/*--------------------------------*- C++ -*----------------------------------*\
| =========                 |                                                 |
| \\      /  F ield         | OpenFOAM: The Open Source CFD Toolbox           |
|  \\    /   O peration     | Version:  v1906                                 |
|   \\  /    A nd           | Web:      www.OpenFOAM.com                      |
|    \\/     M anipulation  |                                                 |
\*---------------------------------------------------------------------------*/
FoamFile
{
    version     2.0;
    format      ascii;
    class       volScalarField;
    location    "0.2";
    object      p;
}
// * * * * * * * * * * * * * * * * * * * * * * * * * * * * * * * * * * * * * //

dimensions      [0 2 -2 0 0 0 0];


internalField   nonuniform List<scalar> 
19632
(
0.0275924938242827
0.01023119068865215
-0.0006448254597390057
0.003944029721942238
0.005405914880230724
0.02245628480752204
0.02339688222285597
0.001352008932619031
-0.002983096423652172
-0.01302884562475856
0.007646311439802502
0.02244883092333066
-0.008048308188439492
0.005351397602630134
0.01589086336834738
0.01421695951848377
0.0154421653140755
0.01597828731789922
0.003807403848883254
0.06678220839975274
-0.0001654421752958397
0.03574074957555946
-0.02244552696758689
0.01476513303409209
0.006537657282908107
-0.00105811156624452
0.008625621864196461
0.01892306542627767
0.006162966563897979
0.005769600307477737
-0.0003695536675499713
0.01778655439917302
0.01297088802431242
0.01778831983004139
0.005849667083746398
0.01453886797580427
0.02425449978621366
0.006144816032551488
0.006692341248486355
0.005715220980083211
0.03065270729976513
0.005786674749443696
0.01771847905189237
0.022698174727628
0.005769975868975991
0.05375342604269066
0.02156911455901645
0.0302230400002602
0.0448397556287783
0.0003723194643673031
0.01966472833625105
0.001772633663849882
0.01254455835105075
0.04294675353864519
0.03348105033131965
0.04603709522245655
-0.01042381687811276
0.004926812706236316
0.0313054475085807
0.004843884196115878
0.007661905760252902
0.002000630439836601
0.005216892383781105
0.009294631186680261
0.03111125878414215
0.004621368741605961
0.03318554032790073
0.005599263360131468
0.002003840855471538
0.02564076317080662
0.007166251863727157
0.04156709085928951
0.04549226071725034
0.003900257623179012
-0.0007890720242998371
0.01477499736024728
0.008162087735920014
0.04831360320307498
0.03565559244570514
0.03093632573849339
0.07100717016564621
0.02467904246003605
0.03046814822210714
0.02381496426314343
0.05035073129411925
0.05187368618455829
0.009589751606017277
0.008887321498847238
0.0918465572227289
0.02353194870848829
0.003443103580014722
0.01025495128585997
-0.008687488146605126
0.004547884626131697
-0.001887818915686216
0.004634247445751835
0.01039546241792143
0.005497730370307883
0.04480061158196381
0.004499669348648669
0.003280594685994791
0.01594202320316798
0.01088053807059314
0.01029842887154018
0.07389414945505085
0.004826292445756559
0.007393878176377587
0.0002099713543350981
0.05699628676374877
0.006941527927702398
0.02512390548789772
-0.02205119393778618
0.02836481380907253
-0.01358531603274963
-0.03032308585496595
0.01652361652028193
-0.01215099908235612
-0.01512177704198737
0.02496964106570304
0.0145887886274617
0.03013507010390153
0.01031182437093736
0.006594625166979642
-0.02661007407604499
-0.02967748632053908
0.0208091415713813
0.01565947658506124
0.002014927492105256
0.002030470125063886
0.07336822339795832
0.08033112043130308
0.002773386016295981
0.02138722656770484
0.001954470340247191
0.002657528258010992
0.01315202142248625
-0.0293407373728354
0.009951633089581356
-0.002267887082502711
0.01838820754538217
0.01398346084781798
0.02482228170907059
0.0003615184550797247
-0.04775223187651621
0.005259422906037851
0.01289707669984
0.001383673367785516
0.01924843737336634
0.01527179310170325
0.02892700580884067
0.006004913574167477
0.05575138282677064
0.02463346752122082
0.002530987225343538
0.007104260143929405
-0.01244206893973317
0.006785044464303374
-0.003680185262710577
0.03135306073347639
0.002193146135225284
-0.02348599244268629
0.0165238258595114
0.01875438065601125
0.02227452807897079
0.01961212645360443
0.07705226066099286
0.003507995239105989
0.02335967797284651
-0.001361970735332273
0.02520592787677756
0.02180371935858008
0.02333927890438827
0.03494191851124596
0.0059588070360999
0.03562464932407493
0.06446056662796337
0.05277870219837211
0.004208924045965042
0.01067250936471612
0.02585106167300409
0.0005432655917374874
1.531445263303052e-05
0.005550076436378236
0.06561700460738581
0.005921569124038707
0.0002371575692920697
-0.0006701361509265572
0.002101154637022696
0.07985360994148334
-0.0003914735945708889
0.06381308821066603
0.00828841199178622
0.003770367368307491
0.002053387568692341
0.01076227745701308
0.01024014558216589
0.0002150877718013234
0.005266610203259812
0.003955116243420169
-0.0001866667453768988
0.003882366591541097
0.009497563033352942
-0.002042716547194145
0.00523962876863787
-0.0004432917920022229
0.005599329070631909
0.06959585705383761
0.007819017263741221
0.0160662486345145
0.003208262000002801
0.02689795561305448
0.008929139538299475
0.001775461367073631
0.005071684216496972
0.01277996972868083
0.005721683455280782
0.02562676340447922
0.009144724035245985
0.006553647237905107
0.01254227344099744
0.005145844908049756
-0.001003829994755294
0.01210783325441888
0.003984912837937594
0.004204126996996603
0.003746416126310687
-0.02222604535519339
0.004350221266419672
-0.03010764523777183
0.03779553405989747
0.01771634806015594
-0.005968062532371637
-0.001101648195035056
0.008773511959385541
0.001889819964562919
0.005232732543974701
0.001195929808559246
0.006541200469885793
0.005729080807211835
0.001037388950866489
-0.008528824280789731
0.00251205466103099
0.05844849963892953
0.01445952258059599
0.004085466734965045
-0.0003928275584269592
0.01694291502361011
0.01420154141267945
0.008781747262958954
0.006240207035243877
0.0008337593824597721
0.008610332798371046
0.01291774154736814
0.01272206620816184
-0.000282203076420225
0.01174652692221724
0.01264667624757809
0.006186889205967576
0.02048934459053443
0.01587142125388299
0.01089782123165456
0.02812670075511414
-0.004407980998201614
-0.0009212144202760717
0.01503843870598478
0.005823886513059541
0.0008046007441191867
-0.000303549220752663
-0.001216789980559809
-0.01522156550640252
0.003693662937766011
0.07530071098845675
-0.0008038682821666079
-0.01067952667620795
-0.001998839193077948
-0.007414552183082332
0.0007018286655649155
-0.001042295033611076
-0.001800296240218227
0.01264625972876031
0.01349475391426678
0.01239346261102327
-0.00144479026005054
0.005060805509050928
0.00139738157203729
0.001471110122719255
0.03653804523016958
0.0002962624642697175
0.003406082218224597
0.002224301555084861
0.0003723624540159926
0.004945299232744112
0.01853647187916919
0.001987571731337993
0.005194294464503244
0.01632855942658678
0.005122645793955147
0.0173013306298502
0.002323907631926215
0.0002944470172504342
0.01132878082629771
0.001656777341634732
0.004191399562274483
-0.0001469289581873512
0.01707150175183037
0.02089632003069774
-0.0003342043411617377
-0.01483002833839441
0.02230405169804985
0.0128776661658168
-0.008073304426395259
0.03064914605050281
0.01569109209452231
0.01264323554264962
0.004069733346130609
-0.001717923938604041
0.0006457224499582043
-0.0214760206954022
0.05369086413597506
-0.006768425611127094
0.02972165535948536
-0.009313553039089281
-0.01194355666652438
-0.01448287390525006
0.05102612699997055
0.0503891666326857
0.05669542793529019
0.00376471527689867
0.004171352008712061
0.01138311351267826
0.003482822962547878
-0.002384723840002806
0.05213154440851329
0.05103535477277711
0.004897874750368135
0.05220192920680946
0.007925800188211214
0.03945788274781157
0.006614516741581467
0.01917428028134041
0.04938409228319878
0.005090518617408719
0.01915401096144223
0.02484064509649833
0.04919143215437002
0.02972678226941153
0.00121805886820626
0.02270039011536147
0.00249530354298354
0.001445825219087302
0.003107438762939136
0.01577816208054802
0.004166636538565627
0.006920277047198374
0.0483701858493723
0.00457002810228235
0.003216041377407457
0.01443445738045034
0.05849197548108204
0.01256119815373995
0.004337592456677382
0.005400210538894865
0.02107334360273122
0.02820021219688702
0.01982518001057135
0.003417105981967634
0.00632829003612552
0.01661716818498218
0.006662714155099714
0.01575569324061179
0.01113778741135278
0.005351989060352113
0.01226154685137269
0.009987232210815508
0.003310315279089935
0.01930019941498189
0.004534339280378881
0.01483364404787998
0.01370453715272426
0.004455362962993417
0.01088936855923587
0.007350660170935593
0.03642442804645361
0.0201161149241651
0.0001198250437506315
0.009746394641814022
0.00726157243913505
0.06051790663755913
0.03788029640172259
0.01651577015304045
0.008020471354725991
0.03856034258905852
0.01293670299068712
0.005171892231210394
0.03525641054113812
0.006709690379278349
0.01883571377483497
0.03177302445362268
0.03907295373561373
0.04842381464552317
0.03733255014336825
0.004790541811164608
0.007049566478538478
0.003024374955986549
0.01505447497463717
0.006041658331567345
0.05448004200184989
0.0062019628541163
0.05337162895166452
0.02084113486383081
0.01073070066338069
0.009754587859883862
0.004967041597653167
0.009612049260655096
0.006476498858259173
0.007627914017039726
0.005964479477890877
0.008345591414376703
0.02831185245495218
0.02625491362485205
0.01518206918583566
0.004786387289831028
0.003365168244136268
0.005168237581207985
-0.008686169531891946
0.003328273691570491
0.02583650307106054
0.007845122081766109
0.004845333592253904
0.02358744985265954
0.0576160861898249
0.005502046624502529
0.02204238897307487
0.05202838137330447
0.004240382828144111
0.01244392123227734
0.01447132335552966
0.02715621614885145
-0.008145268660657467
0.007012009649619734
0.0001382423804098032
-0.001389596208848052
0.005784978464341794
0.007421602218144743
0.008093662288445163
-0.01235381639342196
0.007214732197408018
0.02026525119796509
0.005900904928291619
0.003605220997401586
0.004668527624860669
0.007754471062964752
-0.001960629724344333
0.002060435402518263
0.006948690864530953
0.00670419303963685
0.01702077054940366
0.008078020133410973
0.00361661547408865
0.006097087881209448
0.121135973034407
0.0235760177080468
-0.002201308221779582
0.02239379482682081
0.03692782543789929
0.005685437198000878
0.006009233711434568
-0.001540610975689284
0.01072566409250771
0.01490347390452403
0.02589762122761992
0.02041294520843772
0.01253952921794778
0.011423985105423
0.03183721102037003
0.03742851201543707
0.03355117113976547
0.01621713824932905
0.004568292751868644
0.0136973722704096
0.01993761820829659
0.01315081429621345
0.01141639360846909
0.00560756254560757
0.01577899283468768
0.003606113077930218
-0.001410858986549685
0.002448429107455924
0.003162269841303376
0.003615250995461596
0.007655092135270765
0.01767098082711594
0.005658087769838181
0.007444804493299704
0.0005123604586703125
0.003758096859619854
0.002058936542464447
-0.000151387353150035
-0.001196863817656806
0.006543160647209332
0.1380268886970717
0.003581912242068264
0.01646321213207766
0.01445326155364449
0.01394004771392628
0.01689335123478068
0.008467620576327608
0.01491532770952776
-0.0009291588505303079
0.01308755570466153
0.01357841887417897
0.01471394544585245
0.008744647388730788
0.006129325678235406
0.004316479700315715
0.05971915659076631
0.01506786090364663
0.01542633942984946
0.01391559556029868
0.0001358296559762979
0.007303167306306781
-0.001197362399508057
-0.0009666452077303015
-0.000107094175277357
0.0003094306574651459
-0.000457743636975598
-0.001767307333480466
-0.0598042820279315
0.0231649322892114
0.004056641388262194
0.01298747987044005
0.03170509305638849
0.03125191695914267
0.03200674921863716
-0.03573935619105254
0.04143069414007312
0.01157348281472695
0.01122093710521135
0.01456279121305477
0.01094384264136242
0.02524811862575375
0.03330886220606633
0.04440900670593532
1.135045595396647e-05
0.0180498056937366
0.0262390476874677
0.02440596668681779
0.04008566950519772
0.03971618589895057
0.02370261572864046
0.03098366642583086
0.01902774660109556
0.01934951369370319
0.04053085626797434
0.01840688071776492
0.02003861377010449
0.005901665928438281
0.01951026468473272
0.01908787901094376
0.01992325674414031
0.01828569172713248
0.04096562960913822
0.00636316298990883
0.0145034870149965
0.007156481334955175
0.01896597283074174
0.004399130643424192
0.006074626788670122
0.005874941330256021
0.006397845095156123
0.007621428192922746
0.01589924245052629
0.006396741664537691
0.006187927835192663
-0.00453393100398658
0.01598828936792003
-0.001108067685856276
0.0001183981684083661
-0.00053466764153577
-0.003545905233941115
0.01763146995784581
-0.03172045636604919
0.0001476493399567118
-0.0002162384695057261
0.01062968548062163
0.02107186437886026
0.01008344728852009
-0.001853498499814232
0.007036670227549577
0.007672792938544983
-0.00242434132149153
0.00763069707329649
-0.002242795699922469
-0.002443167969341829
0.004472815675681241
-0.008542304758632047
0.007118773791804822
0.04269059002461811
0.004715938899992564
0.00469142155193404
0.003490722235693611
0.002686420611790169
0.003051422949628186
0.003809870994354878
0.01895457932993969
0.00371508817726024
0.002440568802344615
0.04774905921485655
0.01344614227297096
0.0003219830654084316
0.01030756805516617
-0.000368884178227652
0.05576755932978717
0.009266131077956839
0.01586374563933281
0.05021832026543529
0.01779736546383621
0.01403809797198993
0.009992291933557135
-0.005558656382166829
0.02020648093772529
0.0008259545009793917
0.000251308624150928
2.491096808485224e-05
0.001148245754987726
0.0321558645602005
0.001672546064963821
0.016820723309873
-0.002133390298787414
0.007332499728723556
0.006937451878386469
0.008272666266245855
0.009038513241590461
-0.00089729136775225
0.001404524228788224
-0.000141036611092715
0.01510779961121873
0.07613643931169999
0.05064611672810983
0.1180202684984853
-0.0003633061752113142
-0.002242821339957467
-0.04327945782349945
-0.002781223941889815
0.01532161828130304
-0.002003575266909603
-0.00180014265899337
-0.00229429349534121
-0.002361920541315733
-0.002901112893462223
-0.001761045886166099
0.007612416816733166
0.007937453555407835
0.05825404941686533
0.05452541984144142
0.007044243953853602
0.007955676099777303
0.0001241800336172975
0.006984221197976407
0.007329206304663407
0.007030830560523605
0.006642160924682314
0.00685408979833292
0.007006159621188261
0.001924736419675377
-0.003526043712367019
0.007667835957243041
-0.0005660126308746584
0.03619828302809622
-0.003275348623779381
-0.00235858498799455
-0.002448006862532958
-0.005254486830957028
0.008321069431827687
-0.004673027022167254
0.008497929572676645
0.008723086136448325
0.008987068086069371
0.03155644498268279
-0.00080945898433946
0.005173544091457442
0.008423732303073004
0.007836993231596583
-0.008488209713442921
0.009363246073981245
0.005782843928528251
0.01012210269459838
0.02689743945644048
0.0168097149309047
0.007927995587788223
0.008927149899241088
0.03118021161238301
0.007211160459023379
-0.001238193589224869
0.008192857801876679
0.004743587351599984
0.001800323516370258
-0.005418715626926191
0.004863277759500303
0.004449037478475415
0.002434227643253228
0.05149782986276508
0.03108872554921607
0.005398199551111132
0.003698857029371847
0.005062861331024395
0.004912737521328338
0.004921818850701015
0.07359733183605832
0.02922188641064664
0.01925289513138675
0.02681087253128912
0.004414412998460679
0.005826393072894223
0.006695214745660733
0.005243035820636678
0.020267486178695
0.005006795166382187
0.04165533624954749
0.0080571906537383
0.06286522314426078
0.01127697064713256
0.001243159363772598
-0.02128714856529094
0.01080901577069836
0.02332480433363877
0.000857524135537693
-0.001478546978489357
0.01034432377489844
0.04407959435092339
0.0001023403480076776
-0.002229281164883985
-0.001406384483858263
0.03230566675007541
-0.001967133168012416
0.002259882932701672
-0.001374852364557196
0.02763462669700356
0.02136310717626159
0.008478060401079584
0.05915206775779961
-0.004626048110654689
0.005721900918530683
0.002624135068081325
0.001924444100861113
0.000247285770901172
0.02763150120017155
0.01248328215561201
0.02151601469511696
0.008044279358293884
0.007467233140537247
0.01022214722013573
0.003455407187966174
-0.008340781935549569
0.004874085740019947
0.001109251785959476
0.007993849013138907
-0.001521347363186107
0.001105103988834286
0.1179941161201428
0.007386671146894306
0.008611652692332336
0.0004512622480246782
0.02012172754870352
0.007794144845039207
0.008464413193576523
0.04493673727310554
0.006923902911067134
-0.002578699230447953
-0.002784832269128527
0.05803323426672978
0.02609255852781391
0.0003243750303245436
0.000148183145056263
-0.000266244219739705
0.02406503360169275
0.006464221713490503
0.005505893467007045
0.006202010036252576
0.006186006317139155
-0.008100899725806044
0.004363670518336343
0.004552880864925939
-0.01881267889038141
0.1493182734639874
0.06931752152619372
0.06482041366787207
-0.001194823685247589
0.06479727189371431
0.07340587363092743
0.0103861083777366
0.1146851296499089
0.005456144233164904
0.07386220712696659
0.02957325677605162
0.009630013296384131
0.009392943673889206
0.03064273200865497
0.02992792974758665
0.006943766777772962
0.07045711939561915
0.02118696006162811
0.04182090074548592
0.02421969119072191
0.02621199572292507
0.004039900953913382
0.005592526610911769
0.03185264540036113
0.02955570116860685
0.02732149111529179
0.02003892593636628
0.02630927347885926
0.0696264947054669
0.003462514938801269
-0.01776896526306703
0.003918176030914061
-0.00904614690908661
0.02489433762377864
0.03158454611445736
0.03776942266589556
0.0331543399660346
0.005571455249679821
0.04766687157315835
0.04479116497374361
0.05103498119238103
0.04477331459756483
-0.002008543529652338
0.003640783545860699
0.01416177344838865
0.08158995843643953
0.04746101466556752
0.004091354483962629
0.0342786076535332
0.07005639746287869
-0.001720124462266006
0.003936237625268103
-0.01016692090982241
0.004977465001714049
0.005339298306674052
0.03442955381684084
0.007072936339353173
0.114267119480049
-0.01872063808944087
0.03506225593670805
0.0006919568392979076
0.001044951046264542
0.002096546409019087
0.001799135792314837
0.00144543104246172
0.1102544963425145
0.007028679552811338
0.005975629721560776
0.007159066118469812
0.006799185660595649
0.007089481351988744
0.0385997801025375
0.01779109284117453
0.008677438292895178
0.009245378420394907
0.02875177792548472
0.02958363832996743
0.1055258054560205
0.02906533753545667
0.1173841874462795
0.03248876551139671
0.0172930788766561
-0.0001354218144818886
-7.620351911534603e-05
0.03632577787907114
0.01877028959410624
0.03259617571540301
0.01630637509088001
0.04517190089714153
0.04682534720103839
0.0477765671274862
0.04530529994212346
0.00469610204666298
0.05308291756769739
0.01028752969808453
0.011561697475993
0.0107552177770899
0.008873887557335992
0.001127134711156382
0.003044383030354036
0.03051116014726254
-0.01420054629584381
0.01058690268067776
0.02198710500449027
0.006884938060669258
0.0276071410786462
0.03672950193652208
0.006608339445959623
0.0915796757147032
0.01729698636277978
0.007869889272895158
0.005055350277634676
0.0045477572649987
0.004474063177136663
0.004510796849412171
0.0050419746342396
0.004963739323474355
0.005190782554583693
0.005356134927993813
-0.01548167023191094
0.006350324605599298
0.008215381141666716
0.03629038822497877
0.05825164299635218
0.1288156346436134
0.05942618028792637
0.03047640710619946
0.002240241180343359
-0.03993725495292099
-0.002013210188128986
0.004880647550408557
0.02222159995797578
0.0004945499419781309
0.0007202753678248186
-0.007453154534489445
0.001562711005941893
0.001157027586789303
0.001258387597351906
-0.0102588822139394
0.0008445504156213652
-0.03883030491448836
0.003044264870818212
0.03977448898072013
0.1054387616490749
0.005191616722940436
0.06437872648074755
0.03438625187192793
0.005220710575364901
0.004672503158928825
0.00716337530947148
0.006654647947173031
0.006244478599593967
0.00651995224471071
0.008235387135232386
0.006285673239306806
0.006136209172605615
0.004818457296416094
0.007065888631318794
-0.0002988252843214617
0.007482252562045698
0.0282616767176335
0.05267071342190272
0.005189723077949022
-0.006353864717770294
0.02244431667688678
0.005177000563963145
0.063664618415924
0.02348017233450464
0.02611840812097739
0.005014241788276501
0.006007257491721629
0.005886365499288278
0.005193215882654733
-0.02458072250604576
0.00529688523130366
0.005278543644233441
0.005372710848189314
0.005096512877668188
0.005112311422345198
0.05885056138284508
0.004531530174164267
0.02847055110439027
0.03333193613991153
0.004357446122069349
0.003256865039037886
0.006246442692233024
0.02049001504400073
0.005291498925345237
0.003728745848107249
0.003662820170446099
0.04796074001208488
0.04396697181144614
0.02932579844591964
0.04847366257026905
0.00592140445579703
0.04227788654809179
0.006347648804104088
0.04470228876063057
-0.01447568948450185
0.04491626601693474
0.03305375652434002
0.02533893751327878
0.05132427241546366
0.03358973690881806
0.04622725560634049
0.02361491510427888
0.04621494676378598
0.003202394572660292
0.004369570995753583
0.003557033374996849
0.00445075008567445
0.002957717216413116
0.01489173321133636
0.003377456623136447
0.004316127956664637
0.01998102070179582
0.02969417534580018
0.005760727168282913
0.03817102628968495
0.04308188974933323
0.03865122025594226
0.004641938733709553
0.03877276839631394
0.005634882220007019
0.03331582358392978
0.004494976770378866
-0.004980704583646333
-0.0008081709050132013
-0.005142603386201765
0.00514321066105837
0.002556707380822463
0.01195662182756257
0.06172654832753392
0.004234599107983235
0.1012489221199824
-0.003567541491685905
-0.006665436337924088
-0.02190732218787115
-0.0003477324573727371
0.01331300755398554
-0.02818351376832307
0.001690602050150798
0.03066927410444376
0.02192615591360625
-0.03427130265555337
0.06067117889382137
0.00281024298518581
-0.0007132126190325303
0.006531033431797601
0.004270912786661473
-0.006639686524104036
-0.00506823055161586
-0.005444574733441835
-0.01039352780580197
0.05927865553607195
-0.0186640799924968
-0.0146228027625669
-0.04124651278047042
-0.0004327731279412988
0.0003792626630934927
0.005643772157050068
0.005171364268314922
0.004205290518372568
0.01293239917829174
0.003599043688444125
-0.0006483940514744965
-0.001861136262671905
-0.0004287244681331658
-0.003091893909306575
-0.001966140020385664
-0.003791002841341072
0.0001851576196687808
-0.001396830435792731
0.007012524131727794
0.02539497675633177
0.03247648010406112
0.02705789758976515
-0.001434980084981924
0.01711729731018493
0.01893087322627523
0.01320287771245407
0.01299362998823827
0.04777481239535961
0.005933321581720529
0.01210518401662598
0.06387848426776109
0.006072954625328973
0.005692573683149989
0.005674916814899005
0.01574376449607789
0.01462293288148111
0.006182639237507007
0.0007630899244955889
0.00218591932945595
-0.002421147998208287
0.005932934763890832
0.02692247988295239
0.01932446949245634
0.0192877743248603
0.01704922511228819
0.01737495978300576
-0.005092805193245242
0.01722091154288941
0.01623365376440252
0.009222329685593351
0.009670256257586657
0.003709492786106475
0.002222289744868565
0.004904482822625448
0.007831219896771232
0.01100285256788975
0.003992189838356052
0.004075875143401009
0.009732180059621906
0.003608890613048346
0.004386307254507409
-0.01064996937562356
0.004412400777626518
0.01498432395627591
0.003833461347696282
-5.819252232064201e-05
-0.000803096252755992
0.003739894504798046
0.005526134186087258
0.00417747214889098
0.0118705381132711
0.0112898294362983
0.01142050859506037
0.01326044820056991
0.01280707545920065
0.01207416850559319
0.01253759650664774
0.01211108177392388
0.02043810990314551
0.02379493781375853
0.02201755295749576
-8.428881314840643e-05
-0.0006127156967461381
-0.0001515228643654687
-0.002011847989431752
-0.001345908103897315
-0.001924092833973384
0.003683685576430974
0.04618281095980164
0.002601895361294805
-0.003746569462932009
0.0004995843437844497
0.00235368507865602
0.0012743762743088
0.0007192210874092317
0.00141831518953942
0.001001053242241446
-0.000534960707192504
-0.001342455296992884
0.004864052281979219
-0.001338319809841972
0.04379294701339787
-0.0005584516496335379
0.001687192512088489
0.007024993041764501
0.007149557298599329
0.04061904977151818
0.01238865614940667
0.004648095672724506
0.00712809523861803
0.004818645528219989
0.04076508428888732
0.05356871064112963
0.01453731158293656
0.04293117962032034
0.02253981095433609
0.0125247928478997
0.02524490180205621
0.05671037424978224
0.05681183569650576
0.06080935813903637
0.0577164095426219
0.0530722609264174
0.01334411157278091
0.04746475319704197
0.05018322025865859
-0.004012137380570073
-0.001246280455963826
-0.0008562767465136027
-0.002237171982146203
-0.002286730806212675
0.002902022397109314
0.001975892415155206
-0.0003668854836571324
0.008076296954063698
-0.007030167626994218
0.02582435378434895
0.005159884501573421
0.02350153873306115
0.005855464402822502
0.007811263464640675
0.004557192575763257
0.0001446689162625314
0.006083729607775108
0.007266687981603523
0.005910203796889433
0.01076253916438755
0.009043729205500863
0.006251771440282819
0.004580528523484333
-0.0395205488638115
0.04254404662462141
0.04087616489255479
0.004163456861547447
0.01438044817306676
-0.009535460631724913
0.001636560372870188
-0.001589767273255111
0.001055439035801961
-0.001144536930776573
-0.0003120950458822646
-0.001850149098726619
-0.003334497957798115
-0.0006626204575403721
-0.0001650123756957103
0.002924951815704339
0.002007737944962157
0.001553936386953564
-0.006588010012978826
-0.0001142085243083326
5.32747358140223e-05
0.02462973681935554
0.02886862798312738
0.0288902949531381
0.02461586078391597
0.02481988600438914
-0.001132893104799367
0.02252672100363911
0.0223136934839187
0.01059905079617624
0.01194150058936757
0.01761315419905722
0.02305722519807733
0.02094681763089216
0.02465257694501976
-0.01038114444743688
0.02801046461885589
0.02871870255799662
0.02806245533112578
0.03227627578582454
0.0314678382908238
0.04236006498183009
0.04212868435367394
0.0465575064754345
-0.006936263368475957
-0.007382503235183344
-0.009709162655121915
0.02184156811345219
0.001223234764624307
0.001291825399533208
0.009322275902312903
0.007690541072075787
-0.002755727537550472
0.0007613265450863134
9.449685996384805e-05
-0.0003424217402598661
0.002833357926206049
-0.02035836010056064
0.01056238597221657
0.01228002984116325
0.009514052848272118
0.009665762621710072
0.007935819976913569
0.01584633548137026
0.02481448905956942
0.0002643418279654831
0.006530782004688183
0.006235728430654631
0.05126875354037214
-0.006068535925353263
-0.0007412710432741172
-0.01723287111662356
-0.007009229237512254
-0.001513740459792131
0.01309964111875887
0.0003132279678280589
0.001960037724040489
-0.004258379627467938
0.02521183580646787
0.013553138096468
0.003796270065345062
0.000827749918951557
0.01396138704847114
0.002412668547756644
-0.0008590056051328309
-0.001351245747868737
-0.0004831176908698328
0.01141605295052825
0.01304109974048653
0.01313663363583828
0.01114020810335574
0.01167723590855854
0.01219078085621704
0.01679464557897919
0.01636971270901535
0.01529062070976918
0.01512825387070251
0.01664322603865703
0.0168813708135119
0.01088936198878327
0.01079538887492219
0.01065038092477213
0.01007398793923499
0.008994940392047573
0.01191261119248292
0.01247748440528352
0.008181187849056665
0.007570971556636683
-0.02171837338061424
0.01132226808480458
0.01121865640038485
0.0119859520436161
0.006470095628580726
0.005572308949217212
0.007292128024111083
0.02479583689295019
0.02212732357618817
0.02245661015912312
0.003223158768705197
0.02236582921294137
0.03543678805631405
0.03573546274280582
0.03803611019522356
0.01213738290153444
0.01268719174941319
0.01233556357270053
0.0144549781097273
0.0168874797891277
0.01478755599857092
0.000498419184646691
0.006042479143538334
0.007383749191467283
0.009736067554174227
-0.003424527419403844
-0.003323898890586546
-0.003362166623424215
0.003709849167118519
-0.003630966282240634
-0.0005089576343494328
0.02735131934460442
0.01458197978330436
0.01584449746216922
0.01603485596126352
0.01571991306279242
0.01465279248477173
0.01603916804212622
-0.04743351389982928
0.001162954210449705
-0.0003737188300833737
0.003531706369252631
0.002220270628211161
0.002648334259515113
0.00794490642652663
0.002641256065467688
0.004276625258170621
-0.02802337356351779
0.009117648724839103
0.01044576089495418
0.006765153985731828
0.01062579425072436
0.01146849773993798
0.01098545266401426
0.01154726548954862
0.001547204065621716
0.00237099802755962
0.001614488713824823
0.002179304036650864
0.0008741672146540206
0.00469902726307114
0.002368074329550414
0.002993990562502957
0.007970264274865737
0.002026493154521268
-0.002192057613101494
-0.005278258839277075
-0.005107202671688753
-0.002791581716889069
-0.02572197438769812
0.02075658000978054
0.0170185804570383
-0.0009563650626152069
0.001054301036513243
-0.0006106572768257887
-0.0007754708960407684
0.002085525936056914
0.003323656330983438
0.002507709647946263
0.00248978576915965
-0.001601903287458402
0.04046486263919879
0.01142998631549436
0.0101706921864403
0.009476672723706276
0.008287968320303638
0.009697610420516374
0.003837407306914165
0.0007754261082609181
0.000440573315271137
0.001341753439582591
0.00152780045166398
0.003754861651702098
0.002358752402075585
-0.002249362183956247
-0.004242509749797027
-0.002232185573648159
0.006549879955342286
0.008085744156859382
0.00772205885891862
0.01009202045794037
0.008436507316677003
0.007239454048043335
0.001739153347919
0.0007607369316384881
0.00290772154925898
0.002934309194410522
-0.01365391243976649
0.001892250368459584
0.003630903255490622
0.00295485312022267
-0.0008132322544349821