/*--------------------------------*- C++ -*----------------------------------*\
| =========                 |                                                 |
| \\      /  F ield         | OpenFOAM: The Open Source CFD Toolbox           |
|  \\    /   O peration     | Version:  v1906                                 |
|   \\  /    A nd           | Web:      www.OpenFOAM.com                      |
|    \\/     M anipulation  |                                                 |
\*---------------------------------------------------------------------------*/
FoamFile
{
    version     2.0;
    format      ascii;
    class       volVectorField;
    location    "0.2";
    object      U;
}
// * * * * * * * * * * * * * * * * * * * * * * * * * * * * * * * * * * * * * //

dimensions      [0 1 -1 0 0 0 0];


internalField   nonuniform List<vector> 
19632
(
(5.004703962516841 0.009166314435367614 0.004307265260545607)
(4.999942895026064 0.0001118055953428539 7.486905860091003e-05)
(5.000057976812347 3.182372130615506e-05 -6.212368016152985e-06)
(5.000000442260263 5.114939655902707e-05 -6.261181851471018e-05)
(4.999988290443016 5.275886160447415e-05 2.107698951332558e-06)
(4.999829331512689 0.0002701288930697719 5.329353827614251e-06)
(4.99997966187285 0.0004399957902527902 -0.0001067904618377616)
(5.001857702988146 0.0009861922272606039 0.001768690598831897)
(5.003193186670106 0.0005859191151880138 0.002512230462778733)
(5.003111307655265 0.00048649411616546 0.001521886467770446)
(4.999989548595172 0.001411716806539761 2.309951746382705e-05)
(4.999877303083216 0.0002943610780401761 0.0002223540544477739)
(5.0029520983978 0.0007215983464964282 0.001865051317983011)
(4.999959115823159 3.246219474267433e-05 4.464161026705951e-06)
(4.999907119103203 0.0002454123189182373 -0.0001669882205543567)
(5.000021087556543 0.0003287879355330543 0.0001791294069226954)
(4.999978171797542 0.000150161648547906 -0.0001132229721779116)
(4.999982947853093 0.00025689720756909 -0.0001692580262498244)
(5.000029432991948 5.671733580527447e-05 2.232214407081327e-05)
(4.999723022740813 0.000688351725755037 0.0002730233655914058)
(5.001776761680658 0.0004086612455525119 0.001199879864498316)
(5.001070427974552 0.002423946796685303 0.002776870556296835)
(5.004157372592047 0.000577591243304336 0.001756591053413036)
(5.000028935380897 0.0002111034789852214 -0.0001280417234003154)
(5.00025002934073 0.0001909080239683487 4.880339447824451e-05)
(5.003034450291214 0.001858996775691653 0.002958007469437754)
(5.002327273513516 0.001964700873212852 0.001640123274828898)
(4.99987027702647 0.0003520294186701803 -0.0001090828392429353)
(5.000023799487018 0.0001307832375258955 0.0001169792426958925)
(4.999970128836937 7.271871427528721e-05 1.181149954873022e-05)
(5.000029247050785 -8.459207002755572e-06 1.900935048344996e-08)
(4.999899977796868 0.0002003788062932151 -8.368477135484299e-05)
(4.999946292154116 0.0002893421523172097 4.977274793475901e-05)
(4.9998670239158 0.0001438768586420827 -9.497986395383329e-05)
(5.00000640317562 9.167489818981029e-05 -1.178840774187125e-05)
(4.999991232618931 0.0001871315261453631 0.0002909431610645068)
(5.000384767115119 0.0005971754651163294 0.0006262338920814414)
(4.999957069085186 0.001090095987422989 1.134605441253386e-05)
(5.001990911749224 0.0008470196876885305 0.002120106841502455)
(4.999978418207492 0.0001857455986597624 1.304598409216524e-05)
(4.999842561254328 0.0005063284761278642 8.314109206427347e-07)
(5.003202077205573 0.001586826877348353 0.00268026305003595)
(5.000145323322159 0.0002172194940917114 0.0001450614885886342)
(4.99984537080139 0.0003408011154335905 0.0001443789240893951)
(4.999999851327801 6.286836673006496e-05 2.231552142955918e-06)
(4.998800802335468 0.002001039079615969 -0.0007697003369934492)
(5.000224505070824 0.0003294331202788016 3.468979742024251e-05)
(4.997630347814072 0.0002074676424824985 0.0001507642069508212)
(4.999638836735111 0.001024791852906259 -9.666179724512924e-05)
(5.000065136078248 1.5239225384763e-05 6.48859839540169e-06)
(4.999438365015895 0.0002945244333298852 -4.250685387913969e-05)
(5.000017725678077 5.773164323777323e-05 0.0005209703281409562)
(4.999991943720467 0.0001994168454961651 7.843964673477629e-05)
(5.00034554159601 0.00325254299477449 -0.0008930790815924372)
(4.999896869556184 0.0001830713327065365 0.0001624751558668928)
(5.000613589663218 0.0004324625159960042 0.000571942556197171)
(5.002212152644861 0.0001847183889088683 0.000539903213273387)
(5.000256581949175 -1.883476821508983e-05 -5.288754053762539e-05)
(5.000015939989217 0.0001407986752455288 -0.0001830180537354373)
(5.000002272310728 8.146697950538622e-05 8.111595779259117e-06)
(4.999969715128454 9.690914404282312e-05 2.035130292927506e-05)
(5.000042957167654 1.141684043314388e-05 1.126721103681993e-05)
(5.000034603540659 9.013240636177177e-05 -3.877164306832016e-05)
(4.999955477175913 0.000156469529839353 0.0001929122672525919)
(5.000165878511734 0.0001802265198661436 0.0003667670910974013)
(4.999986851093492 3.849608306445452e-05 -9.11616283802707e-06)
(4.999792126765872 0.0005284486498676273 -4.507403131864524e-05)
(4.999978085217985 6.877140557359844e-05 4.585886344482208e-05)
(5.000107153454703 7.664610624356304e-05 0.0001202991489427248)
(5.000142386706625 0.0001451618453087299 0.0002999521705792389)
(5.000004324890871 9.709001464587794e-05 6.258796439769169e-05)
(4.998336630406179 0.0007515146002067681 -0.0001884775733241007)
(4.994805250947143 0.0001504840309429366 5.04914303597014e-05)
(5.00250374341195 0.001023778542675557 0.002139840211210947)
(5.000233863553215 5.669428635000314e-05 -5.186065299561602e-05)
(5.000446223148867 0.0001439492236033586 -0.0003850572376564972)
(5.000016588581112 0.0001279441355052237 -0.0015694673431143)
(5.000002589759969 0.0005341251789929949 0.007280467086466253)
(4.999816990328672 0.0004606352403009753 8.747667874609687e-05)
(4.99976690708009 0.0003311031733498345 7.753798162313181e-06)
(4.998325378240049 0.001981698290758016 -0.002280094088185246)
(4.999797400520384 0.0002664517779973556 3.46260372413244e-06)
(5.000477005566344 0.000970486469481022 0.00195741097484357)
(4.999828150565573 0.0002530179243760291 -0.0001025601567143848)
(4.999644356876911 0.0007693112999428047 -2.827176339367451e-05)
(4.999563681581207 0.0005918929927826074 9.37569627986293e-06)
(4.99995998600631 6.360890892423852e-05 1.336935502515128e-05)
(5.000190407199281 0.0001218672010381237 -0.002787859951313456)
(4.996843047258236 0.002994408862659045 -0.001197176812296936)
(4.999914306532069 0.0002611083622527826 -0.0002508746119087237)
(5.003100091928879 0.0009444746257946716 0.003353778099494318)
(5.003176336878757 0.0009503132625713037 0.004313043325792658)
(5.003360384938717 0.0005452724789800553 0.001429689805057315)
(5.000007397746172 0.000126976003844607 -1.750571683593195e-05)
(5.00205494700111 0.0003822417635546629 0.001724196693065161)
(5.002718897386105 0.001509213238164737 0.001634547797253732)
(4.999749067916277 0.0001161946893495052 -3.041168009915823e-05)
(5.000001903801321 0.0009189777865919836 -5.457604824713426e-05)
(5.000291166021906 0.001988500638405582 -0.003899096656022528)
(5.00004079400352 7.369941985685854e-05 0.0006538082146363508)
(5.000015106772084 3.805109725311775e-05 3.030831256338898e-06)
(4.999871448763976 0.0002209938224176169 7.990132073978745e-05)
(4.99994956956452 0.0001485964255831468 -3.076231932519311e-05)
(4.99994533124192 0.0001642287828273039 -6.808085308684765e-05)
(5.0001715001478 0.001079570655034753 0.0002270084911643706)
(4.999985628983053 0.0001307978983777377 2.482903048140834e-05)
(5.000003915813139 9.311196074588967e-05 2.675243555880824e-05)
(5.002962398650342 0.001091004370041167 0.002524486575345234)
(4.999799281094747 0.0005446924940805401 0.0004700042051183858)
(4.999989763629074 0.001247448067130615 1.877935401890307e-05)
(4.999049806654873 0.0002472047653821929 -7.321609990314866e-05)
(5.002663618400824 -0.0001228022696635006 0.0002606441523451421)
(4.999826861236004 0.0004410580022895409 -5.792932060099997e-05)
(5.002240306709385 1.746925595743621e-05 0.001295177252120961)
(5.002880379233648 -0.0005709316597818999 0.0006245770468930406)
(5.002352115837989 0.003312461368663477 0.005430621473963454)
(5.00207244045538 0.0002534984382964487 0.0009315950529904213)
(5.002561284797472 0.0002750708778798004 0.001058060747177666)
(5.000032415752457 0.0005448675104843707 6.928771578913172e-05)
(5.002220072016356 0.001642619297022075 0.002643176400755884)
(4.998304249413952 0.0001064687812339108 9.733772844220732e-05)
(5.002492681991592 0.001328610041062391 0.002590677890543836)
(5.000000993811509 8.490366359312724e-05 -1.920492724385999e-05)
(5.00241204704051 -0.0004712434092933667 1.120722287048417e-05)
(5.002483236533848 3.899693171809129e-05 -0.0007813056862295316)
(4.999881392945425 0.0003077716873852384 -9.798496105452108e-05)
(5.001627647641521 0.001470728969602996 0.002393534818915289)
(5.000112742608663 0.0001000917519783069 2.381276988122338e-05)
(5.000020835144988 1.961846375770812e-05 1.579261232388686e-06)
(4.998170837577766 0.002691900892257954 -0.002531096411253616)
(4.997718377066006 0.003682819301778603 -0.001618956265557193)
(5.000043324756884 8.853487185732557e-05 1.554663529222724e-05)
(4.9998782835925 0.0003520478251316368 -9.638041116931735e-05)
(5.000018649206104 0.0003857413188968624 8.386663963214181e-06)
(5.000789835236997 3.540164695811319e-05 -0.0003167487033143322)
(4.999964407095313 0.0001678157205701054 -3.747678388878842e-05)
(5.002630248364835 -0.0007540300096434517 4.886736240004306e-05)
(5.000499560530089 0.0001606389011043637 -0.0003462145965541655)
(5.000088852404664 3.998203327825919e-07 -1.286115091341372e-05)
(5.000205889603887 0.0003173453043321036 -0.0003803063596697591)
(4.999946169008493 0.0001792618711830399 -2.27926193178463e-05)
(5.002257797665954 -0.000724227521522497 0.001761854557155327)
(5.000040535899604 9.701733280047113e-07 -7.738093875810163e-07)
(5.013280779333916 0.0002025964365291686 -0.01088735614468528)
(4.999966728423982 -1.963636382614344e-05 3.827522278527431e-06)
(5.003183087565211 0.001859875113355699 0.004225921221649206)
(5.000049682454826 1.473705394828473e-05 -4.443252553919563e-05)
(5.000400767904811 0.0003304137849371393 0.0005292637549239377)
(4.999866895413871 0.0002457557550434714 -5.290851958499062e-05)
(5.000014507331049 0.0005273376980512882 -0.0002868723441206073)
(4.999988001912911 0.001008052591818269 -1.503733727327304e-05)
(5.000346451931605 0.0001531416661183933 0.0004521501499915957)
(4.999906341897285 0.0003029303420706132 0.0002088809248712007)
(5.000031274033504 2.598194286340634e-05 -1.034719542669612e-05)
(5.004277708445114 0.008998274052953123 0.008230550216199943)
(5.002183730899662 0.0003322825948248382 0.0008365149510545559)
(4.99943182079604 0.0008394419067183756 -6.375860006848124e-06)
(5.001920659133142 0.0007401494098519675 0.0010318776514297)
(5.001578831502416 0.001915410055465054 0.004185707152057873)
(5.000035257753802 0.0004311207764655381 -8.535632892866824e-06)
(5.002814842698576 -0.0003731636159819194 0.0001594316768535798)
(4.999313414069015 0.0001103892031348789 -9.918168565288042e-05)
(5.000020776624829 0.0003170454904884388 0.0001637530600572482)
(4.999165994173218 0.000254813529457698 1.383155483509548e-06)
(4.999931477298694 -6.638988499850675e-06 5.299334122391412e-06)
(4.999904635766967 0.00735100562074146 -0.006486847137716691)
(5.00002547527211 0.0004367362232451674 -3.382883112320686e-05)
(4.999225652669864 0.0002441380559776278 -1.090281846922332e-05)
(5.000050605894597 -6.227685383731862e-06 1.366493086317879e-05)
(4.997750577639217 9.618963862615795e-05 5.037419831074808e-05)
(4.999879486586881 0.0002083479737989011 -0.002527602562663576)
(4.99899303489407 0.0003097953023610587 -1.300835474019406e-05)
(5.000102181289777 0.0001874763664000362 -0.000458410172011671)
(4.999948542744257 0.0006429543246472025 2.550189666451415e-06)
(5.000423208338631 0.0003846605312774852 -0.000286166014974585)
(5.000352464203372 0.004349588297202018 -0.004582445097588175)
(5.000600835494171 0.002350419829110651 -0.004725851060805624)
(5.000000173511649 5.064819572375159e-05 -3.227063820366287e-05)
(4.999199489072294 5.595989723190008e-05 -0.0008389070539268004)
(5.000184817759085 0.0004107112570673225 -0.0004986956659207438)
(5.000035985035209 0.0001745912699459667 -1.118009976969041e-05)
(5.000061347949473 1.954452633300008e-05 -1.222367817633519e-05)
(5.000022482933241 7.106738962944923e-05 1.380063502893064e-05)
(4.998066812694188 0.003813617012310747 -0.001933016236456879)
(5.000357015462051 0.0004662392330168945 8.188330045887982e-05)
(5.000040511979922 9.937421555549e-06 -2.647780594852908e-06)
(5.000055775167411 -7.352602411357688e-06 3.502021766836769e-06)
(5.000049272612609 9.113979155075993e-06 -8.114860713285371e-06)
(4.997931142532516 0.003351063749474558 -0.001524161001636644)
(5.000038472340806 -1.285545292921997e-05 7.531535717492258e-06)
(4.997413433602413 0.000642893098214226 0.000517307968583237)
(4.999669963753899 0.0001075202361172346 2.568226820315897e-05)
(5.000052656470366 6.36894914777658e-05 4.715104807683704e-05)
(5.000065666529932 6.952064059996307e-05 -1.968694923992197e-05)
(5.000080900293681 0.0001912144102392137 -0.0001145219125081145)
(5.000051969110622 0.0001948369665706854 -0.0001075652662863283)
(5.000067317802803 1.062601827882438e-05 -9.343006965255668e-06)
(5.000037929456704 9.152967637791579e-05 3.985869886536855e-05)
(5.00002170043243 0.0005395910344094334 -5.540416689776489e-06)
(5.000115480261423 4.697132017541824e-05 -3.939770763557075e-05)
(5.000002767515399 3.392244991943113e-05 -3.39082190619453e-06)
(5.00007056598776 0.0002103248686375502 -0.0001297630319343111)
(5.000072698511892 -3.318314911172418e-05 3.970459245336107e-06)
(4.999590882746419 2.223920779154704e-05 -1.466682605067732e-06)
(5.000034067558416 0.0001365452131938791 1.074368501984395e-05)
(4.999967492634404 7.242966439279934e-05 3.399878330680217e-05)
(4.998166056551407 0.0006330266100400954 0.007753449778144564)
(4.999279124876498 2.887350129780234e-05 -1.373288754676866e-05)
(5.000335979988772 0.00032458597714782 6.794663178485667e-05)
(5.000018192953215 0.0005090282177965623 7.805727769953917e-06)
(5.000004176336704 0.0003863786349579233 0.0002669102938232631)
(5.000242442256462 3.473665978469679e-05 7.689517347064379e-05)
(5.000050234997411 3.716760593126399e-05 -1.738665293790585e-05)
(4.999573297985275 2.68678619724098e-05 -2.43102132387383e-05)
(5.000111368559528 0.000190193579646408 -5.881025657689713e-05)
(4.999977611334017 4.423525123796883e-05 5.473655864026437e-05)
(4.999902425438015 0.000167655969617373 -0.0001986672872099184)
(5.00016291868702 0.0001592882142541962 -9.822635004744218e-05)
(4.999517702455843 0.0006078211333336937 -2.03458024176764e-05)
(4.999937079463375 0.0002201467549314307 -0.002132547249891852)
(4.999991594114084 4.794454079107093e-05 2.999023862890257e-05)
(5.000077128919153 3.415537731164756e-06 5.294403083421131e-05)
(5.000164143175622 0.0002498979212136109 -0.0001046393281223514)
(4.999979831860168 3.044402231948944e-05 -1.243403076437925e-05)
(4.999987942687562 8.730758029377786e-05 -3.665626099277905e-05)
(5.000035122778771 5.990540631301706e-05 -1.813852105812922e-05)
(5.002480904120349 -0.0002320680052324988 0.0002128631567785066)
(5.000011732771432 6.385744920942489e-05 2.461588708537869e-05)
(5.004336585793921 0.0001245409414754238 0.001074137442852061)
(5.000027340906541 0.000468198304078264 -0.000336035929266423)
(4.999926461008458 0.0003042684822262645 8.179207227911105e-05)
(5.000438455755578 -2.687559531275257e-06 -8.994411479302441e-06)
(5.00006056490702 5.212611990934737e-06 -1.12736866959937e-05)
(5.000068719411805 0.0001542721929196522 8.863791440647157e-05)
(5.000021785885061 1.178643366820013e-05 2.261124559466851e-05)
(5.000060446221845 4.445888078756609e-05 5.132038731091768e-05)
(5.000073174010116 6.600376504597542e-05 0.0005613442517161402)
(4.999972312516722 0.0001173488361649093 0.00100848988203093)
(5.000000057497442 8.972231658212613e-05 8.303987448933543e-05)
(5.000045117916733 -1.941146682746641e-05 -8.476804890096481e-06)
(5.000473463773618 4.825015421001064e-05 -5.922945317542363e-06)
(5.000315334007101 0.0001567502892015394 -4.414775378720975e-05)
(4.995042843602704 0.0001605979543746242 0.005525425801852514)
(5.00005617676651 0.000328615010306163 -0.00016971240943496)
(5.000038216888085 0.0001050324274202504 2.303694955079617e-06)
(5.0000641913733 1.396132178557191e-05 3.987169474113549e-06)
(5.000069044391775 0.0004309235739295778 -0.0001558531516081673)
(5.000032607681437 0.0002182651953762248 -0.000165629524618741)
(4.999956456223572 9.410368166313322e-05 0.001510607246993766)
(5.000591149680144 0.0002697815373865329 0.0002820235605673447)
(5.00005656966488 -1.079444712717743e-05 1.581391251228269e-05)
(5.000234904201696 -6.430135268059033e-05 0.00301031931871062)
(5.000019406075854 0.0002124270628657221 -0.0001094987761180875)
(5.000065088146188 0.0002137128152643542 -0.0002441753484077273)
(5.000027174405266 8.053289903532171e-05 6.68585101792071e-05)
(5.00008381904448 9.01213678644662e-05 -0.0001908963612303589)
(5.000013001108442 0.0002049763357046358 -8.153004061631951e-05)
(4.999760457213251 5.007334928212341e-05 -1.521781244862204e-06)
(4.999881506904205 0.0003507196092967054 0.002320717983389126)
(5.000078725335257 0.0002945548659294318 -0.0002385926217520103)
(5.000224120653837 0.0003369524074971719 -0.0002591031753397653)
(5.001822882886289 0.0006572419393314276 0.004206624201213594)
(5.000181879515202 3.268138118026342e-05 8.778744149062496e-06)
(5.003479191803046 0.002042770533777627 0.003706661938002128)
(4.99997005652545 0.0001052890341452963 0.0001561518965108325)
(4.999919495384514 8.209919191453019e-05 0.000114719339460308)
(5.00015728623508 9.490522803326492e-05 -5.922045952157606e-05)
(5.003202800351528 0.001409328546986837 0.001891544372509317)
(5.00033488531111 6.557861883890594e-05 -0.0002450661542907467)
(5.003571222222669 0.0008238126763566038 0.001752761820785317)
(5.000205766929965 0.0001838668948279145 8.582975057340351e-05)
(4.997896712500713 0.003079081416682877 -0.00146180650215475)
(5.000073533875143 2.84899176215346e-06 -8.277887830213924e-06)
(5.004527085087956 0.001298451526310112 0.002506244113235603)
(5.000651547178244 5.550281261981847e-06 0.0001453314190953846)
(5.002538383523852 0.0006179717945084428 0.001699375887078251)
(5.000172204663738 6.871675448695372e-05 -7.208839859038839e-05)
(5.00017306015312 -2.882123149576062e-05 -1.974771484155422e-05)
(5.002423085471131 0.0006042864808741294 0.001606250109989901)
(5.001519096304504 0.000269855174140862 0.002487465998207374)
(5.001384065875251 0.001799378889197965 0.001571925258179608)
(4.99874400420266 9.449041482704459e-05 0.0001195326251212706)
(5.000052874393947 -3.046379456086852e-06 -1.728546719113128e-07)
(5.000091904649693 0.0001206379355958079 2.169589581921282e-05)
(5.000036752274583 2.406302626566615e-05 2.308140093365411e-06)
(5.000031684017558 -3.332669216177153e-05 4.754694806260793e-06)
(4.999796198394492 0.0006837646172819367 -0.0003596222817903021)
(5.000196317804335 5.251256008461507e-05 -2.143285843656139e-05)
(5.000003645412662 0.0005152024801616016 0.0004828760424395187)
(5.000032801562253 4.163493438254671e-05 3.025278866088596e-05)
(5.000047450076807 -1.95197602808748e-05 -1.105115868146277e-05)
(4.999983464942267 5.265800068162339e-05 -8.211953967098038e-06)
(5.000827165902151 0.0008603194371194963 0.001694438206968547)
(5.000036764835224 5.365398217403318e-05 3.444127912395105e-05)
(5.000001976831902 0.0001118192951115434 -5.035658810264817e-05)
(4.999935380295062 0.0001826629990100888 0.0002547612173880143)
(4.99996010654107 7.106683874689517e-05 -2.08763391654485e-05)
(4.998389285041952 0.0001200758804567401 1.786853989727793e-05)
(5.000438653566014 9.862516591232615e-05 5.458656752808911e-05)
(5.000029407049841 4.887084707463121e-05 -2.436993692001712e-06)
(5.000001447827411 0.000153684649225979 0.001696443610783226)
(5.000641870454035 -1.591933799326886e-05 0.0001439200071708533)
(4.999984780147861 4.05049831910665e-05 -2.945913420480254e-05)
(5.000069212970602 1.014506870783915e-05 -2.105791075120864e-05)
(5.000264569337762 0.00044431251383922 -0.000261465419460858)
(5.000178772951749 0.0004733539588216102 0.0005066280855045403)
(5.000041296149457 -1.496224308005166e-05 5.641218917459267e-06)
(5.00108338944477 -0.0003439530224009662 0.0001540241427668114)
(4.999968623201739 0.0002294772595771005 0.0002927717371213904)
(5.000075037411171 0.0002577298749871238 0.0001218105023649933)
(5.001742279008838 0.0006713641103775615 0.0008263291295802223)
(5.00090747639381 0.002330263598995671 0.003383000090103669)
(5.000128932785594 0.0003575749488001623 -0.0002452293942870934)
(5.002267610059844 0.001211142940240792 0.003356228261225692)
(5.000006143205546 0.0008247292455103867 -3.523904333400828e-06)
(5.000107684409274 1.769492359688479e-05 1.907016549775816e-05)
(5.000387693573018 0.0001860266628599701 -6.405882288795639e-05)
(5.00313284249147 -0.0001162735113586906 9.604783627486571e-05)
(5.000242323439703 0.0007296041471643232 0.0002060291395001253)
(5.003085926306086 0.0008332896714132948 0.001271704005118451)
(5.009826597019194 0.02106777214235679 0.004510621466595427)
(5.002978577438357 0.0009931760270044825 0.001655166555118874)
(5.002501431191194 0.001142731894949612 0.001077773718030296)
(5.00205816182754 0.0005427892479042894 0.0008408029183244374)
(5.000129482637799 0.0006626086371092223 -0.0007270963205088727)
(5.000003039268502 0.0007561929617453204 -0.0004404861278818878)
(4.999699744992263 0.0006826543147765861 -0.0005517555500892719)
(5.000076457162214 0.0001622357475187907 9.935423425210581e-06)
(5.000055353688619 2.86368341225659e-05 -0.00085840942442518)
(5.000115145269524 0.0002241516210531144 -2.0853535519722e-06)
(5.000035125240097 7.197485069494075e-05 -1.738505807162021e-06)
(5.00011995686207 3.390028665354618e-05 1.320413075828135e-05)
(4.999605619213986 0.000758537047071686 0.0004410233992582502)
(4.999416487180577 0.0007480142913348255 -0.0009121393263147728)
(5.000003431237359 0.0001002621285926934 4.291710000877996e-05)
(4.999652376385951 0.0006625860824752799 0.0005779198664607211)
(4.999984865792318 9.858575538110033e-05 -6.649120158366871e-05)
(5.005772059594567 0.005101666496308433 0.008535210394760963)
(5.000009313864578 8.485271988438175e-05 -4.071209183560287e-05)
(4.999881147623706 0.0001471593920771479 -0.0001431582500358767)
(4.999603588417166 0.0009523399680817732 0.0005004827785952462)
(5.000015310776074 5.896116455117987e-05 -8.68089358228712e-08)
(4.999889976693809 0.0002821669973959116 9.608523478349129e-05)
(4.999027407218967 0.0004321711790759759 -5.901836488593994e-05)
(4.9994974750527 0.001164292845904015 0.0009841370231113567)
(4.998483944464557 0.0001499484317256368 0.0005198901480923478)
(5.000057540667331 2.106000834087105e-05 -3.39612094868135e-06)
(4.999935010868175 0.0003926510108710886 0.0002932865246279064)
(5.000003848559023 0.0007124485116750859 1.654186747256518e-05)
(5.000071629170272 4.684913906825757e-05 -5.591085510006784e-05)
(5.00023903449852 0.000140334412515346 -9.673095435264181e-05)
(5.000169720700881 0.0001147726913516443 0.0005210847740057252)
(4.999999695965484 3.722192142341787e-05 -2.348043420615328e-05)
(4.999969638712349 0.0001037826545772943 -2.455039721510244e-05)
(4.999977876508884 0.0004036235103135308 -0.0002796843062153166)
(4.999992916104942 6.770022829834554e-05 1.672186210527893e-05)
(5.000036594320325 4.44462802662357e-05 -3.002348071550742e-05)
(4.999928420708192 0.0001619678742406609 -9.439211856842175e-05)
(4.999616401117909 0.0008174584824151247 2.652764328305266e-05)
(4.999910798137099 0.0001483661787298198 -5.164010752703684e-05)
(5.000213460578197 0.0001572134111311045 -0.0001415490982221576)
(4.999979059259555 6.800461643561114e-05 1.230324232001704e-05)
(4.999884961061034 0.0002521236427904658 -0.0001247232272220519)
(4.999905004953652 0.0001846305348887517 -0.000317775876974625)
(4.999782934996345 0.0002280050308930733 -0.0002198908670435251)
(5.000015802882443 0.0006246540881919731 -2.013619024678161e-05)
(4.999964012000206 0.0007573624569849369 -1.873467561902441e-05)
(4.999911664509463 0.0002397072210503388 0.0001217501343377985)
(4.999959879574275 6.728046016261834e-05 0.001031823271353344)
(5.000030357247739 0.0002426600165558004 -0.0001193005157172945)
(5.000094179203201 0.0001725016949047775 -0.0001509855020453769)
(4.999990356421907 5.276028068817611e-05 3.853104260632927e-06)
(5.000084462863979 0.0001171078012555545 -0.0001452251034391133)
(5.00003878528032 0.0001392769292181655 -7.381722431500024e-05)
(5.00000898354656 8.537536983476883e-06 -4.248179710644729e-06)
(4.999999115162992 0.0002809605318135462 -0.0002131021753231565)
(4.999968407581333 4.340047891490828e-05 -3.336685099509588e-05)
(4.999997548756474 0.0002118220141001732 -0.000106569860151337)
(5.000022322715607 0.0001695806755431168 -0.0001016655760436649)
(5.000020565286952 0.0001166798429995334 -5.462081865412322e-05)
(4.998807318642623 5.176862655390659e-05 1.686796656471361e-05)
(4.999966133091283 9.397844144558552e-05 -1.948636025498077e-07)
(5.000021165856777 0.0002822062988658725 -0.0004204417780803936)
(5.000027294047595 0.0004249567203132889 -0.0002874735258384594)
(5.000051452645992 1.744937960796291e-05 1.967939898755474e-06)
(5.000392885621278 0.001025798293289934 -0.0004123810362608578)
(5.00051229950731 0.000736204392013181 -0.0004356099114794142)
(4.99977265981695 0.0008826175690076596 9.372993748944059e-05)
(4.994976826553603 0.0003078692052197882 0.0001355260489373175)
(5.000322020633926 0.0003157393973943618 0.0004474429700183881)
(4.999938957329618 0.0001243744319369862 -6.741719478213115e-05)
(5.000075221881574 0.0004466605474115795 -0.0004194525993243982)
(5.000238514976492 0.0007243338103254166 0.0001654541672272738)
(5.000024265086795 0.0001355752743307198 -2.316205097705643e-05)
(5.000002493355988 0.0003160260831182337 -0.0003012473374333354)
(5.000456512274347 0.0003288302259720565 -0.0004501967917579131)
(4.999951845857344 0.0001900053121892973 -0.0003090746602140345)
(4.996633720440249 0.0002168353666267949 5.252902897814836e-05)
(4.999928231490951 0.00058263030482816 -0.0002889409450744648)
(4.999817314638626 0.0006751473795533304 -0.0003034772623744209)
(4.999967419665576 0.0002127365075326316 -0.000259773743753075)
(4.99997903584118 5.130163719732233e-05 3.372807949444959e-05)
(4.999991872500605 0.0001064977478033073 -3.232458509744093e-05)
(5.000013670020586 3.593072931664641e-05 1.101689896006631e-05)
(4.999907729262237 0.0001312244261087342 -5.300275504748151e-05)
(5.000013169475825 5.661969079818839e-05 -6.302996128225415e-05)
(4.999646926158977 0.0005611689004810295 0.0001300559068022461)
(4.99998406669117 9.697681015417327e-05 4.320578689235532e-06)
(5.000025555374605 0.00057803406689979 -0.0003378621465061282)
(5.000070504406336 0.0005678963242067398 0.0003853310276832386)
(4.998937740487424 6.200042870946402e-05 -2.003029290065893e-05)
(4.999930435329006 0.0001034788614419765 -1.115227681799531e-05)
(5.000005405150577 5.235879927751912e-05 1.138265957804854e-05)
(5.000147127980557 0.0002693412454786386 4.764088880507636e-05)
(4.999958784417131 8.285772233897445e-05 -5.718282894839772e-06)
(5.000087954244656 0.0001924296801692021 6.032803230427006e-05)
(5.000094431383154 0.0001382747526448032 -3.180650433244387e-06)
(5.000008278268735 9.779163376295199e-05 -4.464625971235745e-05)
(4.999944962197278 0.0001770058435658636 0.000286395997127991)
(4.999837283935978 0.0002741757511702193 4.691158236656683e-05)
(4.99991352776162 0.0001779221692659716 -9.260774543563473e-05)
(5.000100182945455 0.0002019858606704653 2.366483824283037e-05)
(5.000013558242449 0.0007073751223961342 -1.716280920930057e-05)
(5.00016823867681 0.0001363125005890436 -5.280970920145067e-05)
(5.001201315527661 0.0002648203212600539 -2.264447746975887e-05)
(5.000042198220136 4.863064265031168e-05 2.976992628190098e-05)
(4.999892608190209 0.0002450125414465594 -0.004053293848028618)
(5.000066085534236 0.0002300080909390211 4.389403471680839e-05)
(5.000111506704231 0.0001115041688968974 5.227032642157585e-05)
(4.999873963182819 0.0002111867084491674 -0.0002375982648165644)
(5.0003339666588 0.0010808966882792 0.0002918717697155007)
(5.000126026619542 0.0001294257045867085 1.790947681315471e-05)
(4.999837824601045 0.0003131051289516063 -4.483078579107087e-05)
(4.999953833244447 0.0006486522190749875 0.0002590691535178231)
(5.005500478766108 0.007145143212293293 0.002446219386623968)
(4.998534263862476 0.0001280925867142566 4.74617283681159e-05)
(5.000065667713744 0.000106159998486007 0.0001341218602158523)
(4.999790613055811 0.0004642453055155439 -0.0001159917707996648)
(5.001178008929478 4.538226841590092e-05 -0.0001348010858772513)
(5.000136232080473 0.0002289984833888961 8.528367491750045e-06)
(5.000099008958443 3.392806061304935e-05 -6.98915910248406e-05)
(5.000058300916182 -8.635240082654016e-06 -1.885750689858316e-05)
(5.000032575263693 9.061837084359941e-05 -3.791009668840415e-05)
(5.000054703105691 0.0001644855401202373 2.083865442661453e-05)
(5.000087644913431 0.0002143652077380675 -1.783909063737602e-06)
(5.00117037286205 0.0004857310324831241 -0.0001578390400393527)
(5.00016646795885 0.0002011747007380158 -2.789555340109159e-05)
(5.000066780149242 0.000138434354987074 -3.351911699545448e-05)
(4.99998112402285 6.09296104904295e-05 2.833007522911476e-05)
(5.000056907880323 0.0008159507000941773 9.681583606123825e-06)
(4.999995156354539 4.573728258880927e-05 -1.527156015607016e-05)
(5.000027682005769 0.0001425296535202154 6.749412720921852e-05)
(5.000056335429366 -1.398463021876074e-05 -3.637085593515068e-06)
(5.000036972035184 5.158348407237375e-05 7.623459667761449e-05)
(5.000119658081792 0.0002082141215765047 3.463442693950856e-05)