/*--------------------------------*- C++ -*----------------------------------*\
| =========                 |                                                 |
| \\      /  F ield         | OpenFOAM: The Open Source CFD Toolbox           |
|  \\    /   O peration     | Version:  v1906                                 |
|   \\  /    A nd           | Web:      www.OpenFOAM.com                      |
|    \\/     M anipulation  |                                                 |
\*---------------------------------------------------------------------------*/
FoamFile
{
    version     2.0;
    format      ascii;
    class       volVectorField;
    location    "0.2";
    object      vorticity;
}
// * * * * * * * * * * * * * * * * * * * * * * * * * * * * * * * * * * * * * //

dimensions      [0 0 -1 0 0 0 0];


internalField   nonuniform List<vector> 
19632
(
(0.001897582279811207 0.003456158861875582 0.001113850996847344)
(3.975177026543933e-05 1.065888422929887e-05 3.768757721125695e-06)
(2.475895955367235e-05 6.55480321354435e-06 -3.774778896639178e-05)
(5.55979908714406e-06 1.107772989904309e-05 1.306722272079992e-05)
(2.927374945241612e-05 -1.229666372701867e-05 -4.44822465610074e-05)
(6.410446610196363e-06 0.0004939559761980342 6.946055619335475e-05)
(-0.0001066179796857202 -0.0002572546527566048 -0.0004426614017963136)
(-0.0002710473814084572 0.0004694389180250751 -0.0002140969811504313)
(-7.697079855434048e-05 -1.614965833477203e-05 -0.0003214406958402563)
(-0.0003417491458594797 -0.000717636744634807 0.0003107297582545605)
(7.067906695912304e-05 7.426919517377709e-06 -0.0004437076738725163)
(3.628585336562127e-05 0.0003706844934506365 -1.307569072835655e-05)
(-0.0006279678555558793 5.564397277046983e-05 0.001024106330420544)
(-2.21891367482385e-05 -1.681558150972488e-05 2.672356643727124e-05)
(2.732576075321135e-05 3.049282364554807e-05 4.674576941458198e-05)
(-7.103733576093043e-05 -3.647103965993733e-05 -4.439873560252828e-05)
(-6.410990923610131e-05 -1.022381434176552e-05 1.890880076710609e-05)
(-9.17516679998846e-07 -4.956642134863777e-05 -5.837860213084283e-05)
(6.637432743600528e-06 -1.166380017351488e-07 -1.003265966327523e-05)
(-8.150751388876785e-05 -6.445699566101234e-05 -4.030765153497518e-05)
(-0.000436858094035887 -0.000474974626425626 0.0005324200391500602)
(-0.001017284510374162 -0.0001443811549391299 0.0004208237176404282)
(0.0004186524066572072 -0.0002928149786214902 -0.0001146335097933692)
(4.210482375741641e-05 -2.632893416195953e-05 1.410181610517544e-05)
(-0.0001774050290620551 5.116203999073892e-05 -5.158732262128125e-06)
(-0.0009987838875664156 0.001029564522938232 -1.706196602303339e-05)
(2.400552840543433e-05 0.0003664900475119419 -0.000114726999329399)
(6.187333941163243e-05 -4.744479882214943e-05 -5.583030994839297e-05)
(-0.0001550054108210876 0.0001108426746317191 1.485184755037363e-05)
(-3.133087105738896e-06 -1.936374509993263e-05 -1.015585401455239e-05)
(-4.556000187225324e-06 -1.768921051655649e-06 1.608382936823533e-08)
(-0.0001130190678747826 2.73793709487424e-05 -2.99297559575617e-05)
(2.025668535898025e-05 -7.916519888268021e-05 -2.538641192035778e-05)
(1.018497921100211e-05 7.268662939477638e-06 9.817113809198459e-05)
(-9.769585015578656e-06 7.612500285804692e-06 1.99056434864605e-05)
(0.000492656063950632 0.0001645814233612493 -3.575789120685788e-05)
(3.739671690221409e-06 -0.0001649070584627184 -0.0001348534780675263)
(0.0004318050592553471 -4.855741908687354e-06 -9.36419419729874e-05)
(-0.0003713734981463936 0.0005883116101815295 0.001101242666560625)
(0.0001102722053085235 -1.923248837310428e-05 -1.032367429377594e-05)
(4.354738282700381e-05 -4.114996111231668e-05 -7.14292468274056e-05)
(0.0003359045997961029 0.0002663003695206067 0.001002499965833976)
(-1.775656262626277e-05 0.0002771593984654579 -0.0002778342680395152)
(4.3617212620443e-05 1.567351150618243e-05 -3.274733067774304e-05)
(7.838796884018843e-07 3.059937834067865e-06 -1.928336695856487e-05)
(9.23479817038802e-05 -0.0004232719863373129 -0.0004949832336928452)
(-0.0004870448105528831 8.721733738632062e-05 -0.0002581608103120907)
(8.083123052996549e-05 -6.206918001750443e-05 0.0002049569032861627)
(0.0001510429604872823 9.027210847834594e-07 -0.0001703035113044541)
(-3.519746538669221e-06 8.911186117459829e-06 5.792000361175117e-06)
(0.0003337871132545724 4.277239065610007e-05 -3.390348939756607e-05)
(-0.0002055761501865003 -0.0001084028015201385 2.635100742656899e-05)
(8.272708535564936e-05 -3.011200688057297e-05 -0.0001663413573258652)
(-0.001433114212374711 -0.0003355715638052166 -0.0004558559062294497)
(-2.683399963414365e-05 -4.932161100862911e-05 0.0001158322810189687)
(0.0003241084420575875 4.579165240209831e-05 6.691716037647065e-05)
(-0.0002303308210227585 0.0004318516442375303 3.670551772171903e-05)
(-1.551404883973001e-05 -2.380016410858836e-05 8.235967272552091e-05)
(3.17868188920546e-05 -0.0006310006999239216 0.0009170461344020102)
(0.0001226995422424499 -5.870207471002949e-06 -0.0001384761435284443)
(1.241633268982411e-06 -2.887774050184764e-06 6.721566457059256e-06)
(-1.942455516106586e-06 -1.030926344140341e-05 -3.474366053852218e-05)
(-2.027306690624048e-05 1.005853461974067e-05 1.845396821299501e-05)
(-3.754935005539669e-05 0.0001702200297577953 -1.032179656803877e-05)
(5.873758484888731e-05 -9.202097350649275e-06 6.770077522017579e-05)
(-1.385404463106805e-05 9.214921083950279e-06 -7.355096948856253e-06)
(-5.683736026234312e-05 -0.0001421370577436595 -6.959039735466515e-05)
(1.912276259483505e-06 6.97671957753693e-05 1.551396597934632e-05)
(-1.178466752954204e-05 0.0001747684043366295 2.672839759580487e-06)
(-7.062907254679683e-05 0.0008075495162856387 0.0007151074742617694)
(1.171644708168216e-05 6.932263329224962e-08 1.008434397402075e-05)
(-0.0001988213514873038 -0.0001360636195050992 0.000191810055674189)
(-9.960626273184401e-08 0.001443197385696962 -0.0005728503384596955)
(-8.47437285952852e-05 -0.000695494883474232 0.0003067667233495486)
(-2.028750211532127e-05 -2.075971890599781e-05 2.381966333308431e-05)
(3.922673688606002e-05 -0.0001694539681684534 6.483169710633817e-06)
(0.0002750820342633227 -0.0004539072830980366 -5.458238151450044e-06)
(-0.001984100355464095 -0.002093826336393097 -0.0002296352683771379)
(-6.321915052532126e-05 -6.343688169104787e-05 -8.050162923250233e-06)
(0.0001032248934953233 2.915899267488215e-06 -2.978317927663355e-05)
(-6.032537820842385e-05 0.001390171642103396 0.0005213479707864019)
(0.0001435823643697133 4.723561222982037e-05 2.999970563679147e-05)
(6.967319824961049e-05 -6.78509482195446e-05 7.539176691442447e-05)
(-0.0001600686186588518 5.903378018609463e-05 1.378443653790776e-05)
(0.0001063870620822789 0.0001019431377358642 -0.0001411583416287729)
(7.016623990094623e-05 -7.31490296873595e-05 0.0001037434004634951)
(-1.132945046927314e-05 0.0001835934461238384 -2.83210064024515e-07)
(-0.0003989050256954759 0.0005831085952555071 -1.96916143382033e-05)
(5.368848111267962e-05 9.377398392405517e-05 -0.0001992808483612471)
(0.0001171377420497927 0.0001705535474822011 -5.101524609510165e-06)
(0.000919266683670668 0.001659886183293508 0.0005481992957190906)
(0.001285834074828087 0.0006170413519918106 -0.0002893557564506777)
(-0.0007046839067819389 0.0008982953467915759 -0.0009272989489931212)
(-9.647957893514704e-05 -4.925335870877208e-05 -0.0001404624721247761)
(0.0005402316937374446 0.0006703902320299951 0.000158577066689033)
(3.588910948223652e-05 -0.0003671156703681381 -0.000918864091512845)
(-3.02775372131291e-06 0.000198881848659099 0.0001410427859484274)
(-0.0003599914071762998 -1.196120336158036e-05 -6.421640753676482e-05)
(-0.0001874241530657028 -0.001282603444182194 -0.0001280004497345823)
(-0.000169741092008396 0.0001953146909197357 1.814205665139607e-05)
(-3.810349819660458e-06 -4.383625298565392e-06 3.899448800629122e-06)
(4.821036528765287e-05 0.0001479144799007072 -8.066308037065315e-05)
(2.997382104324392e-05 -1.46787186028374e-05 -1.148701731765366e-05)
(-2.458036690503491e-05 1.913165352421872e-05 -5.077287011728297e-06)
(0.0002304821042220817 -5.02138910225136e-06 -0.0004097712082520916)
(2.086588961054662e-06 4.88531624868197e-06 -0.0001017500071877371)
(2.088043439744277e-06 -9.048020080433498e-06 -1.064243070472351e-05)
(0.0005335128815964676 0.0008047301667319999 0.0001132580435317345)
(-0.0001947510632215619 -7.962514025304183e-05 0.0001109987288932888)
(0.0004303557406878746 1.49224929776419e-06 -0.000189947443159998)
(2.782853647736874e-05 -6.693956559428936e-06 -0.0001389836423237851)
(-5.717588888490518e-05 0.000689297353946989 -0.0007565999066277498)
(-9.223060931258024e-05 -0.0001470762396349924 -2.006632346547879e-05)
(0.0007578810515802767 0.00025465925314497 -0.0001413337456884426)
(-8.403040036910786e-05 -0.0001428149890718945 0.0002959672102650468)
(-0.001440868630355396 -0.002401757030548875 0.002130331903018254)
(0.0006361604318430462 -0.0006460946342533867 -0.0001931368219649057)
(-8.933376574254172e-05 0.0001872079267132495 5.421147802697252e-05)
(-4.619293603346375e-05 0.0003857752563241407 -0.000545097938918615)
(-0.0004612720631736397 4.790469662998003e-05 -0.0009344564953305702)
(-1.682025883991092e-06 0.0002256448879169424 0.0001385003942802553)
(-0.001057303680464464 0.0001504025681796584 0.000228342748926903)
(-1.943383391439173e-05 -6.43663442488506e-06 5.130870791005783e-06)
(-0.0008526301733274899 -0.0005714194765215263 0.0008048614065312058)
(0.0002676802793223983 -0.0003753202057803299 -0.0002067519349753056)
(7.351149533337384e-06 -4.624721496706187e-06 1.032540977253035e-05)
(0.0007262147993358733 0.000194552021463361 -0.0004041481999995986)
(1.689574179585053e-05 3.878167831789643e-05 -2.206743191505027e-05)
(1.732100585598752e-05 -1.071320733841696e-05 -1.719030865146358e-05)
(-0.001137566787868193 0.0005967020929662569 -0.0008184278253648351)
(-0.00162621855560549 -0.0006890490485930494 -0.0007471991777983457)
(-2.977129497480294e-05 -1.038715072120285e-05 -4.476237598758604e-05)
(-4.21513987527175e-05 -9.95981174316723e-05 -9.809658489108532e-06)
(-0.000258923048931852 -6.096732216086304e-06 0.0004015310782660005)
(6.22546258540367e-05 8.233097317200463e-05 -7.548473366503207e-05)
(-2.499808048277577e-05 -2.818033071997021e-05 2.964862646967162e-06)
(0.0001480461958821294 2.677329226978258e-05 0.0002952388461489123)
(-2.314817866173696e-05 -0.0001732302729630123 1.622855314374918e-05)
(-9.45248109122868e-06 8.702000719918178e-06 -1.314707403134347e-05)
(3.139703412939476e-05 -2.767494070373941e-06 -7.726164858063964e-05)
(1.423271799502186e-05 -1.226945340929385e-05 2.122629118145157e-05)
(-0.0004461782978475007 -0.001315835848560535 0.0005143982648090889)
(8.508153843934657e-06 -7.541695908113707e-07 3.03307685100588e-06)
(-6.584680260325333e-05 0.002965804629973206 0.00665803972428252)
(-6.377772100322017e-06 2.898205435744864e-05 0.0003252055687199596)
(-0.0009107763193585617 0.001281163356575463 -0.0008995415752941847)
(4.665289554408922e-05 -7.078044680982919e-05 -4.3784338158864e-06)
(4.336308743571515e-06 -4.029398862953699e-05 1.9767138886365e-05)
(2.629389013045772e-05 -3.514076550764921e-05 3.859419754007746e-06)
(0.0001232543097679803 -6.857790816986425e-05 2.189864184428474e-05)
(-0.0004591755330825141 -7.101771968692457e-06 -0.0001539278253930223)
(0.0001280920091491604 0.0001950660108170333 -0.0001037058803564416)
(-2.545650779708783e-05 -5.868306862566693e-05 5.203267289277421e-05)
(1.472211267411408e-05 5.645657403393188e-06 5.236741633744614e-06)
(-0.006893394488549141 -0.00937239350020096 0.00323260053240755)
(-0.0003559788116330962 7.784077965344079e-06 -0.0001554124682135956)
(-0.0004706792994811061 0.000193504754908047 -3.060857901650499e-05)
(-0.0005404180772677153 0.0006788831661014834 0.0004344408470348726)
(0.002909133627363863 0.001941425798696337 -0.001120127626791217)
(-3.518223241378498e-05 9.646859117555847e-06 3.247729352486023e-05)
(0.0007532164112182906 0.001225922002283052 1.605406254263573e-05)
(2.612349606464235e-05 3.044086302528545e-05 3.437790625087375e-05)
(0.0001350883493855692 -0.0001505108108506899 -3.454023453022256e-05)
(-0.000106021785742479 5.243482278837553e-05 -6.463552451748975e-06)
(-0.0001296964907344945 -3.43632124287695e-05 0.0003456631597670375)
(0.001274409514734571 -0.0007307211088271693 -0.001476216332244735)
(7.582259297277251e-06 -9.958505498419943e-07 -1.028132601371441e-05)
(6.914301101562572e-05 3.678802494116635e-05 -7.436944856933878e-05)
(6.205067370152801e-06 1.236789298697275e-05 -1.429004814629331e-05)
(-3.817011611344654e-05 9.360302955354545e-05 0.0001390458205085692)
(0.0009041989550180968 -0.0004460138917942328 6.834580147081218e-06)
(0.0002263627465592081 -9.578737460428219e-05 -0.0002836606375866733)
(6.429157850443561e-06 -6.605323830673345e-05 3.93997514322798e-05)
(3.55672134107837e-05 -4.888627494005187e-06 0.0004645843798662984)
(0.0001364585378812427 -0.00016061712035479 -0.0001585444306372896)
(-0.0006660186741078268 0.0009900736309396813 -2.365957119628666e-05)
(-0.002266467899907741 -0.001263566217984284 -0.001147757937151437)
(2.004686758941849e-05 -1.436146443116564e-05 8.957732602860691e-06)
(0.0005044559319942596 6.590413424184863e-05 0.0002871019798116621)
(0.0001619272426904458 0.0001266891024149385 -3.557810853335498e-05)
(2.233327226630065e-05 6.119280718361886e-06 2.539995181384607e-05)
(-4.322348893259506e-05 -4.751634980404612e-06 2.277313847270287e-05)
(-1.80640625971471e-05 6.653405876986013e-07 -8.045826128686901e-06)
(-0.0005223071398963396 -7.910568700122083e-05 -0.0007331806196444877)
(7.864002453870317e-05 -8.92791227906166e-06 4.708052567537369e-06)
(-9.782563524399282e-06 6.990032065425611e-06 -3.843054774758147e-06)
(-1.326009584562792e-05 -2.453396966499707e-05 -1.659203642742465e-06)
(5.617386284851135e-06 2.681800099558809e-06 -3.312244972204893e-05)
(-5.753727462618353e-06 3.820956754693608e-05 0.0004779117742643468)
(2.543303002372135e-05 -1.025654740770726e-05 -1.78311350449668e-05)
(-0.0001852419396657367 0.0001194095854859393 0.0003152812099722655)
(2.472625330442445e-05 1.020597320929758e-05 -0.0001869839359791415)
(-5.942490092545169e-06 -3.120811062242901e-05 3.063992929326853e-06)
(-1.137052668307321e-05 3.895560939208068e-06 -1.417191318753674e-05)
(3.957696762518508e-05 -1.950259509605751e-05 1.857262892920454e-05)
(1.055961693684096e-05 -1.339527309358913e-05 1.91258660672534e-05)
(3.94973960085297e-05 3.181994728308513e-06 -8.351025940170962e-05)
(-1.362752652005653e-05 1.58611529538635e-05 -3.134584707591112e-06)
(-0.0004456886558355823 2.820717735608277e-06 0.0004168966646828476)
(2.401388631441686e-05 -3.119117416308712e-05 1.587113840008927e-05)
(3.542646217930203e-05 -7.182400280755067e-06 1.252738219551357e-05)
(6.383020809942236e-06 -7.492344055848202e-06 -1.693668448885388e-05)
(3.254323761156321e-05 4.495087846562603e-06 -1.157757399494816e-05)
(2.269249611193942e-06 -0.000123821893052028 0.0001427067909801344)
(6.861115105594722e-05 1.760348733366298e-05 6.881344295362076e-05)
(6.82642186801233e-06 -2.453729365462652e-06 1.330002048889004e-06)
(-0.003203706310905253 0.002452518381071777 -0.0004753014417990544)
(-7.7843908880735e-06 -0.0002003203921121545 0.0002787528586826687)
(8.764328667954783e-05 7.170939492866414e-05 -0.0001207662548139098)
(0.000289700262928896 -7.45943218171805e-05 9.058338105212301e-05)
(4.368771652204343e-05 -6.470861934034828e-05 -1.964038005135388e-05)
(4.387993026068057e-05 0.001242220936874785 -0.00012008068227577)
(4.230798440675191e-07 1.086909362076946e-05 -2.73954809847174e-05)
(-8.937652025618106e-06 -1.047905467827486e-05 -0.0001651783064793194)
(-8.04319792068361e-05 -8.100599242271759e-05 -0.0002005493564390407)
(-3.844568652491163e-05 -8.302468512153511e-06 9.25765152501488e-06)
(-3.432257291804826e-05 3.857764920631714e-05 -1.739680833172054e-05)
(1.205022886110735e-05 2.07431930531438e-06 -1.223252075788001e-05)
(-0.0003261390125322308 0.0001731431595841719 -2.467686868000288e-05)
(0.0008862802794155245 1.146735523423259e-06 6.108973575200156e-05)
(1.738233402388575e-05 1.023462961874091e-05 1.03995962882142e-05)
(0.000104144643976685 -0.0001466909470454573 8.403184591845108e-07)
(-2.045273643381546e-05 5.036192221076323e-05 -2.746077732547251e-05)
(-1.41369945320248e-05 -1.728778966928241e-05 2.048231668144461e-05)
(2.991625623183775e-06 -5.829408319679826e-05 3.981868075871381e-05)
(-7.166035640507485e-06 4.281160246307819e-06 4.299837561748698e-06)
(-0.0001573052240179089 -0.0001809379750494763 -0.000492529549150982)
(-3.335879123588357e-05 -1.060734490246864e-05 0.000102952425861498)
(-0.0001682685034125055 5.676487266986579e-05 -0.0006084085878317351)
(-8.854956015144034e-05 3.777309866189734e-05 5.75260014905091e-06)
(-2.051838373172264e-05 2.965817834283571e-05 8.659885604500038e-05)
(-5.690811692897714e-05 7.635899183684391e-05 -0.0001067292906533225)
(8.506909275863926e-06 1.53462394588692e-05 1.681887096266934e-05)
(-1.698983657060321e-05 -1.58269875953462e-06 3.837462226629021e-06)
(-4.787442067938564e-05 3.912638228437662e-06 1.351643763382929e-05)
(0.0001793166871246024 2.03386015303261e-05 5.958989841848959e-06)
(-0.000269755612066205 8.992099861637687e-05 -3.709424363462991e-06)
(-0.000372098675056371 -0.0002621674754502915 -9.433318321482643e-06)
(3.264303314360139e-06 2.003611573804465e-05 -1.281302546631333e-05)
(-0.0002765187617876699 1.705708499131535e-05 2.156203195047771e-06)
(4.995816867064579e-05 -3.011317929326948e-05 -5.012452439465279e-05)
(2.771652844281541e-05 -7.065512461000455e-06 -2.173898197269722e-05)
(0.003366212858685329 -0.0004239632374150879 -0.001688090028356401)
(2.049609656676175e-05 4.20285002811552e-05 1.229790540176838e-05)
(5.2262307816006e-06 9.529068991985359e-06 -0.00014512365539737)
(-1.122659751585247e-06 5.24255611540069e-06 3.404135824361256e-06)
(8.744054256167518e-05 9.609646622646039e-05 0.0001419534496459129)
(-1.594461613709117e-05 -1.688631685484246e-07 1.945922359068324e-05)
(9.936745469619613e-05 -0.0002602027154331462 7.142851458570939e-06)
(1.231818016115534e-05 -8.39438812058901e-05 -2.876990010865339e-05)
(0.0001509093801214804 1.744868337095571e-06 -1.210884581933413e-05)
(0.0007355028481684726 0.0004548810177216249 6.270309709203352e-05)
(5.926830692740955e-05 -3.822074308922159e-05 2.3642788411798e-05)
(-9.582670920605143e-05 9.201087608072214e-06 -4.616850454546014e-05)
(4.76847129338929e-06 -3.63916521351472e-05 3.823788066468739e-05)
(-3.440103026175751e-05 -9.401725464182786e-05 4.358634958514659e-05)
(2.222788304969776e-05 1.009466951780184e-05 -2.238436253056555e-05)
(5.545506586660611e-07 -1.297802044778603e-05 -1.719859964227283e-05)
(-0.001449313920072999 -0.0006419587191185281 -1.086834354620483e-05)
(3.513160168096602e-07 -3.186307477212486e-05 -5.900722638580026e-06)
(4.567050348974277e-05 -6.083909988674374e-05 1.071090035807547e-05)
(0.001136838573908607 -0.0007116469259541265 0.001702623580663899)
(1.731011521242273e-05 -1.105687255502903e-05 2.662250705642331e-05)
(0.001359753215579739 -0.000143079217317003 -0.001160421877508394)
(5.799367701614943e-05 -4.929300874604363e-05 4.469777549192551e-06)
(-1.323328340631594e-05 0.000304536441138459 -2.391133552591254e-05)
(-4.286735364888131e-05 -6.98694989129422e-06 -3.060854520580173e-05)
(0.001713816837501886 -0.002479943990205608 -0.0006489150371570863)
(0.0001981094236198591 8.81682681439286e-05 7.96135736977519e-05)
(-0.0004970326239071 -0.000711088658749048 0.001450007946270308)
(-6.034688629496521e-05 4.761602675461905e-05 -1.12292181605315e-05)
(0.001389324821481372 -0.0008417967331791365 0.0001921370383205098)
(-7.193813700003889e-05 2.918270991927452e-06 -0.0001378648337964869)
(0.001092014117507867 -0.002834518593564066 -0.000931082691856811)
(5.273239817534382e-05 2.639034102118509e-05 -1.14427855559252e-05)
(-8.037155726140539e-05 -1.624554441712848e-05 2.558894912657388e-05)
(1.614822843025875e-05 -1.037594414276325e-05 3.173905359007438e-05)
(6.931120100841011e-06 1.210166727158533e-05 -2.279692521530506e-05)
(0.0009141900919797894 -0.0005868186716689598 -4.789021210378937e-05)
(0.0007709297530853591 -0.0004265706506292339 -0.000181122027009045)
(-0.0003984426955542924 0.0002787366752647856 -0.0001615231468616077)
(4.607605984999086e-05 -9.432246051820839e-05 -0.0002426116911047365)
(9.285590987793379e-06 4.290504557000882e-07 1.006330341657765e-05)
(-2.140908240474567e-05 -1.557792073617748e-06 2.29804644341044e-05)
(-2.651705475762797e-06 -2.121935537137073e-05 3.403103887803452e-06)
(-7.579178319126654e-06 4.459868208573935e-07 -5.744732296244934e-06)
(-3.704897410013371e-05 0.000127344181422129 -4.030583739621982e-05)
(-1.858744014695536e-05 -6.619524064338253e-06 -5.099060858431444e-05)
(-1.052236082403943e-05 0.0001040219832895501 -7.565291166462048e-05)
(-1.128620305267645e-05 3.900619202561726e-06 1.026908443401655e-05)
(-8.993878221457881e-05 -1.578284750426633e-05 4.115419901975957e-05)
(-2.412412722683568e-05 -1.409097699585714e-05 -5.523720806778348e-06)
(0.0003370678240078778 0.0001006872160791911 0.0006734801542169787)
(5.809379909177706e-05 2.862872863103331e-06 -7.06567487060377e-06)
(-0.0001446639106429924 1.230048652000746e-05 -6.559475776656678e-05)
(-2.757372631537669e-05 0.000262869291326609 -7.54110394071481e-05)
(1.299588952376276e-05 5.227672783805838e-06 3.209941253713078e-06)
(-0.0001455421242480973 -9.483762441008875e-05 0.0005530083494784584)
(4.072446977883464e-05 -0.0001169804795444925 -1.476312816176269e-05)
(2.051718291644451e-05 -3.979910804826074e-06 -3.631473020290764e-05)
(0.0001341117927052517 0.0001879128663613171 1.520515323943052e-05)
(0.0001371952781655837 0.0004027696307417192 -8.079712649558028e-05)
(6.175905570906342e-06 1.472620088535062e-06 -3.427102631723107e-05)
(-7.777890837639082e-06 1.836282203041967e-06 -1.566152631282054e-05)
(8.231023342581777e-06 -0.0001063564459663048 -0.0001095424750931556)
(-7.194992286972454e-05 8.110482348241078e-05 -7.738514163943019e-06)
(8.985695234186569e-06 2.318072070870683e-06 -8.212964838610747e-06)
(3.559461249671588e-05 3.787822194759528e-05 0.0001821559159469202)
(-3.90689539732934e-05 0.0001749304741414847 1.732166163141419e-05)
(-2.815375154188807e-05 2.239846469851086e-05 4.42026049457023e-06)
(-1.328465556729086e-05 0.0001449891142222599 -0.0002077374964755738)
(-0.000464061496591064 -0.0001237532245616672 0.0003824131618040103)
(-5.172986617597337e-06 1.305266284121949e-05 -1.618617087699246e-05)
(0.001761179237884841 -6.675261112385389e-05 -0.0001707657215777163)
(-0.0004513508810357596 -3.112354824573514e-05 0.0001503201682011722)
(8.118525717588234e-06 1.327645738916643e-05 1.372841946992212e-06)
(0.0001895682073608036 0.0001466013576774772 1.041337237471269e-05)
(0.0009397220567895668 -0.0006906853004965827 -0.0004058820853424135)
(0.0002299522998054772 0.0003118364247218287 -0.0005128077804692852)
(0.0002200636437735283 0.000670860944370369 0.0001433995858874701)
(0.009946714543276492 -0.007784294422833295 -0.001971983567093116)
(0.0002739765341612928 -0.0002685871711524077 0.0006570304414919303)
(-1.295330267222492e-05 0.0001114603768698379 7.549145147231186e-05)
(-2.580570810534183e-05 -0.0001670175408188031 0.0001873541518020848)
(-2.210776658378774e-05 -6.48137530361152e-05 -3.547030264414522e-05)
(0.0001085371307824025 -6.006483536846975e-05 -9.302480790118896e-05)
(0.0001246533239280281 1.470306392066493e-05 -5.60826445823035e-05)
(5.747669942601883e-05 -4.619391943343038e-06 -0.0002928740073634039)
(-0.0005475828245396074 1.888898246007187e-05 2.498602474572317e-05)
(-6.933552038853832e-05 8.741857409168502e-05 -4.066077083102987e-05)
(-5.26449871518011e-05 -1.497458702588667e-05 -0.0001036887599546145)
(-1.415362891941822e-05 5.219089543722099e-06 -3.627652562318849e-07)
(0.0003119876820591814 -0.0001486910376191949 -6.087450586557583e-05)
(-0.0003845666242515333 -3.300058384513787e-05 -7.203919119364271e-05)
(-2.91808737145795e-05 1.276679800563947e-07 5.150821200803236e-07)
(-0.0001100895367610541 0.0001338311129711835 0.00032854271370448)
(-2.187533237260369e-06 -1.470017372465215e-05 -1.531799293053384e-05)
(0.001242827086954522 0.0003127788378704767 -0.00215247959601053)
(4.463987604320865e-06 -1.333088434072445e-05 -7.750333961130077e-06)
(3.274278257323816e-05 -7.976397376343046e-05 3.193123033723846e-05)
(-0.00011464391669162 0.0003463123952094585 -5.190501589484529e-05)
(-0.0002179712513012428 8.858552251623035e-06 -0.0001036725517851143)
(1.014625890337345e-06 6.312193746832706e-05 -9.821338538923701e-06)
(0.0001119615144705114 0.0002751589527512405 0.000712014066615324)
(-1.228963583157799e-05 -4.008989518724351e-06 -3.300537577603911e-05)
(-5.791079444475343e-05 0.00126975315893639 -0.0007435642491183805)
(8.00331704524894e-06 9.757819668956715e-06 6.926337261536786e-06)
(0.0001407882037803904 0.0004089904220247448 -0.0001020381185673738)
(0.0002388235463278566 3.229133415242993e-05 0.0002853377886671631)
(-0.0001693761172340959 4.377478893727961e-06 -0.0002012410584221698)
(-4.39874963800691e-05 -4.06337257355392e-05 -1.453116159664084e-05)
(-0.0001113412083403784 0.0006145860402182214 0.0001722993450019791)
(-2.141340269199419e-05 6.389964401306596e-06 -1.133409563944687e-06)
(-1.491242305708596e-05 -1.094643795705053e-05 1.714051698135433e-05)
(0.0001261740417111753 -4.121566640633741e-05 5.818915361750296e-06)
(-6.183216135499955e-06 2.415391199298588e-06 -2.224797888478358e-05)
(-6.546724050928241e-06 2.503930883711366e-06 2.865917498071436e-06)
(1.960852720968992e-06 -3.261622786877158e-05 1.316091867822009e-05)
(-0.0001201613437330516 -3.976662019614872e-05 4.138507802085439e-05)
(-1.756849707262379e-05 -4.568253748874196e-05 -1.419559836838023e-05)
(-9.045945282964048e-05 5.686028673489231e-05 -4.673085043937632e-05)
(-1.855953716048972e-05 1.9073831202206e-06 -5.319294931646558e-06)
(2.694380594618102e-06 1.605008327137829e-05 -2.063365084922338e-05)
(-0.0001677890206823317 4.949344822497522e-05 4.223256027481158e-06)
(-9.534369116845913e-05 -1.049293459283302e-05 0.0001836183569613345)
(4.965626283024762e-05 -1.081720737810051e-05 0.0004658390386404344)
(6.34605925534986e-06 3.314864468907451e-06 -0.0002622493105609866)
(3.067534625220479e-05 -2.032847109738341e-05 -1.179040067711193e-05)
(7.746140758833272e-05 -0.0001370183069669455 8.161782808911075e-06)
(-3.123725255675416e-05 6.963368412146955e-06 2.691832463769273e-05)
(3.642889905834907e-05 1.959427199281971e-06 5.287088095962116e-05)
(9.534766694026192e-06 -9.027282188290754e-07 -1.710820428975242e-06)
(-2.15044779529868e-05 -2.357507523224228e-05 1.010301918955026e-05)
(-5.654233346682162e-05 -2.628754439741473e-05 -6.814602519691447e-06)
(-2.430654626612887e-05 -6.783390140074646e-06 2.803405574670933e-05)
(3.996272062044441e-05 0.0001162617597610682 -2.176200108217494e-05)
(-2.272544128242506e-05 1.216407771146238e-06 -2.707130538440443e-05)
(4.166602471861056e-05 -1.887572946237101e-05 1.232099577444971e-05)
(2.504745487794875e-05 -1.565861313489631e-05 1.019838849291514e-06)
(3.625758491453432e-06 7.207356010062998e-07 1.772633006039056e-05)
(-2.294968345329629e-05 -8.406704484351044e-06 -5.89354247405139e-06)
(-3.005547506066383e-05 1.06274875689096e-05 1.979913476261222e-05)
(-3.871526009008643e-05 -5.54404080154583e-05 1.33460876651028e-05)
(-4.392601349528002e-05 3.012249574478357e-05 -6.658242690317285e-05)
(-6.510539389330629e-06 -6.254681527424887e-06 2.427473196221387e-06)
(-0.0002874369498589726 -6.410023071793242e-05 -6.686598620117939e-05)
(0.000104884600938631 4.960659567530125e-05 -7.861246833442735e-05)
(1.207713023777678e-05 0.0003291067649984882 -0.0003665347514513434)
(-5.953757497123332e-05 1.446533699984263e-05 -8.72795842097929e-05)
(4.800476569036453e-06 -7.02658441099238e-05 -2.383742784487453e-05)
(1.481835774270959e-05 6.129966122968289e-05 5.731980710313113e-05)
(3.846262127314544e-05 -9.009302435626294e-06 -8.74661636012577e-05)
(-0.0001044689288242777 -3.842237263835261e-05 1.783937070021253e-05)
(-0.0002363870667067451 -2.094098174091365e-05 -0.0001186799271297095)
(2.125482602322514e-05 3.641674636928427e-05 4.355027628125489e-05)
(2.175282454430582e-05 0.0005108850209691837 0.000365381339925795)
(-3.046390745521399e-05 -0.0002852499871687997 1.563002956031572e-05)
(-0.0001017463622337174 0.0004321129710227269 -0.0007164468453556474)
(9.99099321763745e-05 1.186407416044929e-05 0.0001243494412530112)
(-7.526538558056753e-05 -0.000160543722660197 -8.947048576307524e-05)
(-8.336937507783398e-05 -2.767065957321027e-05 0.0001084714881375963)
(-6.315025699676197e-06 1.156657433839208e-05 -1.774218798867176e-06)
(2.009966842877314e-05 1.811183127638308e-06 7.412390906602264e-06)
(-6.368921436576189e-06 -1.75715913965192e-06 -5.917656908766333e-06)
(-3.515740754150913e-06 -9.601682670099494e-05 -1.395523029331714e-05)
(8.667160990571741e-06 -2.02419694056998e-05 4.58487994061278e-06)
(-0.000183935808512204 0.000119289441200337 -0.0007205907604331998)
(-1.750656103803314e-05 3.469887093387019e-06 -1.049838358343899e-05)
(2.48807862259512e-05 -6.614816964954949e-05 3.739199217520375e-05)
(0.0001445743906122241 1.706883878996774e-05 -0.0001660681394159604)
(2.857015599560408e-05 -0.0002950029482390445 0.0002346751719268247)
(-2.139485970744675e-05 -3.492321318629751e-05 -1.76985973613642e-05)
(-2.193158536015064e-05 -4.250734054847285e-08 6.852238739578603e-06)
(2.073891249709008e-05 1.549385870147865e-05 2.443434450356501e-05)
(5.04957852932693e-06 -2.043349234466268e-05 2.338091899773848e-06)
(3.066545102380747e-05 -2.515308096248844e-05 5.313610638238033e-06)
(7.946048341811722e-08 3.339535279941493e-05 -2.342486870516049e-05)
(1.114437847690639e-05 1.730146222028093e-06 -2.609828762327802e-05)
(-0.0001633841241200471 0.0002807817797431756 -1.617812320199327e-05)
(2.870893179013621e-05 2.021217254155333e-05 -7.20985599876472e-05)
(-3.916605915027976e-05 1.243438696457543e-05 1.566387837961748e-06)
(5.416317434547274e-05 -5.458675369943997e-06 5.007464726482185e-05)