/*--------------------------------*- C++ -*----------------------------------*\
| =========                 |                                                 |
| \\      /  F ield         | OpenFOAM: The Open Source CFD Toolbox           |
|  \\    /   O peration     | Version:  v1906                                 |
|   \\  /    A nd           | Web:      www.OpenFOAM.com                      |
|    \\/     M anipulation  |                                                 |
\*---------------------------------------------------------------------------*/
FoamFile
{
    version     2.0;
    format      ascii;
    class       volVectorField;
    location    "1.9";
    object      vorticity;
}
// * * * * * * * * * * * * * * * * * * * * * * * * * * * * * * * * * * * * * //

dimensions      [0 0 -1 0 0 0 0];


internalField   nonuniform List<vector> 
19632
(
(-0.0137368974546923 -0.003862999589755725 0.004483304703926828)
(0.009843491564307087 -0.004236778599859645 -0.001303405986853636)
(-0.0001118428959630924 -0.0001894280228917334 -0.0003318743270154651)
(-1.037732939712778 -2.117541307356813 -3.9649755565932)
(0.005444004427698809 -0.02586623254037615 -0.003744145035682331)
(-0.006590796099067098 -0.005512740576833612 0.003884052891898042)
(-0.1238217063988417 -0.1738557047679609 -0.1699802721735703)
(0.0155636654935925 0.004767955249101959 0.004168418816982359)
(0.01444936322628775 -0.008155696195541889 0.000875924321612747)
(-0.06399482196642794 0.02976669911796561 0.03961656195819191)
(0.09131074564064934 0.02936365144730376 -0.0157240704789708)
(0.01039746791241725 0.01965660744970595 0.0006487166162151524)
(0.0005801157653047104 0.0003983356006180833 0.0002631830816284563)
(0.0005624131042049698 -3.925815765222081e-05 -0.0003251273103700532)
(-0.01259205448914787 0.0002902396692696504 -0.00669552214117806)
(-0.03957258760032394 -0.007907839601394809 -0.2191875535647775)
(-0.002051589823013178 -0.003912451069421077 -0.00388224283983292)
(-0.0398143858204363 0.02409027286803845 0.01630428106132248)
(-0.00124172467143705 0.001384176778712092 0.0004823986771124987)
(-0.003370421117276516 3.841691450032968e-05 -0.002311041720618654)
(-0.02891921644959333 0.02250323669517376 0.06987273023627885)
(0.2148928471364725 -1.687267516682487 0.4450245120029314)
(-0.8038568325182008 -0.6627888365216551 0.2353222856661496)
(0.001267376850688047 0.001829098241781371 -0.003075265903339693)
(-0.002419328983326366 -0.00053237688717589 -0.0005551944157345232)
(-0.00621298245054944 -0.001767587216647172 0.002831381522888979)
(0.001714718933077533 -0.002812206920182549 0.004887566312166454)
(-1.758725688764205 -3.990579796507654 -3.420429895678252)
(-0.01251445665917623 0.1300967402407852 -0.07352671995360695)
(0.0005410244547516228 -0.000169640847485426 0.0004580833039275734)
(0.002228563294338533 0.0001258653964549515 0.0003882756657486088)
(-0.0008727258329276244 0.001554097074831302 0.001721065015896376)
(0.03668281674102088 0.00486685801813766 0.01462075374972768)
(-2.05783716828316 3.052753781125444 -1.452274405668239)
(0.0001611586798470576 0.000800190537267135 -0.0008984756611562792)
(0.0002607227890742007 0.0001897912524867446 -0.0002058804278787385)
(0.0004153356159247589 0.003733908879483509 0.001815010407997848)
(-0.001296732199371351 0.0004038832178618333 0.0002772693682649409)
(-0.001019887959096264 4.838141999081086e-05 -0.0009548748628964725)
(0.01380981438897989 -0.003548062548120993 -0.004661098411801757)
(-0.001722980748219069 -0.0001686625430689007 -0.003520128405019759)
(0.002258551109991909 0.002127125776909816 -0.001147033590193053)
(-0.02600249047792233 0.001856222498140473 0.02429037175734816)
(4.401170635864736 -0.1299976322201079 2.116310949731583)
(0.003220376104695647 0.0006451821288102532 -0.002382039296446041)
(-0.003825558860198358 0.001267354651607443 0.0007036993342836639)
(0.0002936624102557372 3.159572124729039e-05 -0.000274703222421721)
(-0.0001819022088721965 0.0003085697651819693 -0.0002679593990881686)
(-0.0682658430184611 -0.0118492677561506 -0.03505438649778349)
(-0.01822955020679246 -0.001995616938076459 0.02174710288806063)
(0.02528950283355237 0.007410662128178996 0.001813717991934509)
(-0.01948073341037422 0.002076787047306629 0.008701508762701666)
(0.05646595210707363 0.02054161312240369 -0.02618161352192825)
(-0.002015333434362877 -0.005056461811556027 0.001342258365474425)
(-0.005367368256244513 0.009801165693476492 -0.0007292720136132596)
(0.00801104779495496 0.001192539623241293 -0.00491483634225743)
(0.001107978197834456 -0.0003416287000323299 0.0001470290546276923)
(-0.001277261338598394 0.001633972238797507 0.00828623007483504)
(-0.006919349376684878 -0.0359581484731181 -0.02815882055158969)
(0.03012732203332502 5.089198951984883e-06 0.0225552281540245)
(-0.008950861233028578 0.0006137130777870658 0.0004787903238211914)
(-0.0001856886594590734 0.001548769986857993 -0.0001847656708422199)
(0.4780503828593379 6.101995609859489 -5.725588202888969)
(-5.983215187439777 -2.305388481227606 -12.13315930097647)
(6.150382508982423e-05 0.0001660279811058985 8.084755809934176e-05)
(0.5428121979788811 1.545332992295446 1.014095759384575)
(-0.1814552716532605 -1.123493853339548 -0.5859113160562759)
(-0.02392954126808648 0.0006594221085947814 0.01206108302105699)
(-0.0009078523476672582 0.0005082206974027681 -0.0007755726263802429)
(0.002534615235533691 -0.002836555868087585 -0.001059253962018759)
(0.001298512510654779 -0.01197134393108066 -0.002575564786334703)
(-0.0002674467119547723 0.0002933859051290952 0.0003015998365800797)
(-4.526283362604137e-06 0.001276947114471349 -0.001609981022866635)
(0.01477530870598668 0.0001633433198628165 0.0081533706803474)
(0.0001158415969765462 -3.334377614353361e-05 -0.0002492454674667276)
(-0.0004471150475622836 -0.0002969508176984941 0.000755154727300618)
(-0.000261408237873961 -9.441763361295404e-05 0.0001624138528468638)
(0.2390808125468389 -0.1503640977752801 1.630009373243413)
(-1.833285088626981 4.570604855110526 -2.06349573100413)
(-0.02154689164631594 -0.009225772054858854 0.01866121970794833)
(6.437409677848324 -3.8930549831875 -8.278952989314922)
(-0.0439096813317752 0.6547047076582645 0.3168296247772243)
(0.0003695853972555035 0.0006612599460759543 -0.0002500200626801529)
(0.000526338695588709 -0.000612038409384904 -3.712797720647854e-05)
(0.0004173012669140544 -0.001134532567384783 0.0004925018977547501)
(-0.007781537803120028 -0.03434714151523874 0.0003684285897486957)
(0.001506066277153848 0.0004461830964810217 0.001145345483453077)
(0.002101806094309587 -0.0009153008765700004 0.005784751254280857)
(0.001425470172989869 -0.0006233256006187179 -0.0009140984121170537)
(-0.04579251352479882 0.01027963424540442 -0.04527443807447382)
(0.01468641367080999 8.989465910096139e-06 -0.01222778269992927)
(-0.009410408996298194 -0.0006839436169912357 0.006117601560569074)
(-0.006496578352119519 -0.00777291889753345 0.009930798850843109)
(-0.04473927888329463 0.0008275705531946465 0.01107308782912796)
(0.006346311005227023 -0.002995799838230014 -0.002211502700881181)
(0.002193294500898885 0.0008862324687968731 -0.0008454298849357711)
(0.008851582803519739 0.001968201098032032 0.001615564149126127)
(-8.827252862094679e-05 -1.114543119641994e-05 -0.000106738603485462)
(0.004124605377785306 0.002842363075564683 -0.004354195276256315)
(-0.006451370118281762 0.001217302304704324 0.0004017814399289115)
(2.695942310193019 12.62536597409704 -2.50601759512582)
(-0.005437578057708864 0.0002583443187315448 -0.001443955161756266)
(0.00219144940881405 0.00174269819753238 -0.005487299132781251)
(-0.003384706340144986 -0.0005053246858040367 0.001267762700298338)
(-0.5965255678043554 0.07803633866799126 -0.4322199834390356)
(-0.01218298732233744 0.02829420329116159 0.03993803856555711)
(-0.07559930600661191 -0.008061476279336885 0.1999994618690764)
(-0.03343204163796412 -0.04785429991050982 0.02773241036058056)
(-0.005749198551707781 0.001137168342033357 -0.007176587535347165)
(0.001290998659187431 -0.0003468674215315243 0.008532208591427903)
(-1.446749918418163 0.557089730138542 -0.5759315080586627)
(0.003845954582290921 -0.002673884174371913 0.002534881544196107)
(-0.0003626402787586375 0.000522306476225453 -0.001324708778583874)
(1.533484128349868 -0.7815274318404346 -0.7159961121317316)
(-0.003542389632162633 -0.0005626891777481531 0.004516774326517032)
(-0.1080769677954508 0.05784019993862014 -0.02809154219024041)
(-8.776460686323952 14.74418432851659 -4.984789742797334)
(0.01232491492815296 0.1335143856878886 0.6915523087519764)
(0.002654593488468106 0.01265254047695752 -0.02283478687614218)
(-0.002985198913617729 0.002136161489792681 -0.0002797071962521628)
(0.002548921599929648 -0.005560652400827214 -0.006917490730360187)
(-0.008225044906528547 -0.003621691852032754 0.001363183469531733)
(-0.0005388515341907161 -0.0002724986252656812 -0.0009115428848075865)
(-0.0004276323729472287 -0.0002983339409705121 -0.000230651442440726)
(-0.9023477747979058 0.4276681512174119 -0.4991059633718539)
(-0.02749451209523677 0.01088161449705755 0.03789352987463425)
(0.000941550145239886 0.002057372623002672 0.0003927737139005293)
(0.0003014791985633558 0.0004231076817706878 -0.001177632307981851)
(-0.001249659258043171 -0.03273121536072457 0.05444915468335097)
(-0.007787914972404586 0.001469203885900954 -0.0006863892257564535)
(0.001336604283499324 0.001787010566253223 0.005080321220019135)
(-0.001070378920516742 0.002586157709104128 0.0007316908177612879)
(-0.04478194832242768 -0.08442803697618488 0.07238882266730734)
(0.0003888148332762815 6.439079400390032e-05 0.0001562042118608113)
(0.02904855345509381 0.0195492903368118 -0.03194230321872835)
(0.01045666234855871 -0.01115327591766118 -0.001143707237649952)
(-0.002642626270494088 -0.001571211119050783 0.001687903123555295)
(-0.003104090492825692 -0.001840904999272127 0.003389266395423865)
(0.002337182197303559 -0.002886298303516367 -0.001031692274669337)
(0.007185831389913755 -0.001366912109917484 0.002194966733408507)
(9.807645961528177 -15.95931462429832 -47.21157273309848)
(-2.955685504887389 3.147680143486675 -3.492135176632321)
(-0.4892602216571686 -7.099307166113266 -6.212457800624049)
(4.238222929010619 13.74631799532007 -1.865063628172829)
(-5.862817501400143 9.823199565285311 -39.465498973622)
(-0.0001246266182655863 -5.631333092810133e-05 -0.000270430211083839)
(0.002943441467328417 -0.01998343549984538 0.000807168304106542)
(-0.07243846269057837 0.07420073910091508 -9.070532390579327)
(0.001230172576861089 0.01151120556673586 0.005357825614690778)
(0.001917961567390066 -0.0001056223256312714 -0.00108695790073442)
(-0.005285023547305015 0.0001199859066607508 -0.003893769894050356)
(-0.003191087382144598 -0.003121054049350452 -0.003562101184144651)
(0.003522387443648127 0.002010322264421589 -0.0008820969959020923)
(-0.0009044217476909172 -0.0002805111522879891 -0.00307886839095433)
(0.04244922859978778 0.1797384577056996 0.0003329085796813175)
(-0.007305905701585637 -0.003100206022699936 -0.0008043251558068369)
(0.0001316683369230108 -0.0002428971587107908 0.0006681812027469429)
(-0.001050927859915682 -0.002211846189703076 0.008569247256168394)
(-0.0241411134491723 -0.03782332274403426 0.01263994019831443)
(-1.662554861930897 8.224365710639329 -2.136015966649334)
(0.7443441299339932 -4.752843855779134 -3.908953400917758)
(-6.565100356270988 -5.983746894599236 -5.240879684300257)
(4.756645619040609 0.9063485631900978 -11.46525747536418)
(-0.09372581818159231 -1.591081608455092 -1.09815423508311)
(-0.002215595834122799 -0.001467285781198548 0.004457885015102456)
(-0.05430599931308298 0.01872699345334345 -0.0599229215547549)
(-0.003759655432637494 -0.001382069534411125 0.0107111138664336)
(0.03199819189393477 0.001525781028799391 -0.02222906296251995)
(-0.4360597112158717 -0.4198030595269659 -2.236135996503284)
(-0.0006731387698927541 0.0001216116033761297 -0.001082448910919906)
(-0.003965985454175675 -0.00941519910220201 0.007307332548065226)
(1.093632129429674e-05 -0.001946576170883619 -0.001326149379181425)
(0.2415178788268501 -0.1675799523188487 0.1449142293654384)
(0.0001131756871204779 -0.0008820507561313702 0.0002096006382128415)
(0.005436176619536083 -0.00822774750004575 0.007909286393118841)
(-0.01742318985491798 -0.1595978584742503 0.2810353398334977)
(0.006154210995680853 -0.002365611272795374 0.00116172635032356)
(0.004344936231707357 -0.0003822786926754131 0.003103657300580623)
(0.0006908316996617561 0.0004875945240490998 -7.32100484179703e-05)
(-0.0002320973979686875 0.0007825352735323159 -0.0002896113771519991)
(4.525056113454702e-05 0.0008757830743323799 -0.0001132745743186782)
(0.0003470987163240827 -4.948271137994913e-05 -7.576313539607781e-05)
(-5.004073316089929e-05 0.0003959284349251411 -0.0002453714156427965)
(0.0005391650089543561 -0.01319847029645213 -0.001378605709640482)
(-0.001529402058855768 -0.001068385458874305 0.01138800292511041)
(0.0001102188343737854 -3.632395687811235e-05 -3.191460511438801e-05)
(0.002627069195682103 0.0292091095372881 -0.004507299533737088)
(-6.62773054043805e-05 0.0004759027221233561 -0.0006105905883225533)
(-0.002673042874936197 -0.005191482502896971 0.0003817504822730643)
(6.726594204049058e-05 0.0003546695201035249 -7.635325034014047e-05)
(-0.001904275810211812 0.001311312748933321 -0.0009896000621249018)
(0.007831736985426104 0.01848491910369142 0.004898143310026962)
(0.01016152754771578 0.0003637771562698382 0.01244368438784351)
(-0.0354938587466142 -0.03708715564301595 0.0008213313440384997)
(1.49635239885161e-05 0.0008556589720094995 0.005291621899430606)
(-0.0001166565475742857 2.386710812488159e-05 -5.421223726016474e-05)
(0.001530798511894801 8.717206184991088e-05 -0.001115511495303544)
(0.03089975218709035 0.5764453161342105 -0.07525278536826019)
(-0.0002072414919387637 -0.00232860177017893 -0.0001543550686919701)
(-0.08187113235072915 -0.03653310352618814 -0.01866666966953492)
(-0.004856254749782215 0.001769996606958936 -0.001671827044438435)
(-0.003731649563357525 0.004932376935920793 0.0006492379111202543)
(0.0006924338543376758 -0.0003447739887934023 -0.0006491852096096584)
(0.009174704676372901 0.002288918777100074 -0.0004629383508156309)
(-0.3285453305868535 0.3095109767812186 -0.201328712212077)
(0.05169977001315995 0.01923077442668995 5.826546957846579e-05)
(0.00128176444534375 0.0004850838375492004 -3.195363745591079e-05)
(-0.00447850367028732 0.001308848035206907 -0.004701440520089722)
(-0.001892095263852963 0.0001484776201272198 -0.004349002905722967)
(0.0002073633509774025 -6.722631088845908e-05 -0.000119921433830041)
(6.931271949936805e-06 -0.003975578296251979 0.00534444910380644)
(0.0006079743086014366 -0.000213944031487258 0.0005033119815136686)
(-0.0001487037235590178 -0.0001177111172712808 0.0001907278466507944)
(-0.000213691070340124 -0.0009750295881099293 0.001702179194840063)
(-0.009127367489851419 -0.004384569720599041 0.0003965916404182839)
(0.002812609521728356 -0.002201770739593824 0.0008338359007755495)
(-0.001871467663895491 0.0001295916310554209 0.0006635269647767621)
(-0.009615268632845432 -0.000510648943796983 -0.005120706381359273)
(0.006455326514225869 -0.003195330043372382 -0.0002285396620600221)
(-0.06934320643710505 0.03750266237737362 -0.005346073869662071)
(-0.04548298809806162 -0.04829797382444807 -0.02274428994777835)
(0.008158716705037617 -0.002045439651162803 -0.003208028037269216)
(-0.001464338143359043 -0.001006935871426167 0.000418308527549031)
(-0.0003174947305405229 0.0001718514103657669 -0.0002624689278479736)
(0.08642068752804938 0.2372232556576312 0.01345501085856265)
(0.02899344527436229 -0.01346932328503065 -0.01767622053292102)
(-0.01615305417144199 0.02702053361431105 -0.01262945355738323)
(-0.0008805769949275264 0.0006663881284467443 0.004966496047555449)
(0.0005428294492541457 0.000292981797285898 -4.010003493353499e-06)
(-0.0005451181030456174 -0.0003320758206805641 -0.0006724155698792712)
(-0.02365591997526778 0.03051001041963324 0.05443838832430484)
(0.0008765874801544602 0.0004112593007921875 4.547140820334482e-05)
(0.01246667169549542 0.005744990485269497 0.0009971792121079774)
(-0.0001790294625229983 0.0004247246229735992 0.0002862270463853786)
(-0.003003566909092451 -0.001267963279541406 0.001832233262171966)
(-0.0007283235602968149 0.0002518869466126392 -0.001612218113247206)
(1.516085267803188e-05 0.0001726324275180919 -0.0001223124527481118)
(0.001127612757362909 0.01648139706964906 0.1498504013826694)
(0.01150137538692712 -0.01310084455497947 -0.01359679440855734)
(0.009082326210798844 -7.896267707570374e-05 0.0009288217370952459)
(-0.002569814221221629 0.00203275761538091 -0.001518414890230118)
(0.6105375751524794 0.757838958210194 -1.691764648889601)
(0.02221672585189431 0.000614452707331313 -0.003658520604751231)
(-0.04669418848516779 -0.0365115826869622 -0.09203134850299888)
(-0.0001866231058120674 -0.0004035283893296919 -6.309713996111753e-05)
(-0.02327110579082498 -0.01248165785903424 0.002809221840039413)
(0.00450180063285117 0.0006623768852961846 -0.006086501143578946)
(0.005251347577614956 -0.01178070916144878 0.004587526015299459)
(3.227907870884412e-05 -3.922526469566821e-05 0.0001964151166843116)
(0.001512251483982456 0.001345317061269751 -0.0004334122763881742)
(-0.0002115714920737286 2.300283182280332e-05 -0.0001124452339387664)
(0.0008086662454574641 -0.0002775324902779111 -0.001318774088813025)
(-0.009859015240199279 -0.0190320710009823 0.007849753060450226)
(-0.0008068129787659588 0.0009539388662410369 -0.0002229852546544618)
(0.004955213650820011 -0.007304501656124725 -0.003240435575085598)
(-0.01369868761075365 -0.06360198662703798 -0.09960033878701444)
(-0.0002512522221494276 8.99176027016287e-05 -0.002718374388869242)
(0.02807581996653834 0.002779230763669784 0.02042942566342957)
(0.03444336781246001 -0.006606342755539209 -0.06226129316938667)
(0.08761909293820978 -0.03917791243888297 0.002703786428876129)
(0.01526966133446362 0.005211755317543025 0.02348683965325856)
(-0.001520122051818429 -0.001738024556421102 8.61982391663161e-05)
(0.004216452151571318 0.01003826834081507 0.004661726834568534)
(5.318818542850327e-05 9.14179989828025e-05 -1.079815102212836e-05)
(0.007060437578022567 0.03807663616225632 0.02857950678939258)
(-0.0003820453656092294 7.769298476389673e-05 0.0001193406133564972)
(-0.0003630986342575557 6.698604063815105e-05 -0.0001769632872759351)
(-0.002384029132717063 -0.001086447390950268 0.001676744744743887)
(4.803773892237933e-05 -0.0005219410579824617 -8.104964464074487e-05)
(0.0001192165098694081 -0.000276262074340232 -0.0005634320882789422)
(0.0005341332422973635 -0.000343754174492427 0.0001390693986127479)
(0.001202535475895421 -0.001302857585067603 -7.396142583878464e-05)
(0.1014188735849026 0.02427696753382351 -0.06842169642708382)
(-0.0007436669774855131 0.0001071729353072299 -0.0009284837936217819)
(0.0003762625943867714 0.09163008743363778 -0.00222454273675988)
(-0.01594613482524881 0.002524679561906462 0.01956084417134902)
(-0.0004127737421996561 -0.0002998606410711479 -0.001211853596802818)
(0.002074168119178014 -0.0003994795523516012 -0.000347089192010932)
(0.0002162580769413392 -0.0001847034629965264 -0.0001440164396981639)
(-0.04458222964590053 -0.2007631033348203 -0.158347493952134)
(0.008012930971401456 -0.005412735704778689 0.004367410654380696)
(0.01776127358159536 0.000541182199300863 -0.006726988312802112)
(0.01703896417888832 0.004672003840704594 0.006030053576145118)
(-0.0007322062079864475 -9.246933273078278e-05 0.0002831858122411816)
(4.856750301600359 5.908434362727693 -2.557260658120711)
(0.07704593103707816 -0.01445491964427845 -0.001886206452430558)
(0.002326213296111144 0.002241443868178275 -0.0004074675484256047)
(0.06963396947321582 -0.03089964905547151 0.001792318324977752)
(0.1081359122209276 0.05368336837121768 0.01782543257761891)
(0.006015739740416944 0.003603376400799911 -0.00159267186001967)
(0.0007271281330005736 -4.454413417556358e-05 0.0002130344406533345)
(0.0005731768879427886 -0.004249663726561259 0.0008656466718052547)
(0.01835518247522073 0.007976909956783632 0.0001024037584300098)
(0.001365466738412805 -0.0007967489696421907 -0.0007586389497343941)
(-4.585469541593427e-05 -0.000883252999337992 0.002040075231569769)
(-0.005789669629248686 -0.003570954855252829 -0.001208662501127637)
(-0.006868951271047846 0.04444616750376012 0.05743004506013128)
(0.1826416967702992 -0.1731444947206179 0.07502072579047546)
(0.003285633640461534 -0.005588581354753559 0.003013833144685012)
(-0.02331456927622842 0.0102706943217912 0.007203694391565023)
(-0.0410398795439162 -0.01112378583329597 -0.01046260637753186)
(-0.03866641931235838 -0.004741014895154429 0.01205166267215441)
(0.001449286565879652 -0.0008515493952996291 -0.0007784741184072661)
(-0.0003241320637460441 -0.0001191354629180659 9.148783845160205e-05)
(-4.019908026082174 -2.722365344757264 -0.9253320672281161)
(0.003193471654846407 0.002202379233500146 0.003727225512240641)
(-0.001825993226411759 0.001969287910642711 0.001056165418160217)
(-9.298621777898176e-05 -0.0001938414190737519 0.0004147393217473936)
(0.00545704746540998 -0.002908276926300462 0.003703185989597278)
(0.0002349004725170776 -0.0001889934929963746 -0.0001251435193827785)
(1.408538984169174 -60.46084536873231 -3.645063444886135)
(0.9599291643387224 -53.18513929119373 -3.561663327222983)
(0.07398785033282515 0.02699600862797909 0.0532281612061825)
(0.001204818405494761 0.0007520119992449567 -0.001572764468968775)
(4.005814554648221 -2.939204971801769 -5.120153760761668)
(-1.066801796966177 -1.595758634374618 -9.866083510802063)
(1.778200539946484 -57.14170203887875 -6.7975747649485)
(-0.005700752829641704 -0.001596500708017643 -0.002944940188494197)
(10.06689388393242 -8.748912282655148 -4.934917204530742)
(-0.3172877183167504 -9.891757429634898 -70.95313092913727)
(-0.00779326347955573 0.0007049966126153368 -0.01144439483213055)
(0.03320615216829777 0.005925223303384391 0.05938153815450299)
(-0.07700965555949366 3.848965126836242 0.573360451762098)
(-0.8464830655234654 -4.523910906384898 -52.54787800509507)
(0.0001696796206837713 -0.0002383687677060214 -0.0002164671495609154)
(0.001608726210250922 -0.0004202558278866631 -0.0006283483231530186)
(-0.07326110947614038 0.03021815809591399 -0.005572454260195127)
(-5.226958690983622 -13.00647346652708 -9.041486229453056)
(-7.474738689289182 5.619444408468858 -6.005430893884109)
(0.01329549816344366 -0.01602545313724328 0.06841989021864367)
(0.0005897670228351998 0.0007299970456123565 -0.0007639908345601933)
(0.0001450477072415982 0.0002207346158941988 0.0006333474250842334)
(0.000216353584294432 0.0002756218466065989 -0.0002813813352640517)
(0.0004674431302164649 0.0009403218437405159 -0.002289329760248203)
(0.009436071033264918 -0.01207900877935504 0.002353743424747319)
(0.0189773263258387 0.006753119890603844 0.004788791475910673)
(-0.0002816307170482105 -0.02123829271121412 -0.05507005840321211)
(5.512549689627414 10.5870464939444 -4.86997370312066)
(0.002637185456367258 -0.04203310153341452 -0.01425752246750815)
(-2.301787660653422 5.621487148797182 -59.852464956148)
(0.0005466913351862982 0.001115509177805733 0.0001786518294281591)
(-5.735595836652195 60.53635238806488 1.327448637133463)
(-1.795740898099401 79.62911439458101 -13.38508519863833)
(0.003087114828528319 0.0002115084988841878 -7.870278151422697e-05)
(0.139866723630869 3.639640787744182 -5.694252848707325)
(-4.439228404044067e-06 -0.0003271179911770828 -0.001162151690559635)
(-0.05236784838035695 -0.08885314588668387 -0.2487384460627743)
(-0.001214953594915941 0.002696692493409394 -0.002104465636285822)
(-0.6075379739811324 -0.2780185165378548 -0.7369176485230224)
(-4.272044585461391 44.84682309383788 -1.778668125312559)
(-0.005048857241252374 -0.01701195589532962 -0.003566086369292789)
(-1.065471974154872e-06 0.001044981629615332 -0.0008875536409656559)
(-0.04557272437285173 -0.01165764774031067 -0.004416512083517232)
(4.680034372898495 -5.141645367101439 -5.983445919699141)
(-0.006348943392023518 0.01250043151185739 0.007275796731013223)
(-0.001450248472944375 0.0003979939778112559 -0.0008581652016546242)
(0.0003988360864431798 1.586064607229087e-05 -2.140648751852013e-05)
(-0.0001644808027446293 0.002328992454398294 -0.003809430509728736)
(-0.0009625472321204011 0.0004600563087786283 0.000428578538255041)
(0.01721489765838596 0.004433520831150304 -0.000579221007384369)
(0.06556236709138787 0.04543739430392729 -0.05136422650775331)
(0.000534179770802054 -0.001162146914819202 0.0005418211865924178)
(0.008759760135548553 0.006490005761257439 0.002752729109851424)
(0.0005680935626369816 0.0003752443674289186 -0.0003529711887361339)
(-0.03426270801696281 0.001071884467778252 -0.2914121151619952)
(0.2506669729677084 0.1622118955777246 -0.6557103878936541)
(-0.003229856140132045 0.0005634203347514375 -0.00114062919810334)
(-0.01153355482135667 -0.04758366665619064 0.002501197615438098)
(0.007264941821090835 -0.01815228377961563 0.006033221023561237)
(1.878284716590739 1.538927388010009 -1.32239180109266)
(-0.01041267296584524 -0.004220955822182852 -0.00839772791391814)
(0.005870919688134189 -0.006886374763893298 1.022116353402186e-05)
(-0.3664420624456017 0.5412760832602751 -0.9641249945241281)
(-5.381727109402446e-05 8.092328759638743e-05 5.633446238023101e-05)
(0.001691811415203707 0.002086157141865446 0.0005523700222257069)
(-4.548905238946845e-05 -0.001299478881343699 0.0003369331336066869)
(7.861625303094424 10.0524798095127 -3.792462291930693)
(-0.0002435383341432681 4.548963196260774e-05 -0.000274335593950817)
(-0.001706877027471974 -0.0004295579282722224 0.0003477935543968525)
(0.004733098785501266 -0.001317562117521094 -0.001205543430992677)
(0.3491879352619568 -0.06580859237477756 -0.4104502453862672)
(-2.324734703949588e-06 -0.0002697195865762677 0.0005443369245522318)
(-0.002566212054060559 0.0009491384497571096 -1.011351951769575e-06)
(0.0002868706723555627 -8.550069066077485e-05 -0.0002373088263610075)
(0.03159194640218056 0.05206450163445511 -0.06256112353906963)
(-0.0005070419251278769 -0.0001362368097846238 -9.132719110395529e-05)
(-0.0001987595573972765 -0.0003496444516630042 -0.0002446890048961478)
(0.004654378645361462 -0.001125701498993129 0.01210770618584211)
(0.03471821381376606 -0.00421522919527152 -0.00762970792080543)
(0.00044084150437727 0.0003754694183048478 -0.0002657042643372874)
(-9.560715917862335e-05 -3.382697270764136e-05 -0.0003099046805604271)
(0.009420290223634855 0.007563441118789576 0.01880917677730881)
(-0.0001884575456382377 -0.0008256133677915656 -0.0007575363436415219)
(-0.0001694558231377 0.0002091441235965364 -0.0002780648293903387)
(-5.252104617279501e-05 0.0007972205082509461 -7.389603071354312e-05)
(1.195428890621541e-05 0.0005137717446623052 8.957881180973016e-05)
(-0.00123130413830522 -0.0007853974062154241 0.001448612497052727)
(-0.0002815886340229935 2.261029728918551e-05 -0.001351167354291648)
(-0.0002579009673363362 -0.00024879362927356 0.0003008355398981064)
(0.0008526541413350285 0.0006882318374750365 -8.931385143588831e-05)
(9.16749238379414e-06 0.0007377795967952231 0.0009446455005216305)
(0.001251514015035414 -0.001416885696947569 0.0009511700597474694)
(0.000833468220185745 -0.04265897293368673 0.09614932093468399)
(0.001872277525371811 -0.0007108674043871538 0.0009955573893316787)
(0.001504084466525866 0.0001175551315227116 0.001240820160796503)
(4.21880432413165e-05 -0.0001743283919883171 -0.0001592296808179074)
(0.0003555408983125872 0.0001080468105657056 -0.0001617002653612674)
(-0.004403214744658763 0.01246341779741679 -0.002070118494728118)
(3.476673382960176 0.8357773260840711 3.576545354125852)
(-0.01400508837275175 -0.001242127115863444 -0.001218745931312902)
(0.09649672503204432 -0.01741737330737917 -0.00261628158931734)
(-0.0002777558239803052 7.782472965321332e-05 -0.0001511551923458343)
(0.2254268471779611 0.04904616824871151 0.1827488784008066)
(0.0002284965167032689 0.0008625715662722109 0.0004247971647833047)
(0.03552316379119189 -0.003631814787008079 -0.0006864062418538144)
(0.001657874105263238 -0.002612027850677821 -0.006737062520639137)
(-0.003734519410334181 -0.0007728635594956262 -0.002155598104243314)
(0.09473536800693193 -0.0710075854974641 -0.05250169461679968)
(-0.004312569378309657 -0.002864932407437713 -0.003844641003884691)
(0.01456818525204944 -0.009063508490384802 0.003764903134537935)
(0.001420761078548937 0.001399644814269707 0.0001844601688795725)
(-0.0002240979042338236 -0.000941737739230622 -0.0001405695104963179)
(0.0002816279685299293 0.0002896814869099415 -0.0001971174470873189)
(0.9517597136523543 -2.586189360772601 -1.014586492857622)
(0.003420856757884043 0.002010945656985366 0.002618832117327365)
(0.002697614262481769 -0.0004247717005678051 -0.001968017222039833)
(-0.0003132137168091823 -1.792900934950874e-05 0.0002051787878104736)
(-0.001216190676375439 -0.004414440761664303 -0.001970617736948981)
(0.003671823713095166 0.00179069022077382 -0.01614492794928156)
(-0.05254263932244921 0.1471324498913424 0.05024307179390199)
(7.561687873631795e-05 0.0004684790985197129 -0.0003674594247662855)
(-0.0001179448192118071 -3.90075694206818e-05 1.253776635378329e-05)
(-8.125843806330685e-05 0.0004887794477357477 -0.001141581050895836)
(0.0001821166889508926 0.0001019776145480963 0.000319893595085204)
(-0.0005993827709458866 8.95070334361389e-05 -3.538394796859807e-05)
(0.0001271910610249637 -0.0003545373244507775 -0.0001739659799893148)
(0.0003196476125211386 -0.0002668132287605963 -0.0002598108388739583)
(-0.0006474222751688688 -0.0005195694800672816 -6.948279949855807e-05)
(-0.0001814983242806766 0.000175194596550336 -0.0002420889735456058)
(-0.0007470438102778203 -0.0007325000048616192 0.0001289696723358211)
(-0.004775419186016927 0.007413237650780951 0.001950582458779257)
(-0.03770472387231372 0.04761155888187093 0.02848449548726813)
(0.00142671643918068 -0.001051293396169432 0.003634139676115189)
(-0.0003088633104606304 -0.003311766566277532 -0.001128427161143284)