/*--------------------------------*- C++ -*----------------------------------*\
| =========                 |                                                 |
| \\      /  F ield         | OpenFOAM: The Open Source CFD Toolbox           |
|  \\    /   O peration     | Version:  v1906                                 |
|   \\  /    A nd           | Web:      www.OpenFOAM.com                      |
|    \\/     M anipulation  |                                                 |
\*---------------------------------------------------------------------------*/
FoamFile
{
    version     2.0;
    format      ascii;
    class       volVectorField;
    location    "0.7";
    object      U;
}
// * * * * * * * * * * * * * * * * * * * * * * * * * * * * * * * * * * * * * //

dimensions      [0 1 -1 0 0 0 0];


internalField   nonuniform List<vector> 
19632
(
(5.009558565701898 0.01586378390209979 0.007184282378390251)
(5.000050715998889 0.0003334649620748297 7.108489833288959e-05)
(5.000314615556493 0.0001165207478172224 5.118715688017994e-06)
(5.000181206772603 -0.0008958436985914345 0.0009409807289096886)
(5.000151401165381 0.0004240837906091811 6.716999117182795e-06)
(4.999262435079548 -0.0007163736599687797 0.004189402113264055)
(5.000058954880709 0.004697202585318262 -0.001107666002758508)
(5.003805195582101 0.002085077398942691 0.002265370408501835)
(5.005148739964379 0.003682689418682221 0.003506009307554776)
(5.00652209181686 0.0007420911191925105 0.001850473749338514)
(4.999840214916579 0.008087518677657071 6.458599276332776e-06)
(4.999716351629678 0.001413139722225322 0.001456564836447139)
(5.005914122262466 0.001342289366239064 0.002508150819735416)
(4.999865982866078 -0.000268398383458595 -0.0002188080228897517)
(5.00009889722188 0.0006658170130625156 -0.0001580204949535864)
(5.000321532393156 0.0008347198605172545 0.000286808414999918)
(5.000134137895436 0.0007871986216297952 -0.0001254598682118664)
(5.000192125013149 0.0007613585830945772 -0.0004569402255827152)
(5.000208833795559 0.0001602885424825508 1.485999999051151e-05)
(5.000570267877579 0.002445341845760744 0.0003684157377577491)
(5.004048430871748 0.003397193961562549 0.002869478885199414)
(5.000706540783924 0.001715320348850837 0.003223517951620782)
(5.008246630008798 0.0004250827425618773 0.002350496432813122)
(5.000259022363144 0.000665460055617747 -0.0002532277308592092)
(5.000730947885816 0.0004121072840233215 -5.326734257167963e-06)
(5.006401097858962 0.001561133766557652 0.003949292730419541)
(5.004092521464366 0.00333557554387166 0.001844628583522948)
(4.999719793345588 0.0007484128917671283 -0.000315625819459453)
(5.000435627180401 0.0007138818002456163 0.0007225457309749644)
(5.000086705188754 0.0002588384379626936 -1.038815124714295e-05)
(5.000248599621536 -0.0001508077062972132 -4.891738312059336e-07)
(4.999733353497022 0.0008931550256293092 -0.0004591219739742073)
(4.999981810032522 0.0007162112952063685 -0.0001855688767089125)
(4.999722412042729 0.0004525538712632602 -0.0001281124271363135)
(5.000174846138297 0.0002121953000567673 -2.110552635661869e-05)
(5.000952251975853 -0.0002756899056303892 0.0006599802386010013)
(5.001067817979815 0.001964669123881032 0.0006571016112686175)
(4.999780309496692 0.003403123258725981 -1.917619160058653e-05)
(5.003944927652521 0.002092650318959873 0.002971761339701047)
(4.999848241969006 0.001385438697208127 -0.0001064646359364896)
(4.999982683206039 0.001307621552892316 -8.514151052849143e-06)
(5.006981225917433 0.002613668951922262 0.00518588077140256)
(4.998602063451762 0.003092248325293911 0.001604497243664131)
(4.999843283104474 0.0009627252432765652 0.0004292400238564918)
(5.000090808490317 0.000226066931500542 -0.0001704350801293763)
(4.999045297332074 0.003750802621934662 -0.001533169899714373)
(5.000276289963605 0.002634090267740965 0.004198450607006697)
(4.991415718866248 0.0009207631977434662 0.0007788713193082589)
(5.001321622171679 0.001383644482246716 -0.0009196551215593334)
(5.000378130518551 1.402224290759842e-05 9.030985890992107e-06)
(4.994244507794694 0.0001239240584550092 -0.002321972096882001)
(5.000369419634379 0.0001225250320877336 -0.0003703835373671408)
(4.999893739595393 0.002173325616667195 0.0008863683296986306)
(5.000571450101052 0.006791907941537218 -0.003980511811649721)
(5.000003818943695 0.001136808734920134 0.0003817664199530982)
(5.004246006329907 0.0006885490991553691 0.001366891047188202)
(5.004328590707694 0.0002857850733010901 0.001259432666898317)
(5.000977995563449 0.0001414284397237574 0.0001014145208849895)
(4.997460025687291 -0.003761783873701948 -0.005634265238605958)
(4.999978310302112 0.0003901348868543477 -0.0001484913452637419)
(5.000117826491469 0.0002839068665117232 -7.453232183244173e-05)
(5.000349308220414 0.000137292857928594 4.947854518644088e-05)
(5.000250684447413 0.0002105626022696807 -1.822784328587227e-05)
(4.999709366737622 0.0006525219512541513 0.001824042860477524)
(5.000393933019267 -0.0009240713030925959 0.002079247738669463)
(5.000051762698781 1.939359774283828e-05 0.0001301154431893427)
(5.000153131644549 0.001193277926807662 -6.135338854007153e-05)
(4.999728466913128 3.757924837263493e-05 0.000515100880396368)
(5.000466848212416 0.0002828223204439937 0.000635637529959227)
(5.000155203543107 -0.001076198400038665 0.003769852359297195)
(5.000110125462741 0.000315267657843957 0.0001753974620779189)
(4.992125004158007 0.00232937314597524 -0.0001333269071159911)
(4.986539402301355 -0.0003133990355330816 0.0006788694210182537)
(5.005189217986039 0.002556192222143951 0.002862948377861113)
(5.00083458053385 0.0001298693015647558 -0.0001124936691024973)
(5.001859818508215 -0.0003296773746659456 -0.002698230316434545)
(5.000341942760159 0.0006704571893613957 -0.005327786376573437)
(4.995808586509246 0.001303562701326394 0.02837438041301605)
(5.000060576444607 0.001477844181420843 1.009923011593353e-05)
(4.999365086926193 0.001868872729408344 -4.149592193422403e-05)
(4.9973118813199 0.004581439285587699 -0.004743174271568268)
(5.001877328932055 0.001315205958954079 -0.001051463154085062)
(5.000643881983097 0.0007154895753828158 0.002829387149326108)
(4.999644661514219 0.0005999908918778418 -0.0005283111751979849)
(4.99962250331301 0.002198555853957639 -0.0001683851679960043)
(4.999251576695506 0.002275717215167798 -0.0003418448469412722)
(4.999904413824963 2.280302183100154e-05 0.0008946318215836699)
(5.001095014787126 -0.0009062928187467337 -0.01020437317396189)
(4.995239237461757 0.005725623619990245 -0.001737771964091887)
(5.000006145939355 0.0008282024224359982 -0.0002933909264404039)
(5.007727033416995 0.001416360023611528 0.006280168477520943)
(5.006384933377092 0.005655740542880545 0.01029019675071033)
(5.006815158584554 0.001503592380510674 0.004006746393348711)
(5.000141220483308 0.001320212109613113 -0.000329012917206414)
(5.003663000176264 0.001418691390754247 0.002029576314682684)
(5.003754957753938 0.001778327259399276 0.00297867476962497)
(4.998269777923491 -4.725958776588571e-05 -7.90135172414074e-06)
(5.000060959424699 0.006209764713250267 -0.0003463271811816159)
(5.000911949942239 0.002947351475820136 -0.006919915800226196)
(5.000280816585611 0.0005471751752561754 0.002844866726208369)
(5.000105743945072 0.0001070484918316919 -0.0001577867946145762)
(5.000971275420951 0.001297110289825057 0.000711780235810879)
(5.000259683865993 0.0005197930780001537 -0.000255165776895117)
(5.000057512578215 0.0003741212512329428 -0.0002998257941208394)
(4.997631269121338 0.005151201595233084 0.002385505524190001)
(5.000431309725352 0.001544701448786789 0.0007380609153306496)
(5.000133545576049 0.0002986926150001876 4.913655090867118e-05)
(5.005452369184476 0.002645686176132772 0.0061066075736157)
(5.00137618906734 0.0009495447592346994 0.001076127202799743)
(5.00015347743341 0.005460805834363534 0.0004157537376075256)
(4.994611112460217 0.001308267764533597 0.0006767374759478826)
(5.005513028025183 0.0008648232940504545 0.0006948963405883393)
(4.999379320101804 0.001567801217194776 -0.0001367819914652916)
(5.004545713804244 -4.136083171943446e-05 0.001619147159005837)
(5.006485905214081 -0.001598246928624715 -0.001331810330389444)
(5.00427597407123 0.004146550614273468 0.01019121457415868)
(5.004403745651464 0.0005381158606503442 0.001068374858676907)
(5.00509637525043 0.0004922791119914938 0.0009816555252807209)
(4.999538202536712 0.003504632005974924 0.002884925548097901)
(5.003905627986147 0.004576471861218561 0.005668234444380522)
(4.991327628085395 -0.0002785667385810369 0.0007299562905510011)
(5.005124095414629 0.002815564783111831 0.006544431469296833)
(5.000113714195567 0.0002053783757311993 -2.556659044264126e-05)
(5.005603796405672 -0.0005474006552105171 -0.001056023710708529)
(5.005876041477984 -0.0002754001107905663 -0.001933851136880369)
(4.999886254250084 0.0008756005359936374 -0.0001085216144711998)
(5.003581680136073 0.005342174808525581 0.009156145779970733)
(5.000474069081568 0.0002008835215038001 1.184455391564331e-05)
(5.0003237779742 9.977491144877396e-05 -0.0003438850985402209)
(4.997775710105876 0.003979095788032938 -0.004624117905946096)
(4.996556031811292 0.009096624761663416 -0.00405336876718207)
(5.000418431801003 -0.0002158154960722234 -0.000184483192786883)
(4.99998873379646 0.000939689112495635 -0.0002196565948881937)
(5.000220723123312 7.265029377218773e-06 -0.0001176129434662879)
(5.001945769443271 0.0002722360196761259 -0.0005614108233042603)
(5.000912064296137 0.0002260529613452862 -0.0001118253467957187)
(5.005913039725214 -0.0006018737474624278 -0.0008287361945088151)
(5.001618860820842 0.0005326170248749154 -0.0007020745673713423)
(5.000375916130472 -1.336167579337324e-05 -5.279850147844167e-05)
(5.00090628554781 0.0009191929765932652 -0.0007074771802065492)
(5.000374118872645 0.0002137405513328374 -0.0002090228767544266)
(5.003188439443068 0.002217420700941315 0.005845304541297478)
(5.000291780856693 -3.716931567812775e-05 2.907243371824713e-05)
(5.025357264833843 0.006809530579028127 -0.009047303549367829)
(5.000412878736022 0.0008349567072719122 0.0002222285118910173)
(5.004751417799501 0.003640050999669107 0.005530452150959267)
(5.000353518403177 7.383892684689691e-06 -3.872321987366262e-05)
(5.000874690817792 0.0008682507795461054 0.0007835482004451719)
(4.999747051735402 0.0006148754493047611 -0.0001743839799312574)
(5.000603095336862 0.001324431105942893 -0.0006216110930592419)
(5.000016591826829 0.004798204232507736 -0.000324801133209841)
(5.001662559466129 0.001895791665567237 0.001242572984300737)
(5.000112499974644 0.0009045128180339058 0.0002947596307823616)
(5.000243049118391 5.585091906508019e-05 -2.634526016671935e-05)
(5.01368734165607 0.01755874119362821 0.01394596558129194)
(5.004701209121542 0.001679787068681308 0.001486047918346781)
(4.995199537538721 0.005949486904205257 -0.0001881925023330168)
(5.003125688191316 0.001237153084656597 0.001663108877380765)
(5.002643385862662 0.005502140302690172 0.0111534753977462)
(5.000262602808874 0.0004390958638731828 -0.0001564925574937962)
(5.00585797164071 -0.0004815400686466056 0.001507594076807935)
(4.99642283775825 0.000447086643432273 0.0004815119882967176)
(4.998476303761318 0.001970969895719507 0.00175250613405884)
(4.995977614426896 3.7244165976599e-05 0.0002010202104804326)
(4.999685237760635 -0.003219403565017651 -0.0009039715785163985)
(5.000886448110362 0.01442447586971222 -0.01529658666205216)
(5.000330735315898 0.002661441964103207 8.846472960246559e-05)
(4.995739191168322 0.0006550485806802246 0.0005066884005751662)
(5.000237546788007 2.810572931325833e-05 5.847786104389911e-05)
(4.993012553221307 5.414095726322097e-05 4.782529366826875e-05)
(5.001415495810634 0.002903904852727085 -0.02161476856914189)
(4.995167988517116 0.000780443855309791 -0.000380377074963737)
(5.000854228011943 0.0006985965754539231 -0.0007434478473125091)
(4.999633718443707 0.002656647651234243 -5.560948983494305e-05)
(5.001549171883111 0.002200572897988802 -0.0006968838478069626)
(5.000167057652113 0.00808264932793583 -0.005784925173169004)
(4.999839802255136 0.00533852124253726 -0.007912544280772458)
(5.000190777171915 0.0001975818289600122 -0.0004222796171391151)
(4.993008669257343 0.0004717139143241304 -0.007072967636198421)
(5.000963677380913 0.001218222773258575 -0.0005855047591866257)
(5.000299872421768 -0.0006642430122201056 3.476330572351151e-05)
(5.000357772721689 -1.337599418718523e-05 1.125986113888479e-05)
(5.000208017394315 0.0002298091164631921 -3.353688728559938e-05)
(4.997779068738994 0.008047611161946459 -0.002621320503384691)
(5.00091425026512 0.0008283058485603592 5.173475850615313e-05)
(5.000276449821132 1.100697673298058e-05 7.947747555372009e-05)
(5.000289954285599 -5.743895411926104e-05 -1.985396533911408e-05)
(5.000236213838853 -3.417954771621327e-05 4.351847727805528e-05)
(4.996607150084032 0.008628352983413839 -0.003963306572737495)
(5.000242866712983 0.0002492994283249693 -0.0002401736743286768)
(4.985721977782836 0.0005347494261415003 -0.0008353893468440725)
(4.997614619938199 0.0008593653736264583 6.688881790372151e-07)
(5.000307731423171 0.000157538714338731 5.408476455667139e-05)
(5.000311370997404 0.0001681621984240238 -3.350796692094634e-05)
(5.00046285711811 0.0007173756233952665 -0.0008466926911676341)
(5.000324095766671 0.000539996306722452 -0.0004460920220369615)
(5.000307999558958 -6.600663835734117e-05 -8.221614930426108e-06)
(5.000178534337206 0.0002678814703503173 0.0001577674421472524)
(5.000271454343425 -0.0005481491405830771 -0.000140734136954764)
(5.000527650355911 7.148120444572823e-05 -0.0001499887493020272)
(5.000045543150303 -0.0004151690158734716 0.0003174586302774459)
(5.000381865699774 0.0005084493076494601 -0.0003176491632722852)
(5.000383075772272 -0.0002849688846147193 -1.392938905087925e-05)
(4.997132472731015 0.0004607472122490039 -0.0004172268987388806)
(5.000313901870149 -0.002816290326998636 9.688605766859018e-05)
(4.999936667323011 0.0002308910787055109 8.466548765633672e-05)
(4.983136228401696 0.01913105200525936 0.05732194816180698)
(4.997480151442933 -0.000309586005695248 -0.0002140397280428416)
(5.001405268175731 0.001152933139655472 -0.001798070464675809)
(5.000126462861856 0.0005774557291125309 -9.746413041734293e-05)
(5.000421128661231 0.001034113725891809 0.0004223265225261547)
(5.002601729100481 -0.0004982759900309552 0.003610755391365149)
(5.000339361911711 7.20141570615386e-05 2.874415289515695e-05)
(4.99760731084953 4.633718337945487e-06 -7.860436543281722e-05)
(5.000784854393729 0.003219571153838952 -0.0009091593315011462)
(4.999970468073945 0.0004520661971321741 -0.0003953631364294777)
(4.999808063097812 0.0009170456333775208 -0.0005010336085552056)
(5.00080836339695 0.0004975968826727425 -0.0001559698776647096)
(4.99577219628192 0.00495127337257588 -0.0001067081764446911)
(4.999109187172716 0.001963605780679765 -0.008918183340251459)
(5.000045164662573 0.0002167642196010808 5.952714313596583e-05)
(5.000530673507285 -5.005109380183251e-05 -0.0006726372952438899)
(5.000799369057599 0.0005988925623662416 -0.0002117928659389108)
(5.000295765523536 -0.0001082903551440625 -0.0007379241718120085)
(5.000228411966299 0.0006795613571736981 -0.0008355944097551791)
(5.000289293864565 0.0001673040302014751 5.815909909253652e-06)
(5.005288811063807 0.0006853630181538344 -0.0009205580541599053)
(5.000205434069571 0.0001870871593880075 0.0001179044804378367)
(5.008193798101874 6.309757261489452e-05 0.001469151492655984)
(5.00051181316253 0.001417295445953615 -0.0007916422413286441)
(5.000121476694153 0.0007372461490574994 0.0002651951439374976)
(5.001238775306335 -3.642958782738311e-05 -6.675017284811413e-05)
(5.000311107098458 -1.883065335944233e-05 -1.484101813109728e-05)
(5.000358140238227 0.0004568006824255557 0.0001433631860855175)
(5.00013007612481 2.812671804819377e-05 8.072408276585401e-05)
(5.000449028874325 9.851345303820004e-05 0.000166300093216659)
(5.000276363813938 5.948153247149425e-05 -0.0003000294357106471)
(4.999580321351471 0.001402315245902549 0.002835820756599775)
(5.000091876841931 0.0002083028146038494 0.000138196700457638)
(5.000248620546746 -0.0002381399886510509 -0.0001237770697760181)
(5.001443238496679 0.0001366388977954266 -6.109566945594315e-05)
(5.000951849490053 0.0004274005563172702 -3.323184666636144e-05)
(4.957889965721299 0.001198296136805644 0.03992470395434337)
(5.000391526721976 0.0006771948374995274 -0.0003211867253103622)
(5.000196686695111 0.001335414166969727 -0.0002427215299768214)
(5.000314616205463 1.700925399246713e-05 -7.766691882468073e-06)
(5.000507435820666 0.0008254024648746218 -0.0002948851034310145)
(5.00044269683662 0.0006328396175433694 -0.0003061674432659554)
(5.00017172817578 0.0003577211342673371 0.00298828144593037)
(5.001215254160265 0.0008611722945126153 0.0003954510953871632)
(5.00028560023334 -1.410323969669962e-05 3.052122395058854e-05)
(5.000438868308062 -0.001036248558006447 0.007049139007137967)
(5.000346609802886 0.0005981995077964396 -0.0001978409429810515)
(5.000373736535497 0.0006646862664227187 -0.0004485745187831283)
(5.000219321300728 -0.002412996099888869 -0.002152329550514186)
(5.000472405872109 0.0004304981914305346 -0.0003991634424672921)
(5.000362463288857 0.0005784288484506386 -0.0001264363418538435)
(4.998260223996206 -0.0004000403585167405 6.640061883371955e-05)
(4.999887695076005 0.001911732432986692 0.007148592958285347)
(5.000574194927394 0.000767829492304306 -0.0004660262717134159)
(5.000698046123931 0.0008674921308191592 -0.0006420057267115034)
(5.003102979375371 0.001605564674001663 0.00642543153033459)
(5.000647347807918 3.659149779664688e-05 -1.77619752242401e-06)
(5.006465264278445 0.00481697429055565 0.003743987453750066)
(5.000019135289695 0.0004300577439937832 0.0001956033316706412)
(4.999761833589492 0.0008109529139723085 0.001287275681791608)
(5.000500003619947 6.206192053401491e-05 -2.669238721540653e-05)
(5.007366201597613 0.002058821207197775 0.002315233893327131)
(5.001235014832428 9.698009595953056e-05 -0.000661373286968571)
(5.007684115208421 0.002293328278609954 0.002082310941056445)
(5.000623586559997 0.0004490388227397419 0.0002564209207367971)
(4.997861103990481 0.003248672378288072 -0.005543016186324447)
(5.000335863392142 -0.0004047277723448156 -3.785857658330125e-05)
(5.007518303895433 0.002607223662951348 0.001664347769229083)
(5.001459090393459 0.001375996199045386 0.0004084546927460298)
(5.004985909736464 0.00127035989961647 0.001697357513178963)
(5.000646419485165 6.807425273016398e-05 -0.0001094181632342272)
(5.000712826840422 -5.697425862169247e-05 -6.228202505457713e-05)
(5.003891000644386 0.001328017725554504 0.002766098258709727)
(5.003292106295595 0.002116079508112129 0.00385195776618643)
(5.003088508938124 0.00228231596958519 0.003919388568923889)
(4.995060782541071 0.0005638668338499263 0.0003114096330870214)
(5.000288763681407 -5.256917233098457e-05 -1.501891236614489e-05)
(5.000366816322288 0.0003741620200911167 3.998656844876374e-05)
(5.000267791765605 2.359745021543827e-06 2.026974964252171e-06)
(5.000191489543129 -0.0003048866852259533 -0.0001823913636186865)
(5.000322282368293 0.001793912574477005 -0.0006049498299090151)
(5.000716634942831 0.0001439959030470534 -6.944209861764726e-05)
(5.000580671427231 0.005388321655950222 0.005740473158224546)
(5.000266647678004 0.000167341330363819 0.0001474685351330752)
(5.000252516966769 2.7675325264543e-05 1.570210715003679e-05)
(4.999882962495217 0.0001675821869198319 0.0002413454296862935)
(5.001977898615585 0.0002651257914767162 0.002499202909403895)
(5.000222079091739 0.000205012419582845 3.785860810597759e-05)
(5.000397712797263 0.0004562670431513971 -0.0005195687304878889)
(4.9996539020346 0.0001866181939138271 0.0009018487925772349)
(5.000003003571983 1.974951942830948e-05 1.028781408741314e-06)
(4.990884506117585 -0.0002014456634923699 0.0005573885922479645)
(5.001203398265037 0.0003712205235164753 0.0001265163116201805)
(5.000230730097832 -0.0002460440499465045 4.586635166917579e-05)
(5.00029303818483 0.001037588845774572 0.005484381019468987)
(5.000795717420721 0.001271862768878934 0.002248872769802681)
(4.999980500098278 0.0001727853234824778 9.221869200435102e-05)
(5.000328285345012 1.479295720478688e-06 -3.413650892696051e-05)
(5.00090472046453 0.001064436541521617 -0.0005369554996425608)
(5.000948062005388 0.001126510862930349 0.0008667225519250796)
(5.000230808777896 -3.532344935434598e-05 6.621888150965223e-05)
(5.002695451150381 0.0003742503774015828 -0.0002334514278722401)
(4.999425429588215 0.001162992581036413 0.001822802152837691)
(5.000103184434984 0.0006363875084681334 0.0004714508215113107)
(5.003657842487798 0.001601913779739954 0.0008681521331583294)
(5.002387265126782 0.00314584350273278 0.005093243030659808)
(5.00062614390407 0.0008765113734023077 -0.000444543614511444)
(5.004643895767339 0.002638367715365051 0.005312818580644484)
(5.000125050650934 0.002983743714344986 -0.0006087932476489011)
(5.000433539530023 -1.142135251045595e-05 0.000101789863172601)
(5.000715141984288 0.001185068787766323 -0.000412664806431316)
(5.006656518464456 -0.002482027571719047 -0.003197785707902055)
(4.997446113308153 0.00465159763896487 -0.002809366830433909)
(5.006149270360384 0.002177578204189301 0.002926937439143237)
(5.015661809618403 0.03543621631146623 0.009122180550454898)
(5.004834680808125 0.002031003847700649 0.0022691582539989)
(5.004710606579245 0.002316502945798798 0.001201908060464928)
(5.004209578518478 0.001411949809115164 0.0008515144451807804)
(5.000958709459457 0.001811540154438299 -0.001361138286866034)
(5.000722659701902 0.001683526002529109 -0.0008649016762436678)
(5.0007935030855 0.00136580991986452 -0.001023822519001415)
(5.000489482827035 0.001368806756992528 0.0002708771055795835)
(5.000430908619459 0.0002165146000330209 -0.000617292898378506)
(5.000449964260856 0.0007640921406857691 1.689838009886925e-05)
(5.000341834254079 0.000199204581280577 2.712914459868639e-05)
(5.000490854966639 3.886766373061304e-05 7.722331997658105e-05)
(5.000204007528835 0.002149640554571863 0.00059506927073266)
(4.999820656005391 0.001534968155509642 -0.001374728384060786)
(5.000192035276035 0.0004935398620637233 0.0001608989196418059)
(5.000264402412857 0.001723900475620151 0.0008072735491179507)
(5.000036146539557 0.0003900610135200393 -8.18475051162805e-05)
(5.006237390026123 0.01223617291909197 0.01152939081624719)
(5.000166620325264 0.0002900435892199456 -6.864815830796051e-05)
(4.999630131050726 0.0006883575788251679 -0.0002910926436559001)
(5.000101836736461 0.002115516311175861 0.001027535344186437)
(5.000379910757005 0.0001000705397518189 -0.0005198220875513005)
(5.000691046546063 0.001738018307427583 -0.000294769771238633)
(4.995127989742976 0.001194675031417224 -0.0002256279128313633)
(4.999927929367253 0.002286494452535843 0.001017565517844475)
(4.992568001539847 0.001584618667664554 0.003530524002080184)
(5.00029278477315 5.206362911649266e-05 2.96194433784747e-05)
(4.999180232684978 0.001309307609768918 0.003757076413169731)
(5.000255822442659 0.0003741871632184698 0.0002542386356595635)
(5.000437507937 0.0001653448984777366 -0.0002384079129580593)
(5.000782903361733 0.0002754589487947257 -0.0001535894623924811)
(5.001380768927024 -0.0005685526984274216 0.005284684439662489)
(5.00015119274327 0.00022359166733493 -2.655821057290479e-05)
(4.999952341585291 0.0003393350758748158 -0.0001390213946452407)
(5.000888176599462 0.001648161174757683 -0.0008211070123039779)
(4.999427835649029 0.0003157771949838429 0.0001211001531060712)
(5.000261657846038 0.0001240768545179066 -1.351218326326412e-05)
(4.999819468911726 0.0002037617085475625 -0.0001819116370025183)
(5.000095753555508 0.00231247221680537 0.0001936034527529546)
(5.000636473326676 0.000601965385834477 0.0004070458679992355)
(5.000759211548578 0.0004413033549091197 -0.0002383346483712843)
(5.000031689757312 0.0001961976066505813 -1.471709022551851e-05)
(4.999755635701802 0.001313482641148528 -0.0001337945304843702)
(4.999835803275821 0.0004825840623758577 -0.0006007753591417732)
(5.00085368362624 0.0002541991496481343 -0.0005897702792569167)
(5.000111544210034 0.001186954035508156 2.082372394180006e-05)
(5.000163927848825 0.005948401656376477 -0.0002645494621469292)
(5.000029270783926 0.0007188979321642744 0.000173666058069553)
(4.999591723514865 -5.423589264311167e-05 0.00501205613447465)
(5.000382548014491 0.0006464383749527464 -0.000308447161424086)
(5.000500971399048 0.0004388848179837073 -0.0003674155729950809)
(5.000138534930967 3.384022812541987e-05 4.23992057794565e-05)
(5.000615362952156 0.0004349601102550469 -0.000373683784678495)
(5.000507694354889 0.0003339554036279829 -0.0002012580684903055)
(5.000092546816944 -0.0001883945538009872 -7.62818201726995e-05)
(5.000349012733432 0.0008310626058405862 -0.0003122489483219175)
(4.999917858822395 0.000161929913772185 -6.267146723582571e-05)
(5.000253971958408 0.0006148516102198035 -0.0002227308941406671)
(5.000417770978777 0.0005668046065314945 1.161483269001293e-05)
(5.000128795602437 0.0002050491648689056 -8.517913576797598e-05)
(4.994697941518791 3.576449068253078e-05 -0.0001799531906521793)
(5.000021654410049 0.0002799093596978458 3.659230807660105e-05)
(5.001658186021772 0.001741213602721768 -0.0006488924710894463)
(5.000442443591794 0.001128647923502099 -0.0004227663113686155)
(5.000324510599666 6.798795822093042e-05 -9.672460673737783e-05)
(5.001383324753686 0.001716765745758879 -0.0004864608778472544)
(5.00148615412945 0.001125442044915565 -0.0008497192164735399)
(5.002628297885494 0.006142830511921529 0.0001810966405856321)
(4.984375485534346 0.00129547914848304 0.000430607530090816)
(5.000985514925745 0.0008864691246970709 0.0005701433940876602)
(4.999719823771453 0.000231381245610632 -5.098159763916647e-05)
(5.001648679586189 0.002306543747013671 -0.002299552266684792)
(5.000843154242365 0.001369840934339864 0.0003349798182552363)
(5.000271660256819 0.0003271035924337544 -0.0005051097621926544)
(5.000506119395562 0.001261885794376187 -0.0001601756804183219)
(5.001962454918719 0.0003274073797765829 -0.0003421261539258951)
(5.00067112354699 0.000484185688263401 -0.004496042082302929)
(4.988323132584649 0.001119840395449146 0.0002448580402628485)
(5.000366041516051 0.001606205189201062 -0.0009206046551897675)
(5.000630959651871 0.001941450467376331 -0.000877623599134805)
(5.000260020751654 0.001078705966554267 -0.0009110201300140731)
(5.00000887354213 0.0001371049677011848 6.299005933732621e-05)
(5.000077545780846 0.0002799414165643886 -6.198537035931595e-05)
(5.00007640490579 6.387658599924695e-05 0.0001312840854442921)
(5.000537760202744 0.0007785840984450896 -0.0004552421512758421)
(5.00019384120071 0.0001584814712406366 -0.0001039653797157817)
(5.002760960322719 0.001825108921109128 0.0007869246055957331)
(5.000017785101014 0.0002737020176649223 1.741766274652622e-05)
(5.000909772241085 0.002131782249398693 -0.0005689539777024077)
(5.000391723184054 0.001455894591612835 0.0004951225159099481)
(4.996096233983735 0.000188623810782142 -0.0005122246541097097)
(5.000305764842461 0.0004886775521453999 0.0002199582731447666)
(5.000182839161131 -2.951962665411885e-05 7.136592668093811e-05)
(5.0005120458295 0.0005998538907435689 7.341302106087277e-05)
(5.000321090521437 2.170073383264386e-05 8.834304943705862e-05)
(5.000432537627439 0.0004374978123967447 9.034101220424629e-05)
(5.000495083366667 0.0003862343458419672 4.092830422985525e-05)
(5.000139407898128 0.0003576076195691601 -4.717418750106251e-05)
(4.999308919572678 0.001389692377000081 0.002695830062455361)
(5.000692399486392 0.0003895802382767058 -0.002359925624706054)
(5.000600163844336 0.0007396948130854328 -0.0001017554884481739)
(5.000427907157897 0.0003510284750585276 4.965661651390395e-05)
(5.000213994728981 0.0003132088633420307 8.098615686539894e-05)
(5.00063352243355 0.0003684887266564093 -0.000142445731554224)
(5.002701695163974 -1.262692728960169e-05 -6.506938758014197e-05)
(5.000226273458274 5.640785434866032e-05 -6.181759362273652e-05)
(5.000897915114486 0.001183032605395949 -0.01453802331795153)
(5.00040933192001 0.0005288016197337737 0.0001094042822739675)
(5.000448211368766 0.0003301726462111901 0.0001040348662873562)
(4.999478235595267 0.0009596371176389728 0.000643224146995246)
(5.002291532529211 0.002670624519285239 0.001800498905303401)
(5.000503276148427 0.0003746562310478959 3.221162135386225e-05)
(4.999893810955198 0.0007754361137007931 -0.0003260862070712735)
(5.000276709516083 0.002482417013130503 0.0006206899254573369)
(5.009022968425089 0.01111667787940102 0.004400689546230627)
(4.994941198527165 0.0002349406238614364 0.0005029451548199012)
(5.002946118179538 0.0009068697806713796 0.0009404024951140205)
(4.99964881040531 0.001186454304777451 -2.521816673207666e-05)
(5.002863067412973 0.0002453543082127427 -0.0004055135925977796)
(5.000487958669438 0.000497270709987737 9.937354395958052e-06)
(5.000351888913417 3.219110429186478e-05 -0.0002195404546534871)
(5.000321498637866 -5.362471245691388e-05 -6.932253059856648e-05)
(5.000289141058706 0.0002746552008902008 -4.654604410004192e-05)
(5.000358070118955 0.0003091447301191491 -3.621578265769702e-05)
(5.000391693338523 0.000543538585803028 8.235072860400411e-06)
(5.002728850989162 0.0005208442897137782 -0.0002329914211769661)
(5.000558388482782 0.0006837534503529459 -5.362608030457171e-05)
(5.000817916681747 0.0002476986562452161 0.000362763484707209)
(5.000064256565812 0.0002370754462314153 5.51421219274285e-05)
(5.000330905856753 0.001606195394834239 0.0001058797870946816)
(5.000271038282857 0.0002118666319016962 -9.923346882027e-05)
(5.000239202002205 0.0003411130283995331 0.0001217660288899953)
(5.000350968462461 -5.090094419341529e-05 -1.263994152016167e-05)
(5.000556032222649 0.0002990531807999938 0.0002645062965592722)
(5.000558406057675 0.0003568656245532533 -9.895121953873503e-05)
(5.000004884437742 0.004223089189535355 5.736191202620458e-05)
(4.995736172742213 0.0005014987642635992 4.941917185475328e-05)
(4.999964489562365 0.0005201138741937502 -3.783024685886257e-05)