/*--------------------------------*- C++ -*----------------------------------*\
| =========                 |                                                 |
| \\      /  F ield         | OpenFOAM: The Open Source CFD Toolbox           |
|  \\    /   O peration     | Version:  v1906                                 |
|   \\  /    A nd           | Web:      www.OpenFOAM.com                      |
|    \\/     M anipulation  |                                                 |
\*---------------------------------------------------------------------------*/
FoamFile
{
    version     2.0;
    format      ascii;
    class       surfaceScalarField;
    location    "1.3";
    object      phi;
}
// * * * * * * * * * * * * * * * * * * * * * * * * * * * * * * * * * * * * * //

dimensions      [0 3 -1 0 0 0 0];
oriented        oriented;


internalField   nonuniform List<scalar> 
37423
(
-0.1090903652998432
0.4228589502363011
-0.4556174845768703
0.1418488996295923
10.32140568968021
5.091333598593446
-15.41273928841258
1.596464167701831
2.841854395350687
-1.507975194944833
-2.930343368055211
0.5859841439100605
-1.097424260808594
0.5114401170684906
0.1152602760025039
-0.1660674277099887
0.02952955185181452
0.02127759988118075
0.04940595869664983
0.1427646647006888
0.3030576453406029
-0.4952282686364101
9.160222446401935
-4.655819547826943
-10.846388605789
6.341985707228893
-0.04567550708802821
0.05238472276205668
-0.006812485249607253
0.000103269624085469
-0.1292084245842036
-0.01868376788054573
0.3340357900341712
-0.1861435975271822
8.627989863852898
0.650780577287505
-0.4829761545538566
-1.407419877805832
0.4296610889475369
1.460734943457347
0.2958471325255554
-0.5456053221277856
0.7695706529237912
-0.5198124631319302
-1.06860435951674
1.389559130518873
-0.3209547709425272
-0.459207486709876
0.4920041522182218
0.6066600309292458
-0.6394566962964586
-16.30060975913056
8.929062420793574
-0.06052970710473444
0.004349937951919479
-0.1193568891825896
0.1755366583713444
-0.4660987570066437
0.8164816007465586
-0.0545357111320123
0.1814594303833088
0.02476671690169611
-0.1805679478176537
-0.02565819940364366
0.1059643701649659
0.03115515754101973
-0.01075397885544628
-0.1263655488061211
-0.02164962054639744
0.06120690939771235
0.03032328307661383
-0.06988057188841444
-0.2196681131899261
0.3782965785475295
-0.4248188387449526
0.266190373415947
0.4063102709228859
0.6849900147859647
-0.2724752369196842
-0.8188250486501216
-0.1124027862152102
0.1245737543908524
-0.1071923299005597
0.09502136176557742
14.71162134397606
-17.579866597284
-6.329554635043599
9.197799888003216
0.5928771053885492
-0.07185324683438687
0.09421705221903875
-0.6152409107536977
-20.33374637115323
9.257079776885972
11.07666659424678
-0.1781115781050912
0.1405249169241821
-0.4285120957511345
0.0745101825192358
-0.08851600486894123
-0.1596491968183032
0.173655019203414
0.1696344708187233
0.01209953645422303
-0.1812871793300239
-0.0004468278806393391
-4.248775175955457
-22.4427040841393
2.731755152372141
23.95972410720902
0.2114675957400893
0.4029192328584613
-0.1592923549056816
-0.4550944736295118
-0.08974550530900466
0.7075233720024631
-0.01762228705221242
0.1092439627163899
-0.1020823034333157
0.01046062781144154
0.06325824716745614
-0.6400520357535856
0.3470071220724548
0.2297866666134796
-0.02695314981699488
0.05701601234511918
0.09070420921843154
-0.1207670716660443
-0.0350918754250524
0.009372066564336857
0.1196177434574223
-0.09389793456622292
0.2386873641688556
21.45231461907481
-19.32850838381131
-2.362493599457835
0.7991064624942507
-9.703818194364288
9.258378527324618
-0.353666795725778
-0.02283601759996326
-0.04403315881747008
-0.1051008039788981
0.1719699804370112
1.876270998973692
-5.79026133025569
2.347172097623013
1.566818233887811
-0.1319251417920952
0.00719081173997521
0.1485238378171028
-0.02378950773657791
0.5534585164136062
-0.7006727819216625
0.1913817799230106
-0.04416751437824022
-21.02712438447418
3.679048795812257
7.158085426977263
10.18999016150726
-0.2192512806271132
-0.9220892096727787
0.9955867873154933
0.1457537031777327
0.3421783959547113
0.01281243207392126
-0.4907259657689907
0.1357351377386202
0.04231931622003473
0.6623057605426688
-0.07800743041410876
-0.6266176462339925
-3.594674503962251
-21.70955109102093
22.59112889351361
2.713096701431813
-0.9439971717671463
-0.6456994905634296
0.1732395292955921
1.416457133042874
0.5182096365783536
0.2476894443403261
-0.5248824668220616
-0.2410166140569582
0.4287498911148281
-0.1780445693021729
0.3706230146610645
-0.621328336411389
-1.249748462071191
-9.544988242295785
10.79473670403813
-0.6671472006361643
-2.72284712414636
1.132951849121331
2.257042476335587
-0.2530333366282782
0.5920377224514194
0.02596365967308571
0.1740733072850671
0.04678602450525492
-0.2468229913969177
-0.1325761732162923
0.04558316160396485
0.1058473480444046
-0.01885433639387811
-0.5064949962530954
-0.08459102888463245
0.1056283435570603
0.485457681767286
-0.08900974067749802
0.6012875196531982
-0.8706944632033518
0.3584166842991847
0.2682643733775039
-0.07290495945624563
-0.02009011332280524
0.01007326228679596
0.08292181051441956
-3.221103276404417
-0.5710191471613721
-3.048585482872308
7.202188163392986
0.03393959853989327
0.0292573495821177
-0.02430560403541234
-0.0388913440587229
0.0003538920604187302
-0.07680840239679732
-0.0001913232491034417
0.07664583361057631
0.3949142942549622
-0.3787349085807157
-0.1341132662575494
0.117933880672225
-0.3210075430547105
-0.150875819528597
1.156873377492144
0.01383288962272955
-0.09295078106276573
0.02497543641337178
0.05414245507932357
0.1104560271849745
-0.2976893282428264
-0.1554654847586218
0.3426987858569622
0.3403015549397954
-0.7908213610812524
0.2223022332409519
0.3640296545054442
-1.139867202654495
0.5535353149940807
-8.540937328237279
3.956406703010964
-4.801849164194826
0.0769525919708464
-0.04778564894328301
0.01725813857433827
-0.04642508154729656
-2.383967438337805
1.017350366759787
1.11428483946884
0.2523322322161105
-0.5352032495742217
0.5311657422593009
0.09781891370498118
-0.09378140628233592
0.02211498274427637
-0.2925642677811717
-0.3584506591811849
0.628899944232779
0.1165432806190486
0.07816203108575
-0.1543292818970258
-0.04037602975907501
1.688318438131449
2.918519435159621
-0.9153998782310763
-3.691437994686335
0.02959767989838664
-0.412713181798885
0.7126842370004272
-0.3295687349120874
0.6369281769452633
-1.989618407400822
0.426246975747256
0.926443254838213
-0.01918567816008927
0.009383220462407194
0.009802457724304096
13.77816914761917
-1.012596775439197
4.737208901811043
-17.5027812741923
0.7401283218047823
0.06719803143147746
-0.001314950155002318
-0.8060114030208624
-0.1823753997033373
-0.5254707636818906
0.02926059760319627
0.6785855658462062
0.3268369438649895
-0.1592547391007575
0.1115809097553245
-0.2791631144453244
0.005435725822374712
0.07121209449396179
-0.06861919060891511
-0.008028629661378408
0.04147830524561601
0.04153426625872898
-0.08301257147912823
-0.07669461831259092
-0.5360250369850398
0.3596863186743866
0.06278286450281965
-0.04288624567890895
-0.108987360869574
0.08909074209026857
-0.05479322833138706
0.05124027285973282
0.003552955503642089
0.06260849202508163
0.4289915204911403
-0.05961738217283902
-0.4319826302824005
0.05320000943851846
-0.02494142713655606
0.08399040236238169
-0.1122489846307909
-0.1151028843287021
-0.2358853495891186
0.4614442611268833
0.2952101631708767
-0.00739381459418157
-0.03116427206491866
-0.463407287807452
0.5380258536780862
-0.04345429374506049
0.1642446480004274
-0.02367352469451244
-0.1714046562896115
0.03083353304549249
0.01121514891253885
0.05528152602783844
-0.01921969934412597
-0.04727697555841615
-0.09759617481999594
0.537177312549825
-2.133661396873046
1.694080259291011
-0.6379563332878133
0.7768782282642132
-0.1294433415653651
-0.1554307343621449
0.1968436708270959
0.4233508363706913
-1.182244041250223
0.5620495341398335
0.4675302856139637
0.01858281140368809
0.06557368668329636
-0.05905755773470817
-0.02509894031436753
0.04041309398836717
0.04981235923972872
-0.1846662482526412
0.09444079507198598
-0.6213940903437521
0.5901111891317925
0.2332306951755906
-0.2019477939212005
0.08782747590205024
-0.03856294696771033
-0.1056898094400785
0.05642528054574514
0.03139187243517317
-0.06864214004369211
0.4674505709507205
-0.4302003033138957
0.04976393715151698
-0.07670014766753978
0.1175045089649819
-0.09056829840775579
-0.1051536703978514
-0.1464147831536849
0.3805491432851832
-0.1289806897412311
-0.325193684418592
0.4747931364539039
-0.2547531224448786
-0.0382830725369166
-0.0253916528233211
0.1328112990595165
-0.06913657365988611
0.1222874652825919
-0.0465236567961949
0.08518658975535387
-0.1609503981896623
0.09108508395400751
0.002366651777955259
0.01029615889762523
-0.103747894599659
-0.06399795795512313
0.03937750795198172
0.132915235199207
-0.1082947851130127
0.4224938607273567
-0.5365248921084885
0.09631594854770387
0.01771508285402668
-0.4336158894805021
0.6579653272214598
-0.2255388971438251
0.001189459469675911
0.06899061827237109
-0.2277262047838098
-0.1942982114055079
0.3530337979622535
0.04894388579170187
-0.036059201165175
0.07174562094586555
-0.08463030553863972
0.620091159044907
-0.3634935574059312
0.2919015784767423
-0.5484991799794179
0.09107248710307594
-0.0810141971590219
-0.02016415286330465
0.01010586296433201
0.1181787788459302
0.3183090778744674
0.0310424289603901
0.4595373158382757
0.1898072053106337
0.6977122791634078
-0.1087853921026642
0.214272058846767
0.7910216983257141
-0.3075814779413913
-0.2286474107986799
0.1583159506093139
0.1665159654682097
-0.09618450523607161
-0.5263113101968411
1.307686221365421
-0.5594454935404088
-0.8991165472903743
-0.03121248189444003
0.08599032018377603
-0.01998649529744718
-0.03479134295652563
-0.1407323331832243
-0.5235491352207943
0.3673924763174926
0.2968889922952559
-3.183764236424837
-2.993156387475327
3.80298899633974
2.373931627358861
0.3294312256467191
-0.3083114967487673
-0.5902533076307868
0.569133578862178
1.818955344634152
-0.3965616197509169
0.4774030554030802
-1.899796780284126
0.3538144100603497
-0.5297607868152377
0.2392046239916921
-0.06256570796035206
0.3397199900993791
-0.537925160840699
0.2607708787415772
0.1390541526201805
-0.1421908824863475
0.07632114715859728
-0.07318441723586382
-0.1264349271032237
0.03847626903498703
0.3179094932573486
-0.22995083513997
-0.07387497042234838
0.01476309441668607
0.0650072801541548
-0.005895404109324993
-0.194408600000145
0.01240323767941335
-0.02304011441679797
0.2050454767915347
-0.07854124430187846
-0.5144884683506514
-0.009134437814802542
0.6021641505489517
-0.162087359665703
0.1065163611580204
0.05557099852676404
0.2250343565161151
0.02104310221990068
-0.1663903174534868
-0.07968714120686475
-0.0274487157561243
-0.09497268315062822
0.1426369347825161
-0.02021553583337866
0.2063569347899964
0.06903126717106342
-0.1071271713815686
-0.1682610305273673
0.3057248917050573
0.2226402998717899
-0.6963056265356917
0.1679404350399754
13.66707217493112
-9.152662693647207
-22.47873089943342
17.96432141796802
-0.5885728009904074
0.01736864302360048
0.6250626503764503
-0.05385849231000342
0.1140219405068069
0.03114372056693483
-0.01788124324351085
-0.1272844177614302
-0.07015156546501904
-0.532042635186605
0.6105309851597298
-0.008336784474800081
-6.895686240634658
-5.447689116052031
-17.47843817695011
29.82181353317887
-7.674989142807943
10.93530789512154
4.226262953093491
-7.486581705247216
0.0916514384956887
-0.08420587554315213
0.04774124294961979
-0.05518680586313444
-0.4696987665583185
0.2337117933359655
0.07816695069310566
0.5345116646859362
-0.09336305970874932
-0.5193155556035729
0.2349709940210614
-0.1191560195775042
-0.2622297575773306
-0.2816247102256508
0.5008263825471136
0.4259701705548521
-0.6451718427588323
0.01544861647657263
-0.1433136672644944
-0.4477671376485095
0.7539593121539863
-0.1628785071625625
-13.61894123221952
6.134260735676412
1.058919754989452
6.425760741357369
0.0755107866393329
-0.003706613451153723
0.173533990520828
-0.2453381636621422
0.07591765393067877
-0.06704264861958453
-0.008875005282136203
-0.1578720093125852
-7.2287783767887
7.386650385815015
0.3924309648427605
-0.3716523653331328
0.4815997467209813
-0.5023783461826851
-11.159448304544
10.61276206023195
10.62625658145519
-0.03846784761228597
0.5287177261674201
-0.0933987756611063
0.08952880370990846
17.96960681774339
-17.89374430818127
-0.07586250967237233
11.80914660970954
-22.90030735122959
11.09116074151599
0.8950637116385137
-0.1427657990891541
-1.560339036263454
-0.07805786068011215
0.1275222843945762
0.0119328692383627
-0.06139729292151742
-0.1149852206958668
0.1788442199122707
0.2284279350914631
-0.2922869343016752
0.4735981620925518
-0.4443034072825616
-0.2008474336072203
0.1715526788401625
-0.1327736942158955
0.5461583651442388
0.4403622157879091
0.0962372230991142
0.06468808080872604
0.4881353162341493
-0.6068686589963068
0.02495193655094057
-0.3075290777923257
0.1026245352433596
0.08574852298378105
-0.5546071596657268
0.9148472032543775
20.79486780888839
4.751129732426691
-26.46084474446349
-0.5819938996722244
-0.2128985512937114
0.4912848171863126
-0.4071591268453593
-0.132789016948452
0.04866332665476996
-0.03787973570919195
0.1884449604918159
0.01983715961372035
-0.1704023843715633
0.3331540035753995
-2.633090481764358
-9.53106540725225
8.943052612358393
-10.4384675299033
6.277700144328008
1.527676903636986
19.38647576649669
-9.12841490389636
-10.25806086263388
1.137120407808973
12.31297471958618
-12.7993145502679
-13.66982919773261
5.860929906513316
21.11219485905096
-13.30329556781346
12.53472459813233
-11.67907784843022
8.488525625543241
-9.344172375182804
1.161077944371086
-0.6090599528618152
-0.2601164128918496
-0.4816237718606551
0.5823278266269445
-0.1391719023579629
-27.57131053387939
10.25059596642581
17.31793449425048
-0.01920469268207563
-0.1343373441553668
0.1906950173741344
-0.03715298047423773
15.89003913947526
6.723379255377555
-38.24961823581678
15.6361998410156
-0.05943574005619861
-0.6090853030464377
0.04719270671197149
0.03949112557509234
-0.1421846735280277
0.03259395065249054
0.07009959735593242
-0.002583671653735473
-1.650844108326885
-1.981874816604313
3.941113609442508
-0.308394684298248
1.853038756998586
-1.184174804942118
-0.1258551751459917
-0.5430087767975936
1.375978901023727
0.1087290157126343
0.4809162965595483
-1.965624213140895
-1.145575769821254
0.1316058862382264
0.1773076586068581
0.8366622252082712
-0.09328321751608516
-4.709765581316383
-5.258227951449527
7.397669941581655
2.570323591298446
0.7395512657068587
0.1830763189161451
19.37809428752384
-20.80576550770846
-12.24215797740039
-0.1745848304874736
0.4595163119441258
-0.5143998221847021
-0.2886994243348604
0.2795501114253527
-0.3842858655289536
-9.903118804689816
21.03945420136255
-11.13633539677656
0.7636842422214826
-0.5830454989113233
-0.7069500533885257
3.886079664865332
-0.02666168792305623
-8.56918355818156
0.0657602010088503
-0.02533293732224215
0.04221139182770378
-0.04777289121821973
0.03089443673226755
-13.82628641710022
14.92812525422712
-0.1913341530240101
-0.01643050531552788
-0.04177309471307641
0.2495377531307363
-0.2537457909551384
0.03399606002529641
0.3620945556218018
-0.1423448246465651
-2.77717297304301
3.549815439550414
7.187109776680521
-8.757433412821122
-3.231525528137404
3.934786603224885
-10.15042307163858
3.438463495199555
-0.04343418180713019
0.04115258847647986
-0.07608026003730835
-25.28671380499743
-0.06114448527479549
0.1901023833270144
25.15775590673486
1.805767358019327
-7.874233596496683
1.819550021248264
4.24891621776747
1.882461753385235
-0.3979287487356699
-2.934851268235771
1.450318263756847
-8.727329788976398
3.889132645247922
36.30706761555773
-2.958951175370972
-8.481302453567494
8.171589700419931
-0.7823142551475333
0.04840768280266717
-0.05042848457690816
0.7843350569871552
-0.05381461252353231
-0.2579367622807692
-0.1553074182319995
0.4670587931490816
-0.3569927950759367
0.1723475301441647
0.04546403071739173
0.1391812343047504
0.02290578967056092
-0.01747006381844246
0.02972469730292042
-0.03143769876553799
0.1564164027134963
-0.1547034011977469
-6.530773587016737
6.578975488568818
-2.948569280759808
2.900367379450479
0.0001888488053624767
7.234436648927447e-05
-0.0002611931672628607
0.0001888488074318264
0.003598421249964288
-0.01695464247460308
-0.1205670051534958
0.08007673897266654
-0.0132840683992317
0.0653521984556189
-0.1321448689825268
-0.1703130487587893
-0.3320498235554024
0.4346291356133141
0.06773373676068835
0.3032621285352646
-0.3754484055082314
0.004247424936374576
0.06793885205703822
0.1583486964191978
-0.2519868590471901
-0.08061511082197549
0.1742532734988207
-19.58200692829856
-8.003257128720993
-0.04355005917686167
0.1301149393738302
-0.005433119331398143
-0.08113176081586777
13.03373078833315
3.778368100172398
3.280654608722527
0.02089349819478127
-0.360601434382195
0.04342899346984651
0.2962789427889312
15.27961609528606
-14.01104190359444
-9.686868294673046
8.418294102971759
37.53739464986504
-19.72184183603157
8.121447034216965
-25.93699984807596
5.297026064884675
14.77980287907668
-1.453973223174117
-18.62285572085067
19.60463550966034
2.847027743734497
10.94032284191267
-22.82323053519714
11.88290769334722
35.17063153804848
4.88719240122485
0.627729698959428
-40.68555363861786
-0.06925973187714823
0.1316613277871788
-0.2537040017112889
0.1913024058832194
0.1919395578096997
-0.1426185255428625
-0.6205791207600801
0.5712580884849575
-0.1283585551638037
0.2738114824458162
0.0760333835212872
-0.2214863107287682
-0.06604219415005057
-0.0003502447370514307
0.08726310715255549
-0.02087066825100971
-0.1372052512187327
2.015382310268009
-0.386900019283397
-1.491277039672107
0.2821942374053882
-0.5245494466378648
0.2180158342795118
0.0243393749694972
12.20285672407448
-5.700398991286409
-6.50245773289181
-0.2467650068576564
0.1108254031773891
-0.01900504224357549
0.1549446459610686
-0.3500430489320179
0.4961845066758427
-0.2068031742502836
0.06066171656884433
0.1215281044364446
-0.09180340711492579
-0.05643581874726558
0.008243401751165832
0.04819241701557319
0.6666982842288987
0.4992754009386343
-0.5532936983627413
-0.612679986575386
1.940461969525833
0.3759446874993113
-1.080182884744338
-1.236223772083872
-0.1371895784495279
0.1084797239137979
-0.1026357085442755
0.1313455631299735
-0.05030143899867922
-0.1340362807323704
0.08240667633794851
0.1019310434421265
-0.7870654021009943
-0.7526791345558473
1.698060518755553
-0.1583159820003653
0.3826535504924288
-3.939593106398369
3.327143322374081
0.229796233811704
-0.8472996510083471
3.421480680885217
-2.597984705291823
0.02380367553670502
-0.4722919740003871
0.2329268423606519
0.304807448744427
-0.06544231704010751
0.1852288917865897
-0.3238904805647382
0.5140717291030001
-0.3754101402568392
-0.05438829938221875
0.05831595084854022
-0.003927651433400536
0.1103716557335713
0.1543890591554105
-0.2647607148807173
-0.06331340902154291
-0.001258753286270435
0.07416912028881374
-0.009596957947290657
-0.05704317757314697
-0.09601469272267649
-0.1070875664393331
0.2601454368206347
-0.06704205984469501
0.09212116870074155
0.158330037601522
-0.1834091464068853
21.17118051419945
-13.60801887092839
-13.98152314235943
6.418361498928097
-0.01264876967864939
-0.04418519696852592
-0.00899008735109621
0.06582405403327184
-0.02579801139494957
0.03360826430626984
-0.007810252897229642
1.979820587720837
-2.584141736529979
13.97569048310046
-6.642111182521803
-7.333579300696063
0.04716376537537365
-0.09774229644962106
-0.004087582408033533
0.05466611351788597
-0.04175642141739713
-30.33077546590353
-0.04859311561272355
30.42112500279634
0.1087109489655215
-0.06597262183059519
0.2087461851893351
-0.2514845122793363
-0.04895278631101404
-0.02434355309076094
0.06749783935275597
0.005798500074895614
0.08111400079654177
0.5880333910781242
-0.2538499402824481
-0.415297451464386
-0.05768808203245265
-0.0007358448358174176
0.05842392690404663
0.01334563041127518
-0.006737363767200135
0.06734486220652322
-0.07395312881986824
-0.004939750622244969
0.02744999180608404
-0.01545050879486019
-0.007059732354197669
0.04407908380830642
-0.02484097963643125
-0.01923810414377965
-0.004181149303077072
0.06364162260208751
-0.05946047326605838
-0.1322859729955747
0.5738410382471436
-0.4107829160855592
-0.03077214909351917
-0.00773924184368912
0.08228474778512283
-0.08676602101608449
0.01222051512018319
0.08831368434295261
-0.4377649182450001
0.4076533090851169
-0.0582020750775739
1.221062441633194
0.5344073985299551
4.214561725605928
-5.970031565646095
-0.2843641067414109
0.1396183428481081
0.04374243809291194
0.1010033258486818
0.07971322779512055
0.0223958700131486
-0.1021090977641581
-0.04586013210506762
0.127550388251649
-0.5942382882872429
0.5125480322145152
16.43802154149876
-21.09172240781496
-0.0734638829732117
0.1428971847523542
0.001128421423069997
-0.07056172317109016
-0.5028898288346066
0.01130810228550792
0.4915817267115271
1.559168500719017
0.613971261616319
-2.274394123056374
0.1012543606966603
0.8015440408576837
-0.01086931626845599
-0.6601824102871643
-0.1304923142464205
-0.2398859050313824
0.3000850060965358
0.08718552132881405
-0.1473846223379621
-0.05699423945075321
0.3722449016625377
-0.3585646245504471
0.04331396242430507
0.1482160425405128
-0.2862077012810403
0.1461846112033373
-0.008192952429173747
9.753646644311939
10.02310800030157
0.2316896030948167
-0.5187281964554954
-0.1186119758526597
0.4056505692548706
-0.2251048364745425
-0.4371763543552566
0.5905717910743842
0.07170939976589348
0.01712628013992133
-0.1476584941101409
-0.01948386500209681
0.1500160790186611
-0.2788716944271481
0.006490843892356901
-0.004585914265328651
0.276966764851286
1.439405184791358
-0.5654084506325955
-1.680274413172873
0.8062776791454811
-0.0343195059350487
0.1275110238894157
-0.1027209032761461
0.009529385379850817
-0.01721998985859094
0.02332493122644365
-0.09999350211066552
0.09388856076714584
16.12260540602597
-23.66355187527341
-3.146089560907563
6.273882494873749
23.02373628144475
-1.382375894513378
-0.1836523447068101
2.17125284379535
-0.605224604491156
0.1640905235976003
-0.2638186450415634
-0.2456230276080396
0.3453511490868809
-0.08429667851901511
0.01526430072709312
0.0275535972081247
0.04147878062474904
-0.0980481861603026
0.008441082433369705
0.07999610980221572
0.009610993947950881
-0.1368743825345733
0.1767898437328649
-0.06275147875577428
0.4835648824777828
-0.1891816470741338
-0.392085814521813
0.09770257918328405
3.185780558577183
24.61407105670058
0.08940697919904406
-0.0400615122522059
-0.2470101787162846
0.197664711824331
0.01021437618524002
0.3910480944040555
0.07793548786873301
-0.4791979583918753
-0.496175800382496
0.06053934599496542
0.08663995356395515
0.3489965008925323
-0.5222753796696222
0.05377397220293139
0.2580967727355102
-0.610919824745039
-0.04719194379719763
0.701980148822804
-0.04386838006342283
-0.02394885852097103
-0.235380173974214
0.741630144137024
-0.4823011115127957
-1.604174838414697
0.09557579660159575
1.508599041822636
18.59490702457386
-7.378798110837319
1.81762187462626
0.1569481620662615
-0.2723937879631185
0.04810909842472626
0.06733652756026344
8.996368003583294
-32.49016044738095
32.21680716877569
0.03109305934201608
0.06403660111521285
-0.05471656644183887
-0.05259709246063661
0.1491490164644004
0.003818491264703994
-0.1003704152231827
0.06895286301136114
0.02407584521200294
0.04447561135837622
-0.1375043195505512
0.03611855236234948
0.263468703188146
-0.08082817588347703
-0.2187590796195678
0.4256618410345003
-0.2899277500780633
-0.5145556811448289
0.3788215902627903
0.07307186267321697
-0.01854556621582377
-0.08216187706232089
0.02763558063134616
0.5114800255733125
-0.9467727819141167
0.1876158923004349
0.2476768642037762
-0.09952379015816902
0.05630127694415766
-0.03024136973764744
-0.06891282065284511
0.06552488317772585
-0.1163308462395759
0.1197187837381618
24.14678127279586
-12.93643745797052
-20.69612255491706
9.4857787400506
0.2164250722394633
-0.1901149240495939
-0.0263101481570802
-0.3207514104782501
-0.03705529233250266
0.4597184930311503
-0.1019117901844037
-11.60908220946145
14.84495655373611
-2.116938259785802
-1.118936084267954
-0.02369670663722748
0.1173896445832568
0.01923351241276731
-0.1129264503302231
0.06265656362848612
-0.1644894799828713
0.09078523559692257
0.01104768080252308
-1.288521973290239
0.9434991311961158
0.4653465293214278
-0.120323687162214
-0.02114843071894595
-0.1923505577341142
0.1920591812067005
0.02143980728486214
-0.8443456014998818
-0.6282128851108244
0.8634985338061997
-0.98415067593137
0.2098214220280069
2.561143009228962
-1.786813755353519
7.223517855081237
-17.41466485195799
12.1598691328603
-1.968722136491845
-0.1070711317453472
-0.538869050048807
0.749568879210287
-0.1036286974187714
1.574771125237455
18.28807742126514
-23.45752305039145
-0.04363932893239956
0.08847652114674022
-0.03709965535965339
-0.007737536824888088
-0.5022698980778101
0.3026230340898506
0.2341176458043282
-0.03447078175206204
0.4943877661652041
-2.151354513743526
0.6826900729042336
0.1706437653486549
0.05864460552475768
-0.1541285383792589
-0.07515983244082464
0.4943297406130768
-0.04455079875497674
-0.4845330078124828
0.03475406594544647
-0.1103403014909755
-0.4136244722806265
0.3393617748735758
0.1846029989528082
-1.780502339633351
1.567451513780138
0.213050825895578
0.1155758562917594
-0.1214150783446313
0.02074798768712799
-0.01490876558210241
0.009125537942070192
0.09215395950244434
-0.08888791102024099
-0.01239158638962978
0.007072131667266223
0.02335089095355909
0.1154430145742914
-0.1458660371601837
-0.0120950881266293
-0.06930455425060526
-0.04584118704377744
0.01760502154950436
-0.286136630215772
0.01589116150000243
0.2526404472007917
-0.146089397975101
0.07689006597828227
0.1133508901347607
-0.04415155810678472
-0.1465153756555952
0.06832799156001049
0.1621755258253668
-0.08398814164911425
-0.5984732594814011
0.7179946057169535
-0.04824870397044379
-0.07127264202471656
-0.003783990907646348
-0.5154649480532493
0.1015307236667052
0.4177182153096631
0.01098552588589744
0.0001021294523471696
0.1495179117696195
-0.1606055670882285
-0.3214191137566567
-0.2085473891264688
0.4302943619011113
0.09967214106974655
0.001683990380032536
0.177908879722476
-0.1636527399696355
-0.01594013007649786
0.01021587838433134
-0.1412245481679271
-0.02146598115783834
0.1524746509945391
0.7476918782638925
3.844823379842956
-3.748376261699659
-0.8441389957628116
-3.923078994641822
-41.0299701013552
36.43797583893497
8.515073257037457
0.05757834805548291
-0.1516686101533448
0.08331033085473027
0.01077993127970559
22.64476560108248
0.2069416477538302
-23.51971895096125
0.6680117020582078
0.1495883427815449
-0.2017130829753948
0.04366220607291536
0.00846253417744711
8.176113865278323
-9.821482339694253
1.918779760985157
-2.873115504469859
1.154345557673571
1.718769946847969
-0.1097550528100847
-0.04900915774313497
0.02543984278743215
0.1333243678116311
-0.04965300473358754
0.0369994390728122
0.01265356569281365
0.1264920425075706
-0.06805074804011689
-0.2392788346810242
0.1808375402689815
-0.005347631150657455
0.001786723243071064
-0.06332534823880637
0.06688625616852556
-0.01769660622574288
0.09224449765273388
0.01095061820136624
-0.08549850958533822
-0.06821276909941289
0.005903309452998563
0.165977809750698
-0.1036683500574411
0.02048042359304423
-0.07693220728994328
0.03443011328726963
0.02202167044495693
-0.06473897717620998
0.002834853543763896
-0.005077840143616613
0.0669819638100333
-0.5347807732152055
0.1412169526872924
0.3935638205637692
0.1236845353750285
0.07223236057014712
-0.1671325813693914
-0.02878431453675848
12.58157011810493
0.7253292398385103
-12.76163460866488
-0.5452647494573424
0.1690660583084707
-0.1244236989361353
-2.236352324333685
2.191709965092278
0.3184699200120688
-0.3614002088349226
0.5136741984435839
-0.4707439095554807
0.6480397782049018
-0.4448620034105532
0.0623153620712573
-0.2654931368004112
0.2797431389973222
2.254075391723162
-3.729042683511878
1.19522415303081
13.07931247849994
-13.2295899107224
0.1502774321808252
-13.65968948928091
-10.36793868619543
10.20134175813808
-0.2228270390841204
-0.2086095730800521
0.3789669672911472
0.05246964495856466
0.4017345241434772
0.173590882049836
-0.5753254060472723
13.66925223052885
-19.36320526396988
-0.1629121619363949
-0.03166391889286896
-0.2018182321929754
0.39639431308326
3.221749735297783
-1.33961935751827
1.887298133490555
-3.769428511526093
0.3755682588696039
-0.9940527616759222
0.4871941007668074
0.131290402148511
-0.01675829147584938
-0.006990739836257765
-0.05519189719904646
0.07894092855351416
0.3724036168775124
-0.4944500225753763
-0.06592838801941238
0.1879747937487509
-0.267229331085474
-0.09613973633736725
0.2562522455568123
0.1071168219303215
1.305309113212467
-0.5265513023490899
0.6606473740333937
0.1406000767625667
0.07404645015079131
-0.1112392593597931
-0.1034072675110925
0.2272402013428834
0.3175566584464702
0.01456835104600298
-0.5593652107995027
-0.2475884860212981
0.220602414692419
-0.004673780714903313
0.03165985213283236
-9.620426215407056
-0.5269994649154686
-2.687047399182156
12.83447307955629
27.97180745004536
-0.7224506604779336
-3.623168926421936
-23.62618786310702
-0.002745170762234248
0.1419194363998747
-0.05960218182297747
-0.07957208374788857
8.310376211273907
-2.376316854751977
-1.360002889876113
0.7045267966612416
-0.4219733468466462
0.2539368212743901
-0.5364902709563915
-1.216845169856853
-0.2266692509139669
0.08177221936819104
-0.3497227917177277
0.4946198233503953
-0.09878109763264448
0.03515397158016453
0.06362712606034579
0.3668609390686259
0.03227718891726125
-0.3815331063971057
-32.00850863909219
6.984021722831643
-3.366915238418025
28.39140215464566
4.337653801386568
-0.6706604466333334
-1.800767170635099
-1.866226184153732
0.0132832051031424
0.02348068310385133
-0.03676388818155949
-0.1838132129861949
-0.007773489460248522
0.6126845819446134
23.52214323598017
0.008603455074700042
-0.07683541370654572
-23.45391127762161
0.1926451042846199