/*--------------------------------*- C++ -*----------------------------------*\
| =========                 |                                                 |
| \\      /  F ield         | OpenFOAM: The Open Source CFD Toolbox           |
|  \\    /   O peration     | Version:  v1906                                 |
|   \\  /    A nd           | Web:      www.OpenFOAM.com                      |
|    \\/     M anipulation  |                                                 |
\*---------------------------------------------------------------------------*/
FoamFile
{
    version     2.0;
    format      ascii;
    class       volVectorField;
    location    "1.3";
    object      vorticity;
}
// * * * * * * * * * * * * * * * * * * * * * * * * * * * * * * * * * * * * * //

dimensions      [0 0 -1 0 0 0 0];


internalField   nonuniform List<vector> 
19631
(
(-0.04460670548859501 0.00707523412466848 -0.01367648650987323)
(0.1981690283048295 -0.561068984720185 -8.148421488245839)
(-0.03104837543018178 -0.04140604688373693 0.01219306707803427)
(-0.7773215933213773 -1.899752605256501 -22.46044994318153)
(0.2572472074281481 0.06352007246692659 0.03592098976478122)
(0.1017480898237922 -0.1678371551094118 0.1234681690488184)
(-0.05250447631286503 0.01112906423875583 0.02630787183084236)
(0.008780439837894061 9.012710969685994 -5.596207135472659)
(-0.1593866337266099 -1.901097537354906 -6.480441732917749)
(0.008785482774907693 0.006130501420297457 0.0008521617633249226)
(0.5572413706751889 0.29893524010237 0.2132466641906849)
(-0.06346607593209971 -0.1338808105761349 -0.08129080301729098)
(-0.8060395175718371 1.206480897104036 -20.43824111037146)
(-0.000334457435644156 0.03514820690240294 0.074194864514304)
(-0.002015915628207551 0.001400802789110214 -0.01039487097585234)
(1.142626184757128 2.145680333012619 -1.521973941747946)
(-0.172711545538855 0.05861443574093748 0.03730289064542679)
(6.95129581459131 6.311481049849594 5.116226087659623)
(-5.24089582243513 4.761251880732337 -0.7406215612954065)
(-2.360503804089073 2.158941028444686 -0.9438244250049144)
(-0.07434594885052802 -0.009682112495837503 0.06380757975780724)
(-0.05028088865371978 0.01815518610528333 0.01336701534053954)
(0.9391048427939763 -0.4197144765659535 0.8303082711189732)
(0.01124013895326585 -0.001160911669415428 -0.01480436295814684)
(0.1309839047573536 -0.1711907789414834 0.1397913879436118)
(-0.03053449753761186 -0.01109078223062098 -5.49501900828135)
(-0.03605090179403625 0.01302352702537544 -0.2182019660707127)
(-0.8946085258584009 -5.720083292048046 -6.834738734521184)
(0.8061879032184016 0.9138479782183057 0.2457057324128271)
(0.003659582168145166 -0.0006271185373484659 -0.009367558560113742)
(0.1001702337949714 -0.0799503760346235 -0.01320279473491598)
(0.1661510896260535 -0.0130402952298358 -0.01744204836793795)
(6.662236462346741 -5.020266257951771 -0.7228205046983671)
(-0.1909639137617071 0.1250092303224685 -0.07144110213970131)
(1.602263658780947 -0.7030632599004126 -2.173867640185772)
(3.475524536944549 1.043868961211771 4.191680075856331)
(-0.003124514129458193 0.01502088668129267 -0.0871319840350068)
(-0.2490882643916891 0.6190937676840905 1.266555475180163)
(-1.27527508550364 0.3826170874914093 -0.3156666890340896)
(-0.5252066130141041 0.3464119956182449 0.4223629794466551)
(5.413792711155168 -0.04498734958401118 -1.428909122119491)
(-0.05547143799426266 -0.01717497603675838 0.04249420289401107)
(0.02075157258618867 0.00800241033471763 -0.002678347124817633)
(0.01599055390647602 -0.118633758448548 0.1049722210141262)
(1.271807032825411 -1.41689194579744 -0.01744776304551365)
(1.736415466528009 0.1303373873555647 -1.447359376069867)
(0.02902982666532669 -0.01484825792281274 -0.01576032095681947)
(-0.1816801203358349 -0.05581223788514603 0.0723423214544973)
(0.0218061750500193 -0.02632304557052071 -0.006188390965084917)
(0.08533761867200582 0.02118856556804007 -0.03492939026708658)
(-0.1575130279944787 0.1927793245460166 -7.19266979726352)
(0.7182461268736409 1.000507223220913 -1.350719350995753)
(0.05041809245485878 -0.01451126852746414 -0.01413738717794601)
(3.129426755372199 4.530584624612785 -4.874200535194467)
(0.1771874413796333 0.5550274570051364 -0.1111088220011408)
(-0.3848023054255306 -1.113470623085997 -0.4993274096072787)
(0.04163683135453405 -0.08116502162996955 0.0759184340400139)
(0.3986477320378884 0.1498878747117822 0.07446524768591638)
(3.108806589945887 -3.457272517743741 -5.086412843691769)
(0.01162386512629213 -0.006330879039788926 -0.006746585887596686)
(-0.02207346539499622 -0.008856809132965177 0.01755885303831083)
(1.252983870304633 -7.694565072631073 -1.591495428087106)
(-0.4507910191705893 -11.8045448954858 8.007054030380218)
(-0.1271286382652672 0.1082316844670769 0.05494480668164058)
(-0.02998279261740396 -0.01783392707165395 0.0859453252308377)
(10.38049316798658 -11.50195583061034 3.821144645827452)
(-0.09969127540460351 -0.07089419221360613 0.01664673104633231)
(0.1585278040058783 -0.06361544861184933 -0.06677714172129107)
(0.04169092101002758 -0.1740507663867878 0.3992928337662321)
(-0.02241678942114455 -0.006950832554127524 -0.0007455638987619861)
(0.001878609838812572 0.01163005732370439 -0.00195718904050044)
(-6.683548633422081 -13.48340025014901 -13.92727370418392)
(-0.02113091841709613 -0.02364964180221336 -0.001543609785798473)
(-0.01208884237881044 -0.01366398765519499 0.02487151351726753)
(0.1033077161126065 -0.1145012780037488 0.07536562125060313)
(0.9691007366478666 1.1590752529974 -0.1504171613378782)
(0.1000500561738039 -0.07174704971224401 -0.2082719101348613)
(-0.8696043752905165 0.2627283477348265 -0.2200662790443688)
(-0.432315835770424 0.4579473222236681 -0.4870367024031663)
(3.810986966986788 -11.77576225696663 -57.8982716308488)
(0.1304812897280494 -7.352226774620771e-05 -0.05632058106563713)
(0.3743110924905533 0.05011508999668408 0.206754112162208)
(-0.2265308661925488 0.0533816733404367 -0.1743463121737108)
(0.03734091920539274 -0.5410648268047799 -1.566045683280854)
(2.455709251097291 10.43656775787013 4.183124829456708)
(-2.950117887189728 -49.81448909186314 1.374897865275242)
(0.008886186190753403 -0.0227556276974271 -0.06973470973991833)
(-1.069858582199158 0.2214778726704945 -1.376408643083595)
(2.05725443834569 10.71943324154686 20.94283067099913)
(-0.3938769535677172 -0.06495087957475322 -0.02189613038910746)
(-1.240770471263565 -3.56347915193861 1.990784508128453)
(-0.1670617589554425 -0.04336630320268511 -0.003303148825901173)
(-0.005666931433014746 -0.0273744233886906 -0.1098949448034714)
(0.08080773511165622 0.005781086800118317 -0.01382849325539448)
(-0.1229589968175536 1.411384810563055 -0.9557045659003802)
(-6.176259697020865 18.16312313395592 -0.6155259655276368)
(0.7847843920260187 -0.3945146648726806 1.066879783985621)
(-1.227551062167628 -2.059098166896104 -23.29113411022215)
(-0.01627304166011204 -0.01829114966466344 0.007653850511090965)
(0.0243218570278068 0.07605491971610209 0.009946491893122671)
(0.1543949368353407 0.1064958832089125 -0.02091321090666445)
(-5.846780471420154 13.24847386586536 -0.5369523723791513)
(-0.2416376688873787 7.095582895092914 -2.95196622259059)
(0.06866519185387045 0.0113826808849912 -0.0002515429875159228)
(1.640242997240581 -9.732472999610403 -1.8011459475504)
(3.151945191922745 3.823969072270528 -4.259934168978273)
(-0.4851269026199643 12.66249704714109 -4.020761302894133)
(-0.2210972563439469 -0.1024341218748672 0.06262819974332788)
(0.05636642081309452 -0.04852512353169632 0.06340516709710671)
(-0.1442511532657618 -8.490178742844439 -4.335136032792207)
(0.1257533613908873 -0.8847166349168365 0.0438432599092746)
(-2.279366742932489 -5.694542313990692 4.11404326543184)
(-0.7872669993228116 -0.382893602520548 -1.14809199606274)
(0.006272320226510759 1.425382565599459 0.3728114546246115)
(0.06680362068148055 0.01296458882647821 -0.003167787979499096)
(-0.1118251019973741 1.978144101489164 -2.261021494227713)
(-0.570108552772324 7.616871578351855 4.653677800044521)
(0.04291755191014416 -0.1057751949615405 -0.07069550061358869)
(0.6674792816999346 1.414649208092385 0.1538010800670039)
(-0.1278253445239078 -0.08760064419660096 0.03554429381267616)
(-0.002677938098564918 0.04604698610132633 -0.0315490593508026)
(-0.0007904419264037656 -0.03694618447288647 -0.07797716486263691)
(-0.01102492112907225 0.04280639332788076 0.007345052401604785)
(-2.311485111257339 -3.218836731326179 -7.108487871045132)
(0.1717257907642399 0.07465184522593205 -0.01073653363357978)
(-0.04585820334026008 -0.02723682092614655 -0.006264886855154486)
(-1.651741700583833 1.362635994675345 1.564013410149123)
(-0.02662125826473694 -0.09054649748981239 0.02246689402590973)
(0.01408454572176941 0.008080617032459979 -0.007819983465939971)
(0.3982370621579102 0.1414670037315057 -2.4991537505894)
(0.05130096577001399 0.01148974876409234 0.009775398594494675)
(0.3020139955553457 -0.1140867298453461 -0.01277715077655029)
(0.7054068040025383 0.3120927726794647 0.1570389236346313)
(3.627197710012481 7.908637354247833 -2.403796740048347)
(-0.1133781711266483 -0.3183736435006977 -0.3612497111698577)
(-6.588379412776194 3.795044177677269 -10.89320814822427)
(0.3793357142944764 4.211032526597755 3.016890772293917)
(0.5202693612799457 0.4975631045422446 -0.01086184636763281)
(-4.637587795694597 8.976523388484056 -35.00945807078197)
(-0.2337186181643265 -0.2603000978917363 -0.0795737499661396)
(-0.04975706895303622 4.514793240019992 -1.287245646882474)
(-2.774038837429388 4.600294539372325 -5.456967124937264)
(0.9371184164352465 -0.1777972203442653 -2.698954908341308)
(-0.005172776940156193 -0.0004098254714889581 0.01466435116137813)
(0.01693029080409819 -0.1001514773538533 -0.04920029085345849)
(-3.587137803442424 -0.07800538997711026 -9.631038896300588)
(-0.02675843930235407 0.02464700731190321 0.009656594793010093)
(3.098098922586345e-05 0.01135287925276509 -0.01403641981127336)
(0.01021675042565912 -0.01297488406852037 -0.00556087728101717)
(-0.4943412221327279 9.022257134212055 -6.454354049237603)
(-0.1902523505933412 -0.1169286604115182 0.06218599284480579)
(-0.07349120720167869 -0.06990880799042487 -0.02228225727955549)
(-0.0359494142132678 -0.004660296094578044 0.01898229515794479)
(0.0154645423257867 0.02910443566588128 0.008728166504646782)
(-0.07242817118463717 -0.00170429958777845 -0.001500917442095122)
(-0.2529726139790752 -0.03777379787449126 -0.001738790649591211)
(0.007946396110264875 -0.004236096802395534 0.003018118954253617)
(0.2563794739989419 0.3253231011545299 -0.6473266245369407)
(-1.58819607449874 37.2089757296936 7.618497635804308)
(0.1460367696017074 0.2861274978179251 -8.653675289561221)
(-0.03899217323110747 0.02268298873779608 0.0257946559724295)
(-0.03235980842191492 0.001247812088249951 0.01724564042514765)
(-0.000709738768738942 -0.07852505649646242 -0.1468444413825414)
(-0.1492638557442155 -0.009955191396003118 -0.05475240026710949)
(-0.02758146986319548 0.0009989518663276117 -5.489301651137523)
(0.004268856193200148 -0.01327853366023299 -4.936208824286419)
(-0.03742985856994581 0.05208196278698889 -0.003798441324036856)
(-0.0330433240660197 -0.01045394578140925 -0.02918037797583356)
(-0.1065877808150644 -8.771587051970894 3.996582156702876)
(-0.03752325264149541 -0.01589437070411854 -0.04092024666412643)
(0.07414306871957477 -0.04055494238440963 -0.1905684650614739)
(0.05924520438850431 -0.02059175815954617 -0.01382244506065455)
(0.4503401511452652 -0.08006859260992776 -0.1499726380822282)
(0.01666855081773687 0.003706124356801808 0.02332758807477165)
(-0.0394234410305799 0.01537643843345075 0.01835054343735816)
(0.101920923290197 -0.04682098758415941 0.1199600840915085)
(0.003241805178742127 -0.01816213156296686 -0.003630148152722642)
(-0.05467006463356766 -0.08171196267849218 0.1958613187693317)
(0.06278324231992777 0.01398636307017099 0.05382112315247911)
(1.421084851227865 3.462605866618024 -2.832222270895469)
(-0.305018219363866 -0.0840440562684682 0.2072541118309453)
(-0.00775870163833646 -0.002713947902363109 0.01036111722540437)
(0.004298602555852123 0.001178980375773723 0.0301535290335025)
(0.01748376504842448 0.02682739816500425 -5.462196741200573)
(0.03574739029771935 -0.02474997026555839 0.08786617641596089)
(-0.005426628834906843 0.007279590524956538 -0.04717704594804684)
(0.03115597723169724 -0.1555535387292337 -0.1525779623117088)
(0.06544715330368978 -0.1378879857203375 -0.08745649996708162)
(0.01691309557818758 -0.02933556671985667 -0.002355722886548717)
(0.02958275642494382 -0.05268731642275754 -0.06103328937310844)
(-0.1319067244239294 -0.002557718772628304 -0.06446541860960421)
(-0.003253836793004956 0.01509053096295911 0.06243336480869438)
(-0.1547878531503424 -0.1832534352505416 0.2246178007993265)
(-0.01935504951922582 0.001325243201767828 -0.01471058102850381)
(-0.1215650813342431 -0.06263767752399624 0.1228111712823894)
(-2.70933260902502 -0.06899445650555625 -1.461115783912225)
(-0.08418339124429305 -0.1725891305247352 0.09676630109705059)
(0.01888042163769843 -0.009153839243121879 -0.007561737471886385)
(0.04231835306003541 -0.02859076225433887 0.004168061997708141)
(-0.02607113738494878 0.003118667414862712 0.005022362957071487)
(0.06920726143752662 0.1348513437390951 0.02217852903890424)
(0.02101954960406955 -0.006042595733310709 -0.01087703407068674)
(-0.02202447121081124 -0.02280909736888668 0.02939758960372748)
(0.03970825637065418 0.02325374434086581 -0.01869451992206086)
(-0.007832824732078723 -0.01294557502605849 -0.02788638396514923)
(0.132357023795277 -0.08355879271120999 -0.1745373450808878)
(-0.02856960066845253 -0.007449031083517979 -0.0603423118237545)
(0.06360112592615193 0.08488454643475787 -0.1516621630112154)
(-0.03503651644117246 0.08743084348057729 -4.859254998248097)
(0.06058030824773326 0.1092886945887402 0.1071293671801485)
(-0.02717349079000674 -0.01267153344644979 0.06836456977115288)
(-0.4162835853518566 -0.09165917039813065 0.1581594999151827)
(-2.493998634365317 -3.107532970797339 -12.63395733606465)
(-0.01917940930827291 -0.01003712645941023 -0.02169750785685345)
(-0.2449122133214541 0.01370272401503455 -0.01801371196600529)
(-1.556629440219656 0.8501321622173491 1.424078428752181)
(0.00361968812826001 0.006803793007527648 0.001693213047459198)
(0.0416413163234676 0.0054172113586975 0.007525993188116784)
(0.01541934185236336 -0.01216035934519256 0.005855003128440584)
(-0.2891880423939557 6.589712724503214 -2.822282784516603)
(0.04008586444373279 -0.07422609657649037 -0.002080418278632621)
(-0.05940422234966224 0.05003280264611455 0.07688376443815405)
(0.01418126873016034 0.003596788573555609 0.03150320837432719)
(-0.001057499662533628 0.00198105608485609 -0.001435215307522415)
(-0.0007256129313828058 -0.005770847105396038 -0.008066011107001819)
(0.1211372132812087 -0.00864039057377676 -0.04918461640536332)
(0.2820433928239714 0.08168001829491113 -0.0293356195111355)
(-0.06592212473555163 -0.004615311281167017 0.03206251205728122)
(2.802763534572413 7.020925962513843 9.529447812493663)
(0.3037908706062329 -7.44429727831572 6.040256028071993)
(-0.03813569011192791 -0.01980777695218661 0.01460170329970072)
(0.3856844798583753 -1.355610804645813 5.092754671694347)
(-0.9667831653696337 0.481799033309274 1.279630501769872)
(-0.1437301552729865 9.439172830898027 -6.0117070125163)
(-1.023130431194563 -0.1335245603131723 -3.756147501695894)
(0.6290571679624558 -1.091060876248309 -2.231383415003433)
(2.908828762313059 4.573719089297655 -2.076276016055418)
(1.535770826931705 -1.063168761605719 -2.148327491566224)
(-0.4322713172763196 0.3405985450625616 -0.3456266129756991)
(-2.756233434065238 -5.54436983841838 -0.210454789734469)
(0.04314310623643765 0.01010048372886358 0.02892184518274349)
(0.1885646256707236 -0.1125346697398267 -0.1254917351636226)
(-0.03531379327266514 -0.02414731098380456 -0.0509198289742011)
(0.06832518476182334 -0.01555159848241472 0.03047087669906175)
(0.0208318556819112 0.002155864974008902 0.02071627493100418)
(-0.3090038031843768 -0.4208175751708524 -4.951783617719)
(0.001785075800637621 -0.03738795129928661 -4.839731563086175)
(0.02694370181171011 -0.007778553699984977 -0.001843704721119672)
(0.04321369393728068 0.4387449977506761 -0.667289080919812)
(-0.0168163588400718 -0.005405006052937716 -0.01654803291382377)
(0.8515288545617556 -3.587480355256955 0.5814952915872365)
(5.941757286689732 7.798284631240233 2.402954005757258)
(0.06207818182913799 -0.05318053954742195 0.03978649862600404)
(0.3988975535103975 0.2168024868649772 -0.1165520625546947)
(-0.007198748125409537 -0.02389105193020677 -7.88878396244548)
(-1.705499528161359 0.8649483629416199 -3.359984689713361)
(0.4095741772807178 -1.255841182470502 -1.243686105689884)
(0.5198014453874559 -35.81444453536553 -1.618272092329001)
(3.647673903447695 -30.87466884683217 -3.172452956380531)
(3.655034922274071 0.8344993393234643 0.7565477299975331)
(-0.01588947808914987 -0.02161336125862709 0.02375795089848398)
(0.1782090387657428 -0.06289881691932753 0.1310749810658066)
(-1.005610489236895 0.9206634980185437 -1.712845875646372)
(0.1845399329048578 0.2667462877277624 -0.2385806841142954)
(0.08425750499736759 -0.007249023423153419 -0.1030493907239302)
(0.06590758245045933 -0.08138625614399717 0.1037311655912385)
(-0.1634488278553606 -0.1135848378581162 0.04023756125642165)
(0.2283826508559271 0.24119816397561 -0.1655256036612957)
(-3.053628850156831 -23.26324129344615 -1.3685808515239)
(0.06434753345494859 -2.197094407664422 -35.32350206114891)
(5.269070729302106 -8.109261383180529 -3.287964867335877)
(0.2547027973862179 0.3305719010089638 0.1889782398326265)
(-0.671560777928229 -3.907383478068455 -2.50203274876037)
(0.001274321097159223 -0.01165690702964083 -0.003230398733620702)
(5.306586934060211 5.957802528292577 0.03632935893010725)
(-3.6581429787015 -37.11783397716574 -0.3898761315547363)
(-0.1034224128036675 0.02348401613395687 0.004597229835575783)
(-0.03860365333047221 0.08200640978736971 -7.396489640414605)
(4.286275952600885 4.06017904335024 -1.929963538387256)
(-0.008537682492488739 0.002195137947442754 -0.008353020692172131)
(0.6102966956401334 -3.04499303284951 0.8646163841116644)
(-0.6023448028650717 -0.317317647228416 0.4353551820419536)
(0.1716879997317999 -0.06505768943064888 -0.5308406521792266)
(-7.705050047976592 -0.8044986010468058 -36.6546782632681)
(-2.950868683306817 -6.629015371250279 -2.341053640330503)
(-3.504833299143237 -15.88657857448547 -1.444198177276523)
(0.8147394780905672 -11.09807306469664 -43.13051440995348)
(11.42112104780736 41.02571215568992 -2.67666387199054)
(0.1751999936135648 0.09392614395720614 -0.1038167639775438)
(1.08073366620138 6.739915725521569 1.090386798004532)
(0.1731198198707622 0.1932029755710712 -0.01401465955309381)
(-0.0202987305375892 -0.00808217631533851 -0.01612509840255886)
(0.0271298777013117 0.0540593967161393 -0.004362246623169093)
(0.7590076848003289 0.9074952186470204 -45.42675857270423)
(0.1453659975220936 0.09968682033590942 0.004504169392853474)
(0.00119380038977759 0.001413587763756874 4.095627090705631e-05)
(-1.462225212037815 -0.2252801446455246 0.4436608340019251)
(-1.926911196094446 -0.3087615463975089 -28.38102087884978)
(-0.0756595159165396 -0.1020719599317229 -0.05544172176600403)
(0.3617311392060315 0.6005986630549547 -0.8398691885115077)
(1.415081489893525 -0.3342613832138838 -0.833853482768766)
(-0.2163758354843366 -2.053282849770549 -4.20354800632558)
(-0.02855178586973295 -0.7581797271467443 -0.3356583481785725)
(0.02660572689985615 -0.1363111539704183 -5.535631018409787)
(-4.593872842642246 1.926563805305865 -0.1686527633792441)
(-0.005564737265178248 0.01899324323136173 -0.02240216637717098)
(0.2007119849291608 -2.43002452074055 -1.096672776917883)
(2.305933065120794 -2.322119220706768 -0.1780790845046215)
(-0.00700262500522045 -0.01058447129388611 -0.01502945695937958)
(-9.580716627011117 1.222493147101132 -1.605318255051874)
(-0.3843573492709788 -0.6497347863150513 -0.295633149804275)
(0.0002689872267688403 -0.002823319175117025 -0.00186327668677422)
(0.01803374816961775 0.007433658623384964 -0.006967032685134374)
(-0.008737772016239972 -0.04433556053733741 -0.1124384733252705)
(0.1971447635601616 -0.1991129198408803 -0.09305694147159448)
(2.863446186577759 -5.785787969707331 -8.844583766752237)
(-0.976260871860988 -14.1941430123409 -1.221316010974545)
(0.3935685932303803 1.500705607121317 -0.171345416833445)
(-1.196707284443642 0.9687615454478338 -1.844347519402136)
(0.02969985480854685 0.003629479317331487 0.007895593639463195)
(-0.1565365612977577 0.1841304210964919 -0.1856775907835581)
(4.248962439159861 0.9367197657282081 1.452249492399954)
(0.8635456231680908 -1.099669645271929 -0.1611659881227391)
(0.1910009227301932 0.06013100119298892 0.02342289324472777)
(0.03515569914567913 -0.04323319556534579 -0.04821437814205943)
(0.09885656994308475 0.2741765401085248 -0.04700034754518079)
(-0.05960978512021209 -0.8746312823785324 -18.36073664275309)
(-0.03563093992618551 0.00379065138929641 0.02197791945969033)
(-0.1515393944764225 -0.05032548741613441 0.04934961696617571)
(-0.01160462419622419 -0.006129873161448262 -0.003776442428982249)
(-5.089887277762166 4.767514897713702 -4.643494349449643)
(2.565966462342208 -9.021023369851671 2.404565803725082)
(-0.7260087569044412 -0.1640333016481862 -0.6375362215217572)
(-1.00996027289811 0.08575200664037165 -0.2498573545839978)
(0.19364044609247 0.155423005941533 0.02769968539207499)
(-3.039566652378126 -2.941760851174333 -3.828469731106584)
(-2.850779366881779 -2.128690094853612 2.024279572864342)
(0.8998587779213216 -0.3806742782746019 -1.604594034744488)
(-0.03507031116899995 -0.4026728085608123 -1.079610853046904)
(-0.0120515638856375 -0.02782298343632277 -0.08830699538758474)
(-0.2366837184357393 -1.601346911047811 -45.66043233748805)
(0.8802878182551606 -0.1353112718917552 -0.03872785386275966)
(0.02916766260733466 -0.004992779507979057 -0.00623075328883824)
(0.6606725328817287 -4.664293496571694 -0.8399779225761832)
(-4.961892763136629 -6.968103165253197 -3.957734407395026)
(-0.2056557385451141 -0.2126413961281998 0.135278716396015)
(-0.5896508312116659 4.585911868285737 2.775797621906743)
(0.03535332438012549 0.04146990584521072 -0.008137914132651676)
(0.1258071514438548 -0.05470214704542646 0.04316536058454282)
(0.02322623371203819 0.1042045627141705 0.1281535178222983)
(-0.1146870260462012 -0.001860416762777681 0.09985769128388214)
(-0.002439655298779528 0.001801590097056525 -0.0003237093806072972)
(8.78006988419172 5.223698460578086 -3.309463574625426)
(0.353008604378646 -0.6022309717306623 -0.3483719250340009)
(-0.1279727732387593 -0.100837354438645 0.04095288453867116)
(-1.988367579526406 3.027451986086124 2.601718268861701)
(0.08058727011299339 0.009667750107380009 0.03330568770749651)
(-0.2489483409596821 -0.1461921491987863 0.3845077246058559)
(0.1939587636859671 -0.678719662966649 -18.28888611825936)
(-1.075307844353754 1.172914887596965 -0.1293880207828121)
(-0.03982899988537858 11.14604211461788 1.192056082376159)
(-1.70778600965369 -2.70330069338776 0.2478464444064453)
(-2.226745461719798 12.21327685646106 1.054509168335486)
(1.109294967564345 1.115344822143753 -2.664096066359117)
(-0.2488902646205925 -0.4458294647801275 -0.1107218770779495)
(2.488499217732365 -3.88069842798724 -7.722288311733998)
(0.02993009746537417 0.02533622179297488 -0.02735233749622401)
(-0.06158081643557346 0.03346594733330244 -0.03306173790833754)
(-1.004351444370824 -6.557980347496941 0.9136584085386527)
(-0.02273024807356648 -0.2296847045633988 -0.03964024832537523)
(0.2794458841173129 -0.2897097723919649 -0.8305685530659052)
(-1.857200737871021 0.755847868192971 0.4053686963350622)
(0.1625758871881675 1.097865359631589 -0.6175084998304136)
(-0.04565195999282538 -0.02788267484444822 -0.03497194670952782)
(3.598232110306182 -3.754596759056433 -1.02376514644971)
(-0.2234065274204999 -0.006945962587295185 -0.04079313455259831)
(-0.2956832297265919 0.0415074491210424 -0.1255059634296185)
(-0.00154525438103223 -0.0009732055949392649 0.02090914250515859)
(3.700996799991223 -0.4510242276185633 -18.51636619260377)
(-1.116020154993439 -0.4293070449764009 0.5454542180254134)
(3.603082000021444 28.5804128759404 8.016997242363212)
(0.08819095107932912 0.2065396499328158 0.3150947944388205)
(-0.5072173565179838 -7.417825882218009 -4.859081640827837)
(2.979087751784478 -0.9640690188948827 -2.092254812686063)
(-0.1663180555100767 0.2274057472506155 -0.1907763888007215)
(1.125543388010422 3.20502007839867 2.286628803315531)
(-1.564297236605501 6.660304726247009 7.667427323302999)
(1.160421080902231 2.963605126416303 -27.18330332227369)
(0.2000580252782436 -3.11201772506376 -0.7643988146802272)
(-0.008764202934419067 0.05045716064320444 -0.02957965780789566)
(-0.1277935903109727 -0.05960502775926573 0.04619009573100332)
(-0.02290714048007129 -0.01823364888603526 -0.004302506097185875)
(-0.06325760243211566 -0.01692023445617033 0.02130371461393915)
(-0.02168416625046844 0.2571389615700537 0.1183561079249945)
(-0.002248459931388471 -0.03372278652644527 -5.468453911771752)
(0.00415364224494415 -0.006010054561747517 0.004072310714962136)
(0.04854241906728774 0.05890855922353255 -0.01936338210747053)
(-0.364394397084484 -0.2211634558473358 -25.59363614753833)
(-0.01052594397373212 -0.01681258054540414 0.01953488461596718)
(0.1318073180298812 0.9949335007529245 -0.221941146573493)
(-0.3710832275800754 -1.062736228699632 -0.3911036714242276)
(-0.1340396688848343 -0.06288691194291904 -0.001428577167003259)
(1.38717476306767 8.915290552492424 -5.068433250676285)
(-0.2972019649785207 0.05909471513324963 -0.2852466737192675)
(-0.2502099526639561 0.27684635734764 -1.829711154505319)
(-0.0543358766762083 0.01606691241358552 -0.00503835506918599)
(-0.5100945161221055 -0.1499663846957429 -0.2236831367437179)
(-0.1693480964611696 -0.05788128983224326 0.01003678156422503)
(0.003891376220788174 0.004667025462292897 -0.2720982283923847)
(-0.04109227315803048 -0.02194077387887349 -0.0220234002763345)
(-0.02075226290814444 0.02808878067014559 -0.02367254498725664)
(-0.2643321550006492 0.1738460686452982 -0.1267950919834434)
(-0.01215362304492349 -0.01724736776339473 0.00414405077243648)
(0.05118740517832561 -0.02319922726216743 -0.0166619457202635)
(-0.0001167155149012552 0.00142049843143469 -0.001265709191487401)
(-0.07576524337643596 0.06671715936906614 0.02209814715701264)
(-8.442289466339595 58.36726489638935 -7.612635357403396)
(2.131620904219061 3.143280674061126 -0.7288007003672554)
(0.03952513567167788 -0.02965205117488635 -0.02282143940412556)
(-0.03323939797731388 0.1298181451012546 0.02379712445688904)
(6.822972641319487 43.60806986134299 7.520759516274454)
(-0.07578639558962706 -0.01708576757566509 -0.0007242729576868428)
(-0.0002373437837235193 0.07574552864466939 -0.01933061175696672)
(-1.135586823933502 0.9348958045891049 -0.3026885643847607)
(0.006367232504624423 -0.002933726847695629 -4.987095060444168)
(0.4691589657167083 -0.2258033480439084 -0.2476174830459179)
(2.615930500607617 0.4948745977828711 7.503166335593895)
(-0.003103445964062882 -0.5158667314004052 -0.1743133118180534)
(2.745081250818762 -6.518663854020682 -0.7500409538563294)
(-0.00831077442612459 -0.02022619777986761 -4.780191215731123)
(0.01634993319343172 -0.02079291722764273 -0.0266017225061072)
(0.3306932686981363 49.04754903925949 2.296834478500545)
(2.175390138007853 41.41076604007068 -4.624940311782911)
(-0.02689233465300648 -0.03162905297619011 -4.968096449049596)
(3.282987972518045 6.263713119581978 4.439309213563268)
(-0.01401914978738414 0.002172790516827058 -0.02320885899289937)
(0.1469289502838925 0.769691811741493 0.3492119907495874)
(-0.3132404224414585 -0.598623495320276 0.1967849150769088)
(-0.00168602397605688 0.0001057601952970189 -0.0001576706372005565)
(0.1346181303106822 -26.87306615637171 -0.9242170563632661)
(0.959225796940494 -0.1730704862202178 0.166686483298389)
(-7.388628518284127 -44.06056708587831 -2.629707664978318)
(-0.02915138825753971 -0.01959769011695499 0.0535913243097979)
(-0.1394048106164016 -2.121883494628596 1.610098160290125)
(-0.1164499276244277 -1.292335727407342 0.2444097673014139)
(-0.7264647118692469 -0.4420423290766952 -0.4226047153553152)
(3.14822967659732 25.71984193334341 3.087997084083021)
(-0.06730883413397146 -1.699835228396094 0.93166347630524)
(-0.6316688708491616 2.972759169230073 -0.09125823182794668)
(1.55596768616137 1.623694032889383 -1.367473200327227)
(-0.2752367616761605 -0.1752916871521734 0.01373867419962036)
(-0.08830354649649624 0.0774258890426598 -0.5948573430721915)
(0.1892512581901092 0.1127814448184477 0.006522855474865079)
(0.3754902498824536 -1.086973944954277 -24.31876598450533)
(-0.5028505367456704 -1.254265151141539 -0.6208446920951334)
(0.02337297114369322 -0.003564332167300198 0.01042451004419811)
(0.05458082042777168 0.03810858831853343 0.04068502233870182)
(-0.5294438502932821 0.001395170534244317 -0.02150417334958472)
(-1.073358861862661 -3.735872035833796 0.5857363741803718)
(-0.07932715304339204 0.03951906179479132 -0.02865710192406371)
(0.2487178453878782 0.08119266742006506 0.1602707014223056)
(3.263272596590976 14.2944186555529 -7.333976342418318)
(-0.9798330263515783 9.046834594803386 1.361016695185425)
(0.005492680371491566 0.005165281180508899 0.006722196078376836)
(-0.4765056807020613 1.419188872068074 0.4571330957367677)
(-2.465260903376381 -0.9095304206027348 -1.050223388033634)
(0.8745179673228517 -1.21308461083383 -0.7732914106435522)
(-1.57725655184248 2.618767569842225 -3.115978304462535)
(-1.427581293615018 -3.507207248784092 -0.02727226051414522)
(0.4305735066326016 0.253288582677317 -0.9027414066398668)
(0.0819151205801799 0.08169403307492903 -0.02416095623018591)
(1.54347930421874 0.9427874646464498 -0.159302372511132)
(0.03286223194222928 -0.005800453715337444 -0.01688794193781435)
(-1.689973492953433 -2.169712319615779 -34.40315235580267)
(3.024612868667626 33.21289015701758 -1.899797950549629)
(-1.272373424403016 -1.962512161447735 -24.7734147746198)