/*--------------------------------*- C++ -*----------------------------------*\
| =========                 |                                                 |
| \\      /  F ield         | OpenFOAM: The Open Source CFD Toolbox           |
|  \\    /   O peration     | Version:  v1906                                 |
|   \\  /    A nd           | Web:      www.OpenFOAM.com                      |
|    \\/     M anipulation  |                                                 |
\*---------------------------------------------------------------------------*/
FoamFile
{
    version     2.0;
    format      ascii;
    class       volScalarField;
    location    "2.1";
    object      p;
}
// * * * * * * * * * * * * * * * * * * * * * * * * * * * * * * * * * * * * * //

dimensions      [0 2 -2 0 0 0 0];


internalField   nonuniform List<scalar> 
19632
(
1.801275968153073
0.2136829760996588
0.2791704255350997
0.1170779039918395
0.1544816332397813
0.3231780866389308
0.3316174366600743
1.669451454470155
1.776669209697983
1.873088287284204
0.2786306549647878
0.344555753483399
1.814502090851396
0.1560413547732643
0.3005066483933103
0.4962286853044025
0.280048865754333
0.3356919070617948
0.1801446060906878
0.5321654166483661
1.715191898542132
1.416886548793499
1.931942042499592
0.3419832096447471
0.7474783992700684
1.778566291560162
1.562804613050312
0.2738154918029931
0.1439804295030898
0.1084066761235778
0.2161092919245035
0.2647435205388516
0.3113364249506442
0.3202829773163637
0.2721271924546739
0.2101969884414039
0.9144433320771255
0.2041317228109737
1.672721240782526
0.1885706716421084
0.3862196710873868
1.786061680194036
0.2760833907516222
0.3378037171957605
0.1654903394744339
1.015764799516125
0.4153686842103081
0.1659257173023039
0.3110399543204228
0.2943926734508643
0.3920626505269383
0.5548080530470748
0.1548265544623431
1.284766712777515
0.3258170013831401
0.1742046240398119
1.792211746031257
0.8500054906274376
0.3245497283480011
0.1662564716264588
0.1747164275366039
0.1575448823494752
0.3645262729010638
0.1977220429201834
0.511308220274427
0.1180748778863411
0.3585248954604223
0.1370880107055203
0.4449871840713101
0.2919988534718091
0.2084906119720062
0.4559112680996319
0.5772654312895177
1.723100755962536
0.7379407795047869
0.8934106230920379
0.3655345248404086
-0.04520877448510652
0.4141862924548899
0.3530675467192173
1.288849456981021
0.235521354132939
1.248510468509858
0.3345578129256999
0.5379100144303082
0.5266408216234064
0.2113485802616006
1.057452197586517
1.110642191723418
0.4024668905952613
1.759649283013609
1.71044465096721
1.828153604701411
0.1965804842888955
1.69792287006728
1.68580412634131
0.2431819388866272
0.2021493388772927
1.436990676819519
0.284382861020953
0.1047168415737599
0.22756132814467
0.2046146627625577
0.2109507724714718
0.3213204861248157
0.1129989891515973
0.2324506332075059
1.733899923181389
0.6541004290955784
0.2131807384581557
0.3974918871168083
1.997537736595653
0.3312307745521388
1.866783678934051
2.140493492489427
1.658759364865834
1.823869054588324
1.889698656629016
0.3135269814600675
1.633282017877733
0.4571485822386588
1.684397754321452
0.240740710832393
2.067790823171942
2.091951437358747
0.3499566262789619
1.644185277516209
0.591462491636812
0.08270756544844753
1.241703775529243
1.231268265581476
0.126611838560748
0.4002348260116487
0.2545482860617713
1.278200382505448
0.2074192856243225
2.164916945021946
1.049703333701357
0.3982149853333398
0.8147467002885515
0.2265635944053776
1.684115593460577
0.2890590002344164
2.091093541312669
0.1088926628080231
1.691065253887083
0.2549856484647324
0.8568500744845985
0.2833541392809201
0.7025961071549879
0.2109928151688702
0.1778954804249351
0.3509008790160587
0.2433529388837185
1.965048654713369
1.86155659864465
0.5373293323885149
1.62797375866492
1.654112022309987
0.2708310255346184
2.015615396921325
0.3241337484752238
0.3224946757204215
0.3906689865205542
0.3021627345977764
1.52842588062419
0.1951227646436511
0.3780863547381843
0.3256470071343807
0.4555026884730272
0.2680175441372963
0.3895956340489877
0.6952663210847032
0.1553753723535889
0.6972013529553196
1.475073504828134
1.291021360936601
0.1443021887217002
0.6551645633668679
0.8500861046401479
0.2843969067833461
0.3189409783371739
0.2902297782159819
1.157547442086382
0.8636284368260594
0.2342452631325418
0.294276963514678
0.1883494713192904
1.298870187018382
0.1297494272422636
0.3219726194018336
0.1937063107501825
0.3733100053973412
0.3632868515107587
0.3726833729524769
0.4489069307136286
0.2626491755483137
0.2088509494380598
0.2254400044031074
0.524003678753483
0.1502118990616194
0.4378690788167204
0.4839047108989186
0.2279972337548229
0.2910675350689039
0.1270292625460235
2.357432010341603
0.2254950442891987
0.4911970288613016
0.2355025007430113
0.5568429513600749
0.1668885275088998
0.2838090567655373
0.1704200446029323
0.2285479347466501
0.1147563478171705
0.3148585965692163
0.6163767963057002
0.408990321792942
0.4894268450108895
0.1295517582708826
0.3310498909692716
0.7118335365845745
0.07587630991098096
0.1101459140647469
0.2530022025263532
2.039288209973542
0.2076227362437692
2.036648842001308
0.4505026069612031
0.3572597015537221
1.138036790734209
0.4129809447382558
0.4194509298526773
0.1577179126783586
0.2823719732041474
0.5475900377987917
0.2633318506272054
0.167476045278103
0.2014487122738026
1.344720952803937
0.8424103394542403
3.588606036570316
0.5096883740626252
0.1946807161834689
0.2324778892966534
0.5475573287388155
0.4808862234092875
0.3172319802553446
1.050701309126278
0.1883038126568832
1.119718138441949
0.4707774967922355
0.4578502191381751
0.5134532030337814
0.4622840575139714
0.4495477063609963
0.1741437680438336
0.3849597522657405
0.6086918711743922
0.6707590182658854
1.733688627086656
0.7434392647420138
1.819108956799985
0.281512108641952
0.07080523420539915
0.260795745080059
1.80944179805912
0.9258850452116961
1.884644240450639
0.6207270717461206
1.183052113069376
0.3548985515829765
1.878908562816853
1.227871998156264
1.804607318981789
0.6095398372271053
0.6822708592916757
1.708494301260497
1.61853742513261
1.635364075332989
0.213680495311549
0.2857192946443509
0.4086047616152179
0.2198482854337667
0.1393276020622684
0.7709568358049156
0.6268678647179411
0.4624842777725943
0.19812972219972
0.2068521543303438
0.140143343636332
1.443902529629514
0.1657397261780194
0.1546235716492499
0.2110582736675211
0.1268666722252733
0.5093608537726241
0.8412429857525527
0.2429750745813071
0.3585231468740353
1.274489378454272
0.1194884805306969
0.3297112748225404
0.7560816123541622
0.7603228919112476
0.2516076609841695
1.876286989223816
0.1157690844298981
0.4635194886707255
1.749263024355214
1.578434059492172
0.6678957413280134
1.667785740878331
0.2239644578262472
0.4545029066767275
0.762987561691817
1.917333465936811
0.2609554537127181
1.792632672555872
1.908710800081103
1.78957528253828
1.835828768323144
1.861298591727047
0.627404837174624
0.6401381648778636
0.6839631054392769
0.2744727534472919
0.3872655042461852
0.4811585889538693
0.2273553959127023
0.5308989398674776
0.6566510026622699
0.8328598444768008
0.1160752083600602
0.7009684953002728
0.2237462918855044
1.744452658312017
0.2218925983484245
0.3044195948864865
0.7162848831803097
0.1628007327039762
0.2244785960923897
0.3265957107359465
0.6647856488844855
0.3878145218475856
0.3022232953380747
0.2705025386934107
0.3754953191523727
0.2481888217759182
0.7838317957156933
0.1742561986096511
0.144543922170506
0.1637551039769491
0.6416620276790308
0.1191582564880974
0.2475092108416838
0.262884623278236
0.5571564629511133
0.1941662405389088
0.7239799760104104
0.1384362139605209
0.2942871797246986
0.3649855686724601
0.2477278068546581
0.3782709116848467
0.2073517181596804
0.3296183570879074
0.2331179519271893
0.3807774267272734
0.4719091300339177
0.1967515959776771
0.4626559835686474
0.3761688839413752
0.2241532917853305
0.4851600456194122
0.1106580082106947
0.3607425214228537
0.350221702965193
0.2128186755362604
0.2738348242824941
0.1940740133434067
0.4090069055033403
0.61037555040464
0.1995673358591948
1.152385802977352
1.081883354385198
0.3724668626388942
0.6708346431298294
0.9709634245807939
0.202149399532242
0.4572154415468022
0.7958135222285128
0.2152838944789984
0.4036623615956013
1.492550679320939
0.1888640431532487
0.4359984256407723
0.4218934313164192
0.6040209325055238
0.401191457717125
0.1096594650886893
0.2222710837352568
0.1737686324627785
0.2243175333943014
0.290380627445955
0.3125322996970351
0.1658440827545677
0.4879526013718496
0.5785300198449489
0.2948553366245288
0.2002365012972002
0.1951282847950624
0.4660993239466533
0.1353048619403349
0.5238396004674993
0.6038203273459901
0.2692321093746437
0.1553778490640322
0.2217156435789626
0.2025417964115684
0.5374478515111015
0.1996173948891088
0.6437929456359203
1.548555677526833
0.1069191488604971
0.5138572104618111
0.4967563076938412
0.5168019141365182
0.2774384904110875
0.2504760093356999
0.540152064734472
0.2920492338541257
0.4945588882442397
1.799783463918043
0.3487983427323479
0.1332288259763818
0.3480363308007325
1.57158423175363
0.5783249613511041
0.4124250347756198
0.3509707127165944
0.3532290747778823
0.473503489159311
0.468366107517698
1.60250026623845
0.5994508193120887
0.3632345357825898
0.1353891783221938
0.2918440788624974
0.1766483540973558
0.3953400480032102
0.3852494074112855
0.05654246357801076
0.6304075468176242
0.195908097490303
0.3098108205206659
0.1595933304136257
0.1923110820888434
0.1402181257285944
1.666688174264383
0.5133941547739027
0.3847359869135564
0.3879917501313306
0.5262893773997326
0.08056712821912203
0.3186978303714755
0.3471128145209279
0.2819198985275783
0.6214760444307226
0.5235523898633158
0.5476874732167819
0.6773501386484945
0.7841497428131957
0.4230282014002883
0.5027303316675333
0.436433080472503
0.7404382610220729
0.1124177516671477
0.2312221648889081
0.4474999321453466
0.6785093327076693
0.2415458288115195
0.1961216453803867
0.3354688455655215
0.06449429263873731
0.3075163145362045
0.5085313553484374
0.4167050394526993
0.9519040472080411
0.179192481569116
0.4795579201829026
1.22362467339613
1.082529152549087
0.3194853117099761
1.173753024119698
0.3794747595963061
0.7393005881828593
0.8056745482207041
1.155239599080438
1.700819361230307
0.1511795001946973
0.5443234166569625
0.4850295857987724
1.207649672940548
1.682759097074417
0.2749657236131751
0.5478677327499926
0.8248804790509092
0.5134846337232941
0.4712096358581934
0.3944564860491583
0.6607018368470935
0.2649667095284431
0.2734673983700089
0.4593957861547374
0.7778006814529628
0.4213297884037546
0.5368422364534806
0.8334708479276177
1.114020022004295
0.8072672874049631
0.3258767386712893
0.4013652497508051
0.3320607696362766
0.5797733627626613
1.03550856821978
1.979755619780183
0.3050617338620242
0.184653856722721
1.11224961896667
0.5828526680997617
0.5497985784200442
0.6690166009988451
2.020222523254497
1.934724707411721
0.3409309038823952
0.380290045525455
1.035357440225839
0.3478906360327042
0.714221216041339
0.219563975395728
0.2583755019728241
1.187080067654286
0.5867966441904929
0.6404412157184906
0.6810739014568197
0.6194923212801605
0.5720786217109689
0.6425587606910026
0.6563768659537834
0.2594572091510669
0.2840277634899978
0.3832811954402119
0.3299738109035809
0.5992106289874775
0.3675369357737175
0.3963414962319596
0.4962427995060608
0.3454745239044097
0.4303417118273987
1.771180195748538
0.4138271354600678
0.6794810791544224
0.1808730940195063
0.2054653451077339
0.29174019442783
0.4831311555155249
0.4506570059756932
0.499462842700505
0.5068501617582093
0.3439471314366156
0.5663466017290513
0.3452834175446822
0.8785947312821415
0.2310764892402072
0.7272853812797609
0.6889397147546105
0.723951964177549
0.8891344591980732
0.9280305769094351
1.945274714901559
0.2150697346569771
0.6986252704653836
0.6340098457521338
0.4884594751722696
1.573936050166373
0.5583791109842415
0.6727809831415567
0.7723582885785032
0.5560259325527348
0.7449641264626481
0.5370980315450703
0.5999641481977742
0.4703658784337224
1.713352929747477
0.7447704265458897
0.3602862752740572
0.461300241197476
0.4854987469690348
0.4396332391599319
0.4687864151587952
0.4556700684673197
0.4602801251744416
0.5997435243415949
0.240341958115513
0.2290962890221959
0.5139492207573859
0.1328828565618131
1.657282722635686
0.3263757789953839
1.194505492737792
1.085529581828384
0.33091627140533
0.3392466655138475
0.6308488637558246
0.6806320588399154
1.886092478515859
0.3851050237558782
1.428690356569321
0.6150987861542004
0.6135773674896771
0.6222254264737463
0.6611683279685699
0.6506303912140291
1.05367934923245
0.3390932236743777
1.98874687316755
0.5802460578084702
0.3813217246092265
0.3405011580879397
0.3068808869040382
0.3459426090704342
0.8123252932970909
0.6177309601010076
0.2247213857570252
1.784919666168736
2.149524302056415
0.1905113742194222
1.672672300235414
0.2161274652952941
0.5028413288512327
1.975316822068115
0.5274128809745358
0.3031589152997979
0.5279102195809102
0.4730173786884783
0.4804736218599706
0.5583019574300147
0.5514790042045182
0.8012538734802491
0.3622083794702566
0.3599522862581583
1.577853717436787
1.796086263974591
0.3878606791915884
0.3874665447170241
0.2036972533894207
0.2690128189052649
0.2765852207970666
0.2713395261019613
0.2627200920138951
0.2853467893024161
0.2752354321452042
0.1519422336779642
1.000304563124354
0.3080684142793534
0.5103096302989354
0.5379463049427622
0.6488127380380487
0.4936974025175369
0.4927784163199442
0.8664180005099149
0.2740999730434866
0.9214568998363698
0.3448295120028954
0.3130484662099954
0.3222797616586789
0.3037396513730984
0.240878809209146
0.1805361515916998
0.3368242093779132
0.6681229706531696
1.684870395799539
0.2657562649350677
0.3393352562210108
0.187687948330118
0.3102916828854312
0.8977835835961169
0.2217726490887286
0.2445746937468123
1.59651716117115
0.2191403709461004
0.4009357646753778
0.2099969616273236
0.3337422677581321
0.3684989742489613
0.8743952424375845
0.3493793776590858
0.3795145277997795
0.5349495634369122
0.7820666808347431
0.5951531500509123
0.3016238750755346
0.3950317423203945
0.3661732422989717
0.3368699306266343
1.728946665412481
1.693177778680653
1.624947796236417
0.5187854064422585
0.3841135133460958
0.4029272229788275
0.3029150311163208
0.3917875318763289
0.01829981155912824
0.8834546001195968
0.21707723458205
0.8081341345404635
0.1615879359578767
0.7839772383805585
0.6473950847657409
0.1081342092911138
1.856705461875045
0.6866349343914244
0.5481433372150268
0.214767666579273
1.122580315340311
0.6090639052679562
0.9573198974899134
0.0153620431592416
0.5266280598154061
0.4221490617331058
1.263908879385471
0.3927028115728352
0.1709673368079656
0.4502762132674159
0.5206182962326152
0.5381968678663565
0.2318607917728275
0.7273967842311423
1.491184665489517
0.2461865363167807
0.4306814210069304
0.4350422725068689
0.603054215042129
0.5301676262298728
0.47993494574479
1.357922104008244
0.2196454702252855
0.3179121335467864
0.2810776000391922
0.246131774667519
1.488679084839505
0.9835410758571794
0.1699296981133767
0.330281680139335
0.7223685757363123
0.1763482540139945
1.716260766742243
0.2994301204220975
0.3230319248929798
0.1227427839773674
0.673619152512027
0.3382001365936967
0.3212100065337733
0.599280516333669
0.2447401949335531
0.621434323259991
0.9013580766299198
0.6433695372174628
0.5492678448716759
0.4012363201163988
0.3818149725373164
0.3781048770459822
0.4064475317924562
0.2480907401122012
0.1974415224447787
0.2384595902811713
0.2467336003621232
0.8433708827390672
0.1964776473633304
0.2341070688724624
1.791113646441806
1.695189804685968
0.3737883045304776
0.4503355477669276
0.4167889045812407
0.4255198982105673
0.4029623494138547
1.082530423334067
1.48747198039822
0.9352710148419338
0.4031315777679088
0.7740750500263863
0.1864817509198937
0.1425596292916377
0.3041545888029866
0.3740187531199405
0.9389888580597763
0.8099023972015552
0.8804079416032973
0.5672805997453789
0.3326737461904494
0.3125679198545286
0.301147579672789
0.1720440031352628
0.5010496035427088
0.3971904527668084
0.320853037770969
0.5830975981292663
0.3280954582503244
1.79016244842982
0.1572353908256298
1.879935241980558
0.2018499972672306
1.996203704555032
0.3631980007859356
0.4022092719003473
1.02792953672956
0.831803375135722
0.2067734412822625
0.2280833164695347
0.2469032555182436
0.2770287170429436
1.764519954548323
1.892441505950237
0.1782852445968612
1.912534863769265
1.143250324795641
1.228280342539608
0.2947924356517633
1.223054048702054
1.183540407412199
0.4673834916829335
0.181892365499897
1.730960677010041
0.8446523390880558
0.2025845654270466
0.6262528311669975
0.4547830162224921
1.671543013960749
1.916116964413912
1.768430245589785
0.3123338613170915
0.2785757496852104
0.6772845145642902
0.2762794716564199
0.273635693750778
1.675223747528789
0.2176751246296184
0.1391274176552471
0.1673920473601088
0.1602044653346175
0.1723702897489953
0.6861016983895064
0.5756430834437912
0.2347611050382377
0.2452078292272678
0.3384336645567453
0.6896636251284332
1.64333819677848
0.3431133128059912
1.784760152710797
0.4114954892735456
-0.02675656911508767
1.707006741563707
1.203560668766623
1.67226735740877
0.1824385763975858
1.629197118549224
0.2155554749419639
0.3253322728207528
0.2585357059519677
0.2786660149730752
0.2582972003703307
0.4655854672398279
1.592581169694872
0.2647010528159661
0.3258351973999213
0.2901139911461267
0.2079315038476387
0.9409971604260273
0.4548579364750784
0.4826768701554434
1.966892277665505
0.3019842589492495
0.9125699596182407
0.1361149388048002
0.6196853417621073
1.812292961951721
0.1599764575861226
1.720929036778781
0.6920417345730654
0.215758165983328
0.1400008438175991
0.1894856188476415
0.1154750858913835
0.1164171859461385
0.2709876742354848
0.2676167421750644
0.2815735800795721
0.2679821455073578
1.746707334325827
1.746093525774877
1.884390151412237
0.7321123963561074
1.414935645731452
1.686864320930384
1.655178883910819
0.8305077288797461
0.6077739707405236
1.958651879504167
0.45132897421331
0.2140221301183151
1.445376716372799
0.2515664380578814
0.2755308623468328
1.269084100213469
0.3298884247937904
0.3093469609697427
0.2909271891033267
1.333995776098596
0.2765683677714768
2.02635358102219
0.1687153550488491
1.69613074883918
1.651921464425726
0.09102685417525032
1.798340834603353
0.9750258495686144
0.1131317339678479
0.07219415588408892
0.2326632587943336
0.2321379867609326
0.1973186064415143
0.2160678762970866
0.2849265389826146
0.2214648232011904
0.2008039112197532
0.1302926244850894
0.1397838820939393
0.2512527310531784
0.16109202324022
1.007209342865647
1.478557466713251
0.1314674687580626
1.710953894468734
1.744626997515835
0.1208130205671604
1.834022316425437
1.798573792392684
0.5086420045054514
0.1128151314238558
0.1159587155173317
0.1230709664588039
0.1768704235133132
1.980726091663128
0.1895314192486892
0.1678925877970802
0.223068269129529
0.144087869241802
0.2062908519494767
0.422537900982332
0.1794513575447123
1.804784480333444
2.131967921118398
0.3470052798202476
0.4017526980371366
0.3649238797689845
1.992529577302325
0.1443371005942961
0.3635778295367133
0.3426865849277693
0.8476689841263092
0.7655816740850898
2.102171876951659
0.8484008098735244
0.2364479207990397
0.9069824089467519
0.2437088861190962
0.937146522524319
1.867597804508026
1.011141321787412
1.015250481064297
0.9378725487739126
1.858474396429823
0.9999452371214306
0.9586549965616091
1.687603005187582
0.7830439412396383
0.2055663492602656
0.1079077333135854
0.2213180625506209
0.1067896920807164
0.2256246087792184
1.851172157126735
0.2360846388170292
0.3246667175311246
0.9069369516507476
0.8945627722292245
0.2740288131871945
0.921259883785288
1.005522834904337
0.9680694783146359
0.2002108791924934
0.9578823342126467
0.2621149757308108
0.8849920394076578
0.215972991783324
0.9694449321613515
1.489611902672143
0.8863219455053039
0.2972220058836339
0.63102334375473
1.924849153811122
1.805922598097453
0.9180898024771894
1.19137752496988
1.805601626029179
1.067434835200029
1.875813789359944
0.581039413037668
0.2725136289930439
1.953164884196835
0.7617010387443024
0.5143546858361159
1.920931204526494
2.063592542571984
1.847590628669162
1.003828647446003
0.2838412892491132
0.2732072470172163
0.1790858367256653
1.091507195372962
1.089168765601872
0.9160495610547544
1.673407381891126
1.048097280354946
1.887373564333836
1.852325204754841
2.012631050432546
1.515846789469707
0.3124256212490256
0.2352480881761163
0.2382703035796782
0.249789807431503
1.595298473395485
0.2002596956349275
0.3535499468727412
1.070166970351862
1.063407341381084
1.035492009453651
1.002448522925849
1.139703924231752
1.036471981036488
1.125919057117342
1.844531304797969
1.12948369431945
0.9244296070867455
0.9228124069769423
1.431480712080575
0.9632621386685531
0.9189197084049273
1.139273372379077
0.9841599691538432
1.050132570731365
0.2303864632775361
1.862717281875417
1.348629494600365
0.1773853860735282
0.1623102103357769
0.158960342428279
1.322346309270059
1.510192150911491
0.1771862984393091
1.432792435083669
1.312991257005153
1.240081300736084
0.167691809681047
0.238158950043528
0.3550365793483984
0.3498503961757694
0.2666878132455332
0.2560869618494291
0.939075450078465
0.3123399159230435
0.9685528678909253
1.033097186742246
1.083151694036341
0.2751973735424386
1.440687839543834
1.494993612198348
1.494276135094139
1.514530848853125
0.2783487268608822
0.2663427558420322
1.199765699999772
1.467864462707966
0.2698893275584058
1.576464366340129
0.7297457126419716
0.9295142603252579
0.2386249173927232
0.8263200646808806
0.7806095896054625
0.4916182701935305
0.5084054525756787
0.5021981135455537
0.6523279522540991
0.6718869397874468
0.5514364240920324
1.693786231333592
0.5188980277575199
0.702769578317634
0.6894830825500168
0.6086024356999424
0.4436250434153061
0.5221039866997885
0.4927341156387757
0.3754420629731539
0.4150208833448357
0.3523551661000896
0.4034216686754515
0.4022669608270482
0.3812000267066357
1.006757860932838
1.168204168077439
1.034210473819505
0.9008225215008169
1.057657610609547
1.025354044879198
0.9805974145928881
0.995666260340889
0.8212734997174709
0.9078267482150667
0.879617773722686
0.6960024984956046
0.2160848073367418
0.6024192689518971
1.312557282733158
0.6180380450629487
0.727856939965685
0.7662662254187297
0.7435930357514239
1.124829974429101
0.6793969392579111
0.3635752770701304
1.312577429103003
0.3366583375200686
1.231497816133845
0.3795520855070204
0.8398816501471666
0.550486138071258
0.7074828399862375
0.7824519514729658
0.6369701205611683
0.6343729701113535
0.6691610248372489
0.604211599712177
0.5911403667538347
0.6791916261886433
0.8085991041696448
0.6968091527042266
0.5820024785539615
0.6615398142277653
0.4696109168891439
0.4630840618375105
0.5308151241778101
0.5512769251057683
0.6573165627528165
0.6846410255428074
0.8373796523385119
0.7637920192671034
2.064188547726415
0.6656656845629242
0.2114718209126571
0.6834441602156546
0.6886118591548536
0.7258462252290729
0.1886622435509756
0.2742300561262049
0.2185475316063906
0.6930385723176282
0.7174631902336711
0.6563251422374832
0.6727846142026304
0.6486299776078522
0.6824569258272604
2.013117170512311
0.6130052673238831
0.7079358981290635
0.2249388983918802
0.8316092800180725
1.529758211637539
0.890020005548216
1.119451358629004
0.8488033698655014
1.057080005304084
0.9160615200556566
1.109473408986041
1.218298364034266
0.6622176595391527
0.6758161680583805
0.6738132156388765
0.6201660821038032
0.654753162742336
1.051451857556353
0.6557712314273156
0.5855218672103522
0.8490441860705122
0.8604694653711116
0.7905933153055875
0.7431734477142864
0.74459139382263
0.5338637198322685
0.7666110791431279
0.8118496726971928
0.8395079942442029
0.8108126695155955
0.8122250478708809
1.048486164305667
0.9364358740437915
0.8247830160749031
1.385847454130976
0.8383886270065113
0.868337432803392
0.8301545258931223
0.9926830620372269
0.9924469350866635
0.5819997456360491
0.6439552947847856
0.7252380624461455
1.50675116722495
1.470759383148716
1.639908309148019
1.126222878182988
1.683311370199871
0.8681346280586727
1.202896350659758
1.243458249840331
1.195763155594713
1.069025562853956
1.113570509287736
1.086835303320882
0.8605055344969157
1.958339979685883
0.4115479711140115
0.374218177307566
0.3496175134186693
0.4046818211925368
0.3787603942927976
1.596314788526092
1.515336922474694
0.2115778868825451
1.159789371302664
0.2507065447688273
1.743459752836332
0.9567138987070002
2.210984414186821
1.790547826410846
1.02255789556165
0.9633455737627465
0.1831212557579059
0.5206761553126474
0.6533681772750985
0.741915771080257
1.336954498361073
0.1707914362196627
0.5198875894245781
0.5960841866250295
0.1992281062323918
0.3923417987296413
0.5501185970433754
0.5410746377796878
0.529635247646432
0.8120433591208794
0.8249687962925271
0.7774971593671746
0.3823187677070479
0.3899175051646779
0.3674444761119254
0.415104731836474
0.4212397287082984
0.4707290825788042
0.4035104284342262
0.4538154261175212
0.46592291361442
0.474623218225534
0.4538012145304167
0.4723630996556535
0.428662920427418
0.4205448777687618
0.3232870619829028
0.3465559976288018
0.2554346420887874
0.2411351219679978
1.850069663479552
0.3269607021448337
0.3295616914258845
0.3579002595884749
0.4096634519587519
0.459722152915366
0.4427962878722527
0.5465425520987829
0.5193435858393438
0.5488339194058073
0.523978984911995
0.7621574452465381
0.6546113522714582
0.6516377005856274
0.5837198749025572
0.5206699727856776
0.4501708473222567
0.5444063797911866
0.5553429800477103
0.5006700960787436
0.5754605978592494
0.3359986883566903
0.7014035503325882
0.7047371851078935
0.6511813921996175
0.6919381813952566
0.6635998946827965
0.6736047393822477
0.6801610399399033
0.7243466095248431
1.80344415120811
0.5507176671092903
0.5777619337453244
0.5736597439948431
0.5682441897742609
0.585533196035707
0.5881002077896789
0.5841799411970704
1.967009532174685
0.3634316540241113
0.4160298909529817
0.4446548158109163
0.670009353519026
0.6574004006051111
1.582189322507418
0.3841435101793486
0.6869060649646119
1.965866363356225
0.658387293396194
0.6409337658678655
0.6612980164346431
0.6848800728330766
0.5243603646658671
0.5702622062738739
0.5448858754302857
0.7135761323292112
0.6300787072503053
0.6830165202835234
0.6907169509574176
0.7140150798419355
0.7574816715511651
0.7520561881516491
0.6690445206236604
0.6402305251233742
0.7087823431841681
0.6347808898518686
0.8901615796392185
0.9097583290232485
0.6509261467952558
1.920993820880709
0.5828845935392707
0.6099661417511725
0.7737025838576472
1.8289735890781
0.8031344179462802
0.8726738090461769
0.806158704728829
0.8907277595454327
0.9451460137465771
0.724472787325107
0.8056641879998735
0.8548329253300128
1.013516656550323
0.9853181290295222
1.037839759443811
1.079666277595383
1.312666488733294
1.289920729223701
0.675051938742771
0.6257071851725343
0.6652399995567232
0.5696624786955321
0.6522838487582122
0.7011678976913227
1.266526780946088
1.584639472882001
1.120912698736125
0.444479180515812
0.5371181475727956
0.4958194571232712
0.5939656989351035
0.682188485349838
0.4474311481800085
0.7111870969899217
0.5801632508638832
0.6957985322353145
0.6586385679898467
1.73423323558714
0.332910671446996
0.3371830217284435
0.3593025083067897
0.8085405488289409
0.5230609943867162
0.4554876237365147
0.7603682453510349
0.9053291080683172
1.047347646001164
1.160691040475426
1.077018236550608
1.076118803511624
0.1776753565616592
1.834020260514151
1.157846496060617
0.8379715515043762
0.6604962158785856
0.6821684079917865
0.7477566605262338
0.6410354194373578
0.6005464050665256
1.371294685560084
0.5428030785774395
1.11564638078925
0.6087487117690541
1.682853973878155
1.87927346665271
0.6580008483940974
0.6899725184823357
0.1898761007644268
0.6929520678639683
0.683307445156346
0.8978849469938542
0.6841385624391629
0.6494562492827333
0.5540279642638172
1.379533340767262
0.4368371434313103
0.7275569192098925
0.4964017067749465
1.966275765396755
0.4597533192626595
1.972279261026582
0.6654580684893349
0.880741662647722
0.5499963908557266
0.4431336169399931
0.4644937749502671
0.4476403402135128
0.4679914273582345
0.4144031359413136
0.5979874669325184
0.3705617833936633
0.4254004721991122
0.2154397575889012
0.242479509893607
2.050139458934028
0.2560977588801046
1.174900996080238
1.478659761708181
1.368504178142489
1.953495577181846
1.78927285077972
1.734272390033754
0.8020608855167315
0.7579359125395994
0.6857668772853265
0.7992736731489865
0.2897763127453297
2.073353703098025
1.393858100647974
1.947066814384341
0.273199733606349
0.1523820604269047
1.624560218605339
0.1350348405751856
1.470420546302669
0.1960766251210808
0.314702837985956
0.3337718495929553
0.2969801025024779
0.2448624290987732
0.303243621493922
0.2707722479087889
0.2850398964919539
0.2808604317742265
0.479468583736078
0.3650121610007389
0.3732465551580078
2.070568228600948
2.005398333278003
1.093494942657268
1.120660136357398
0.4981494118432419
0.5032847847951071
0.493279743228322
0.3233536918738317
0.2936507831264596
0.5191528883418124
0.3012251683158402
0.3434448533247466
0.3531559019505161
0.3768153399784318
1.498952726378829
1.161070575858546
1.17164306218668
2.114907929624771
1.862378223918558
1.82112387112467
0.2596936779021891
0.7460896497735767
1.528501765180203
1.911775965534114
1.848719092351616
1.68742044549165
2.10745389766215
1.404713588972995
0.08714977230714269
0.3558449592517665
0.3531192195779253
0.0968135237571356
0.06962056169593561
0.5736414561678236
0.5806611212502047
0.04820084044347737
0.5577184484647696
0.5104698941001448
0.7346099442320083
0.14905963194189
0.5614551480449355
0.469238451692725
0.4377344468929452
0.4093372397003409
0.4317360162875413
0.4163007393253733
0.3937459980409701
0.4092155763494833
0.3797291863276969
0.4349805940775974
0.445386812210203
0.423296538528251
0.4359436394102222
0.4158587485676267
0.492074384657738
2.044882748298983
0.4188556752389028
1.661073676776367
0.3085782993860251
0.2518897316257674
0.2606557364975962
0.4416789879365108
0.2863422289615825
0.4569113888514733
0.1447862490745779
1.683078298659808