/*--------------------------------*- C++ -*----------------------------------*\
| =========                 |                                                 |
| \\      /  F ield         | OpenFOAM: The Open Source CFD Toolbox           |
|  \\    /   O peration     | Version:  v1906                                 |
|   \\  /    A nd           | Web:      www.OpenFOAM.com                      |
|    \\/     M anipulation  |                                                 |
\*---------------------------------------------------------------------------*/
FoamFile
{
    version     2.0;
    format      ascii;
    class       volVectorField;
    location    "2.1";
    object      vorticity;
}
// * * * * * * * * * * * * * * * * * * * * * * * * * * * * * * * * * * * * * //

dimensions      [0 0 -1 0 0 0 0];


internalField   nonuniform List<vector> 
19632
(
(-0.001822502607009453 -0.000426563097256874 0.02185287880772544)
(0.0002530065326032266 -0.0016232704653878 -0.0008055187425831907)
(0.005192985733240096 -0.009234680332899741 0.001780308906501995)
(0.0009856729169620704 -0.0004633846792754589 -0.0004722567180065239)
(0.007286665384140344 -0.001868617862174965 -0.002777124773231565)
(-0.002822692823027173 0.004968940166563913 -0.005697942187422038)
(0.002701452666911072 0.0008244270636685556 0.005305444790465016)
(-0.003397887736396091 -0.00269568438555635 0.0008123385448719362)
(-0.002272134466436889 0.0003257612080226494 -0.001742133449813953)
(-0.02027002501337713 -0.004695305060313518 -0.005234255491469851)
(0.01695837795035218 0.003212211489539896 -0.002103356860218831)
(0.001944352072282138 0.00289346645005214 -0.0004084515247082246)
(0.003436127954440223 0.002213879118577428 0.009420960733933814)
(-0.004303749746789453 -0.0018420046677664 -0.0008485355181339093)
(0.0003395417586590749 -0.0008806077408461418 0.0004038032265234358)
(-0.001271739649396512 -0.0009288080778455956 -0.0002006929810200715)
(-0.002915149668698869 -0.001733356656663769 0.001326702069911169)
(0.0009577606613311055 5.834002627773619e-05 -0.001001422396521982)
(3.987124600648366e-05 -0.0009894122097335407 -0.001406697878606741)
(0.00378401058246219 -0.001214930613545535 0.001383296685667892)
(0.00331508862903561 -0.006091668088921347 -0.0009801802154227404)
(0.002796849329043707 -0.0004213642670415383 -0.0006640517891838167)
(-0.001429181185203183 -0.001686400449833844 -0.03582903019597043)
(-0.0006762977519046915 0.0005310858146940036 8.871811142238625e-05)
(-0.000143448890182902 0.0002533684177091211 6.612626679385026e-05)
(0.002707427886314544 -0.00316937270510221 -0.007433279878914626)
(-0.001407358814700854 0.005641809079603701 0.002659218062935821)
(-0.003315361972893226 0.001080695179884939 0.002843986749869728)
(-0.008221158424338331 0.00590291506254748 0.0004224289035993082)
(-0.0009441466842448542 -0.0008280854222790523 0.000971390561981848)
(0.001420126746869822 -0.001920078944288526 -3.259891338088633e-05)
(-0.004662660335628567 -0.002965401136469301 -0.0002810096336519536)
(0.001721891669623252 -0.001989537175147793 0.0003825195088275755)
(-0.002402226203057383 -0.003656321472827434 0.000194492970803563)
(0.0001525718518431717 0.0002930805860148612 0.0004093085513103146)
(0.0298262321606936 0.004208151581682462 -0.001403677090048576)
(-0.001181983373203587 -0.000185152054584053 0.002219060434414526)
(0.01194204398046095 -0.001196433500386263 0.002527434283001897)
(-0.006098134737892042 -0.001152573232128174 -0.001635075895698864)
(0.003300200091382387 -0.002039402617716577 0.004575518642946794)
(-0.0003032991486465551 -0.001870713796065206 0.001022502045489445)
(0.008723724877762316 -0.001830590045128197 -0.01560651701310309)
(-0.002105975582499941 0.002529270104319256 -0.001674392463184186)
(0.003603747423106238 -0.0003254161656817578 0.0006024115769618461)
(0.0003155537293851809 -0.0002355858087227245 9.781824088885306e-05)
(0.0003738165401532842 0.000534085417156182 -0.001601504989182129)
(-0.03621305092523281 0.008775872272829211 -0.01640904454956871)
(0.02390709710178461 0.007867484278156506 -0.007690923416474968)
(0.007825083261958172 -0.007936634373501292 -0.009482212194959079)
(-0.003418350502446644 -0.003524248643016854 0.0003929668074844466)
(-0.0121576502725116 -0.006959376481847227 0.005398614087137146)
(-0.02581752024078206 -0.03311458716697028 0.02605111828497026)
(0.007882775243308592 0.0006555094558964216 -0.003650834866821284)
(0.003282265605273498 -0.001660175437707841 0.0008559582765206379)
(-0.007498117776877841 -0.006180803548824421 -0.0006631225510539849)
(-0.01331386242684972 -0.008959316494157018 -0.006877827512103797)
(-0.003024059816553902 0.005530620241882054 0.0004815117375923663)
(-0.002893804735193751 0.003125622995272342 0.004456303824197137)
(-0.001764597911956539 -0.007931344576885843 0.009211968206395107)
(-0.000654555885780997 -0.0006161776808711393 -0.001597001455006915)
(0.001246380309497575 -0.0003498837846556574 -0.0001817422825555246)
(-0.007661547082627333 -0.00468982304125872 -0.007680423995154344)
(-0.0004891042784881312 -0.00057418831412986 -0.0002893048092806765)
(0.00163141293425062 0.00149058832337034 0.0002026131270365263)
(-0.002847806960715983 0.002413572301553642 0.003929527506257509)
(0.0002659847084221623 -0.0002211825373080226 0.002139938274486026)
(0.001186087460677411 -0.0001918158249048023 0.001563206251301471)
(0.00725178296807685 0.004981438898290121 0.000582281641027137)
(0.01835873674107434 -0.005848141733380428 -0.0122318800134881)
(-0.01782053702895127 0.00212127104791892 0.01037766398083553)
(-0.0005078215203054964 0.0001206862810818881 -8.865671390304787e-05)
(0.004534590631956767 -0.003234270665775426 0.004849574235799404)
(-0.002060917341033751 0.007559104598439582 -0.004513284909766137)
(0.0006316702105273833 0.003204080567121082 -0.005903574351419812)
(-0.000668699805359842 0.0006060140664323221 -0.0003169087016453803)
(0.002945473735651989 -0.001385274125913842 0.003032868500329774)
(0.01010290132123022 -0.006166557248287203 0.00437952284199535)
(0.1108575364165925 -0.04767378137679268 -0.000122381427934512)
(0.001305087223230368 -4.308598350760066e-05 -0.0008530726685619275)
(0.00399796320219194 0.001008900280935986 -0.0005886760896192226)
(0.01075391715118817 -0.001291694629054032 0.0153374305661743)
(-0.005721856874123671 0.004767499569010193 0.0008609311732206038)
(0.002065916709322805 -0.001466042449194381 5.594515878750488e-05)
(-0.002033234346526223 -0.003381062119955113 0.002205875894187571)
(-0.002078800897939496 0.002510422735644005 -0.00112399465075014)
(0.01332615662138314 0.0003125063290327435 0.001560790872791389)
(0.004925596904990644 0.003870529437127913 0.000272131685905425)
(-0.04249514336189683 0.005760483018007446 -0.0001262741136941843)
(-0.004925005135042954 -0.002585007629709702 0.007285750951316274)
(0.003027922468343683 0.001661711452673833 -0.0008982283740347374)
(-0.02036444707768616 0.007608222149417782 -0.01192095470942528)
(0.01983673797315776 -0.003620751961493164 0.001988352470112561)
(-0.008066416670184338 -0.001201452922320378 0.004022616378420097)
(0.00226171373598772 -0.003806334689960096 0.007415044767063441)
(0.0005394320292370564 -0.01399035312541255 0.007341280372749058)
(-8.115479101642592e-05 0.00169061595293825 0.005501406589904727)
(-0.0006089292800472716 -0.0001374909807774377 0.00457136416413843)
(-0.01622893195567729 0.002416687441779036 -0.009716128035077381)
(-0.002958240465403703 0.005962887974661881 0.002171978928609611)
(-0.01128018889735433 0.007845733978690553 0.001326242922839227)
(-0.000158082096277394 0.001587030762187221 -0.001811291590864328)
(-0.003576641734715853 0.006045207245573518 -0.00321766758239309)
(0.0009232200209374821 -0.0009374099252982776 -0.0004069876794188876)
(0.001317855652543241 -0.0005128537780573075 0.0003355617296301066)
(-0.002496438050070122 -0.000108504208190462 -0.002392240103642369)
(0.01227377245329678 0.003223166588172853 -0.01530698416654482)
(-0.0001836972861203435 -5.36251620195202e-05 -6.851244395236682e-05)
(-0.01042403323485453 -0.004663642851458793 0.0002303796467625662)
(-0.001355095791965325 -0.001600922041369669 0.0002561241332831019)
(0.006564461042899835 0.00224861806884053 -0.004293872183993163)
(0.003412826538254509 0.001180568216849029 -0.004868869992304333)
(-0.001607487116477309 -0.006570319685860923 -0.004802516436454554)
(-0.02683044177250748 0.0006735969615973318 -0.001321685779588471)
(-0.001933806575289666 -0.0003641250894632529 -0.00102408671356784)
(-0.02171223802296715 -0.007243419990815587 0.0124553141176956)
(0.01572929014185101 -0.004402887361573194 -0.01433199954944823)
(-0.009951143348246452 0.0112982313813258 -0.006668307343634919)
(0.002874827330645773 0.008309799189923828 -0.004570286528825011)
(-0.008767342575861295 0.003797714610356221 -0.005714491700511155)
(-0.0003689407003973732 -6.783329833796002e-05 0.008653459817451154)
(-0.008508226128074323 0.006434208736680066 0.00217449784896268)
(-0.02099722213209726 -0.00256387959199423 0.003175815887836104)
(-0.0001946084668339399 0.0001511901264650383 -0.0002381529801361183)
(-0.02716558324377721 -0.003814306411664745 0.001833344366721427)
(0.0003781636844448807 -0.001719257618299356 -0.0003473716558482556)
(0.0007650359173539813 -0.001972116650695262 0.0004711887982163561)
(-0.02395549945270809 -0.008271757000836637 -0.003437075735447517)
(0.001719677121737036 0.0001612296753513841 -0.0005049259619736269)
(0.01036851192307962 -0.001728020891414328 -0.005233024032505187)
(-0.01176545750285689 0.001433953151788084 0.003975325694475515)
(-1.212246928570214e-05 0.0005521680418227855 -0.002111078422360937)
(-0.01041172376841116 -0.01633326232685226 -0.008183222292886575)
(-0.0004542544737279543 -0.0003225587918750185 -0.0004530262402695256)
(-0.03710219083933938 0.002123170584346107 0.03769428662829277)
(-0.001221899305031963 -0.002039779512419385 0.001532475316793445)
(0.00202453491136846 -0.0007011205913390924 -0.00364386359473169)
(-0.02228189721414494 9.97332316623315e-05 -0.007742398524592134)
(-0.001604617929478912 0.002954838107542477 0.001458453239402453)
(0.0005329982180332849 0.0001379531088595656 0.0006690944632605459)
(-0.0007488306936914043 -0.001218615149375936 -3.120393472262512e-05)
(0.00452425399298236 -0.0002884079594186977 0.003126782704304251)
(0.007133026803296561 -0.0007520484027124137 -0.007953752153257537)
(0.002279656234448371 0.004421477959551514 0.003429872820783786)
(-0.02222561765366832 -0.05547104748224308 -0.07911726436862546)
(-0.007208382894136601 0.007178296910914849 0.0006420744495656378)
(0.02517988367920503 0.009856339098226793 -0.001203055979128537)
(0.009893867119736563 -0.01554971447302357 0.0001544327811239441)
(-0.0003403567488581129 0.00195861431370131 -9.782535906236234e-05)
(0.0006922583251422513 0.0007615613126269377 -8.20352670407394e-05)
(0.001155455268211208 -0.0009141935069974756 0.00116821234320855)
(-0.01325046434513945 -0.0009098936583980087 -0.002730446003701286)
(0.008857381262156334 0.0006716968158954964 0.005534339191503437)
(-0.0003194888747515712 -0.001262560322188272 0.001130733102461706)
(0.0004601391101133761 -0.00043344729495493 0.0003391890907055975)
(-0.04770626237319063 0.009205993264164124 0.03818797900060421)
(0.006500626228212916 0.00161471279569559 -0.003966467640070629)
(-0.03081911026793235 0.009233731856167203 -0.001757782320101341)
(-0.0009471064627332107 -0.0007987645442087284 0.0004202393606096717)
(0.0135168824667933 0.007364563495841478 0.009430653046286777)
(-0.004619313250040768 -0.003168608253735121 -0.001261523503402385)
(-0.004809036206186871 -0.007809272605332162 -0.004910060863436478)
(0.005660088068753137 0.001035090384047593 -0.0008053644014204783)
(0.002653741863015045 0.001260537626061764 -0.001186930109196706)
(-0.009517141934852296 0.0004224525842749333 0.002004454748933546)
(-0.01252955404904622 -0.0003210192995343327 0.003561780510661489)
(0.007083511539270265 0.009620936107032204 -0.001481054835167872)
(0.01198037217272457 -0.0006525682445394638 -0.002830738200882627)
(0.004692897156137259 0.0001026925655406554 -0.002736058014407296)
(0.003798662556126721 0.00219617036727191 -0.001190956878649973)
(0.004060507257403709 0.00123784163135402 0.0001157362835657792)
(-0.006034209806033889 0.007084635248203127 -0.003518399145172349)
(0.01802647117473408 -0.0001668552827456106 -0.003691018566619696)
(0.0005669802182770675 -0.002624938426163734 -0.000564459546341026)
(-0.003046332361953502 -0.001476305426784216 0.0268797564189964)
(0.002617092498910159 0.001056143078517605 0.0008582232834017768)
(-0.01284070930214106 -0.0006826380607550912 -0.004213892200934087)
(-0.004208004661181063 0.002511893007743248 0.001544454760687454)
(0.005848648675364393 0.002991986922686101 0.004919362996238952)
(0.02922868542478788 0.001112499376965524 0.01229051124361116)
(0.0001574015923453877 -0.001046801629602535 -0.0003674421804721057)
(0.007810082318233707 0.0001936275971927192 0.001018386498589433)
(-0.00533149245431443 0.0004370207573212927 -0.002365628792319525)
(-0.000446630009268049 -0.0008766827344741415 -0.0001567367809517379)
(0.003732334142032495 -0.00149525313603006 0.0003364053577351405)
(8.906428804858273e-05 0.001674272677841232 -0.002022209773519475)
(-0.0001263724098388653 0.0002132796987511187 -0.0003189073563820051)
(0.0007481809018946886 0.0008952969777039244 5.324361303157691e-05)
(0.00392170920673968 0.006376144243156313 -0.01090593424235618)
(-5.396858054109409e-05 -0.005980233572726945 -0.001786808522662182)
(0.01052276019534041 0.002603267203116945 -0.005538280751893919)
(-0.004329273210653486 0.0006262561931259336 0.005075677932780362)
(0.002798133317323856 7.408314280867706e-05 -0.002285612919008274)
(-0.0002451544177639311 -0.0001552699780267665 -0.0007192494197240595)
(-1.669073444135146e-05 0.0002238490890623733 9.79027446192583e-05)
(0.002724716165483755 -0.003085729937669146 0.00125521981333131)
(-0.0009906296121369137 -0.003817651163183106 0.001526290530055194)
(0.006173888953046392 -0.001551885952529401 -0.00438231862478069)
(-0.0003937683719661939 -0.0001796276201562259 -0.0001480363680819032)
(-0.02163180459977213 -0.001211910115199401 0.012082242227085)
(-0.001148305798428152 5.812952676172313e-05 0.0003016358328666426)
(-0.01342748708194947 -0.002997764169155568 0.000375605304811064)
(0.0004041096240159003 0.0002135958943725862 0.0009141008888074633)
(0.006474360836932813 0.002308326059807906 0.005190009179732056)
(-0.006076952110479846 -0.006327078052777765 0.00964088250420145)
(0.05037016842401047 0.002803260621653441 -0.01153123581033099)
(-1.854540812049597e-05 -0.0001390724081096262 -0.0006168255362841602)
(0.06864801555579558 0.01011288531165727 -0.2444440403370005)
(0.0008952988874729929 -0.00312230220721362 0.006225995582859733)
(0.04328856175821287 0.005879713421295259 -0.01769591494303319)
(0.04734154468715406 0.008895634379699962 -0.007905957637304969)
(0.0001730738226490145 0.0005002855323059411 0.0003870974015171518)
(-0.001024114151496797 0.05056926963327497 -0.009501363451186177)
(-0.006055237162727541 0.003608458592009622 0.02490646550706626)
(-0.001668639653917288 0.0002064792769271336 -0.004858743166585166)
(-0.001589603880440654 0.0002850120441774289 -0.0008410546996278911)
(-0.009841003067217614 0.009004929769732443 0.004259126704396906)
(-0.006959791367574683 -0.004869040398660639 0.002113717544142091)
(0.00201864225223687 0.001365115118590333 0.0001576786390720327)
(-0.02437742970258445 0.007882268823631706 -0.001633927920331048)
(0.02597740182458338 0.02574667935511528 0.01697315020441154)
(0.003944512403276597 0.0002305713335094275 -0.0004961423234478515)
(0.05869011609899429 -0.02992082420595434 -0.002684298830626039)
(0.0008027650384244026 0.0008400131370231433 -0.001712970099130201)
(-0.01148574118331089 -0.006386248613671829 0.001019666286101772)
(0.005049025000528451 -0.004903132538216799 0.0007477673150216796)
(-0.0003202310904408142 0.0003169925498037594 0.000243308069041432)
(0.007412697787688499 0.002252725711241958 0.01280307148934039)
(0.01683870203132847 -0.007688408682164689 0.0006054110644815546)
(0.0119423077601837 0.004704453960518102 -0.0003085694860280965)
(0.001582360969810591 0.0006113643294840099 -0.0003093060871167491)
(-0.000285034156464631 0.0005224361101466779 -8.045820285321149e-05)
(0.0004237816284436677 -0.003287673611716691 0.004053378116657901)
(0.0001680703230737245 0.0007713170629112987 -1.847126703850925e-05)
(-0.0005159020279069915 -0.0006731888716800631 0.000728879145555369)
(-0.007377154753740619 -0.002022351585341647 0.005242185257232341)
(0.01706360283995714 0.0005353017697923344 -0.00228690153389585)
(-0.04999640351404888 0.01275043058979495 -0.002166242693063531)
(-0.01955264560589955 -0.01641529699488121 -0.002307185279342878)
(0.001267439957393031 0.0002948424516651789 -0.0004357243654101777)
(-0.05187563617078975 0.005532415408896428 -0.001252167254883653)
(-0.001413816941583776 0.001195036875191467 0.001182127350805895)
(-0.0002835409475250728 -0.0007286541076259388 -0.001961978378048074)
(0.1778860538975675 0.01973055780265306 0.01428778041479201)
(-0.0002472308429529153 0.0002558658867665104 -7.799181626236515e-05)
(-0.002358013692271707 0.001617251674110122 -0.0177992310293709)
(0.0001109973006603348 -0.0006741282328542101 0.0001926267999366733)
(0.001818725848944294 0.0002491810447537585 -6.099183415165729e-06)
(-0.0007865951439140261 0.000441381013801739 0.0002463493368769549)
(0.001338474708629123 -0.02229250241104513 0.006147677667015176)
(0.0002655460029201088 0.003281270971144724 0.001010927886834015)
(0.02739948067610339 -0.003347219661935959 -0.004409110765977912)
(0.09739575147611534 0.03319100824588692 0.004368869999571263)
(-5.532115261078673e-05 -0.001008718478092777 0.0008732104653451601)
(-0.0001669570296230281 3.94461458718519e-05 4.725383322604375e-05)
(0.005968556937833672 -0.0161176200669995 -0.001772913256322691)
(-0.0003886501153134892 -0.0003840152977936894 0.0009207435505770745)
(0.001506755042063898 0.0005047567835911274 -0.0009981449484667046)
(0.000839795498782288 7.641308757554209e-05 -0.0004131268270632213)
(-0.04403938441520755 -0.005178515274827336 0.0004979537273753109)
(0.0002776544663622654 -0.0003699129328405337 0.0003290265404472219)
(0.000987281377720414 -0.0001604258312242746 0.0003209133758550745)
(-3.115402186512801e-05 -0.009718017697300635 0.0147195818093887)
(-0.001277856790366253 0.0001526152928920499 4.450707961712501e-05)
(-0.004667551948600699 0.02730095072587136 0.0003637125661990958)
(-0.0007373812052367077 -0.0007602949647208025 -3.916862928740042e-06)
(0.01892792755904504 0.02648307029885843 0.001028639649382027)
(-0.001857910416637031 -0.003869096845969189 -0.01108605620917936)
(0.034167161878161 -0.01749530442867026 0.001131004904765409)
(0.006146335933222787 0.009429851204541317 8.652624028278495e-05)
(0.003987637501324878 -0.005530368106417542 0.003432093810917896)
(0.001046719940481619 -0.0008764108033378756 -9.016543487908398e-05)
(-0.0002402158401789943 -0.00408599486928776 -0.0108690090519556)
(-0.00428107784346385 0.00630783353263106 0.003116019592628758)
(0.0007019749088734793 -0.01233071064601163 0.008882093124212037)
(0.005600076549020861 0.00149068198042496 0.001846404085246768)
(0.002072918044978053 -0.006243483928950395 0.001197725303567781)
(0.001913320256164416 -0.0002244909423482701 -0.0006674697597336304)
(0.002598914523006882 0.0002621124762520913 0.002119672899689259)
(0.01242581959560428 -0.002961196270513034 0.0007200736976055313)
(0.003536538212265546 0.0005540927355845596 -0.002298924729179995)
(-0.008018265653342816 0.004324445355806272 0.000539275203232121)
(0.0008549715648215929 -0.0008316840641303578 -0.00126195538944162)
(2.224132057936786e-05 -0.0002103352578866115 -0.0008344181196713707)
(-0.0003052077076022942 3.067514009887198e-05 0.0006881260089535166)
(-0.00177203608027408 -0.0004449105288440099 0.001572013289869251)
(0.0293750604026184 -0.002553559594789664 -0.01465559053966013)
(0.0006541612053554068 0.0009824853276987095 -0.0005227584380839869)
(-5.729703490361574e-05 -0.0008254169274788133 -0.000363596515061514)
(-0.0128704207629728 0.02365602702473845 -0.01827812437931215)
(-0.0006766446606431687 0.000405606149142397 -0.000193336296539994)
(-0.0100058551634102 -0.0006001437553586697 0.003323086449337714)
(0.007095004762886137 -0.0009877370473007643 -4.865040907252354e-05)
(-0.004098859509252235 -0.0005395734777042988 -0.001803679221774525)
(0.003283712217006829 0.00289524863109651 0.0005447187498954266)
(-0.01340858846173629 -0.0006099945315759215 -0.003383062367156345)
(0.004494920943078931 0.003676423984504865 -3.980342955829419e-05)
(0.0001811668862475766 0.001439501454513642 0.0005341380161099796)
(-0.0104183549626356 -0.01258155183933322 0.03335217623107212)
(-0.001232382314132976 -0.0007699254690075361 0.001932017198968046)
(0.00407764776039986 -0.004946144596469183 -0.001894389405157861)
(2.134764265080032e-05 0.01594731789111133 -0.001631349547042818)
(-0.01405996463792173 -0.002102324124161837 0.04155723745097506)
(-0.006042913412942576 -0.001068190592712489 -0.001070369704030407)
(0.0002757350634532533 0.0003670836141185567 4.610624480262448e-05)
(0.0004515803333686868 0.0003088893267777553 -0.0001939704243887654)
(-0.0002675183558243077 -0.0008406688222286852 -0.0004109728851554714)
(0.001452137387347584 -0.0002896484048374769 0.001165939653815681)
(0.002549801860914298 -0.0006686444623819223 -0.001578539653743582)
(-0.002812494543231032 0.008954763911347712 0.005092960352622697)
(-0.00217878887578619 -8.028309944684798e-05 -0.000736804617888876)
(-0.001256155863942127 -0.002587096739999141 0.005687285462001192)
(0.01047083575015452 -0.0001244336880284976 -0.003572781561466307)
(-2.599723393109134e-06 0.0002667402520204244 -0.000566222482074031)
(-0.005877692567314057 0.001565525736546303 -0.0004228096373562154)
(-0.01978324002932814 -0.01038848086695183 0.004421646131804185)
(8.624216090311878e-05 -0.001545852204319829 0.0004213401437832714)
(-0.008042468335647127 0.009731981279894312 -0.006515901571650771)
(-0.001332886194572966 0.00560061463528119 0.001556323627845818)
(-0.004438733967289618 0.005572740757232931 0.002776263007446138)
(0.001229388269867283 -0.002676948271032068 0.004953423688557708)
(0.006907911472315184 -0.01186876530153819 0.01741207215629887)
(0.0001286355137201161 0.002550628431282819 -0.005243502671936012)
(-0.004133814870867536 -0.001155307310538054 -0.001614694694256385)
(0.002982124994600151 -0.001604698359218348 0.003365747464915904)
(-0.002023641528404565 -0.0007937363895852059 -0.0002065878262636762)
(0.00302124363837548 -0.001911770103966154 0.001063945025112891)
(-0.007032616733828181 -0.002935672254082304 0.009647894830756695)
(0.01336594053010197 -0.004510769173860612 -0.01215355111657056)
(-0.03522435586055554 -0.003116590353304159 -6.578538020246983e-06)
(0.001246336824634484 0.0007420112811370108 0.0006664186980335585)
(-0.002378402559955448 -0.002680222812989939 0.0003274743331937158)
(-0.0003138196340008397 0.000333973650298646 -0.001333866715578522)
(0.0005167389827933314 0.001242360293106956 0.0004627319074440436)
(0.0002120556274032932 4.732347476124264e-05 -0.00244852910093322)
(0.001594435194071715 -0.001050297496533882 0.0005420466963675459)
(0.002283547050266197 0.0002455188214385175 0.001562807417729017)
(-0.000178477722862239 0.0003996626247709846 -0.0002922496532828256)
(-0.02250897574755907 -0.01900258423651341 0.0408855624882182)
(7.446727533278645e-05 7.753398023465816e-05 0.0003066664464850439)
(0.0002584594778443914 0.004045478257271177 -0.003097165581028162)
(0.0003860936085163292 0.001197306381348367 -0.002624728653701005)
(-0.01771605670160673 0.001204781243635944 0.0002119310558975135)
(0.008007310938196779 0.00141371157984483 0.004174046750786625)
(-0.003555630098849776 -0.00103294884805785 0.002387094939745784)
(-0.0005631225667817573 -2.784465654414215e-05 -0.0005818795416084911)
(-0.01035389893026644 0.004355004326582059 -0.004029242267706902)
(0.002727533338177117 -0.0005519925645147874 -0.002541219206099016)
(0.003445633621820631 0.003185259524098875 -0.002630404492815534)
(0.007043671002804553 0.01732749376275444 0.0248787727292213)
(-0.001909968205217639 0.001238633354128597 -0.003917911181973209)
(1.38073605706171e-05 0.0002942706689200089 -0.0004420472884698594)
(0.002050169059329609 0.01117350435745921 0.008609468197963512)
(-0.001838412197190939 0.0003987200727963463 0.0006747456583006818)
(0.0007074763878198104 -0.001161737065589646 0.0004123397314293146)
(-0.0003562046811247447 -0.001906014331408194 0.001485282828704592)
(-0.001357252923250596 -0.0004390157182534812 0.001918387293273535)
(2.931174942710911e-05 0.0004510321759306863 -0.001298654050766034)
(0.007605098939961391 -6.926424098012982e-05 0.006556758137460249)
(-0.0002176170025659719 0.002537817488916146 -0.001209279651434753)
(0.0002760396190464131 -0.0003826183908605188 -0.002533202492274964)
(0.001026924137942978 0.00136644599756913 0.0005911085584409091)
(-0.0003213068159481226 -7.09084117269111e-05 -0.000429192973723265)
(0.002007317374683132 0.006970097434832387 -0.007056244451183099)
(-0.0009919997520268138 0.0001019004256055309 0.001095660609293458)
(-0.002117436449901227 -0.0004745415322051001 0.002954732737171444)
(-0.008001296565168303 -0.007308080644006318 0.06097480589014339)
(0.006534052799607133 0.0001225940484593304 -0.006554233727131637)
(-0.0006465238461738792 0.0006608873102868341 -0.001529236049249231)
(0.007599931305013101 -0.01705490975666502 -0.002704523178094514)
(-0.001154971804687183 -0.001146792507839759 -0.0002652634078441662)
(-0.0007527923732576411 0.001794809254794636 0.0006003022379661241)
(-0.0005988325662800811 -0.0002409709380745388 -0.0001991150066525268)
(0.001227375934035444 -0.0005118189971273294 -0.0003958887896868618)
(-0.004379496874063182 0.0005030444188725531 -0.001179276240569222)
(-0.01292522945282543 -0.00161171364942156 0.01826942481138225)
(0.0005640520933008558 -0.0007006521882830025 4.195619473588893e-05)
(0.003233540146698947 0.0004004830404606544 0.000636764329653653)
(-2.344159586435164e-05 -0.001706011270409799 0.0002107607429496103)
(0.004306344878184223 -0.005338867660198839 0.0006836675081397525)
(8.466124538309247e-05 0.0001146195075379732 0.000566706522808173)
(-0.0007590800112941814 0.0001731568889819626 -0.0002722504634675217)
(-0.0001000352547608097 6.625304812864631e-07 0.0003008679617671155)
(0.007031928331679694 -0.01405311541132217 -0.0009366370853270097)
(-0.0005723105713989208 0.000706098057493 6.31268042736561e-05)
(0.002190185106203579 -0.01005013844071074 0.002797108811373756)
(-0.001093455870847166 0.0007350537080504564 0.001117263129475879)
(-0.001414935326762138 -0.0006466203422323816 -0.001067896340029179)
(-0.0004790736971996431 0.01089307747801623 0.003098758234817393)
(-0.0002754435374904196 0.00131204451536222 0.0009608185305643628)
(0.0007909632656017159 0.0004647016898880184 0.001221867288389268)
(-0.001000677252653835 0.001578015276831872 0.0005494147075191491)
(0.008582364144628417 -0.002351524381312581 -0.001224617417161709)
(4.47170095450574e-05 -0.0005884259128098858 -0.0002012959364967166)
(-0.01834034513180893 -0.001859684062988162 -0.01140967925943528)
(-0.008717750412786534 0.002845327619700921 -0.001515072387617964)
(0.00236169606783094 -4.082123010139437e-05 -0.00274469803770181)
(-0.008570199538656745 0.005459117839244195 0.001324746849991844)
(-0.00274978367627555 -0.001147128063609512 -0.001908449394732095)
(0.001109143358166687 -4.66334813709285e-06 0.001637073528642666)
(-0.0004766242203855824 -0.0005649619150489925 -0.0009731517284152016)
(-0.001885723558616156 -0.002219203658789193 0.0006578044352757344)
(-0.000750235213172628 0.0002212773072008281 -0.001358503966937917)
(0.0003033258730320879 8.812757150857144e-06 0.0002103097862808277)
(0.005116219314426549 -0.006071138855140356 0.002070846297356479)
(0.002906176813310289 -0.002330951703844778 -0.003230733155998676)
(-0.0009377915361323149 -0.0003266407403671168 0.0001909900553264788)
(-0.01358243339497912 0.009705933835522006 -0.01055714043432709)
(-0.0002692385225950855 -0.0004080434810910019 -0.0003820051082901975)
(0.003032772446201188 -0.001860612397541274 -0.000439967429933478)
(0.0004922096313999914 -0.000587831008979852 -0.0003274143283925657)
(0.0007538929689201613 -0.005117151684363956 0.004797996314360235)
(0.001036523075985132 -0.001250570717786739 -0.0008382724660684941)
(-0.000312627280527142 0.0002121856677783859 0.001875708670300532)
(0.0001287136778708215 8.114954286052772e-05 0.0003386484929058362)
(0.0001586747967806522 -0.002923893356141071 -0.002739169389482973)
(0.0007743919994997609 -0.0007115179869980559 -0.0005681657132952229)
(-0.0007658613033287994 -0.0001742735089008067 -0.002560985750660925)
(0.0001435764960971272 -0.0004027222681167612 -9.709377252498073e-05)
(-0.01691724284174618 0.007359527683007227 -0.004191678249012046)
(0.0002964997346040395 -0.04747940612851866 -0.003198392164199262)
(0.002468458400249286 -0.001284446568948858 -0.0007814586238566315)
(-0.001362033384478804 0.0002045204743257257 -0.001383845902882405)
(0.02915959227124527 5.372039386051771e-05 -0.003383838289657434)
(0.001254130943190952 0.0008775753876033964 -0.001619703367369526)
(0.000937182874923547 -0.001961367475607025 -0.003628776607518193)
(0.007891803603028168 0.00467907386963709 -0.001015953717854826)
(-0.07372949294982903 0.01577028493045122 -0.007454134231818134)
(-0.0001490643870770271 -0.0001451783878629796 0.0007101642220953563)
(-0.0009543786916282216 -1.814344522803194e-05 0.0005196344611767071)
(0.006452212348006942 -0.0007890656909842557 -0.0001672766278996629)
(-0.003870905792181383 -0.002949939243810486 -0.006648759471842531)
(0.0009531402204451735 -0.0004620288846660778 0.001409224925744775)
(-0.005031129854157519 -0.00127972050344917 0.0009797677346152927)
(0.002726516246297246 0.0004113148818561485 0.001000738239223839)
(0.003808604007835071 0.0008459902544241836 0.0009485795496920071)