/*--------------------------------*- C++ -*----------------------------------*\
| =========                 |                                                 |
| \\      /  F ield         | OpenFOAM: The Open Source CFD Toolbox           |
|  \\    /   O peration     | Version:  v1906                                 |
|   \\  /    A nd           | Web:      www.OpenFOAM.com                      |
|    \\/     M anipulation  |                                                 |
\*---------------------------------------------------------------------------*/
FoamFile
{
    version     2.0;
    format      ascii;
    class       surfaceScalarField;
    location    "0.7";
    object      phi;
}
// * * * * * * * * * * * * * * * * * * * * * * * * * * * * * * * * * * * * * //

dimensions      [0 3 -1 0 0 0 0];
oriented        oriented;


internalField   nonuniform List<scalar> 
37377
(
0.01643844196186825
-0.8059965196311696
-1.449251542053291
2.238809619718376
20.61954746143223
-4.648213176903236
-15.9709968744996
-16.55997814133964
8.219728124265803
-13.29036978217502
21.63061979924993
0.2248821674428671
-0.008988296027430379
-0.03796319706919322
-0.1779306743396428
-13.9149468343064
-12.07938766128074
25.99477639132039
-15.08030342190251
-30.35233022463898
29.12961617445111
16.30301747208874
-8.944797363574382
-24.34984377132279
21.23380757934629
12.06083355553381
22.75637351703276
-22.16003898855889
0.5022450524627305
-1.098579580941142
-11.26874590380689
-5.807475870149418
17.07734881250154
0.1627479086890871
-0.4877989258771011
0.3922433962732932
-0.06719237905880072
-0.6947502553171124
0.5581456611796931
-0.6293204813872154
0.7659250755458422
26.58458135469188
-24.12650793300851
9.191028821517426
-11.64910224322657
1.512207405492582
-14.62323718734355
-14.3118843194145
27.42291410125595
-10.10267394579142
3.662168936981448
-11.81745502512198
18.25796003391752
-1.429866437971749
-0.6486255642102925
2.21106725184976
-4.878119649066873
-9.485934225689553
-3.427590596813227
-17.1413932419906
14.55205558864929
-25.46340670883316
28.05274436216602
-14.87906867635033
29.45349533354549
-14.57343588899252
5.336436107148438
-18.7798037144419
-5.077780227729878
18.52114783501958
-19.60267243249562
18.7177026913814
0.8852559252168497
-0.8203598425618068
0.3075794395318424
1.124980027138969
-0.6121996240870685
-0.2356341301486833
0.1627609853042478
0.2082317609075313
-0.1353586160561646
-14.05228042838079
17.8818110130635
-2.559878490517296
-1.269652094202953
-21.67317998542434
-14.97759154561081
17.04809909853905
-4.708316185976576
15.79233229662241
-23.88822963677721
12.80421352613025
14.84896729708899
-11.62106697196186
-0.3800070981231142
-2.847893227004602
-17.09292890205462
-9.02319160294264
14.70373876638838
11.41238173860711
-0.02952520070021546
0.01877323799550356
9.725879611430203
-20.25023011924359
-8.184401841420051
-8.443833910176512
32.55799813459294
-27.41571458195248
3.301550357532299
39.66535520256205
-16.63499227252417
0.7787201013630991
-23.80908303140317
23.52728963438106
-16.29426950915863
4.25036555425843
-11.48338567948568
0.1598686099348953
-0.2633799306342275
-0.4839255416750529
0.5874368623945881
-0.1176290396590886
0.09402165516801027
0.01171402410063755
0.01189336039649408
-10.20531447840421
3.514613694517971
-11.99225817097261
18.68295895478581
-30.54051002263884
25.67340447255476
1.531172642772565
3.33593290730421
16.60764406336282
-19.01192889807567
-17.95789267040735
20.36217750512007
-26.56081439158285
-1.126507718044412
4.120209429052
23.56711268057443
-3.482576498141337
4.908154211616857
18.21451849133863
-19.64009620481598
-0.9386340145334805
-1.521622196720759
1.351723849844364
1.108532361410304
-11.21810632774478
2.015062053526296
24.94907725509803
-15.74603298087952
14.27294921682044
7.285507935436056
-5.889084569939429
-15.66937258236309
7.322482692280685
19.97888914173521
-43.18956979966283
15.88819796564577
2.895680110049851
-19.34913001635055
-3.933317649349113
-12.71926112774561
-10.77325159397057
-15.57485115346962
39.06736387518582
-18.93632973895797
28.59529463554845
-5.703214625635677
-3.95575027095746
27.32070217079363
-27.16915970170142
-3.800148165681742
3.648605696587462
-21.59044072149162
-16.496053468683
10.12432565466743
27.9621685355106
18.59611344930376
14.14101442794883
3.000196207275548
-35.73732408453031
-20.22493054008379
-6.320144978551316
28.0771068777056
-1.53203135910823
11.48486399058705
-20.38381115324475
9.050565939902265
-0.1516187772438978
14.57028199871935
-17.48784886196069
2.918316829935946
-23.26480775958996
11.40093262303093
10.94440801558281
0.9194671209758553
21.60797331367194
5.187767851556856
-2.0347381878421
-24.76100297737497
31.03858037984088
-9.155910169956115
-0.9265528326558536
-20.9561173772383
-2.967794611175644
17.53880853686668
11.34676804236573
6.69477953547186
-18.90911884726332
0.8675712693779899
-17.50888771763527
-3.566123614215978
21.07536395165783
10.31976606250387
-4.163080653283626
6.501205990481252
-12.65789139970396
-0.4756889221660832
0.05838192873993153
-0.8942634185248169
1.311570411978895
-14.69438722888266
-2.094929140862984
16.78973398762948
36.66806967015539
-9.098149623899193
-16.74825499989025
-10.82166504636787
0.02551172860259051
-0.09660414132024737
-0.04653662693845471
0.04942622134260089
0.1149503030896619
-0.07035486925853651
29.2181690004319
-20.03636445231452
18.46565659610354
-27.64746114421641
0.1299391161952944
-0.1208268185838575
0.002601726494524087
0.2132912113596052
-0.08842442156640405
0.03789419551420306
-19.97503387025587
0.003433768988721144
19.9718153772608
-23.79488175466975
23.96448578761164
5.815378753254245
-5.984982786192152
-1.558703389365264
26.58020063219016
-10.70027542601135
-14.32122181687331
2.288646468086473
-2.21537535366468
-3.68111635388028
3.607845239489533
-0.1435692276036381
-17.28525316150597
2.527711030189971
14.90111135892847
5.842418067969501
-27.41523924134508
-2.277622880795858
23.85044405417052
0.02152044214452052
-19.99641792989737
35.21681222314076
-9.091961838932917
-46.4680657913138
20.34321540710308
-7.245196938397816
-4.340336407758114
32.36308801002106
-20.77755466386517
-23.05789383989078
14.84814379320784
6.140802078086589
2.068947968597806
-14.42602964046297
1.033614709487348
-5.7529161206652
-18.48036290658739
-8.565680230139634
13.8120513870799
13.23399174961677
0.8094984776170978
-0.5480759692218957
0.2057602998357716
-0.4671828082255787
-9.608898621531782
-20.27394360488464
9.249886785767391
0.07353353234106466
-0.1181499013085209
0.02848754055701401
0.01612882841766498
5.39578513683446
23.76712102680861
-7.651171634946538
0.05087327487121232
-28.53203825921799
25.79079257869711
2.690372405641039
2.39805258167161
-0.3930928225585479
12.5698187545238
-14.5747785136372
24.21003306121856
-0.2590689519660692
-5.278603627232171
-18.67236048203358
-15.87593109462611
-0.1672558179227621
-5.629993072877007
16.45375889187133
-18.38746254297011
-24.62711074048464
11.7859881239915
1.859815507080368
-15.0685625845796
1.422758953484798
-25.42614335489161
-0.5503149362669609
0.6521384525290552
25.3243198386285
0.8946915362639084
-0.9467650073519461
-0.3243016466941852
0.3763751177940874
-13.11615874549449
0.2207814778049436
12.89566288678679
-18.24925698103581
17.08201198917098
-17.0760966629564
18.24334165477401
-1.725909113137828
0.243543590672047
1.456724424933628
0.02564109752570514
-6.397819927587425
22.85200392661372
13.00247173753591
-24.86402835325876
25.29785185965497
-13.43629524387219
15.69718533487903
-19.43823674470376
11.03911770040962
-7.298066290586659
27.80410629140705
-13.26394267792552
3.666497546170915
-18.206661159681
17.65562498975567
21.89907251631235
-22.27495173806697
-17.27974576800404
16.7553999980851
0.9004451280841005
0.155241571276534
-0.01311164899883527
-0.08431390383460435
-0.05781601843556479
1.843770344686043
14.08525643474401
-10.87112863350306
-5.057898145927532
2.799281622533961
1.384870112500735
-1.425678124632309
-2.758473610354062
-11.65725306118446
-5.960177411302605
-2.598298424800972
20.21572889728473
0.01026571279431841
-0.1242960713155103
0.03116820879205773
0.08286214973509745
0.34881176649658
0.0702122340577888
-0.4159514876646423
-0.003072512881184886
0.0233985851705921
0.5848104882822286
-0.6234501601802935
0.01524108673638503
-0.7655821236154102
0.6926999022812614
-0.6003348746412653
0.6732170960115441
-26.03374972710123
14.37686958528476
28.41228013989881
-13.88230629494947
-3.604998412597543
-0.0254492223224636
0.1547954368121864
-0.127880472390469
-0.001465742093406659
24.20738666186003
-23.65212965557479
-3.523051617461483
8.001586789810935
-13.58414551088968
23.7690876797312
-18.18652895872856
0.01849034102409246
-0.04381978955908808
0.2386206598987982
4.27322709386108
-21.78172282088349
-0.307179745768739
-0.2456647856817309
0.4142688411146295
0.1385756903495471
0.01203804123344103
0.167327296307433
0.08366206008697856
-0.1285741883325859
0.05136630385893034
-0.006454175604157395
-17.79201931737312
17.28508534229829
4.548678663963778
-4.041744688884203
-15.79193027197394
23.34295969170467
-3.566465119292965
-19.77623768178734
4.776208001666443
-19.9336800822887
1.993026644679825
13.16444543604464
-27.28639426758759
-0.7006314763317782
31.60191821622769
-3.614892472313943
-6.580880238225904
-23.89757927384174
23.80609735385872
6.672362158204304
0.1080075981573761
-0.08128704775793595
0.001104016232621494
-0.02782456662468447
0.5062532437497833
-0.7258375307732523
-0.01019637658800317
0.2297806636316191
14.92425623161351
-0.1702724665641954
7.203457997351206
-21.95744176240163
-0.4487424697813801
1.084262687350412
-9.376154988235209
8.740634770651033
-9.638983673384933
-16.77999940517103
19.61403668190049
6.80494639664771
15.56358361482194
0.1027727712249348
-15.5503832986401
-0.1159730874072642
19.76702303778319
-24.19654953000205
-8.451122302194728
12.88064879441479
13.16383092811313
18.19267893981737
-7.82444522817349
-23.53206463975774
-0.2114335631058084
-0.5413845687736598
0.3502191627419387
0.4025989691440578
-7.314901619522189
11.12089338846923
11.60207753887894
0.5201578012454404
22.05772279848861
-16.01793377049685
-6.559946829235795
-0.09973087014702356
1.430237690383723
-1.325817931693943
2.416158177083604
6.053836879819979
-9.720269800696927
1.250274743813842
-24.93976276562676
14.36855729173053
32.17917878759332
19.0696121510661
-8.148830908575819
4.00347498912248
-6.801430182051205
-1.402353313875222
9.521076183554172
-1.317292687585423
0.1204739366766736
-0.1273348372541897
0.006860900581845712
0.07713593012853626
-0.1422819175982026
0.08765914900847144
-0.02251316153459605
0.09263967734002175
0.09821556314941959
-0.1321336534529813
-0.05872158703203666
-0.07509013422001316
0.1137237338419946
-0.01312187101530844
0.1325119779115352
2.905382808288916
30.42914681121466
-25.16990764900292
-8.16462197049969
-5.750749705952239
2.591961235997035
-19.39250753144928
17.08868313497345
-10.07116663539375
-8.321289737467909
1.303773237884669
-1.754874261996174
1.885236206535719
4.445024057859915
-4.575386002323482
16.01466623907809
14.20159752738773
-17.08698023388012
-13.12928353258732
23.88925854288146
-8.360932571487368
-1.224738748856382
-14.30358722256101
14.40011114821334
9.381269739366138
0.1078776552830567
-14.87555265093446
3.037370966645397
-4.511560775601511
16.34974245986399
-16.93549614837676
20.59005112148828
-16.37381610085752
1.810334225578817
-10.52446833352613
-9.382908043419821
15.47333581021492
-18.28680089662554
12.19637312981373
2.774591541780129
23.12065566674509
1.169328929544058
-20.46644811407985
-2.427891958689786
22.89467736029281
-16.94960743189824
-13.58547291817549
5.850567402302756
24.68451294772778
0.007175652836712011
-0.1114431110385125
-0.01655936037849576
-0.1421587563193656
-0.006084702481217653
0.1667337998282739
-0.1385409462108741
0.07351812002165461
-0.07723267733161884
0.02759043707691007
-0.2437440354212669
0.0167786676459885
-14.49376247125671
21.84915210516922
2.981524342248851
-10.33691397617494
10.48647721167506
9.269509936265555
-8.606226515486016
-11.14976063245486
-12.7255496770087
15.29893552245506
-19.07094998904136
16.49756414359411
22.33844717262325
-22.35658573208103
-0.2588784886571528
0.2770170481063307
-0.1393363790490786
-0.00619209322086589
-27.09725903096771
16.42228028832122
1.941108818439175
8.733869924179814
2.339730011106781
-26.29576695107794
3.140312755950932
20.81572418401986
6.160282987659113
-0.9942769866012333
0.3466637040350862
-5.512669705028925
13.83569876664456
18.0709216105331
-17.33094556326352
-14.57567481391437
35.4212587239831
-13.28822079243265
3.239043495271385
-25.37208142682631
2.394045242910968
19.63891622354618
3.504026909936136
-25.53698837639786
-15.14623881072822
-2.788638584546848
-1.948913324518318
5.730377231195313
-3.109359582563013
24.14927891532682
0.504722936456017
2.398029839992363
0.2305593893440802
-3.133312165730038
-20.70082127736316
23.99759974695555
2.43359876160184
-0.9899016459442462
-20.04191824401714
-0.139210537089167
21.17103042705144
2.425409107640263
-13.0673067939809
6.667324346693758
3.97457333964547
-28.48761472099174
28.52750892323917
-1.0297958481901
2.504081914220872
-30.35863801922262
7.81263786098526
-16.6217564642807
1.095738274911805
15.52634344559683
-2.324730478142354
-19.28297432247427
21.60796605314373
8.102548548978698
-7.835821316864586
22.03955068658455
-22.30627791870149
6.130087461884866
-12.12004967699159
-17.2053464762032
-11.56827084061376
12.07994555697356
-5.42660409181982
4.914929375458885
15.57987915179088
25.16705596190859
-44.83841928973445
4.091484176030355
-21.63034686812319
22.70292164928944
-29.560189502155
-5.539554685830056
5.513970077876026
32.48362105418072
-32.45803644623179
-0.7101111381309032
-1.130384483555866
0.02292918112171028
1.817566440579876
0.3791413702361967
0.5849122225746128
-0.717530865933937
-11.81870524555368
-11.07767846569592
22.89776823415221
-2.733558695624156
8.185336803353577
6.683503474776943
-17.07307981207417
10.62654613842151
28.41794277063138
-21.97140909697055
0.5682612702496502
6.670357512153896
-7.687361252239937
-0.2618144159155522
-0.1636137894495604
0.1946079396703176
0.2308202657083081
15.23190480745536
-8.466076154084144
-14.80410134106178
8.038272687686105
18.82798096147084
-26.9399857179426
-19.17596902993019
27.28797378638756
-4.197142486331114
18.68209414246294
-14.48454420432639
-1.888090952584411
1.67030603961444
-1.296400584650206
1.514185497645492
0.4986162898823591
-20.26155089285316
1.31206779141606
18.45086681155207
-3.992198764828732
-20.29274510892536
24.05548740969078
0.2294564640649746
8.224555905869488
13.83938195349132
-10.05610274084118
-12.00783511851987
-22.87519987684671
11.05770531021352
6.780942038341569
-21.17972730284239
14.22851279793609
1.700395275261159
21.9979577687588
2.466494445589752
-26.16484748961268
13.05496220847646
-33.6076956877241
18.08721436213166
2.465519117114723
-34.73055651233
-2.036857032320975
22.58482580620921
14.1825877384479
13.45338175985208
-12.67039310419754
5.298194494803155
-6.081183150392426
23.74245168520444
-20.54230539952789
-7.213648025794689
4.01350174011125
30.25957837767696
3.415541083063284
-8.734510786053328
-24.94060867468982
-35.14541856295928
24.90496316144326
18.43497188092284
-8.194516479370863
-16.18134621949075
24.54893674072242
-8.366870813998094
20.77025343553836
5.946917359383318
-19.51371279757085
1.164722480149243
-7.144959139423229
-4.779574372338
10.75981103171875
14.72747392191764
3.198146018026075
-15.52505913464477
-2.400560805300238
26.10439950152247
-3.605286286794486
-29.07657346416874
6.577460249439367
-28.80762024207341
20.08896463932918
3.840407124381992
4.878248478343759
-3.227695781198317
-20.36697765782471
3.207920291115713
12.52504784268728
-8.390468955894754
9.749246162170165
-13.88382504896657
-12.19772031561237
12.15599986300237
1.54509901205971
-1.503378559455757
21.44873851644898
-4.275107297269786
-18.39298356358769
1.219352344407126
-0.5392490797158059
-2.609044344608441
-16.30179715137261
15.07905348183847
4.731750479617125
1.346933219674586
-21.15773718113138
-17.55160811138034
11.35488174626223
6.665670730348189
-0.4689443652297585
15.11780631770503
-21.10269296475616
-10.66595796764793
16.65084461468879
29.36951246155259
-8.925286916672318
1.360771365216551
-21.80499691013435
-22.1196687177355
-15.08810823675009
10.7768019481133
26.43097500636091
20.25168927643102
-5.437090917963057
0.2644551233698633
7.584478612126045
16.43004658789271
-30.27826883152273
5.927863100582226
13.87266969241573
10.47773603852359
-11.13868133059377
26.51132295493114
-0.4819256030327209
-14.89071602133428
12.59432139316019
0.7382478654184189
-17.77522664343435
4.442657384935413
30.73860357621405
-7.235257563862297
-21.05623436102168
-2.44711165133049
12.6867573788276
8.436468957394851
-0.5637179473200821
-20.55950838890177
-2.961982084393027
-1.176147164808419
-17.05982606684707
0.8203722325614293
-5.15681998876199
-1.438945615742456
5.77539337207255
-1.280683634722144
-22.12920559333484
22.89161829532333
0.518270932725753
-21.64338797456138
-3.428282848323035
3.682959357181302
21.38871146570219
0.4602914915137982
-2.20262628218098
-17.44643625807628
-2.442009299867506
0.04731456624397833
0.0349178839758051
2.359776849752624
-15.53722702590405
12.04889270942026
-11.71693033015539
15.20526464663725
20.11468250981092
-18.43048027088113
22.66177324098566
-24.34597547992558
32.62156266263071
-12.85496838562316
11.27198610282831
0.01502052085829399
17.55980669987454
-17.57437101037766
1.922363620214682
1.717043586456648
-1.802794802822331
-1.836612403789468
4.264884971680892
-3.538974427943406
26.01770898147733
-26.7436195252181
22.59300037785363
-23.33220338395869
-4.794815593488884
5.534018599590286
20.59764807966428
5.669479680999015
-7.042195722878207
-19.22493203778974
-14.01189970267989
9.121346394236982
14.10658866698612
-9.216035358544177
18.66794465798168
-10.99353416642269
15.03392694382956
-22.70833743539045
4.265958758133999
1.232481861576341
0.6618423680199613
6.53906549043906
4.680490174588048
6.184653058678816
-17.40420872370103
-2.20637478877975
-10.23967076850728
-6.634595274198809
-20.47051138687647
-15.29933569934592
50.14671667150469
0.02080001308888832
0.2790229254864921
0.3031722862591126
-0.6029952248017889
0.6256379384365475
-1.347360209220158
0.4440843879734696
0.2776378828279177
22.52659082577083
-28.64330895857429
-8.849462204814515
14.9661803376123
6.678311844264591
-4.868533332103508
2.514085732771977
-4.323864244964865
12.74191246078517
4.640625116617656
6.551555325446128
-23.93409290283954
15.01749459402968
15.67695740217722
-15.76380197295576
-12.94802859355662
12.26675961847932
12.80019436180583
-12.11892538672862
-22.90656670677637
10.67466511581486
12.2326655337771
-21.95890712717173
10.01640747336832
-1.005528939752258
-8.970293633684937
-2.582267420221879
23.81932067237726
-23.66435753109536
-0.4284040465400348
-0.5707038562191069
24.66346543382616
24.44243982438629
-5.403508491621011
6.991916256059888
-26.03084758882807
5.882065105969298
15.25586610750107
-21.29666530121817
0.1587340877459717
-11.2853799624021
13.1902274792213
-19.9493568598299
18.04450934300919
15.72624618811084
29.44264807133745
-46.36874403246985
1.199849773019947
20.45775011136947
19.47230521060801
-32.60757262969761
-16.73174329815232
-0.330275112533428
21.32690338236464
-11.16642935635628
-21.07865638535437
25.65214339792353
6.592942343777181
19.9477925802353
-1.341428987887666
-18.60586192974926
15.76094886491214
-0.6525239083972758
1.612935671384905
-16.721360627855
-6.115854035199105
32.36344838588032
-22.52201801604543
26.4612878784999
-15.57485853081492
4.614598554398164
-15.50102790208918
30.09730003115165
10.77225547988201
-38.79589523321663
-2.073660277854987
6.040586029055492
9.473103922098892
8.447286544534965
-23.96097649569094
22.62279326119631
-20.84267662105716
-1.780122462538714
14.84293073453027
8.901556132830541
-10.35001942641297
-13.39446744096221
20.44251887652728
1.922762136701477
-22.31740684505662
-0.04787416817055795
-0.01852639025952322
0.07052735228335771
0.1276252393033812
-0.1796262013176353
-15.84994543009843
10.31913402969618
5.531533550394379
26.73986246945791
-10.62205118978358
-2.10107307745499
-14.01673820221929
-9.612290809501289
-9.922964605700681
19.53666656202831
1.599667735534653
12.21518792763638
-16.93055440263912
3.115698739459164
-23.34051769256484
19.71914303591221
-14.87338407046416
18.49475872707697
-0.2531365950348411
-31.54569413829109
7.7767228502862
24.02210788302979
-16.26597042305397
-12.83032551587844
-8.139117158835436
37.23541309777058
-9.153240627854567
-32.40472011831776
10.62816913181036
30.92979161436006
-2.930652978387103
19.60375714686091
-17.64394791041877
0.9708437419456171
12.00074356920752
-13.85851618688378
12.40061918717656
-10.54284656950123
19.60587819287963
0.1964233925908265
-19.80209755401652
6.01942155302411
-6.238806885922806
-4.634247683011941
4.853633015910061
-4.078853167690686
-19.46744441369312
4.538678707647561
-8.495601433857829
10.46459838289666
17.41538246082091
-19.38437940985721
-1.728287972424194
19.57377404314214
-28.32108562928023
10.47559955856196
0.06247037285667085
0.8529075454719761
-0.2897399798737799
8.105647781736828
-7.71024568545898
-12.21354028882424
11.81813819254624
17.82791160983993
-5.816690412113748
16.94458219468071
-28.95580339240635
-1.654147516335055
14.42298497405987
6.663407260758482
-19.43224471848633
-0.01127730392277605
-0.1575842758238293
-17.6862922561537
30.40053808361372
-8.796652409318856
-21.79233103522334
12.20193129141496
18.38705215311991
-26.86912757421085
-2.856414073854985
12.99379834991214
5.69991456641466
5.807419984608007
-20.47155197182362
8.964217420800196
-24.19993018573124
-12.81182070729789
10.14262331881639
0.09090804668717545
-0.07213480868976947
0.110082692668571
-0.01917464597890988
-0.0674845467248114
-0.2351956108065241
0.1303368384103891
0.1723433191374958
-7.162626566425494
6.517880318830391
-0.08900413318391651
0.7337503808332471
-0.03293249557992564
0.1973444669320817
-0.09035136107886489
-0.02980782333634329
0.07715019708956571
-21.61489081063139
-16.43202911854699
42.17837229065697
-4.131452361479353
0.1418117172224267
-0.1068993438082711
-0.02805147282839276
0.08157444652950803
-11.43967757089898
15.46507536484756
13.41463843637251
-17.44003623032329
10.07695145302334
-10.31134490302364
11.79942072060294
-11.56502727060316
0.9030938886727941
-3.83285565371627
0.001849728097903512
-0.07908240542559782
25.00079047717183
-22.57777923195477
-6.239271787571357
3.816260542352312
15.58813429151556
-13.20287394727947
-5.66660248882683
3.281342144702857
9.623710300316777
15.5415858862998
-40.70252321252201
-0.1415612292761429
0.02197077356074201
-0.02480693021767993
-0.09376798465894913
-5.575264246169115
0.9267279357856451
-15.57975942398761
4.555914885222701
-16.80430682654012
12.70756139581175
-0.4591694544861152
-8.671540067918137
1.511700680792091
-10.37960032635638
17.53943971348236
-8.241807895428115
-12.75790021391086
-16.46002365764102
37.4597317669767
3.554644320629563
-6.679306252335234
16.47011825125693
-13.34545631951372
-22.58030977884833
29.81044886381998
-7.229838004244383
-11.13843362520845
14.22169118361136
31.40438750069763
-34.4876450591194
24.11997386774301
-17.5128726472651
-9.777662367153113
3.17056114666806
0.008776914549356859
-0.09824925202460431
-11.97399664451015
-5.303718814357286
-5.179479042747457
-14.2056539246321
24.20256464921044
-17.38804568328899
7.391134958721864
-0.03819834662059933
-0.03689178759700648
-0.06300527683694611
-6.055952062571869
-0.07808343694752476
5.401682373368838
0.7323531261605909
0.01322811266130761
-0.03051588761215611
0.132238078044903
8.474592757550298
-12.85011838285499
7.849960319442395
-3.474434694128085
-1.049627930219389
-14.6850843918713
-3.662080373996312
10.67184680052649
-4.287548567604939
-13.61556308602606
7.231264853148124
2.661547708331184
-2.699996410251678
20.80275408854467
-20.76430538662715
0.0433688645861589
1.113406329635248
25.55507190577021
-22.13930526699232
-4.529172968454183
-24.5469686977033
6.480662865518908
0.2291338449945552
17.83717198718793
0.7145995502101604
24.03045484840385
-24.74430449056853
0.1130119015166753
0.1613117936203904
-8.413677934545714
11.53004545646457
20.22659216978526
-0.6552786079492252
13.2707350705815
-24.56990479322031
11.95444833058526
10.32733228484176
-0.7400765780930799
-2.047263710818203
-7.53999199593171
-20.45749276420966
7.658583031702505
4.303308298652041
-2.735065965697836
-0.9993340540821094
20.99280094238652
-17.2584009226152
11.795990041452
6.338154974005304
-18.13345557655181
-0.4681951822420453
0.00568981631409327
0.5126213707212924
-0.05011600477507252
15.2273312681586
-9.334432712391747
9.670685059054611
0.975719301046349
0.1411530515550535
-0.003377817579326664
-1.1134945349078
1.227708258732375
27.40673721897119
0.7350669838052055
4.170526020967791
-1.258795221604547
9.389753982796032
-12.30148478217372
-3.903492797937976
-9.009659209487518
-0.4310270966408769
0.8901959431269736
5.198131906503861
14.21518960489218
-20.3035174545285
-0.4300349174077031
1.454207563306818
0.940757857694408
-1.964930503531952
17.57735124930171
4.741267903540141
7.580121182254634
15.55871009690035
-19.74386357077905
-3.394967708375296
-3.693092502321027
-0.3712340578462347
3.311514266789016
0.7528122933814791
-1.377702687192185
-15.06335810099437
16.44153196022377
1.109100825586928
-11.11970428827861
-7.184103904682314
-0.5860329499288426
-7.862693489409861
12.50653408305489
-4.057807643723873
14.48259074147537
-9.865964555598394
-5.202659135811611
4.983676128194929
0.1907220209014521
-7.486558426255715
2.312160277170305
-0.06431724042330668
-0.008559306172939766
0.02752374330524745
0.04535280329515449
-15.88285836285336
-3.027353764352981
18.1768446343567
0.7333674928466313
21.17508169745682
-22.24293894976845
2.320039838784413
-1.252182586476802
10.95426131570194
-6.637674861577079
10.16600428735073
-0.4734312655739846
0.3757116715527844
0.09330925136318079
0.004410342701730545
24.16461452622548
-5.665668667674241
-0.9872805061199635
-17.51166535243716
5.019524903421678
19.15294007980734
-1.003386769628859
-23.16907821363099
21.93099184675655
-12.22539148727295
-0.9455737954653463
-8.760026564023919
1.251402380355697
-0.2020033788005376
-0.9761310319346663
-0.07326796959928847
20.95920378800987
-13.36071235494322
4.156053623038192
-11.75454505611176
22.85266459055606
4.232264869950167
-9.351156909277487
-17.73377255123132
-16.93303196769494
-15.48207807773353
30.71325380924943
1.701856236188706
0.3231097650609874
-1.008923218179124
0.5495287314715028
0.1362847216719296
13.69561175628637
31.4282065579451
21.79599178248859
-3.365821089717896
-12.99761529166513
-5.432555401112571
0.3703103121095881
16.54494417264999
-18.41345878419586
1.498204299413041
-31.34376818847335
15.48845382582711
8.198636548476124
7.656677814150591
-20.22998345136249
-25.09621465788856
25.91472632826747
19.41147178098388
-2.354923137475158
-8.119841917040567
19.45561575930584
-8.980850704790821
25.16804329020698
-12.38902997058068
-15.13393645710569
17.53598806860261
-0.5813399591675911
8.213395180766465
-2.617412693228343
6.622913611327301
13.53048715049572
30.49389023785089
-39.18668351279742
-14.36510056494309
-26.32040844681414
-7.583034492090524
29.69440528430806
4.209037654591746
-13.49466507029344
16.63974438850107
21.47969737378106
-24.62477669201369
29.01391614756803
-34.6846909118132
20.27698534500129
-14.60621058077802
-18.54299041893161
-8.3500127943539
22.99750177227972
3.895501440932222
11.48606072761207
-29.63165032933926
4.650924531378693
6.450734748280583
-10.85497454835267
6.998933110514124
-2.594693310331774
32.95780108432044
9.6108109604377
-1.658411346100316
36.35282468028453
-13.24357123974655
-21.4508420944476
23.21023970141547
-11.89407423147826
-11.31562820347079
-16.33638658716579
19.11545922572837
-3.058732878323802
-16.05641879375181
-1.055812717823981
0.5598765350627773
-0.2642518871600144
0.7601880699088359
-10.94902559725629
-18.67564783435823
6.139072431347214
23.48560100028402
0.1600912333537173
-0.1751567102287876
26.07537375641006
-8.8924405900894
-3.895664953594777
-13.28726821271908
12.45720935153859
9.721983681502687
-10.69432904245368
-11.28897795392755
15.80985342184145
-21.38102426893738
16.86014880098089
5.432945292307606
2.842003221326217
19.02407560148314
-27.29902411512635
0.2914559480148645
-0.4049247567010938
0.3174507363511514
-0.2039819276347292
22.19336058353003
8.883118280557179
-25.64353357181223
22.41164494198863
-18.15955362966446
12.00288240952403
-16.25497372185173
32.32362693556692
1.082662576457812
-9.537058893299715
-23.86923061871569
2.439792315418825
-27.78132772422046
26.51025682260596
-1.168721413820688
-12.24391140335403
24.399482314323
-18.87992154756648
6.724350636601121
-17.18018631411449
11.9278981355504
-4.818878456841691
12.70400058849006
-30.63781237766955
22.50096365190215
-4.567151862719153
4.408670973221286
-5.171487058218956
-21.19462567740451
-32.78401904048483
26.65052353444998
-3.609389868615343
9.742885374646342
-4.560422081509986
-22.27192859406748
13.57355005458701
13.25880062098945
14.21219602815321
-11.92126632992995
-5.805643916112929
3.514714217889021
-0.2929484679293228
-0.7262210969254189
0.5735422382233983
-23.7993108284993
26.12387651872741
-35.10858473071875
21.71046760845974
-2.200360004786787
7.140415930773699
-2.900457298152199
27.99457606553545
-2.613751111000366
-22.48036765638783
-21.95754427563731
24.56441450849791
5.383769706257612
-7.990639939125054
17.11043022415133
22.30174269054686
-28.95775385514796
-10.45441905954354
32.32966251497517
-30.1359227794433
3.544161659544774
-5.737901395066758
24.29206847753933
-14.49055038423786
-13.99289639608304
4.191378302777173
-34.39048772917263
12.18756720590317
32.90813156191859
-10.70521103866063
-24.23259412449313
12.35103217584584
-22.50892578053387
26.8587850699756
-13.15901045858356
0.3034741379953826
20.14770713916602
1.597424793916213
-22.04860607107646
-5.887058660005183
-19.78434966254535