/*--------------------------------*- C++ -*----------------------------------*\
| =========                 |                                                 |
| \\      /  F ield         | OpenFOAM: The Open Source CFD Toolbox           |
|  \\    /   O peration     | Version:  v1906                                 |
|   \\  /    A nd           | Web:      www.OpenFOAM.com                      |
|    \\/     M anipulation  |                                                 |
\*---------------------------------------------------------------------------*/
FoamFile
{
    version     2.0;
    format      ascii;
    class       volVectorField;
    location    "0.7";
    object      vorticity;
}
// * * * * * * * * * * * * * * * * * * * * * * * * * * * * * * * * * * * * * //

dimensions      [0 0 -1 0 0 0 0];


internalField   nonuniform List<vector> 
19632
(
(0.00374847274281853 -0.004508364466944444 -0.00300505516289326)
(-0.001705757808216991 0.0006873713691868714 -0.0002743238380046551)
(6.245468530059258e-05 3.928987047427669e-05 9.429139621351289e-05)
(-1.500433866037941 0.1094878279967348 -1.091344215044249)
(0.0001107895962072562 0.003261900315170103 0.0004559925535628453)
(-9.924286422078961e-05 -0.0001604321458894693 -0.0005985937368494304)
(-0.001959069578972198 -0.001242298854029596 0.0009103509052282914)
(-0.001217418202255803 -0.0003834032246895409 -0.0002148063957002509)
(-0.002236061934385523 0.001528838537881356 -6.561487982949772e-05)
(0.1914192785025419 0.30072826676257 0.09541551919698518)
(0.03557105333026762 0.0582969288301322 -0.00238399170319441)
(-0.001213947843254987 -0.0007240454603287899 -0.0002578420503262912)
(-7.299555136985596e-05 -6.859016985178884e-05 -5.249974191874337e-05)
(9.614428590080685e-05 -4.551743015082104e-05 -3.032713976520439e-05)
(0.00597925743035314 -0.006833368188395859 -0.002312334686456843)
(-0.0002561007277424817 0.0009570248683572723 0.001365023600831998)
(-0.0001203739957430542 3.698776754899747e-05 -5.3215809690192e-05)
(0.0003340297105029395 -0.001477681874456271 0.001136271041237863)
(-1.215512905419991e-05 -5.842869747969362e-05 5.304812820479147e-05)
(0.0009696182470312484 -0.0001029757558377219 0.001123240122060229)
(-0.01916756375151333 -0.0003925352711962914 0.006430009185889891)
(0.8458526760084292 -2.180243474474378 -1.147570205616294)
(-0.01486506992467682 -0.01151001165972744 -0.02705849524448528)
(-0.001427669456570952 -0.0001655781070468771 0.001764295395462957)
(0.0004129033116215231 0.0001967888343087415 0.0004195260902551892)
(0.00136818661515529 0.0002829352490820595 -0.001177155540314534)
(-0.0005668237223087547 9.285297239637459e-05 0.0009915763981121655)
(0.008136828992195921 -2.80100882806465 -2.84387914924916)
(0.002128491680875766 -0.01251198171581555 0.01858491304549825)
(-9.160599318106087e-05 7.774607475997779e-05 5.552077152932687e-05)
(2.324714095038472e-06 -0.0001090808156298663 -2.772212031065007e-05)
(3.510262340765389e-05 -0.0002659858554956605 0.0002699245960036115)
(-0.02653230328901276 -0.04605674066228745 -0.01391884856428473)
(-2.553347440078398 1.261736469719303 -3.208007458229313)
(-0.0004097301273369113 -0.0002543459608715122 -1.44118747587447e-05)
(-5.578466408632973e-05 2.540177726803149e-05 -9.102682131474993e-05)
(-1.205537489150832e-05 -0.0006433013636691148 -0.001177334328214922)
(0.0001822556319251775 -2.745939061832714e-05 -0.000854216227716037)
(0.0002423667006546667 -8.653176887913767e-06 0.0001677649827782799)
(-0.000789577228192475 0.003032468497107802 -0.0001344870493860178)
(0.0007187205750800595 -6.72069634192528e-05 0.0004275875907358438)
(0.0006278189654334229 -0.0002490202626850077 0.0001622990873439835)
(0.000625558746776008 -0.0003367922168841406 -0.0003547953213060348)
(-0.02553894846446294 0.004299491154852582 -0.08849981955158404)
(-0.0005314109537407568 -1.092589480623912e-05 0.0008397668443223063)
(0.0005396542286498324 4.880346549829197e-05 -4.619847736417601e-06)
(-9.830590266701237e-05 1.346463484714257e-05 -1.189166670791293e-05)
(7.828025613823335e-06 -3.471693553027876e-05 3.985307712467806e-05)
(-0.0002671364217009495 -0.001145539321197825 -0.001294941438420841)
(6.014942954427616e-05 5.174954892188209e-05 0.0003256499609269761)
(-0.002705832664433366 -0.001138248629119089 -0.0008746904241860123)
(0.004114245251250071 -0.0007292594023087133 -0.002635148488545472)
(-7.459193241418383e-05 5.421551374998205e-07 0.000237000515991907)
(-0.0002673527921173271 0.0001165088584134103 0.0002594976243881846)
(0.0001530843956012145 -0.0008992075940848812 6.492395274202373e-05)
(-0.00387534991589166 2.914025306230406e-05 0.002107695236608178)
(0.0001499797971252187 -0.0005057381309219592 0.0001931264897841975)
(-0.0002766337291148702 -0.0005125925096236268 -0.0009989691281442588)
(-0.000150031072193614 -0.006042302092934784 -0.003574284343558191)
(-0.008913071470345695 0.0226016576547765 0.08094417951595963)
(0.002805211324023262 -6.126552345550056e-05 0.000553851865924567)
(7.855229827650507e-06 5.152458731922375e-05 -3.865992512663254e-05)
(0.7643144780927775 5.620291727524981 -6.429939216550283)
(-2.181931215446694 0.0880056815892154 -12.00183100543993)
(-4.777401713998265e-05 -1.016461102936643e-05 -2.455591806092948e-05)
(1.674198453883521 0.8750848701611758 -1.030335944709086)
(-0.5536777732961899 -1.628716328629334 -0.8762535318514844)
(0.001245091734913829 -0.0003631793732910338 -0.001098052460056455)
(8.159372564358429e-05 -0.0001910590553148037 0.0001021675641042353)
(-0.0003016656969494558 -4.728353231585343e-05 -0.0002541953559188472)
(0.002532053431689921 -0.002061088499092318 0.00223190745493891)
(-2.094669330492945e-05 6.139355659323659e-05 3.086091444478323e-06)
(-1.690663358109771e-05 -3.280868293018547e-05 0.0001921666106709389)
(-0.0008960273433155088 -0.0002497436322534313 -0.000842342066428842)
(-5.055227452723908e-05 5.200317878563744e-05 2.254312466323273e-05)
(7.763716689260217e-05 3.231749808101825e-05 1.514317405312943e-05)
(1.900931809249042e-05 5.240174146113736e-06 -1.027619893629891e-05)
(-0.01998716385915971 -0.005398046057367461 0.08632973253474682)
(-0.01646374568965285 0.06766416010969661 -0.06777637052281554)
(-0.009640152570485661 -0.01347365701321286 -0.003807319648667316)
(-0.03964614258088851 0.01133334675421863 0.05053384705356673)
(-0.935002481428133 -0.1987489203810224 0.124485304342444)
(-0.0002215903364413371 4.879555755790497e-05 0.0001072785880850454)
(1.769721467226879e-06 0.000123869417690803 -2.506976609718423e-05)
(0.0009489859699961343 9.990334841056031e-05 -0.0001609483841326163)
(-8.879905264663036e-05 0.0003714399943267733 -2.927037022681386e-05)
(-8.19805482830005e-05 1.84162577224871e-05 -0.0008894842615650207)
(-0.0004443643818676842 9.272921124526085e-05 -0.0004068987777630673)
(-0.0001203457862371952 0.0002888312346089493 3.957423110930092e-05)
(0.0004399468078519182 -0.0008221676503235988 0.002440830361342541)
(0.01568952375843201 0.01313817046564457 0.01407689418810018)
(0.002391928474917148 0.0004662709051030905 -0.001006599987517311)
(-0.0001245189798744393 -8.848758377636077e-05 0.0001482795112207073)
(-0.009177962314364463 0.002421435080242451 0.001047132212968014)
(-0.003080136142914287 0.0001865949398853164 -0.0002919462814441746)
(0.0008027704065322129 -0.0008016880732556902 -9.567337934279061e-05)
(0.0004756100056249767 0.0003780639492431238 -0.0009946843331672809)
(2.555307377154641e-05 2.090862896935037e-05 4.613010251096388e-05)
(2.018706882946e-05 -0.000259924995615589 0.001443833189196918)
(0.002604877033419665 -0.000244183919304516 -0.001353416036555702)
(-2.501495963317449 9.926341814843807 -3.467118340008445)
(0.000267381205701694 -3.106044453555546e-05 -6.534223808126622e-05)
(-0.0009917264462036847 -0.00196850309705446 0.002064569265314913)
(-0.0003502434924241786 1.709349424895068e-05 -0.000548937656508858)
(0.5148363321910674 0.1859630947858202 0.02826741410662875)
(0.1436464739756393 0.01756025491075786 -0.00602661455220066)
(-0.5989003626398504 -0.3233283208089539 2.043833813243588)
(0.02106594232301526 -0.02683894254122134 -0.01777409177848429)
(0.001949587660294753 9.599583869923199e-05 0.001471480538065422)
(-0.001538556193663522 -0.0005254479149142474 -0.003253357538271014)
(-3.140955780912605 0.7155573751003736 -0.7630369930465304)
(-0.0007717968513399376 0.0006718549308219427 -0.0006593830950963774)
(-0.0001296156385999833 0.000383764375085594 -4.938079180619433e-05)
(1.079840860858527 -1.40206151600154 -0.4356227442058748)
(0.001318086998127895 0.000374933793301592 -0.003197474893719056)
(-0.4479375786365568 -0.1160180407385732 -0.02224412228203211)
(-14.02867184951929 12.64452318870161 -5.760010824294262)
(-0.0988727292739941 -0.2041678296980098 -0.2391678448568439)
(9.641588279055781e-05 -0.0001475630003789941 -0.0001724282190382987)
(-0.0001028227441362222 -0.0001448785385569111 -0.001201224048404273)
(-0.0007641075494427668 0.0005589103126083195 -0.0002081617118223253)
(0.0003516411837776992 4.667881242625173e-05 -0.0003687108501966313)
(6.754554775683204e-06 1.611809848498546e-05 7.241844247807647e-05)
(8.58818422128304e-05 6.673524930610095e-05 2.491098266097601e-05)
(0.4088173933486197 -0.2467189479755608 -0.1469080980692326)
(0.02570191279224299 -0.01001805854172876 -0.02064066295638291)
(0.0006484219252299844 -0.0003016981360683912 6.822898848523793e-06)
(0.0004253229110249462 -0.0007186682722802522 0.0007931600920280464)
(-0.0003666875284207247 0.002577064146769951 -0.004647903477001317)
(0.0009191366584477002 -0.0001229565728066104 -3.039307404871222e-05)
(-0.0001123923841156177 -9.109892061968659e-05 -2.814304586475934e-05)
(-0.0001370700497376468 -0.0001072919249934565 0.0001673739661410235)
(0.01722336993439966 -0.06346239897045505 0.02812983473497358)
(-9.604945012719603e-05 -5.244166051264445e-05 -3.370337929809075e-05)
(0.0002778492528536786 -0.006343638276344269 -0.0127918916578568)
(-0.01478467022575643 0.0001247489963071011 -0.003369007287324401)
(-0.0005456296939633205 -0.0006544318468247467 -3.057360419567612e-05)
(6.574332393915675e-05 3.597002954683401e-05 3.522058942341741e-05)
(-0.000532309274098885 6.545766479458545e-05 -8.481246513832549e-05)
(0.001504468595389414 0.0003502039488423062 -0.0005794655392097254)
(12.9622387936824 -16.19023430213909 -49.79930213558845)
(0.1839284706132771 7.340325995217123 -4.984680597698614)
(-2.323366874165508 -6.985445366968944 -0.1960455485949435)
(-0.004985546717185318 12.94342835444861 -3.672391447381844)
(-6.058359733106396 6.969791119901792 -39.15981412086731)
(2.190037541863641e-05 9.208900129323873e-06 8.205397228554358e-06)
(-8.488869331275762e-05 0.002787309622225865 0.001458808842363842)
(-0.01084063885581471 0.01412996716710393 -0.02934684776980552)
(-0.0002238653519281721 0.005009346272791279 0.007493095269614327)
(9.396711948244827e-05 3.017096761528075e-05 -9.730756975052543e-06)
(-0.0002667581062117476 -7.426260143321881e-05 -0.0002562866051216274)
(-0.0005744491580600116 0.0002523180985291586 0.0001663879227208913)
(-0.0008412066261795181 4.234545003253327e-05 -4.119845480537502e-05)
(0.0005317091865713146 -0.0002438556145958751 -0.0008236577276113876)
(0.0004900984038791914 -0.01793639543294695 -0.0002479832433095836)
(0.0001079310261723525 0.0001500844472170424 -9.024055481883912e-06)
(2.830772641965799e-05 -7.365177067222773e-05 3.026289611934973e-05)
(0.0001014580256461216 0.0002951546669553879 -0.001501456956834903)
(5.59331746820989e-05 -0.0003997081728889139 0.0006126803065012971)
(-1.421635578805174 8.045090328479946 -3.053721626696841)
(0.1005929565326249 -4.027237500110871 -3.119535396169954)
(-3.488325335328617 -4.485803665300676 -4.221293596573326)
(6.327580303476141 -0.5340026144399006 -9.76676243053608)
(-0.4651646293716017 -1.605230024718392 -0.8284316525320633)
(-0.0004704781937702594 -0.000259483828269731 -7.556265784112419e-05)
(-0.001411088129220499 -0.001598656874029461 -0.001256350933440431)
(-0.0008687197541537032 -5.270262882706587e-05 0.0004271476788417502)
(-0.0003446606152136312 0.0001150811259688068 0.001585560136225403)
(0.9477007492851707 1.001322938640883 -0.01612047454073928)
(-0.0001135521412467528 -0.0001227438582000185 0.0003634331980291745)
(0.0001778795837648772 -0.0001104862422216759 -5.942006009415377e-05)
(0.002180716897130238 -0.003582696498447623 -0.001454996738995167)
(0.002896418054373493 -0.001893404180203354 0.0003045115134333112)
(-9.16193678738965e-05 5.383964018831325e-05 -7.78316057836585e-05)
(-0.0001329345639621098 5.701203016278623e-05 0.0001253672243087267)
(-0.0006387571504661386 0.001891554272501522 -0.002705843239421087)
(-0.001019462806305374 0.0001316476816742242 -2.947552105097822e-05)
(0.003315789571986191 0.001168017183105801 0.0006596005461534018)
(1.550338662036382e-05 -5.494064199201685e-05 1.034533623245749e-05)
(-0.0001611828565276536 -9.175957203930181e-05 5.849280741118486e-05)
(-0.0001043441447782673 -7.532601695647545e-05 -0.0001701582773264922)
(-2.892232070053141e-05 2.619235293518495e-05 2.715163471854908e-05)
(1.510959496338873e-05 -9.098605466974616e-05 4.629299382284235e-06)
(-0.0003872130261405769 0.002921739238092006 0.0001036456745609736)
(-0.0006149194694025143 9.944174435475459e-05 -0.001354595964109804)
(-2.094991365097645e-05 -3.665256828368e-05 2.189928967148457e-05)
(0.0008389022615515429 -0.006510897918929177 -0.00332143345181904)
(-0.0003417104295611664 -0.0004122989324595398 0.0001213417907401957)
(7.858842173991335e-05 3.439876129710103e-05 0.0002726093674119289)
(-3.512221864309002e-05 -6.181291781044862e-05 -2.996121057862432e-05)
(0.0002242735286870512 -4.573397518019024e-05 4.352057446280053e-05)
(-0.01680213020425545 0.005580811089728301 -0.009951294373832143)
(0.02036435273873571 -0.01606508699311708 0.01362631686096137)
(0.008813330740478839 0.003763592477798174 0.0004679304151758643)
(0.0002631581414596742 1.585508491212532e-05 -0.0006114591919655622)
(5.824488168471558e-05 -5.174620918631251e-05 4.499838604404044e-05)
(0.0005032194340546364 -0.0007079353931387834 -0.0005121691395114586)
(-0.2444633729052139 0.4450068404481056 -0.1125366013185857)
(-0.0002756904681134539 0.0001450488917443024 -0.0002842869903489595)
(-0.002131072929459674 -0.003449488686012712 -0.0001611713740291892)
(0.00229918822291484 -0.0002704529342912508 0.001510700999634867)
(0.002627220054158518 0.001403993987867733 -0.002630566674486652)
(-0.0002605805774477345 4.277111927332545e-05 0.0002264488244835271)
(0.002189391632594427 0.0003356734418466478 8.963935468290842e-05)
(-0.002966237365325718 -0.0001483043202535825 -0.003518962987325035)
(-0.008880913719166267 -0.002454592639317771 -0.0001446389324726196)
(0.0002152397996293623 -0.0001254971478237563 -1.165543905901745e-05)
(-0.002006998396572757 -0.0009936133079120222 4.22570994769599e-06)
(-0.0001349307780282909 5.112226012984449e-05 0.0001548904699444821)
(-3.570352660192849e-05 6.633719813068237e-06 -9.277773869729494e-06)
(-0.000359558515575458 -0.001098849671455952 0.0009118264095096434)
(-8.370380107292763e-05 8.87938070343399e-05 -1.896640034363489e-05)
(4.466046892811227e-06 3.635194877218325e-05 -2.298540622781616e-05)
(-0.0001941693787418807 -0.0002691147554426987 -0.000450060384433842)
(0.00210439744674479 0.001247042173815479 -0.0002155617108562343)
(4.028781569621193e-07 0.003119499096144834 -0.0004513478301144748)
(-0.0001927971078885131 2.329116032720067e-05 4.505340604784935e-05)
(-0.003390104831198456 0.0006325658578562115 -0.0002213905508221115)
(-0.000256326548747514 0.0005249217933645641 0.0001971858603557867)
(-0.001186066913295144 -0.001782933403299197 -0.00514679945764512)
(-0.005145942438972666 0.006094988205377727 -0.0001202873904250388)
(0.002200916098505746 0.0007537122552684729 0.0003203613768201945)
(-0.0001719181517075473 -3.156673964903092e-05 -7.325577168378601e-05)
(0.0001156600624754669 -1.250520699309211e-05 0.0001063739101393002)
(0.00040624383796201 -0.0003833041957067011 0.005161175184594586)
(-0.0009059939236840531 0.0004825489764264374 -1.288517455273969e-05)
(-0.0002417295697620504 0.001572803261617553 -0.001447960210068141)
(-0.0002232542977098378 -0.0007484626025775572 0.0003101284762679374)
(2.137639889127456e-05 -4.449567983869849e-05 -0.0001431257303999733)
(4.276322554155787e-06 5.239595974489855e-05 3.121898998180256e-05)
(-6.543644600348945e-05 0.0006873860297219234 -0.0006788648294478758)
(-0.000319933911929037 -8.038615949082302e-06 -6.247495422317844e-05)
(-0.0001964096722346685 0.0001960395911106064 0.0005109055673439266)
(2.521257926467413e-05 -6.10436698552602e-05 -4.347038875751338e-05)
(-0.0001563335293478152 -8.632620366679471e-05 7.59292729036474e-05)
(0.0005735549507353352 -9.698615896483435e-05 0.0005928619370334427)
(-4.257644488032266e-05 -1.03070194226171e-05 1.738661595458514e-05)
(-7.501678903113146e-05 -0.003008537571411003 9.302754681013393e-05)
(-0.002599846508403224 -0.001145690770678389 -0.0005174365048575028)
(0.0005541206431681846 -0.000482513137901886 -0.0001367502952490397)
(0.0002666410245747546 0.0001218598439532079 0.0002103537902445527)
(0.03569105154017977 -0.001422881274083343 -0.0301227293366641)
(-0.002565317756097158 -0.006839640246674858 0.0001929206536779491)
(0.000508715551625187 0.0005723102267958961 0.0008529610478696804)
(0.0001172443733740523 0.0001135152546947243 -8.695367780361744e-05)
(0.004248761655647938 0.002176449316828267 -0.0007557254041083186)
(-0.0005910651667783551 -1.197673157996704e-05 0.001042374714972016)
(0.001602189880786517 -0.001336293879790192 0.0007519579614682561)
(1.978951581848901e-05 5.873093728636938e-05 -4.484667949149809e-06)
(-0.0001491400751927534 -5.841645871931502e-05 -1.900069197270819e-05)
(7.269171117313893e-05 3.6951769252589e-05 -3.446290488171404e-05)
(-6.079185985412689e-05 3.919580722133943e-05 -7.882239569651625e-06)
(0.0001296268890619578 0.0004825200987321189 -7.247681645353232e-05)
(0.003355442307987068 -0.0007822746260473794 -0.0007517395772888976)
(-0.0006420456673740578 0.0002878047625885758 0.0001845713821524807)
(-0.005111116985852611 9.412790714965081e-05 0.004306303903134231)
(-0.0003883223899588752 -3.430140081064499e-05 -4.634885929529791e-05)
(0.04275887307259486 -0.01746492024806467 -0.0003458029717249567)
(0.01886486661358887 -0.007203611977500985 0.009744877764241608)
(-6.552112965788092e-06 -7.040700261831758e-05 -0.0006579851195540241)
(-0.0008315060601826119 0.002260119249847601 -0.001495377229675405)
(0.0008533563923118351 4.625214698129559e-05 7.989752550792737e-05)
(-0.0001177118908369023 0.0004464963042894673 -0.0001812116956885892)
(9.541381099000763e-05 -6.045755644310125e-06 -3.341074820216725e-05)
(0.001631766211761264 -0.001908197158269311 0.0001965851119132924)
(7.338838229222839e-05 -6.326010501953898e-05 -0.0001228920133128727)
(4.074579862116471e-05 1.239606952367012e-05 3.430289979085799e-05)
(-2.861581307534706e-05 0.0001608541032335464 -0.0001121971991885342)
(4.961044494449932e-05 5.149859376518122e-05 -1.111894230483798e-05)
(-6.659163398297633e-05 -5.813819030381687e-05 7.258837142988194e-05)
(-0.000170088183357144 -1.345054570956859e-06 -2.879787195557942e-05)
(0.0003926919422946223 0.000118461213283024 6.60359278072757e-05)
(0.0002479324296756685 -7.108562793538698e-05 0.001008699391473606)
(5.555818889675106e-05 -4.239675337046391e-05 8.87777585510603e-05)
(-0.0005533329496401816 0.004598517883390686 -0.0005200785360208311)
(0.002924682736187879 0.0007427019045685419 -0.004135211748106463)
(-0.0003339003678302038 7.758105986730416e-05 -0.0001509506778179489)
(0.0001487004136752828 8.275554658834157e-05 0.0006547685336379198)
(-1.9871828539997e-05 4.350086222152865e-06 2.538235091798911e-05)
(7.754844057072247e-05 7.970496584123674e-05 -0.0006756571001318511)
(0.0002602627953955908 0.0002399014990918382 -0.000743864463166481)
(0.0009127641371430675 0.0006056085740688917 -0.000101570997623787)
(0.0002401509546172381 0.0002010674297307707 0.0001944249712503664)
(4.843173702061442e-05 1.528616720914561e-05 -7.222183557743656e-05)
(0.4266278730759707 1.424270792076795 1.932439771414824)
(-0.004582126090026764 0.001355391508040689 -0.0002731151225503543)
(0.0005194682623288901 -0.0001778292436466763 -0.0003431881315393293)
(-0.008119542583766574 0.00291135076908042 7.366533387769468e-05)
(0.00129756057320628 -0.0005812803626403208 -0.0001940451794185967)
(0.0001462408977853577 -9.224986198962275e-05 0.0001033982689322881)
(-0.000189584591638063 1.814118123467951e-05 -7.628148799722418e-05)
(-0.0003351995223349064 0.000395523340788342 -0.0003243338298604718)
(3.152386124307077e-05 -0.0001588294219766376 -0.0001289113920484721)
(0.000107352610134519 -5.087516133644823e-05 -1.280044472730183e-05)
(-0.0008301570776076977 -0.001108596124679431 -0.0001849747629364902)
(0.001906453511359592 0.001229201068055464 6.073284220884334e-05)
(0.0004734387621937033 0.0003913578556843679 0.0008510165797810684)
(-0.005970085722482678 0.01501119082035183 -0.008444551460332782)
(1.290230592740096e-06 -4.698656226187089e-05 -2.516132139122478e-05)
(7.696223160237343e-05 0.0005584075701086514 -0.0003227828621132081)
(-0.01647784416559463 -0.00630801970540394 0.006031870570301417)
(-0.0009100600620291703 -0.003069124394334637 0.001745556726018836)
(-0.0001043783348512996 6.989237684367352e-05 7.726569193105703e-05)
(3.393865443960826e-05 -4.111261938520557e-05 6.216345718091636e-06)
(-0.7106091045316565 -0.5303588346565827 0.5836281089317102)
(-0.0003228769547066603 -4.087948881423026e-05 -4.409206882212486e-05)
(0.0003280873043170539 -0.0001343365019328364 -0.0002221652437042285)
(-0.0001350914914563807 -2.344853597860566e-05 -5.621366600220047e-05)
(0.0004373660726075684 -0.0002551482910101235 5.919385476960799e-05)
(-5.819751466692258e-06 3.521208868784253e-05 7.731340826293699e-05)
(-0.5360310962936576 -61.49650030818832 -2.578695320405883)
(4.420546478963023 -55.11483911671539 -0.2110473474050329)
(0.1668244759805544 -0.118203042052186 -0.01893328257237813)
(0.001162399080670504 0.0001468855913186921 -0.0009642918559968643)
(3.685602428475883 -2.537725881007825 -6.04155825843196)
(-1.544947417106651 -3.87691905708439 -11.44662062318077)
(1.637003773982365 -55.77834436733846 -10.19337445459324)
(0.0004074527798505818 7.753542931014362e-05 9.544327978434936e-05)
(10.33301055690461 -8.620271054169843 -3.793769486463632)
(-0.3091497340424265 -11.19037311406562 -71.94316432483956)
(-0.0002697870435225067 0.000130411551196349 -0.0002520360304381919)
(0.0001709305489852992 -0.0005657586836381229 0.0007256158367841868)
(0.01499193862151482 0.06247988419826831 0.05875817471170747)
(-6.838490824878335 -5.847994912513449 -54.15380446974033)
(-8.533885455425955e-05 3.383812051320258e-05 4.25890633221093e-05)
(0.0004758589785916584 -8.884839930156866e-05 -0.0008701522990682075)
(0.0004776558145614403 0.0005021043233116359 -0.0004497065458847365)
(-1.355552160308627 -11.96678779280032 -8.644118882747909)
(-6.152359235081732 5.064494425074233 -6.079265186054723)
(0.0002456865642467187 -0.001244754071358733 -0.003057812257571147)
(-2.367321814985443e-05 -1.000924618396888e-05 3.562933166282499e-05)
(3.325871688481236e-05 -2.935510884011395e-05 9.602510374339227e-06)
(-3.685496981853381e-05 -8.15993497948423e-05 0.0001483959152254414)
(0.0009815250297743523 0.0008351955194533054 -0.00085915181758971)
(-0.001571235191211428 0.001896511543989153 0.0002527454360003959)
(-0.002478662608573596 0.001941458345898674 4.296777178190197e-05)
(-0.00030474149217998 -0.001038574851115589 0.002028612789240229)
(2.205100424470357 12.65471717942951 -5.510347993284638)
(-0.0003267199860047263 0.003119068656034507 0.001704759956762234)
(-2.034403238142407 3.163009273901492 -60.26960256416836)
(6.253759820681431e-05 7.852882844121418e-05 -8.071116626879392e-05)
(-4.549041303086618 60.81396488911366 1.1855880237444)
(-2.554721876257068 77.02537190449225 -10.66550770062787)
(0.001552299851650287 -0.0003338680594997207 0.0003186494829421534)
(3.260519187763576 8.462737279803106 -6.049381671832277)
(0.0006105830076825198 -0.0003333130676904404 -0.0002942056274202345)
(-0.003385563453348971 -0.00305134753729381 0.006707030890236841)
(-0.001651244269093559 0.0009273465140257288 9.563184968514353e-05)
(-0.0002968146746602156 -0.01927004968624406 0.03481175100525427)
(0.0642503039704021 44.2512628529994 0.5799163041685957)
(-0.000157470054823285 0.0001713954611933604 0.0003867237678797581)
(3.906409178456814e-05 3.318650150922896e-05 1.364584571571387e-05)
(0.003797280306422092 0.002715197128517425 -0.0006455743749645538)
(4.004138459108387 -4.314119074729 -2.41838859084771)
(3.869569453865786e-05 -0.0005277811802621041 -0.0001436668941957742)
(-0.0001522638106078436 -1.486845841844661e-05 -2.386693141142847e-05)
(-4.622571675191497e-05 1.448249647083934e-05 5.014562777826841e-05)
(0.0002953359745687871 -0.0002444548422105248 0.0004486448419552284)
(-0.0002149027348886766 2.198293666198775e-05 6.407565549303496e-05)
(-0.004528421015983176 -3.132216845070499e-05 0.0004001730001993815)
(-0.01002174463328775 0.009969499953908126 0.06323130588938054)
(0.0001349590133818877 7.325751526797882e-05 -1.380835917419609e-05)
(-0.007818034481908084 -0.00284299782847281 0.00186258132538157)
(0.000105277063514699 -0.0002275719001717173 -2.567410642175602e-06)
(0.006380176817324622 0.002439043822025526 0.04209430897515168)
(0.003361541849948688 0.01721349255172694 0.01970282861329174)
(-4.406116384564582e-06 2.538280575380591e-05 -9.359011538445311e-05)
(0.02062116921984312 0.008354560112630218 0.002519057722492338)
(-0.0005719258051947123 -6.047170717325895e-05 -0.000487289555860295)
(0.007988602258114944 0.01576780463346245 -0.03181376316811015)
(-0.006623025660150315 5.716244824540179e-05 -0.003826985477964335)
(-0.001063882293777862 0.001629698277055667 0.0001288358849211648)
(0.003550037877206655 -0.003271385757357251 0.02917759159053694)
(-0.0001230787028365575 -8.863646562875364e-06 -0.0002594523815527739)
(-7.431295477294754e-05 -6.127977468140363e-05 -4.474197013426766e-05)
(-0.0006282444041357485 -0.0004644218069813935 0.0003205717246511356)
(-0.9614934486907604 17.04667727214328 19.65513040881796)
(3.415961825581313e-05 1.260253189390887e-05 4.322041185750516e-05)
(0.0001956457459753359 6.054243781823092e-05 -5.712691255854863e-05)
(3.818197931971224e-05 -0.0002117855915202586 5.211821251794667e-05)
(0.2386182957818218 0.008736402938977449 -0.1171882239865147)
(-9.384892470475819e-05 7.22327848874641e-05 -3.418593389504165e-05)
(-9.590861907446792e-05 2.788077027601055e-05 -0.0002125196072810169)
(2.920359712596717e-06 -7.182602204508108e-06 6.172610608934489e-05)
(-0.007081924453036698 0.004678258330575244 0.006034850525916645)
(0.0001076257635718091 4.408912236221439e-05 5.88498797175661e-05)
(-0.0001038109182765312 0.0001052023464717921 9.972652336253206e-05)
(0.0001723314811759845 0.0002655909546153908 -0.0001805329701732418)
(-0.06989475267962403 -0.06130745894673685 0.0348499209729066)
(-7.704193561856725e-05 -5.842686966661234e-05 6.592461962911905e-06)
(5.369495175839651e-05 -4.270258073271638e-05 5.937114747361399e-05)
(0.0001623015193369944 0.0003983631094246927 -0.0001015713352446198)
(8.658829391310934e-05 -5.141091480713382e-05 -6.334979732263774e-05)
(-4.56984297823088e-05 7.105339110572651e-05 2.470190234360211e-05)
(-1.472199824024222e-05 -7.74966645344033e-05 8.292453530476122e-06)
(5.468869836748162e-05 -4.79108115362471e-05 0.0001083162425853037)
(0.000126311784619814 6.786475783219461e-05 -0.0002337672795141212)
(-0.0001215512707179167 -8.787476491567073e-05 6.188942352334595e-05)
(9.801231064048715e-06 4.963669759114933e-05 -1.241086485932879e-05)
(0.0002392098837446533 3.454801331277839e-05 5.095982985169382e-05)
(8.604936012580842e-05 -5.60070927275041e-05 -0.000143732093402532)
(-0.0001781932939904776 5.986253188081236e-05 8.611844169708791e-05)
(0.002459198354313963 -0.00212039908803244 0.01581971884052607)
(-0.0004689970188160629 2.502581389733631e-05 -7.744734279749687e-05)
(-0.0002444950087847937 -0.00014605164466813 -0.0003734804506524527)
(0.0001045484399816957 1.2839586874459e-05 -9.158140973161084e-05)
(-6.438240972805508e-05 -1.549705918183806e-05 -1.346549509883494e-05)
(0.001049156965316652 -0.001350917141017349 -0.0007074436484831273)
(0.002008802389659378 -0.01211416601244759 -0.003197700000776887)
(0.002825643196447603 0.001602662942347202 3.008356342951018e-05)
(0.06872543551725226 0.02399145606276158 -0.01610608564423301)
(8.708595859536609e-05 2.711370391469809e-05 1.8138493943686e-05)
(0.05774919104048456 0.02889751168513893 0.01466869189223223)
(0.0001508217917294628 -0.0002762339470796126 -7.223528995130844e-05)
(-0.01147408944219563 0.005091318195184917 -0.0001658142429846736)
(5.648332096909639e-05 7.504014983903583e-05 -2.765559116168387e-05)
(0.0001657443212556306 -0.0001634095546398774 1.470603718566957e-05)
(0.03181826103469081 0.0433188765852142 0.01060466099547081)
(-0.0001048011664925105 9.063674459267254e-05 8.292826493759491e-05)
(-0.0007447455960702501 -0.0005068355164154132 -9.136364263094793e-05)
(-7.718391730089785e-05 -7.033767996114071e-05 7.101171151366003e-05)
(1.239536766613e-05 8.473974409123858e-05 -4.424011298634433e-05)
(-0.0001091356075915387 4.889745470929454e-06 -1.869371844538685e-05)
(-0.003099752398312948 0.007008172370323826 0.003285948075055571)
(7.480923478455469e-05 0.0002826615844352986 9.668935703612084e-05)
(0.001440716085688504 0.0001250079066193582 0.0004221308910813141)
(9.57418976798651e-05 1.309689345370745e-05 2.634113835842049e-05)
(0.0002307962434051198 0.0002768727901359543 0.0003103223115078658)
(0.001126353873350859 -0.0009309021977065509 0.0004417243886094127)
(-0.1338719352190895 -0.1765455518695034 0.419985755788913)
(3.148361569733824e-05 -6.849688747912047e-05 -2.924894604612746e-05)
(5.424842225362037e-05 -5.724761804714729e-05 -2.046956391995127e-05)
(2.693527313536775e-05 7.193266836735577e-05 2.610864253369795e-05)
(-3.198286232974038e-06 -5.895807961162827e-06 -4.840548358406631e-05)