/*--------------------------------*- C++ -*----------------------------------*\
| =========                 |                                                 |
| \\      /  F ield         | OpenFOAM: The Open Source CFD Toolbox           |
|  \\    /   O peration     | Version:  v1906                                 |
|   \\  /    A nd           | Web:      www.OpenFOAM.com                      |
|    \\/     M anipulation  |                                                 |
\*---------------------------------------------------------------------------*/
FoamFile
{
    version     2.0;
    format      ascii;
    class       surfaceScalarField;
    location    "0.5";
    object      phi;
}
// * * * * * * * * * * * * * * * * * * * * * * * * * * * * * * * * * * * * * //

dimensions      [0 3 -1 0 0 0 0];
oriented        oriented;


internalField   nonuniform List<scalar> 
37503
(
-7.327906501732327
-11.02415969763462
26.13301249946882
-7.780946300054174
-10.51114648598907
4.567907852275947
16.43711587340702
0.03649925094429195
-0.6168946173573333
0.8633399847956633
-0.2829446183850258
-0.1157617275855262
0.1421259079604564
0.000615130152338896
-0.02697931053004895
12.38932569930651
7.178799875559201
0.6033668717000694
-0.0183994717649464
-0.08686204504584814
-0.498105354894272
0.08228197055440567
-1.606584010847243
1.573488717181049
-0.04918667690136416
-0.4396234759570902
14.37026664760401
-13.93064317163667
-7.681155957867564
-5.800465351875321
-7.842712356833081
21.32433366661041
1.786687424182438
-3.122434281572767
1.488356091971273
-0.1526092345923092
1.472747849700136
0.1889617191675532
0.4176196565464302
-2.07932922540676
1.706717796853802
2.108975102138076
-2.705639187487781
-1.110053711475329
-0.029879561278485
0.001081147561130432
-0.03381077084422542
0.06260918455716474
1.103658730840563
-3.57535959653264
-1.010811331996086
3.482512197741142
-0.8897840103357716
1.96051657385328
-2.767643746851059
1.69691118336338
4.250771848866285
10.59986301900427
4.49794978739984
-0.01663792179016656
-0.1572039779060611
0.140157502187258
0.03368439750177613
2.089765044086285
-4.634561672360372
-1.98573788646901
4.530534514784111
-0.4880483772399529
-1.271533902150928
-16.55742302372265
13.07014788883496
17.96688930292147
-6.664870691038848
14.16678191474444
-8.115851932727908
6.98297044741826
-8.240008890045202
9.372890375370973
19.97989231070307
-25.72675390254657
12.04509690858016
-0.05911443952645011
0.480530145575793
0.02791866371451445
-0.4493343697666536
-0.4502911700070491
-2.175657396250658
3.729607297128141
1.391196709565352
-2.663761425298954
0.3827807054189927
-1.442909663596109
1.9196450773623
2.201372881718861
-2.678108295445278
-9.823088416549279
-9.404363298506022
0.2547127632890113
-0.3077443509619624
-0.06138471207176424
0.1144162997349998
-2.291820427240127
0.4231786275771505
13.0908653856536
-16.18716678611461
-23.75818016737347
26.85448156779794
-0.1522531887765117
0.1285354058701762
0.07698558492003101
-0.05326780201841292
3.53651205539358
1.925181585472296
-19.94411597898579
-1.546642279880519
-0.9976522151293965
2.094003325039238
0.2352840082636079
-0.01999439250078064
0.2044940021051364
-0.4197836178776906
1.324514415460981
-1.191338299578765
0.50546010975016
-2.036441647761401
2.722319837623894
21.44051844576815
5.088061403797696
-4.457473859873178
-22.07110598965001
0.0513858794930744
-0.3098765489137657
0.1190992248846943
0.1393914445274116
0.2971471845793688
-0.6053948327434504
-2.145775151119852
2.454022799265359
-0.04307372001163867
-0.2334163059861873
0.3907300802702755
-0.1142400542798401
-0.06272992794664435
-0.05483421929070983
-0.003035639555610916
0.1205997867886089
-0.4977823270578729
0.446484850653573
0.2983028437896126
-0.2470053673925988
-0.0573812054893803
-0.409859577723253
0.6473862413195914
-0.1801454581225642
3.920115475578967
-2.538107021079912
2.401098099442248
-3.783106553938731
-0.1552966020590326
0.03473179126479854
0.02542909526344369
0.09513571552577561
-0.03496879174080883
-0.09160073401835138
0.03242424460156315
0.09414528115041404
-0.02440537010551702
0.1146770059788552
-0.1426775056205701
0.05240586974368905
1.954690431234094
-0.9756338454343253
-0.2498501169513706
-0.7292064688528951
-0.6626568840666448
0.1832584860018065
0.3238928761978493
0.1555055218476494
8.865889053161506
21.10749949784529
-27.42792525379981
-2.545463297203784
-1.250801782654556
-0.08408086347187715
-1.370756541347829
0.4765189029823658
-0.1306572931990542
0.09436865287003052
-0.4402302626577921
0.8292138069981663
-2.154419981415826
-0.9666142528006164
-0.2188395503582762
1.53217360380864
-2.10131044900766
0.7879763955399191
-0.155881084839829
0.215125899255983
0.001338482422259226
-0.06058329684486123
-0.2338069296533409
0.1240320945687795
0.16781676868175
-0.05804193360338699
-0.9005578106308378
-0.5244539371537298
3.158362151985837
-0.05018734710621904
0.3251601641188441
-0.3172210027182243
0.04224818569616739
-0.0032478136300919
-0.1236074377580657
-0.02617358650746658
0.1530288378882975
-0.008095608121433706
0.06420308144036388
-0.09532320577739052
0.03921573245427177
0.006302283214744819
-0.1342668675805029
0.1213245153659769
0.006640068992798891
-0.06885510138151318
0.07034454594396797
-0.03785527477264121
0.03636583020681149
-0.2419896966893917
-0.2255443500730726
0.4587004538525372
0.008833592897270507
-0.1266262395915353
0.08274550496289133
0.02786152791034282
0.01601920671474298
-0.1066630698975157
-0.005351302520617813
0.09533756767137169
0.01667680474301253
-1.929590196902971
-1.152875937488832
0.04965106151701605
3.03281507292137
-19.92428149217954
19.8120158567962
0.112265635389453
-0.1856772940226597
0.0539584527739236
0.09830092603049526
0.03341791521204775
17.85857025893124
-14.76277426289225
-15.22485987524011
12.12906387924554
0.09994093865445794
0.02628909003892509
-0.09368753995461689
-0.03254248874709249
-0.1487868590619609
-0.4901501601541015
0.4355359924047399
0.2034010268021324
0.1258460433351333
-0.5800464363510948
0.482413808216115
-0.02821341522423184
0.1563464487002112
-0.0852238249035536
-0.09872499458506168
0.02760237078045394
0.195379931877264
-0.2209017520571354
-0.1542407613556432
0.1797625815253015
-0.05560711252812828
0.1858130015616499
0.1910697856663935
-0.321275674706815
0.8361286982569398
0.6183773931056485
-2.183878549824454
0.7293724584516604
-0.01151203803129759
0.1262490174801941
-0.05172850641927254
-0.06300847303660355
0.08098321297855113
0.01028248212730627
-0.05354668554459213
-0.037719009566952
0.8082198953247794
0.8416053095921643
-0.06982292553076083
0.02569175636601641
0.04413116916263648
2.862088322016464
-1.727630703723819
1.024427245245083
-2.158884863546158
0.2463443518961744
-0.1071180562818317
-0.1195757877487325
-0.01965050787406623
0.1229614317629452
-0.02381690686567269
-0.06875577207781898
-0.03038875282645931
-0.07618533585403385
0.4466956012978029
0.3998251462469202
-0.7703354117111193
0.2546673272740994
-0.1852826424666184
0.1578638392667713
-0.2272485240785059
0.1194724001830463
-0.1688470304917716
-0.2490611527900481
0.2984357830893393
0.06952135956632584
-0.1533328381583551
-0.02759914380551783
0.1114106223935489
-0.1136238144168832
-0.01796562440030785
0.01582771122984315
-0.0757996268222379
-0.1220398351091212
0.09442815377304045
0.103411308151981
0.1911777937975759
-0.1109117523213183
0.0211297232588557
-0.1013957647374855
1.03160294382332
-0.7022501268069047
-0.3733236589263186
0.0439708418868946
0.06506134038061184
-0.2777187842661965
0.2982113488014149
-0.08555390492756972
0.2538901859710371
-0.03913023638930768
0.02119945090575186
-0.2359594004954477
-0.06084081905328026
-0.2423408786369267
-0.1887250133327711
0.4919067110194436
-0.03190607731821877
-0.1953608669517429
0.4091248944877998
-0.1818579502238481
-0.1204417297415207
-0.3057219667223297
0.1051414559904049
0.3210222404695042
0.02894687723635709
0.1447227840449477
-0.1964595717525488
0.0227899104644248
-0.1042734544484165
-0.0897612267520437
-0.2499071778712109
0.4439418590667608
-0.2036289133631155
-0.2815225494743127
0.3426453094444218
0.142506153391363
4.791502871864122
-1.506471882537417
0.05686564561634996
-0.05539054987290087
-0.001475095746795593
0.980695365133278
-2.2083087171451
-1.436148073269019
0.04448617178017788
-0.03336140242688383
-0.01112476935559462
-0.1987084319687348
0.05244980446874722
0.02305136036912635
0.1232072671252039
0.002911162432250208
-0.06621626939094448
0.1600867306464987
-0.09678162369569858
-2.323281684140833
-0.8125389521959804
2.598293095134959
0.5375275412377997
-0.03437835604806142
-0.0806326569007047
0.1391768242304594
-0.02416581128581884
-0.4305486962749032
-1.174920325364327
-0.8678040896328588
2.47327311127886
21.1443984294281
-0.05720823954893942
-0.3345052688982881
2.913930656397645
-3.770763687063827
0.06247195689215718
-0.1046577946992157
-0.02960904712320941
0.07179488492748602
-3.050476164589333
4.845755611229454
-0.1405321164462916
-1.65474733022831
0.139324047943591
-0.06931079270025575
-0.3517979503280405
-0.3217274910613814
0.4762403998126423
0.1972850415691942
0.1910946629826543
-0.1011683474441771
-0.02728218514407543
-0.06264413039819712
-0.07235315571588774
0.2553978929136269
-0.2356305016697851
0.05258576445808935
0.18235538660433
-0.2885472608559852
0.3015056285304766
-0.1953137542868463
0.03892553151986308
-0.02335442690883854
-0.05468198098374059
0.0391108763704252
20.19272961244994
-18.63505884100019
-0.4086238157567098
26.75869861142174
-26.7896982716034
-3.342482976693877
0.2416431397584034
3.852446068987726
-0.7516062320206993
-2.041762559791943
0.3400919957536563
0.9187461815491738
0.7829243824894043
-8.027898054682337
-5.06422443113057
7.004669058374788
6.087453427354389
-13.73803615180035
-20.85580453204505
34.59951259084815
0.7616454892750861
1.583976144768074
1.383985663110381
19.28251214825526
-10.95564629788663
-8.326865850372585
1.195208508175498
-2.359070082623509
-0.05777702103818272
-1.729171360678815
1.128649212233654
2.317956110833124
-30.26759190507681
-0.9573443833156261
1.243269129887047
29.98166715854727
0.1130131406182212
0.006543979142691891
-0.1393024269744393
0.01974530720571599
-0.1773383756421478
-0.01044248206967813
0.1877808577075424
-0.1110104952658403
0.04162767234342299
0.1331147110049626
-0.06373188808751772
0.5367258362889978
1.425265290146187
0.5359330331146013
-2.497924159507087
-0.6091266752306578
0.2054900684513645
-1.769389232626777
3.104063149403177
2.045166524766031
0.8251998195091103
-3.67488472089478
0.8045183766029221
-1.895661068230188
1.900352997508385
-3.143633244817876
3.138941315597817
-0.3805553031042502
0.1954777499622232
-2.010347150403415
1.705787776077141
-9.635039028385307
-9.098816629919884
-0.05544105810724392
-0.149941701821589
0.1153977891193842
0.08998497080459587
0.1171548448717972
-0.3421761368988963
-0.3526031465313317
0.5776244385414073
-0.5165074902926359
0.3587208832995354
0.118816378731579
0.038970228241508
0.4594335794139184
0.2122298230051814
-0.8237073123432281
0.1520439099138173
-0.3561856008250771
0.4847098609455443
2.210665384448667
-0.1566589818833345
0.04951515133840904
0.01753134834976199
0.08961248219280341
0.009982858207095019
0.0247057673183721
-0.1312341054518497
0.09654547992288305
3.124969287107399
-1.081542173029931
-2.563616454494612
-1.163740368380094
0.6058983074172486
4.743986845264428
5.574678921121901
-10.92456407378709
0.1975907491876595
-0.9216607903960555
0.5838893682421044
0.3377714221506604
0.0735539759951515
-0.2742714933164934
-0.2139481075848791
0.4146656248981009
-0.6412572171766252
0.2477811397971907
0.5474796539574804
-0.1540035765889124
1.798231629204503
-26.12406838962026
1.878272789732609
2.879864124322728
21.36593147557999
-13.88751932037382
7.877633026591766
6.615784601240176
0.1967677079981374
-0.06994341713937782
-0.1336424989382427
0.006818208074510681
4.797670090695062
6.594588771375868
-28.85155965641232
17.45930079439834
1.655395448758775
-0.7735874111888597
0.2814461130147359
2.675231544916751
-1.76146914973173
4.068122340468436
-1.725667516298247
-2.966671177087352
27.61082278097875
-13.61575904318703
-13.99506373776009
-0.09125797813251015
-0.003521546056867703
0.1100972417616127
-0.01531771757733456
2.373119433670019
-3.674238955363798
2.174045311689972
-2.105975953756532
2.845861298496105
2.411915551025726
2.269047838316381
-2.307843955645636
-18.70331290862015
8.387013220898446
-8.675354208523693
4.426118391328949
-1.591024212705586
4.443093150019859
12.53276009181877
-7.726871959337933
-4.261466935987777
-0.54442119652008
-0.01322015440278624
0.07661967097042699
0.004689623143057532
-0.06808913971570195
-1.281337009269327
-0.7357694232882138
-0.4603345698314068
2.477441002366457
0.4034659539486573
-0.2338748567103959
0.134878727596434
-0.3044698248434929
0.04736623056323649
-0.06518970815478344
-0.2159834520664673
-8.116683217846909
9.069324354246504
5.282349698682356
-6.234990835073336
2.699798045133573
-2.063373490930032
0.7133695912408998
-1.349794145474653
-0.0598932232193216
-9.041370079639854
-1.736126857284507
10.83739016005377
0.2618561779812286
-0.1936395413006822
-0.06821663668147446
0.1325985664984349
-0.2295101970753337
0.09691163057268506
-0.05916241390769131
0.329282822549863
-0.05901753582402508
-0.2111028728242059
3.702116512698443
-21.7937475211791
-4.107336799659267
22.19896780816913
-0.1579195137398485
0.1572495712363681
0.1707756400819609
-0.1701056975898997
2.623865741219972
-1.262455684480097
-1.791958753006731
0.2628328876829354
-0.1302343211879202
-0.1464978556228486
-0.05288137659378504
0.2340017560135324
-0.03462252380956847
3.012997900352714
-3.563086541630271
-0.008905446061086094
0.5589940872985287
0.3645099550275883
-0.02584171434775406
-0.02015178735117919
-0.318516453351267
-0.006139667033928831
0.007615901436622179
0.09573790538766236
-0.09721413979584836
-0.4365047530898611
-0.1131466360070167
0.2712891643914688
0.2783622246934884
-2.309645410841082
-2.118046998747072
-1.43898300244983
5.866675412047571
-0.09499465021187413
-0.1665387911233597
0.1107862481876239
0.1507471931444304
0.06418767034809968
-0.2309578489931811
0.1667701786434281
0.07059116728187272
-0.02020055913109053
-0.08993054870571393
0.03953994054983111
-8.057210034564996
-0.1328671707565537
0.00417062852529348
-0.01705202643191295
0.1457485686567217
0.02011274152031333
0.04938624343316429
-0.06949898495806009
0.03210598010186806
0.057615698419171
-0.1105218323734215
0.02080015384733494
5.863655010564954
-4.049358716243343
-5.289209674915329
3.474913380550906
1.985080765094963
6.067599828688039
-2.399600438040286
-5.653080155759833
10.44736289164934
-6.656366309802541
-20.89310814078159
17.10211155896788
-0.08368839155969465
0.06064153765696757
-0.09712541381568671
0.1201722677131258
-27.55059343207592
15.29229047222009
-4.299120063861463
0.7139639061013354
-0.3542870932264768
0.6952607826119551
-1.054937595478745
0.7255504622653045
0.1468974447309696
-0.7160747192064051
-0.1563731877975776
7.379134377816098
-0.9012502256543273
2.091174535195193
-8.569058687369507
0.09640513771749712
-0.1301682881586862
-0.3333215774180227
0.3670847278527196
17.04253522461689
-13.0654988305201
15.30547575415634
-0.6393646132656048
0.1849425982661697
-0.06455854817573445
0.09906319365202941
-0.03450464547905049
0.06262995446579467
0.1267495923319658
-0.1769427313851707
-0.01243681541684157
0.1111068725544057
0.02959676694462968
0.02212244522243267
-0.162826084730975
-27.12908700311257
14.95180427725057
1.199642979272101
10.97763974664836
0.326756265426466
0.4549493436248806
-0.3800788155826996
-0.4016267934754013
-12.69469562118437
16.41049706677636
0.09147440926746862
-0.3830410178281871
-0.1226294483946915
0.4141960569405997
-31.34591062532805
9.240012078005577
6.78723896922878
15.31865957811601
-0.1618086849046602
0.0380882032192266
0.05799738784899363
0.06572309383028338
14.38127910803571
0.03446704931964746
-0.08362572334791585
-0.01333422463059293
0.06249289865453513
0.443323681494354
0.06392843470786373
-0.5475935166184843
0.04034140041515284
1.42098916951671
0.1597256663412558
-1.01096696060906
-0.5697478752701784
0.007591205883053246
0.4120458610447219
-0.1267097403514252
0.06586577170315222
0.2095185676276121
-0.1486745989881626
-0.08373871649963482
-0.1320744595054116
0.01690034077067325
0.1989128352310359
-0.2238751880421901
0.02431843206478315
-0.004023779293358241
0.2035805352618362
0.1828045355630862
-0.06044903124557989
-0.1223555043238087
0.02520060300107872
0.05637647433475314
-0.08157707734056113
9.807531762029843
-14.26701068820211
4.459478926159356
-0.05952222892835411
0.08043973760602914
0.1792778412671711
0.2135142710220072
-0.13977072217292
-0.0005666393920346201
-0.07317690946627699
-0.1035016066127598
-0.3055214238011273
0.8321181582537452
-0.4230951278460223
-0.1552845196794141
-0.4047138079581501
0.2204638890037185
0.3395344386173792
0.2041458175889354
-0.3875759357753712
-0.3686992285212876
0.552129346704455
13.55780315037579
-26.15234178704435
-14.53454836639683
0.9207309338123847
0.421581103829339
1.759076334997142
-3.101388372646668
26.84912400736467
-23.81926959049131
6.89312130354669
-9.922975720400412
-13.1908630721501
-16.11199084477611
10.14617544401263
19.15667847295478
0.1733457991587974
-0.04781266307265004
-0.1255331360914984
-0.03136335331841083
0.003516660715610164
-0.1473423326721893
0.175189025263204
-1.312726117393336
-4.786151549645468
-1.016443443770988
7.115321110804796
0.3983463448809306
0.092111452346085
-0.5711105143269578
0.08065271709852427
-0.05095721130856012
0.1507850625075323
-0.0176475409594571
-0.08218031024486903
0.04698864470438401
-0.02640337502687304
-0.07406944282065948
-0.0426111500172232
0.09286006899787239
0.1156450575348481
-0.1658939765272633
-0.0535604319076449
0.1183079133298783
-0.06474748142582645
-0.04524749179708726
0.04880872584445167
-0.1244499082735374
-0.05922069255483175
0.2011362113974338
-0.01746561057855959
-0.08050252369549797
-0.04296947390479046
0.1234719975934005
-0.4491984265676687
-0.04088612387835081
0.4113999879463713
0.07868456249035725
0.1978138139928398
0.1792299258144446
-0.3256578603214021
-0.1466623656326576
0.08917339663304208
0.08350576339732697
-0.02601679440445355
-26.38134589116073
25.34207421006636
-3.683669824629824
4.722941505771616
-0.5358155218287858
0.09950420516613964
0.3895480554019446
0.04676326124588737
-0.4822131422220085
0.190334668600161
0.6182785683669245
-0.3264000947536884
-0.1684781539754537
-0.01475588590651273
0.1060395199436999
0.07719451993239113
-0.06744231060314732
0.2814225260319649
-0.2451943260561566
0.03121411061952967
0.07131730889498115
-0.2213055440205436
0.05836533098572604
0.09162290413251171
11.34128954515476
3.080328458767942
-1.120619524581787
-13.30099847932518
0.1272830148893337
0.02512742355802398
-0.104365075722742
-0.04804536273109595
-0.09080466308378206
0.2361545357587438
-0.04618084764204961
-0.0991690250412316
0.1358348033081435
-0.1917218645807656
-0.1736231358076313
-0.04959866860777791
0.04373596543426721
-0.04568706304413665
0.0515497662142457
-0.0646758872385122
0.4340453348602353
-0.3114468114282123
-0.05792263619872345
-0.02136840355868999
-0.2541910937071767
0.2411196677974811
0.03443982945964043
0.1670560307130263
-0.06248459885693933
-2.352773048115559
2.24820161622625
0.1435537585894278
-0.01676760784419433
0.0348717442975531
-0.1616578950491701
-1.390003874415269
2.055312567245799
-0.2181872474094729
-0.4471214454234081
-26.64210667588178
1.508477942055838
26.85164201697805
-1.718013283130398
0.07355138484432402
-0.3165865057017979
0.3308934529837864
-0.08785833214243879
0.1265105088548432
0.02081584727198363
0.09253182483189608
-0.2398581809660337
-0.09965920051388574
-0.01854917633579035
0.08883933133716032
0.02936904550836657
-0.5251942020821128
-0.6009841856195719
0.5888513526655216
0.5373270350327336
0.05641933635158692
-0.2595124446672694
0.2042521107097555
-0.001159002404310902
-0.2014829656042581
0.03756760355696914
0.2254669777275162
-0.06155161568563344
0.02943797693376013
-0.1220388877785042
-0.0184862993177534
0.1110872101603221
-0.3796557090359629
0.3637594281803406
-0.6620558498612235
0.6779521307004931
0.2563775688913014
-0.007077036192209042
-0.6497599708607976
0.4004594381273944
-0.07290853141399585
0.154115464150479
-0.05675870684255607
-0.02444822589844395
0.1438833054883394
0.2722953691524189
0.01359738069941506
-0.4297760553461245
39.2639813095664
-25.1719911724347
-18.15024340597279
4.058253268854618
0.3470189525484077
0.1042741898857617
-0.165676770614744
-0.2856163718293346
0.008336216109831712
0.01494539388799314
0.2215091066597562
-0.2447907166656859
-0.6525906660871265
0.1280077836213553
-0.098696825409642
0.6232797078645482
0.09228099923813622
0.04116701272397688
0.05304762792467033
-0.1864956398928161
-0.05196787527023893
-0.0553561573909216
0.01926171309198881
0.08806231956597271
0.04732203980824647
-0.4068851258549108
1.713620867945514
-0.8442836454636706
1.274917237481018
-2.144254459989181
15.51298506327597
-10.95271044571171
-0.03844340725071325
-0.1258820792254792
0.1306831630377659
0.0336423234321938
-0.00189059678375401
-0.1346459608294112
0.02316895074215905
0.1133676068670865
-0.1546630622135671
0.1486916552370259
0.04656474777751063
-0.04059334080720505
-0.2555384083042477
0.1074129584670858
0.3465166219989613
-0.1983911721715491
-0.1044083750415019
0.04481239559892651
0.02805731499067037
0.03153866444607638
0.09557259136721788
0.0339883543687438
-0.00568728342052597
-0.1238736623236408
-0.07519358968201657
0.05705089576689016
0.09871535506726703
-0.08057266115792948
0.5750828547862225
0.6789038023050518
-15.28730184999307
14.03331519296595
0.1637010465816536
-0.1724234784327154
0.007491160427357679
0.001231271418152804
-0.1799816282534414
0.05699554919816761
0.04026329870801957
0.0827227803372475
-0.1897097264514907
0.3414812119695891
0.1328017787290083
-0.2845732642591697
-0.06280995637784312
0.0610613214028034
0.001748634970764895
27.66812573726352
-28.50791768123211
-8.460112452309692
9.299904396260079
21.49930544017757
-2.708286452521837
-21.92014642096242
3.129127433304644
1.959258757542661
-2.180860056409928
0.3042450906536418
-0.0826437918114126
1.803851540420293
13.07731077390935
-8.374708473258476
-6.506453841076123
0.1901501028810581
-0.05199940702501667
-0.1381506958639035
-0.008627633585970809
0.01414577992228851
0.09002793184674163
-0.09554607818513175
0.2791662779883023
-0.1185306675515796
0.4359138242957277
-0.5965494347408098
1.823238722649048
-0.1416313175006428
0.2886144249227705
1.193720700831016
-0.4502955142407006
-2.028222690477536
1.284797503877517
-7.316929277433962
-0.2516892845280316
-2.471602546782073
10.04022110880968
7.668148344258515
0.8967276626002393
-8.233727857354314
-0.3311481495286429
-0.3507438061668068
0.1508045876867886
0.1443321059464415
-28.75523035395702
22.25357943824099
4.493302497455553
-0.1131068408512003
-0.1582555437867876
0.2394563073166423
-0.004804757758103173
-0.03222172243072272
0.03702648018659713
0.09667146352219849
-0.04944696909768482
-0.1493251109234406
0.102100616494687
2.714066426187199
-1.759966881788607
-20.14197061546066
19.1878710711064
0.646174154263185
0.1197166896699021
-0.8778869538852666
0.1119961099394155
0.07082807521454461
-0.0487405886303015
0.1637255149733585
0.3522726464469726
-0.04496949907812189
-0.4957899871797441
0.1884868398065771
0.152152397371742
0.05113382161713156
-0.09057711182917208
-0.1127091071637839
-0.09257114012753663
-0.4138782829993656
0.2007733778505071
0.3056760452713203
0.2728348701512305
0.02196236244648497
-0.2657779912350622
-0.02901924137345546
0.03400148276271473
-0.1961557110700913
0.0305270771898857
0.1316271511038989
-0.03447035621205104
0.4652728172936573
0.2617329409802648
-0.6925354020711244
0.1986690527681801
-0.252280081242779
-0.2712526328904812
0.3248636613521123
-0.06334556711191149
-0.2874305046522017
0.3026607182481215
0.04811535349872047
-0.04325804794263144
-0.1468581090114768
0.1901161569494512
-16.87391392807737
15.54671651781257
-2.63042260688254
3.957620017093614
0.07763459163755937
-0.1208926395820935
0.1296340730777737
0.08995374902689379
-0.08221274674150941
-0.137375075367468
-6.858086930930329
20.02440992407771
8.274195452653915
0.7149973098930128
0.02043055639221439
-0.4562615883001035
-0.7998017863849531
-0.3156585413714735
0.6559783270473732
0.459482000690162
-0.03416521710803089
0.1213337176428831
-0.08191918696023334
-0.005249313581311739
-1.054803048519445
-0.4030346937473657
1.35164175470883
0.1061959875216426
0.000730502221866188
-0.00792765003277935
0.04612267932818696
0.1279681097256877
0.04186355665053426
-0.2044146514154695
0.03458298503523349
0.06234190082182019
0.1432608005393755
39.22153307979398
12.1549454519293
-37.23973463112949
-14.13674390055628
0.04447216990341413
-0.08687819362176372
-0.002933128624345555
0.2831847264911202
-0.4838805112333366
-0.347257494341661
0.04076505336228732
0.3556885052737047
-0.0491960643075627
-0.2706262368813483
-0.2697851476208467
-0.1716941170475921
0.7121055015309454
-0.136480622753812
0.182974988578166
-0.08911075310789998
0.04261638727855958
-0.7220220505787458
0.6067359548743441
-0.01950819691793694
0.1347942926152937
0.09013258871231324
-0.003001363274897346
-0.01715791572588073
-0.06997330972103578
-0.6510264810612325
-0.0999217475441842
-0.1539941540295825
0.9049423826366795
0.1395491824651066
-0.01329303669244671
-0.04686972777984968
-0.07938641800021518
-0.3615171957888676
-0.1096354842305783
-0.04535481028498926
0.2748919447991844
-0.1809462178581743
-0.09394572694638803
-0.0374507727576353
0.02228518260268704
-0.1208365642328697
0.1360021543814149
0.03570163101874877
-0.117647813346852
0.1053831072652908
-0.02343692494424156
0.5352907793849772
-0.7346393889843867
-0.12304482486442
0.3223934344501649
-0.09698148804340184
0.1242791438778906
-0.08960579224054144
0.06230813639473756
0.1391743130206351
0.06692078421245093
-0.0009827112953342755
-0.2051123859428796
0.5872047449917053
-0.366242413791332
0.03125161894028744
-0.1534169217529666
0.1082616419397103
0.01390366086518086
0.04351341897893823
-0.0003506488793074316
0.3365021463923747
-0.3796649165035766
-0.1155793141296669
0.01010110796895994
0.005819005644439256
-13.68103714274709
-2.140620632096778
-3.515279527141128
19.33693730199681
0.4637124044015988
0.07916028714432354
-0.002165386025282391
-0.5407073055220036
-0.07847230543341224
-0.1876071496447103
0.1950232301706289
0.07105622489664408
-13.29860184651538
5.295010284377068
12.96153145534658
3.29403209046778
-29.5541653923261
-0.1307636398464303
-0.03953206913159717
0.02379785334803754
-0.04907159834912322
-0.09432987535064769
0.185253541092026
-0.04185206739959601
-0.3598849630184005
2.267612507502585
-4.280132048884767
2.372404504420671
-5.647332711684352
15.83182892308844
-8.380644670976142
6.827520167422868
-9.177489887565486
15.10041973982753
-12.75045001967439
3.228334283554403
0.0451562201676672
-0.6734642045963504
0.7657338943638631
-0.1374259099456444
0.09286709783926886
11.01805522387857
-4.662983878373542
-6.447938443339035
-0.1249113275773341
0.006133696072477457
-0.0934622561205644
0.2122398876160586
-0.6238697700235944
4.041667908508148
-5.143465654799398
-7.721963710341692
3.318460249114359
-1.177632213289959
5.581135674514985
-6.655275849527229
3.901532189917429
-6.818125476369094
9.571869135946613
0.00172742373009488
-0.1654975908653183
0.02943922530800146
0.1343309418219965
-0.02779309768676915
-0.3437585144138783
0.3647704789210417
0.006781133171996774
16.85770419815197
16.43026411199848
-12.48410338046507
-20.80386492966592
6.462140948595868
10.39556324956996
25.86707382512798
-6.632336566883279
-2.804473146230011
-0.0526286176913456
0.1844970146562759
-0.06243735532409667
-0.06943104164836904
0.1488177805517018
-0.1013831840676144
-0.1000632141831408
29.760275180073
-40.44516122862025
2.960288120984931
7.724597927574053
-0.07993936890130265
0.07311285979278745
0.0007635191846405823
0.006062989914764412
-0.0384056954982667
0.1059276747853633
-0.06752197929160686
0.1411432744065315
-0.1756999066658141
0.3258869590948424
-0.2913303268473143
25.78751315405655
25.91301485799586
-0.1009081339266847
-0.01513130257847384
0.1378132882504619
-0.02177385175171113
-14.19507994930598
14.20577677925744
0.1258571085023732
0.02367151108497579
0.02280028743872492
-0.1723289070337813
-0.04205741696052247
0.01731070500880765
0.02474671194644055
0.1673678181010625
-0.01646802317523457
-0.1788765335824096
0.02797673865257806
-4.693684507544107
4.707630207685378
4.774229429339102
-4.788175129465782
-0.02092945318644868
-0.07245075616308294
0.02701831091065792
0.06636189843371448
-0.05913061191375844
-0.0398062923120707
-0.05287950157898858
0.03195004839092377
0.03114355085257095
0.0687899428940844
0.002949965613549466
-0.1028834593637655
0.06976065692959366
0.1237833636504069
-0.02060525258350448
-0.03227424899743846
0.07070669444734277
-0.1171873376386828
-0.103745928694999
0.1502265718814872
0.05793329802654368
-0.02048990599224428
-0.03744339203784409
0.02519168236195996
-0.09551544370193828
-0.1037249811368325
0.1740487424680953
-0.303269944369699
0.1254519926535971
0.3194062865779985
-0.1415883348827935
-0.7395694378643398
0.08018959982712838
0.4925938551398024
0.1667859828909982
-0.1044936536277607
-0.2021795172069237
0.4230706306111447
-0.116397459792974
0.3064094920107133
-0.0326818451228791
-0.5028884734031002
0.2291608265153963
0.09253619271979914
0.02400139575555983
-0.02347184965901918
-0.1384700072792825
0.3270707777605238
0.09768793707098877
-0.2862887075645382
0.07674947161033632
0.06233907677556729
-0.1390885483885432
0.1080521316150021
-0.1218023382147807
0.07554352912251283
-0.06179332252711599
0.7880044297042397
0.01216059981041943
-0.4623179813690755
-1.266648149552528
-1.290228549545295
0.9277994686838706
1.629077230410833
-0.1101310515279119
0.03147156493026498
0.1099111055342813
0.07336407992762953
-0.0412773832262518
-0.1384675143084397
0.09972106218337097
-0.01541019191134207
0.05415664402673739
-1.165203508276492
0.7409830389437824
0.1924362548423567
0.231784214474417
-0.3503224045550178