/*--------------------------------*- C++ -*----------------------------------*\
| =========                 |                                                 |
| \\      /  F ield         | OpenFOAM: The Open Source CFD Toolbox           |
|  \\    /   O peration     | Version:  v1906                                 |
|   \\  /    A nd           | Web:      www.OpenFOAM.com                      |
|    \\/     M anipulation  |                                                 |
\*---------------------------------------------------------------------------*/
FoamFile
{
    version     2.0;
    format      ascii;
    class       volVectorField;
    location    "0.5";
    object      U;
}
// * * * * * * * * * * * * * * * * * * * * * * * * * * * * * * * * * * * * * //

dimensions      [0 1 -1 0 0 0 0];


internalField   nonuniform List<vector> 
19631
(
(5.002292648167607 0.001413847886766414 -0.00140469227590421)
(5.006434456291419 -0.002673403401971038 -0.002291814035828098)
(5.035711628022505 -0.02781236649797173 0.09515952413199598)
(4.548596594043943 -0.1191093753841179 0.1671033539004566)
(5.002958308541305 -0.002821453788133678 0.003009308815755398)
(5.070932527287254 -0.08470287014370313 0.02724831901394886)
(5.020529939046029 -0.01329878147077964 -0.01691579125360954)
(4.981823809610912 -0.0003544766335737787 -0.01800415106013558)
(5.002687581695305 0.000201211394720733 0.001798166793292311)
(5.011077935105073 -0.01280935137764314 0.02283952942139532)
(4.979546419252749 -0.009043308566400149 -0.01154175749115682)
(5.018135427553539 -0.01108561513533433 0.004844282879538836)
(3.27755423967737 -0.2658350427160179 -0.008855594306944672)
(5.016907084830654 -0.01193096343875842 0.001674543091112518)
(5.013042392360552 -0.008642536310947899 -0.006881407804163746)
(5.004470431177312 -0.0002483510390857544 0.004195009421320061)
(5.090964685601902 0.03339656156706872 -0.2809801274188239)
(5.012049073806189 -0.01015541338033669 -0.006089283260406274)
(5.001429286261865 -0.001561918398519863 -0.0005444168430802178)
(5.00744463991089 -0.004705705120764125 0.009821355119350254)
(5.001516016922476 -0.001378206335850536 0.002017930285307717)
(5.015981058821989 -0.004965487219329478 -0.002906703536226267)
(4.998575837700819 -0.003640731720165486 -0.0002871193372369363)
(5.19351088457892 -0.1214886936464439 0.0182824415871175)
(5.016942273702458 -0.01377743293670612 -0.004872315399876741)
(5.017094853079895 -0.004670899462996599 -0.002465372665435394)
(5.026516822939565 -0.007062141675868849 -0.002566517156254717)
(4.811481232714781 -0.01881945808299791 0.004755137483690794)
(4.495803708952932 -0.1086400976788332 0.0007289366846334727)
(5.019731100194063 0.004633027790743014 -0.01231985311866678)
(5.000903115768916 -0.002024331118372146 0.001397912651478417)
(5.100656086119285 -0.06678562427582529 0.09705529981318446)
(4.99964607888064 -0.00668859260201575 -0.002856852683113448)
(5.020151386960825 -0.01143354154076869 -0.01246921362514495)
(5.093717757286051 -0.1509804853619959 -0.02723708363939574)
(5.016205462335511 -0.007036040357946236 -0.007091231470694587)
(5.043625000381586 -0.01198852583566927 -0.01937798788986734)
(5.002741521577314 -0.002994657216952753 0.001094692715563695)
(5.036395324650517 -0.04422439288285324 0.09467044719756793)
(5.020744263536086 -0.01402545967165827 -0.04712791563419674)
(5.140424693410523 -0.08420887417537047 -0.1513709594256696)
(4.917740541028102 -0.04254125785119785 -0.3425438173986577)
(5.057207485724867 -0.04376029246221992 0.005354177778970705)
(4.77521197368655 0.04073086752175087 -0.1143957430912294)
(4.987627473672156 -0.0138332479461133 0.0647258086775656)
(4.719142590980976 0.2946946319468007 -0.2519885956478636)
(4.963625385131055 -0.02903039447065114 0.1842722734478194)
(5.088863366180835 0.1190921463952262 -0.525812713678946)
(5.042565778875089 -0.03225209823222981 0.02217354583288612)
(5.015984162825266 -0.006788521017578815 0.06137908115665976)
(4.99759402215481 0.0006137534156678648 -0.003124212232885677)
(5.020945123432521 -0.009554796629225357 -0.0003853615129184137)
(4.93368128083963 0.1327157328788166 -0.0394646798648932)
(5.026574785865097 -0.01168443195415636 -0.01259994076840374)
(4.974025709550283 -0.0139577926117119 0.01429804384242854)
(5.037356778144797 0.02814103437967661 -0.1565690719142699)
(5.094636435266714 -0.1628942588596279 0.0624080986590219)
(5.021534698978562 -0.005046337529520397 0.007746321680485631)
(5.036426295341546 -0.03615810241842297 -0.0824668581496828)
(4.880154079371457 0.1175293020453546 0.103443985398531)
(5.178391162174334 -0.2800997004592819 0.2041740899463393)
(5.144652763922278 -0.1899378829812195 0.1647569423010884)
(4.980954992265614 -0.1723055284982927 0.2051427942114757)
(5.081767728767667 -0.08652271753338958 0.06874309043612588)
(4.647966924998846 0.0532813733589579 0.365887813599283)
(4.962766739140966 -0.04864572632761326 -0.4733880833451405)
(5.023401842224822 -0.01504213892679694 -0.01654190220316215)
(4.991364085702594 0.009214308346945841 0.00417674685609954)
(4.445517568993963 -0.256015365433246 -0.09578175202050289)
(4.983754280914486 -0.02593121199987307 0.0229204993489373)
(4.755170624140266 -0.01493725510412504 -0.04618578036983998)
(5.073855885736468 -0.05043644246985751 -0.0460737005873347)
(5.052700619222258 -0.05869838928472874 0.0238626329406219)
(5.058418983170023 -0.1246349157429762 -0.4755887393578452)
(5.040391852463842 -0.03407568139302265 -0.1269773064920455)
(4.589109815230644 -0.07028175837772198 0.03196114267271461)
(4.986815350795206 -0.009260932596279572 -0.02351048964660323)
(5.011906405082762 -0.08402103702999449 0.1628466316180649)
(3.600912585971441 -0.134604855609338 -0.0837962222397174)
(5.021973857809983 -0.005844193487202379 -0.005107091725643206)
(3.255137603298847 -0.3174281228561413 0.1344860110513519)
(5.007889661408093 -0.02747534903350962 0.06724573417831679)
(4.741215640737981 -0.01506415228666183 -0.2242192479345063)
(4.342226498496062 0.4429852258554814 -0.3071590269581866)
(5.048088388394066 -0.02643710445711762 -0.06311350839047107)
(5.064527141024825 -0.07365396893266743 -0.01691541524750041)
(5.09984275453443 -0.06470299209821255 0.04541465246839931)
(4.821354924964816 0.3930222977713464 -0.01399289197349193)
(4.592129548430353 -0.03564721766665783 0.2676326905460186)
(5.028943816850272 -0.08313588872037318 -0.09115970619808009)
(5.087080810804867 -0.04761475432116144 -0.1462044608234235)
(4.809033969203857 0.001296984786805835 -0.04738966748182348)
(5.079087590007279 -0.08201238906131308 -0.1015167691920479)
(5.098068869922683 -0.08200668728229406 0.06945244698300519)
(5.06140185762473 0.0189624477236662 -0.06364132848783721)
(5.084705637108891 -0.1051320947656275 -0.0532533378053423)
(4.20931053333746 -0.08541901423802273 0.3498787384849774)
(5.021721228740788 0.003784988086725056 -0.1492549896691022)
(5.077594081964618 -0.06459877638588894 0.1327738742144036)
(5.055131225986852 -0.07122380169256839 0.01590389592895315)
(5.012583133259416 -0.01123138456706795 -0.004706650615313755)
(3.516512247764489 0.1023644001962579 0.1388321562940238)
(5.016540385877734 -0.007279554330394897 -0.00227968313112712)
(2.739599989794528 -0.2340826288069495 -0.09815731020194324)
(5.044704457286014 -0.06547469334985004 0.2412199700992225)
(5.102038262021488 -0.09558767245818327 -0.06700417593987018)
(5.025761078917974 -0.0123781758436319 -0.007281976445360334)
(4.1259632535152 -0.09847541714893818 0.0499073464348227)
(5.016196953875574 -0.01093263723790986 0.01323395317703652)
(4.96447991724092 -0.005660867490624394 0.00369884346596545)
(5.060019773659636 -0.01611014674702916 -0.02677413011985521)
(4.482468332209089 0.117262252565162 0.2545781271922772)
(5.01093185375374 -0.009736816321177266 0.00406249111547502)
(3.621875009629574 -0.1210882150678481 0.06737247729323997)
(4.326134951507967 0.04473120974858819 -0.1739448492626178)
(5.113753846129336 -0.1380373595472213 -0.2954541747278995)
(5.022007479917155 -0.09441937564797134 -0.07759054390267191)
(5.038772074924254 -0.06102733223675756 -0.07811919032178381)
(3.81862888926212 0.3379846337247752 -0.3029156274214018)
(5.001136858240296 -0.001015508244703422 0.0007480818463351159)
(5.007473082611539 -0.02770127773795314 0.0297374953144997)
(5.013845091945178 -0.01284662693881212 -0.01181148124041771)
(5.015897629210146 -0.00760420730939731 -0.01266436674372731)
(4.992437315824739 -0.01074482933606791 -0.0116953653555652)
(5.002209789262006 -0.00943747428734212 -0.03523445059457298)
(5.015818887493581 -0.007399686361127738 -0.009549935950030222)
(4.913356659065757 -0.01909805148207921 0.01294321549146778)
(5.021548255670949 -0.01075472516531796 -0.007505085745509473)
(5.012946380811463 -0.009770220914936819 -0.005466586796063565)
(5.021692965105512 -0.01035698120213619 -0.001970528696438014)
(5.003472582920777 -0.02020192035302131 0.01706889778344396)
(5.031936089998224 -0.0354327694399769 -0.2317739900774367)
(4.162071919666501 -1.246849307940719 -0.5112974457525146)
(4.481082250728748 0.6696765567009164 0.1043845344321668)
(5.019753885125978 -0.01398911132864363 -0.01402541987133426)
(5.025592457538806 -0.008188390259953753 0.001626017312510842)
(5.030537099051852 -0.01105694989773594 -0.01318470676587406)
(4.952372557212299 -0.002521777356833608 0.007317726788712046)
(5.029059806695953 -0.0471705019646823 -0.01047701196448468)
(5.02855093054631 -0.02213365342836543 -0.00791054882262056)
(4.978769674386119 -0.0110796735103955 0.008422867151206668)
(4.825350682617596 -0.02028292845828723 -0.01443205330631198)
(4.986952962208659 0.09052176008114503 -0.2798781438365931)
(5.078043094198268 -0.04319022805258574 -0.04052781381103825)
(5.046892704485754 -0.06760436779844713 0.09371778531753974)
(5.051246316165224 -0.01169592470203899 -0.0247519313591598)
(5.039144102248678 -0.01948893862417145 -0.04522896172513664)
(5.014383706352744 -0.009677679841821583 -0.007610957631223408)
(5.326184941822539 0.4178898443381917 -0.711738013870676)
(5.030649475525554 -0.09654789154767821 0.05914881632488939)
(5.006694102678956 -0.001139999946819649 -0.004920677563455713)
(5.021210221715414 -0.006234558576920153 -0.0007904846156315705)
(5.018591958826707 -0.01152621773262056 -0.001193225785801114)
(5.025949663498847 -0.01264937029592507 -0.003036258768081741)
(5.0107609813894 -0.00544560397101372 -0.006543617476026832)
(5.023917319481725 -0.005203061706086627 -0.03047290052345025)
(4.1283130782441 0.0635507029039542 -0.06673179667583214)
(5.046621093034144 -0.0667061368587476 -0.05691375599365829)
(5.073279686982307 -0.1141996675384758 -0.02573499996131431)
(5.021026094446192 -0.0181428474986734 -0.009178867212353163)
(5.003531058182698 -0.0002059061590740707 0.001724999206428821)
(5.015515967386723 0.005669221387570094 -0.01269737243329152)
(4.799340513611917 -0.194125527884599 0.005776645991887035)
(5.003195004371666 -0.004196904721251084 -0.006786480284277704)
(5.019430034623248 -0.007368663929358688 -0.001807262067432013)
(5.019260109536854 -0.009108416888318189 -0.01089893053720502)
(5.013917982887762 -0.009565606343062711 -0.008933659303395541)
(5.013066215296144 -0.005580612603238946 -0.004217876158189269)
(4.975627283093943 -0.007305402260986734 -0.003270724631877821)
(4.899722764142068 -0.09574460771351677 0.080541857499923)
(5.042881749063866 0.004954790722885955 -0.009339060372867537)
(5.026788721585497 0.106527181254786 0.08224320945756995)
(5.053876200304632 -0.007429346775703393 -0.02760289759677651)
(5.000408312932076 -0.00845902945608904 -0.01056214927195735)
(5.033614030245674 -0.004344593152795903 -0.02622359185833617)
(4.856018179346766 0.04233354855308413 -0.0202434871092482)
(5.016266936224776 0.001508165101370498 0.0107369243165898)
(3.32885916568994 -0.01717882751683485 -0.1362107062887087)
(5.019232677761906 -0.02350982715804537 -0.01647781609890757)
(4.879885833997063 -0.02876566301972869 -0.3214344813278329)
(5.106105213480634 -0.1622340470493093 0.05692793993654977)
(4.996198821980522 -0.003564395477778604 -0.008800985276439084)
(4.979838963159041 -0.01023574371035305 0.003993976620916997)
(5.014483401247182 -0.00275516676811305 0.01013894283261164)
(4.316969128504457 -0.517991267472381 -0.1778167593069656)
(3.563034946946047 -0.1002852710412696 -0.201386481533658)
(4.911528575785399 0.1886400726445143 -0.1705159888631187)
(5.000636216047484 0.001157388607825679 0.006624078405435742)
(4.974775134897707 0.01847714235443072 0.2038189474804841)
(5.018127300711411 -0.01506428341931187 0.01817075856941475)
(3.945841047493946 -0.07499308394236412 -0.122558938515653)
(5.080445541295955 -0.03800473064170903 -0.06230782840585864)
(4.969729613152756 -0.08190978937693374 -0.07352959713609909)
(5.013676243618579 0.02334738495974023 -0.0286013650613183)
(3.811862209470768 0.327455190816537 -0.01441146767763829)
(5.143426621688024 -0.1436047755826451 -0.03294113893493535)
(5.002215009683227 -0.005934331981730833 0.0205563202970413)
(5.059969521809942 -0.05155938481471702 0.1440865542833444)
(3.946645567802688 0.6608532439984046 0.5664190103235339)
(5.006350233081023 -0.2484869578225894 0.2692551764621062)
(4.94075078605695 -0.01415036875857434 0.06635306415816661)
(4.974785899859047 0.1359934184553297 0.2181394661166823)
(2.515919097554922 0.2609000995459679 0.2947905340773687)
(4.284582376940071 0.03439139782936745 0.285876689694423)
(5.011582872244649 -0.01083967738720681 0.005583118066440693)
(5.008319517365025 -0.005739676194052169 -0.00753232951686313)
(4.99218352327473 0.006308724831389355 0.004262587540988279)
(3.827538782363058 0.08226722002058956 0.1539343959246683)
(5.002600220868891 -0.004225202046827724 -0.0005947342594170024)
(5.001301881923649 -0.02111228702712323 0.09523999638515125)
(5.045346519505824 -0.06451025393943226 0.02001671136100837)
(5.030394667501866 -0.00932545282698998 0.003911816486850175)
(5.048444671100206 -0.1183609240690917 0.06150190657917909)
(5.002033044861572 0.004870523375130957 0.001657770385114338)
(5.033496605949707 -0.08056387540123086 -0.03225557383682594)
(4.188524721742586 0.1625841071879849 -0.05622615176774333)
(5.073784477050276 0.02667962589098211 -0.3143767641396845)
(4.915344998502775 -0.1537630072093076 -0.1316063105653794)
(5.002823061279767 -0.004105052271903141 0.0004685723949434459)
(4.976742345114759 -0.02278067060391845 0.1951114175196809)
(5.000851384801273 -0.001514870859064848 -0.002794502783871534)
(5.060648423041044 0.005879438705309117 0.0834622864719024)
(5.007665214341562 -0.005126945555219671 -0.002941337562075389)
(4.942479842150969 0.1156819292633659 0.2137826273511858)
(4.938760178124835 -5.497411657647968e-05 -0.03015404069073589)
(4.3011586731198 -0.2589114922601761 0.08349488768836794)
(5.043060250435004 -0.0689073862354278 0.02636686225283232)
(5.035335063517284 -0.04613162365596542 -0.0134545901188407)
(4.977375185406295 -0.06482338473914605 -0.02403734824409461)
(5.021236432806473 -0.09534984242177534 -0.02068826634166676)
(5.101480219123157 -0.008571941707106756 0.176522317810969)
(5.056921947091377 -0.08985227656064824 0.04428699537600411)
(3.921729983873647 -0.6294228129192374 -0.4983132070634044)
(2.687539783211258 -0.2383674033145895 0.2180580837512459)
(4.966300462361076 0.007957935767626007 -0.00650271799918157)
(5.045202255399354 -0.0858469190248065 0.09923913000472449)
(5.057578948108548 -0.04886836643343102 0.14022166119109)
(5.077969599064216 -0.08123001598478008 0.02023002175485732)
(4.938430133075356 -0.22428247807474 -0.3300060776227562)
(5.071808779463725 -0.0280518035850216 0.04230597738550868)
(5.005258859426919 -0.002815645945234866 0.00103870141120384)
(5.010668855107949 -0.007458309253882083 0.01682070351725243)
(5.010675002406436 -0.006721557460408266 0.0174944625963947)
(5.004002809178594 -0.001251459595873767 -0.002037718720266848)
(3.884969304930721 -0.1536085578895156 -0.09540805913912037)
(4.024807515363527 0.001729831296343435 0.1066049991125526)
(4.988553558342228 -0.00724855282077335 -0.01418035563924846)
(5.083394384234606 -0.1014133771330713 0.01894523022600956)
(4.3738598692584 -0.09667531680233368 -0.06803678496661968)
(4.395985738110196 0.8138708215355445 1.347801568157434)
(3.691512196444569 -0.07246469050479964 -0.03974973195710309)
(2.968235996390083 0.08975031544736239 -0.1211479078596849)
(5.198584840937811 -0.1102082213478977 0.07185747217803029)
(5.119568696033628 -0.02734618705936763 0.1543914029124021)
(2.683678107657117 0.2525329579640676 0.1600341029295964)
(5.054207952301465 -0.07205656622760269 0.03044792619470915)
(5.044979511473623 -0.04895335075048484 0.0828687411390974)
(4.411377854781379 -0.00593381002227927 0.01989071212173847)
(5.003318093676413 7.232497941521917e-05 -0.00138757834838658)
(4.768557707416408 -0.147177425673713 0.04628815801357924)
(4.87949870015776 0.1094723942727849 -0.03592995192691906)
(5.110686961731027 -0.0559409289425537 -0.1646326215187007)
(5.113832650562967 -0.1173203242651985 0.1277489080471961)
(5.109928475837752 -0.06003094552115035 -0.1431578367460832)
(5.003439067989389 -0.003187230417387289 0.002171726010325393)
(4.394460970950198 -0.04677564232749975 -0.208396853485808)
(4.756668547471269 -0.1558746141143604 0.2205022493552275)
(3.947431960767285 -0.04051881393652357 -0.115758057732491)
(3.8017041802449 -0.1449666659933903 -0.003697234040165468)
(5.095005081842758 -0.123694166440105 0.04351064789929342)
(4.536200760749709 -0.3159878838690218 0.2814302378951072)
(4.954711379781036 -0.02259268701361667 -0.005801367172384025)
(4.124518469365601 0.04815973838541754 0.1019883674953626)
(4.964643880726308 -0.01199612496293019 -0.03271030951727227)
(4.998572618089 -0.002397772986152342 0.002024159310635405)
(5.057851823209366 -0.02634969575454011 0.02998605515701572)
(4.781411343851893 -0.1096248478826909 0.09188297103314749)
(4.50665558069027 -0.01930501280245031 0.3788762139559793)
(5.04185082643308 -0.04090073796010652 0.08855363472768188)
(4.961783046936267 0.09670158872353037 -0.0240031459895341)
(4.900685996599765 0.06469858772052073 -0.08498475939571551)
(3.97106539757845 -0.1263435292991608 -0.1140888270707307)
(5.051810167802802 -0.08935567996610078 0.004693993595380312)
(5.046857983317548 0.01233332526726859 -0.04023490963020648)
(5.09808252392956 -0.2144052912482884 0.1089776906195883)
(5.051401491800386 -0.03938527620748819 -0.06394761316325971)
(5.004203408275129 -0.002457045665772437 -0.006695122266827795)
(5.063313473188644 -0.0551610354879885 0.04837347561357157)
(5.096943294480686 -0.03299758401773878 -0.0768113661027051)
(5.024014537528965 -0.03391318346556221 -0.07744173053325729)
(5.025369632216295 0.026170268737677 -0.2083617055831229)
(4.594409956786515 -0.2751040579509241 0.2486313270496877)
(4.995448081058127 0.07657999537541854 0.09331138349443938)
(5.022388453249487 -0.01070937414387957 -0.00128121928440878)
(5.003024642056364 -0.0009790183988716151 -0.001102914115101196)
(5.050650393788903 -0.06165859890845707 0.3716294546791479)
(5.101256163202486 -0.1554826738181284 0.02624720414588322)
(4.84123900736581 -0.09429307729551377 -7.018397123200582e-06)
(4.995793809085853 -0.03660797931484738 0.1640859692064185)
(4.245404419917376 -0.2708115921352104 -0.3072930466179879)
(4.887015695235816 -0.1282391377542656 -0.0203416010533334)
(4.926735023776717 0.29047669878966 0.04983501952473152)
(4.995828937484593 0.006861468644383363 -0.0009982749411652848)
(5.113075884338189 -0.07555925399865247 -0.1885901765774)
(5.042614222828543 -0.06678423579658885 -0.0456011912842214)
(5.044015730920308 -0.03751905329934838 0.04516268290477052)
(3.684735991705706 0.002970381149030395 0.2215205994011767)
(5.0014948173817 0.001733390981499044 0.003076113307020497)
(4.991818088370327 0.001638565421251496 -0.002238815971441801)
(5.007314020524439 -0.005398370253226259 -0.03136383517828759)
(4.997445183506213 0.001867604076483967 -0.005824242241344858)
(3.32728885001793 0.08148617528424464 0.1636211131038479)
(5.116375581679875 -0.1501082008691833 0.4715420389519078)
(5.049502719104 -0.04827750287086673 0.00913825389404245)
(5.027899655681259 -0.0108978662011175 0.008066388405199456)
(4.962714780864608 -0.0175582409096669 0.07033309443734102)
(4.993834306993303 -0.004327053189551591 -0.002286334553136721)
(4.994266833231953 -0.0008416582645207569 0.0001549788068267041)
(4.639006920189268 -0.06190114011758773 -0.07818646160344526)
(5.000447744388223 -0.001390753276661361 0.00325528071254629)
(5.07068701284626 -0.05981871803809924 -0.04736635639598055)
(2.169216101345086 -0.2177297387257438 0.1540644096617637)
(5.059711433255289 -0.02232112481754263 -0.1838798369614912)
(4.996554255165789 0.004609813275213794 -0.002957494228059742)
(4.595986753594185 0.2351302552611626 -0.1374565300389672)
(4.43876250702665 -0.06560745523164918 0.4288248017736395)
(4.945368522138134 -0.06031019324035106 -0.09539239455889789)
(4.891065867760056 0.3803057277851125 0.4472927631946743)
(5.086850428615369 -0.1022564955507237 -0.03609085999302568)
(5.072110176334578 -0.03254168582385766 -0.2180855622485124)
(4.979536179133363 -0.01466153220138139 0.1992444986405313)
(5.0325421111359 -0.02045672955012489 -0.02797345080429221)
(5.007672557824954 0.0224934389722057 0.09578290684453752)
(4.995555503890166 0.04374854639293228 0.08097485679095365)
(4.121616248348055 -0.1424104542512841 -0.2611275817170332)
(5.008966231255037 0.003321470550100329 0.00165757363557025)
(3.599282527832766 -0.2926619349198753 -0.2964053893059304)
(4.831664359507035 -0.01818248801546008 -0.2298351527464972)
(5.002857501774986 -0.003339334404418234 0.001955653306761161)
(5.051914188698793 -0.04829806722294516 0.01382123172831774)
(5.028683004426277 -0.01562056991936116 0.02334637536681016)
(5.012187186043552 -0.1116117174514344 -0.05773868583760947)
(5.038564305507798 -0.03311563545493262 -0.0187637438232657)
(3.453640070362532 -0.4811361186944921 -0.203167443534585)
(4.588968488759662 0.3187612313313168 -0.04994363343601797)
(4.118623501081988 -0.3224798684532959 -0.1876981631030972)
(5.005090744131682 0.002523381675248754 0.001020690655688075)
(4.994164420203375 0.06298781815111006 0.2869388727564243)
(5.051420180901959 -0.06490656515347278 0.01263238406652821)
(5.041215488124633 -0.01740244265040595 -0.05565877409668665)
(5.055223740150773 -0.04677252219969863 -0.03670456567062921)
(5.121067690397065 -0.08832998244859983 0.1143156450533363)
(4.533158539665084 -0.03047814979631409 -0.05370216682261549)
(4.838341878266875 -0.1539041758764572 0.1450632462084246)
(5.036879469079586 -0.03133928800553728 0.0500350743037031)
(4.848794523983292 -0.4302326083802959 0.3892463024628425)
(5.037027551926365 -0.0578483090373125 0.0798988726916169)
(4.475285222447532 -0.1350140682436716 -0.01631670310213769)
(5.20151681677146 -0.1630910259296174 0.1133035429913647)
(5.064311858517663 -0.005260060471003541 -0.09910196535954799)
(5.057926333531639 -0.0639233110084413 0.001342965613806796)
(3.87730650467514 0.03043289347761618 0.06189748121455838)
(4.960411545840515 0.1190728049683317 -0.2235683926278041)
(4.998726355634683 0.01215172788536895 -0.02055910951165245)
(4.927381527857388 0.0717840152935986 0.1527911808474079)
(5.04472442987415 -0.04580820811573121 0.0175424903505569)
(4.321363090651382 -0.1174452032343118 0.2055775582788266)
(4.992175083019485 -0.0007936943972323055 -0.002643937902896939)
(5.033257600159325 -0.03552109363714612 0.04344092828797721)
(5.062142351477124 -0.1022342568752891 -0.1788378724653184)
(5.00096007066126 -0.0009345986705889565 0.001705746666740943)
(5.000935029799928 -0.0006557021625944845 0.002170241092359955)
(5.05740133967578 -0.03479082071040461 -0.05363596890735309)
(5.002032076123361 0.02781591018394182 0.1081574003920427)
(5.055483617400683 -0.01529665137248727 -0.02375469038647966)
(5.00165688482138 0.001815111956544334 -0.004183186566980988)
(5.006577195170636 -0.01374918294281039 -0.01590466137009696)
(5.020457134533982 -0.004821292765751064 0.005807266760504737)
(5.055223847146294 -0.03863053526595864 -0.01602745674521701)
(5.01009763420248 -0.01322802676756792 0.008598917758141549)
(3.974312621728199 0.05236632460395804 0.0510725911714898)
(5.017709360381067 -0.006386892509856066 -0.0005741675024367759)
(4.998732695293936 0.0009428176583503859 0.01008657822534321)
(5.00577107604619 -0.002225913170616948 2.337985987519906e-05)
(5.013937414734889 -0.360624293710101 0.13050297946986)
(5.113785126509796 -0.08034419706139094 -0.05840910334058922)
(5.001831085428848 0.001595300129519991 -0.000808392443091625)
(4.982083248346749 0.01474640482832165 -0.001769476008324413)
(4.999484848502001 -0.003971318729482547 -0.00597370691054428)
(4.949168316246808 0.03154393901050254 0.001056181341681483)
(5.089568620586601 -0.0535104283137323 0.0291698552991384)
(5.000905408512797 0.0007642207216043846 -0.0002136314231594803)
(3.328597320633348 0.0921923051676299 -0.1344000375625191)
(3.924614325575947 -0.2522767835444665 -0.4296142606401356)
(5.067497245552547 -0.1201437873216122 0.1091312471854306)
(5.001280340590973 0.0002670956732106244 -0.000393629169130095)
(5.003032406009758 -0.0003707847576307477 -0.0008427633803521838)
(5.02725329961399 -0.02954122304570034 0.166358431656495)
(4.950534994625824 0.002494641517743074 -0.02779763236833488)
(5.109096177151125 -0.1516699699078406 0.2029432373472874)
(2.894122478514016 -0.1642140512177793 -0.3838291797447458)
(5.06449240561634 -0.03215151559247552 -0.1727630911377119)
(5.009205945638177 0.006377815967427545 0.007057874641557185)
(3.812993895313062 -0.4149756308080769 0.2706324491824007)
(3.812998544556315 0.1058795135443783 -0.2905671595559365)
(2.649174026886219 -0.3329876578465352 -0.3704827809505674)
(5.027450314345424 -0.09767188119308308 0.2476808439411205)
(5.039673122900571 0.07227520044539766 0.00982265605558693)
(3.635127912955758 -0.1448068636797172 0.0008534092194323155)
(5.163193676129343 -0.1674091892782196 -0.1867288563277372)
(2.485857337259342 -0.03960696648569088 0.01238121992021221)
(4.953496623948618 -0.06393529474504051 0.1095602659868327)
(4.985825023732643 0.08265532267862614 0.0003881245516570215)
(5.097785992700779 -0.1219505699721739 0.002050656809992346)
(5.069316255055909 -0.02755661225048335 -0.03662369437798864)
(5.070316296869779 -0.119092472925618 0.04435454144491438)
(4.827906015672752 -0.1111684354266849 -0.02870157001538374)
(5.064289074720483 -0.04039292362694344 0.07975172386362192)
(3.908224662681993 -0.2358849226408563 1.389901819213712)
(4.790224733643253 -0.271851979552522 0.2051706256154557)
(4.998443736003105 0.04446582819909622 -0.03708987485570338)
(5.008040744821208 -0.01167575960152462 0.0145873808560715)
(4.90943793785882 0.2281710659867912 0.07812896045199971)
(4.579729447722444 0.070261829591813 0.415504333245228)
(4.978802529647512 0.05916204811025932 0.1848799619748463)
(5.036491933216283 -0.02244464462070967 -0.01631001745250771)
(5.104775280593075 -0.07570463135571295 0.01990282811186723)
(5.067810975683289 -0.08292147079844824 -0.06177320484291313)
(5.021260371944329 -0.006561475449575 -0.02726121841530227)
(5.032278185744215 -0.02679037837335193 -0.003547289877768784)
(4.953781938320884 -0.006960900198052397 0.03812609132339725)
(3.5733170421579 0.07251236354583271 0.2773938544706236)
(4.833700901409726 -0.0513099643910423 -0.1342569403820451)
(5.010369305135095 -0.001312980723641143 -0.02462471537851538)
(5.016888295958208 -0.1327103299489927 -0.2403773199709476)
(2.657714103811089 0.4201342670770119 -0.4270133287809865)
(5.000904189413114 -0.001074029162507699 0.002904811362575919)
(3.660081662819218 0.5369450634446193 0.7166636970656255)
(4.752702988773054 0.1775982714417693 0.2130998717241973)
(4.434799846897765 0.7462693698097181 -0.2502618576278934)
(4.999686705370129 -0.002100318730919405 0.003042456218473845)
(5.050242276792715 -0.1484304623217341 -0.0672527864182481)
(4.931994026381651 0.1948962557637244 -0.3003437282137071)
(5.102098662910212 -0.2224899539083338 0.09359092546886094)
(5.002175972310447 -0.0003719502218994141 0.0003649157744715829)
(4.711786510168928 0.3386505670130146 0.3583822333895748)
(5.001556503794686 -0.002128195499388556 0.0003423320030185183)
(4.135485832392161 0.2356232991729183 -0.8020807798929722)
(3.730183678835567 0.8455177617242506 0.2851761123466171)
(5.030890718885398 -0.02628415605321976 0.02178764489403282)
(5.095392635162874 -0.1582991902160374 0.1718171511026271)
(5.066923268429088 -0.06257334070054944 -0.1060461034750959)
(3.312039411374559 0.07717701946201277 0.2329913108006714)
(4.04128725447044 0.001265225174844344 0.05573263656469472)
(5.001821900700178 -9.726151327798071e-05 0.000725846948214007)
(5.001499399591148 -0.0004676271597559745 0.001169286017983368)
(4.99022525110425 -0.008497749868358309 0.03105857015187113)
(5.083792169176006 -0.06809811514924767 -0.02651908321704491)
(5.078055308945371 -0.09895149915846986 0.01749670103749231)
(5.005789079408681 -0.006376526309089865 0.01146915100064847)
(4.961496086092615 -0.006420747825971777 0.01365111722801706)
(5.008108478001787 -0.002125419183225383 0.007909719592110145)
(4.984862110966201 -0.01859503707768076 -0.1004783555929886)
(4.986044360400401 -0.01589066078123687 -0.01824388077592528)
(4.89876397873254 0.02587892337978063 -0.1464895542689008)
(5.046194148586512 -0.0391832164545861 -0.01777385960231129)
(5.032249102755883 -0.1021428786017807 -0.1463792039962056)
(5.054838241858445 -0.05362654151334498 0.2371304994629373)
(4.985885198769365 0.008684386890003074 -0.002878145897485289)
(4.766081831473902 0.1523168349231872 0.0625629048760946)
(4.089804089999113 0.1957534712503931 0.08563606071508766)
(5.112712354999458 -0.09239134305385538 -0.06081335150684063)
(4.990373667871753 -0.008630227897547822 0.007624618366060062)
(5.00623387397459 -0.0005398290328246921 -0.001431796170724175)
(3.383240482132235 -0.08275881744510119 -0.1266069969528465)
(5.070072920646044 -0.05399514092958827 -0.02549195662222704)
(4.975075667425133 -0.007117380430079205 -0.01845191280496637)
(4.733369781711313 -0.0894312991844468 0.009758326525535033)