/*--------------------------------*- C++ -*----------------------------------*\
| =========                 |                                                 |
| \\      /  F ield         | OpenFOAM: The Open Source CFD Toolbox           |
|  \\    /   O peration     | Version:  v1906                                 |
|   \\  /    A nd           | Web:      www.OpenFOAM.com                      |
|    \\/     M anipulation  |                                                 |
\*---------------------------------------------------------------------------*/
FoamFile
{
    version     2.0;
    format      ascii;
    class       volVectorField;
    location    "0.5";
    object      vorticity;
}
// * * * * * * * * * * * * * * * * * * * * * * * * * * * * * * * * * * * * * //

dimensions      [0 0 -1 0 0 0 0];


internalField   nonuniform List<vector> 
19631
(
(0.001896517078350996 -0.0008381649506724726 -0.001183167594854871)
(-0.004626392549970954 0.01216766044552904 -0.0008094679310306635)
(-0.2586962792625629 -0.4300951264949004 -0.7555286244851008)
(-0.9663498137747446 -5.796841566616936 0.687146233261942)
(-0.003780411517961308 0.00354415104494655 0.0002822537955995788)
(-0.08327428394943429 0.172942752253355 -0.04820854901103077)
(-0.01368823738538402 -0.007384156943283983 0.009405213961623348)
(-0.03645976496989285 -0.07212462876118531 -5.709465311283175)
(-0.003269434733081391 0.001003799666731936 -0.002051790871661315)
(0.004600137993310074 -0.008863253464722918 0.0001999333461911839)
(-0.00730029012777449 -0.00463956533273762 0.01558218228173572)
(0.009642023668211916 0.01815384087558321 0.01372276438612599)
(7.618259045652282 16.45024481840152 4.15053123524725)
(0.0227226745452173 0.00188218142928195 -0.009242306577542877)
(-0.0002515753374186785 -0.001890989527644452 -0.002383410909839944)
(-0.004256524866857589 -0.00185047882549039 -0.00445361805858811)
(-1.684666579847162 -0.9259626711788393 -1.704052938729367)
(0.001540947984763833 -0.0004841234911503139 -0.0007540017845627509)
(0.0028819199233698 -0.0007608368645720682 -0.001262357664442059)
(0.003513726896142379 -0.05647794333645288 -0.0187429497772564)
(0.0003180726965357531 8.950846778910985e-05 0.0001368271915104365)
(0.002519774132986042 0.04600172542054785 -0.02503737631964015)
(-0.001648083277500184 -0.0005470418651848228 0.002389168772974022)
(-0.2983824794407987 0.7669728284453348 -0.5977064432260223)
(-0.02472552032009071 0.002217563244419095 -0.0003819268967669622)
(-0.004093045690266553 -0.005231686593440156 -0.002731418261712827)
(-0.005118644730605002 -0.008129867496375898 -0.01168557712023049)
(0.001149055704473354 0.03724313442713593 -5.849368238888202)
(-7.145576315604667 3.504942513109839 -4.479773987117239)
(0.03829953521086316 -0.009584190105591077 0.02588690376281108)
(2.547148555893946e-05 2.870385578062403e-05 -0.001468603372553984)
(0.04749708214413659 0.01562068659941675 0.02003380067026621)
(0.005602722745666221 0.001221188335218856 -0.008193099416514202)
(-0.01595648842839759 0.004365958176214548 -0.001346890640735734)
(0.08571443818363741 -1.953963473163017 0.5031326687520897)
(-0.009898394045503944 0.006135582824274615 -0.002945136055210203)
(0.0313162571502026 0.00363876129394977 0.02995867117072992)
(0.002025419287052538 0.0002899298635224241 -0.000375321002011897)
(0.03209104480110979 0.01219465675393823 -0.02491083689797764)
(0.09736296117273503 -0.0006052729832868864 0.01933602867655585)
(0.1861040243599297 -0.6348283441074286 0.2283848289810574)
(-0.9852467652716204 3.491030454275449 3.155938067886164)
(0.1013521865425573 -0.02639702042578538 -0.010778578363513)
(-0.273512184316154 1.349375886040532 -2.448828977557246)
(0.02364100849172183 0.04071976789206986 -0.2987688033430576)
(-3.038824721151859 0.02321317550322665 1.112955659925604)
(-0.935544195830853 -0.5278634712655045 -0.6868426738769245)
(-4.991776192512298 -0.7597170366677463 -1.705823757245185)
(0.0329916827084837 0.006497856424809212 0.006324360930584506)
(-0.1466170025626043 -0.02122200487577567 0.004465451070744219)
(-0.002647058833284872 0.001074996208067599 -0.005770669150765153)
(-0.0008546648382796829 -0.002746669995413334 -0.0005061372376649513)
(0.4792427384088911 0.2009742865032952 0.1990990877493813)
(-0.01020258722213388 -0.008633568547695708 0.02396281413503635)
(-0.004551206577098905 -0.005919946369636709 -0.005077297685114168)
(0.01133312653439411 0.005207483791902501 -0.04386688635871571)
(0.2420141611570934 0.7292721561224862 -0.235531534502544)
(-0.004190642670666522 0.00645962717789293 -0.002527074783347067)
(0.1502379872458658 0.02474938268316759 0.01880420080120427)
(-0.7531899149076208 -1.256747824051333 0.3094828940339)
(-1.464029996601472 -0.08562743076622986 2.218510882201438)
(-0.1099731940502362 -0.3566959262418424 0.1347772607722173)
(0.08740147567382728 -1.394612384771202 0.3041546400413353)
(-0.1388906526554587 0.09163572162513772 0.02821379299822722)
(-3.637287711534442 -0.1446615222022212 -6.481016983822196)
(0.4306916633317896 2.102166365406784 1.956054827001471)
(0.009441156067961139 0.0009788581476648838 0.01097020163201525)
(0.001587640541062503 0.004249865148727639 -4.744980552200776)
(-1.151790789852216 -1.735572551610531 -1.905778702404559)
(0.04077485038125561 0.01787379311963665 0.05520449664252768)
(1.917200727679441 1.726119402912504 -2.56663213752828)
(0.05732715177944828 0.3199002827079502 0.08739820152085169)
(-0.06209721815686714 0.001681106936376617 0.01192262457071092)
(0.5132949260330555 1.490098075114031 -0.1886382920051205)
(-0.02952840229240866 0.09330878908021217 0.01007714885861503)
(-0.06525167411624494 -3.065315389633565 -1.029653502061966)
(0.004647357997705526 -0.004612353356381795 -0.01105003482415086)
(-0.8109481226916024 -0.9415057251204184 0.3339588822766999)
(0.868314813398816 -16.66556161054675 0.4200720376129504)
(0.001392896525142422 -0.005135458260888091 -0.003179509879801979)
(-8.029475674893913 -47.95008200398203 -0.3088199397259115)
(0.03123995286287029 0.002641128678094788 -0.5151452896467115)
(-1.013192245359833 7.046655655021394 -2.081118064044841)
(6.311472672498043 1.249030115402964 5.750070874557506)
(-0.01915285303326209 0.02006063130341021 -0.04245856666141256)
(-0.1112500642025321 -0.03851812745938586 -0.01809520865257287)
(0.1710530177326278 0.4643845838886071 0.2200324133787359)
(-0.9748211831009331 -2.461316571675981 3.587260236460024)
(-0.4089530969857709 -1.522304404041516 -1.504527601436899)
(1.780743458742946 -2.673272042624673 -2.024992692405513)
(0.3869872944672351 0.1796341136884215 -0.04561837268872909)
(-0.01470402910514839 0.2765965866237049 0.1723283669714821)
(-0.1912645872884735 0.02336493677557436 -0.00503630067771922)
(-0.01854959306558282 -0.0405252630877423 -0.0968230103700342)
(0.1693383308240587 -0.02309303457631592 -0.09516005395363736)
(0.1838709653548097 0.1005366861045569 -0.01260591372979866)
(2.017505491848836 -0.5385604892318606 -0.1362472815337906)
(0.172318410538782 0.2852148546895168 0.2889319810414126)
(-0.2518638419529263 -0.08800906058879598 0.1247494770590585)
(-0.07638674244063484 0.00698178743300713 -0.006420849702120217)
(0.006045347389010762 -0.007447532597036922 -0.001484402717670803)
(-0.299869628366974 66.67920586625267 12.33799003831248)
(-0.0005139716174197837 -0.005367374588452739 0.01051120042626275)
(3.376971270758978 60.70653590794451 -12.18056319641505)
(-0.2072279059432005 -0.6213255353702966 0.1721038319479617)
(0.4327639292512238 -0.05311827050982552 -0.1653606841891243)
(0.00749311087747405 0.006862606787369071 -0.007909542220633069)
(-3.952494858682788 -4.554680127038495 3.812081463128147)
(0.00575545741638289 0.004159860104889392 -0.003911333937401869)
(0.007766660665630637 -0.01047669098423803 -4.578762290461919)
(-0.04546208091635678 -0.07020137227165583 0.05273993999370827)
(5.754800664726444 9.655132654145334 -1.858273756997046)
(0.002995878349136257 -0.002621543906628376 0.003607126014325294)
(1.542103412518315 42.16107087586398 3.213815732587985)
(0.05343406684077195 1.419742636688378 -1.171644152026663)
(0.1959913721353475 0.139687175936825 0.1084481148393128)
(0.2021224587560052 0.8665635302473049 -0.6354368453877804)
(0.01597798077343133 -0.00551255726893372 0.009752277544713226)
(3.083230368392231 13.73432268189899 -15.64223117069372)
(0.0002340206057522283 -0.0002838745981753503 0.0004084194723539975)
(0.01925641425099695 0.04223539165333758 -0.01993286728154081)
(0.01607634952686286 0.006628679109817024 0.009396179828488912)
(0.02248341328649 0.006358465343198245 0.01276823466664556)
(-0.03128817528340021 0.06110893835988006 -0.06526330827993335)
(-0.0002626528584108341 -0.01357851900198496 -0.04235203985305259)
(0.02055926989544021 0.008741662663816478 0.01038972525030236)
(0.0171434570330558 0.003613470040462872 -5.626552289343135)
(-0.01217195686110427 0.008370524367433203 -0.002627114407365519)
(0.004238102965642597 0.001130450332978033 0.003045832951298389)
(0.01192883652057463 -0.003231020817946947 -0.005142301159894318)
(0.008673215028640033 0.02304757966123392 -0.007005554503076843)
(0.3956555326601509 -0.408182344465962 -1.7466450147139)
(-3.006717808073503 -45.83548079474439 8.481887264997763)
(-2.776834376709922 -2.150371542265994 -0.9099228268674611)
(-0.001570052027529872 0.000568861067696832 -0.01194045668692574)
(0.005621206358739372 0.001644371739531716 -0.001375821119236409)
(-0.005777627170468068 0.002171952004813873 0.03391256352765221)
(-0.009974091558846206 0.01514499853024366 -0.007498355279884231)
(-0.0241528651614755 -0.01135161908923635 -0.003779726575925155)
(0.02058048890420847 0.002205401855851098 0.004548106737329891)
(-0.003320796517031006 0.002445617691807388 -0.007168954650213277)
(-0.01201014739450378 0.006487018579993852 -5.993383424576815)
(-0.9345088921182441 0.03488047760345434 0.08197389589699518)
(-0.08057606385032991 -0.08386550028895717 -0.007875005656115402)
(-0.02689932850569093 0.01818395769935593 0.1242866800984478)
(0.01793339916350403 0.04205011246675744 -0.09419746162171921)
(-0.03965159574123037 -0.04522777545963242 -0.07165468460301769)
(0.009156580441703284 0.005999042502933262 0.003998923526233562)
(0.0174033946904858 -8.837433555982749 -5.198552468642859)
(-0.4450556497788172 -3.611367773851138 0.5880765245141824)
(0.003706185463649102 -0.0008237468826346114 -0.0009574390630401157)
(0.007095848129931984 0.002892719553886747 -0.002454375008006293)
(-0.01004934889930949 -8.801458483569222e-05 0.005385215876590595)
(0.008024268615542653 -0.00626996988309949 0.008978738349032652)
(0.003519686644217413 -0.001757739134416311 0.001047780905708153)
(-0.02286631264892225 -0.02732828858208876 -0.0272478659318639)
(0.36667358658639 0.0848916488142443 -30.26325745275235)
(0.1382652832766822 0.09266420121629534 -0.01968898658228974)
(0.04942924149817093 -0.1961086076748236 -0.2331856564658855)
(0.02432441257651186 -0.002974407807215102 -0.001259512776200522)
(0.0007772935600736861 -0.00791060343607136 -0.005118085582704768)
(0.01283025055552823 -0.01915482719098623 -0.02523085476675557)
(-0.3098269784505499 4.242850332702117 -0.7626898104084938)
(-0.009749750040084449 -0.01342667254953794 -0.007040981365903991)
(-0.005520337006147943 -0.003302748441152729 0.002456610746949557)
(0.002636566357412776 3.22426791051619e-05 -0.0004252876408694884)
(0.001097202151812293 -0.003963984144983113 0.001685283814896248)
(0.001864635770985353 -0.0006949129814253709 -0.002741240236864582)
(-0.0003224451315363874 -0.001255683089003272 -4.197100182736134)
(0.5181419402728421 -1.908118235648448 0.7795739623661309)
(-0.005987955005682574 0.0002087861247274496 0.007274488542323668)
(-0.2202803157285469 0.2930890936661651 -0.431593645788574)
(0.02854311299061058 -0.01082523965130185 -0.2202224924503157)
(-0.01980097780332845 0.09943073084054327 -0.06517975745134633)
(0.0403445564647324 -0.05097267410333411 0.04772338342030322)
(0.1122660188611952 0.08290961598069482 -13.21223471436938)
(-0.01020628562375174 0.01288451226056769 0.0191055535820282)
(3.305171503774798 -4.483754449281198 -7.380470855847978)
(-0.01282233276695093 0.00147364095967554 0.004315253509795828)
(0.1601771156422406 0.7077214228298542 -0.2583860548085021)
(-0.08263407389789923 0.9378328767600674 -0.5553893312487662)
(0.001443388296896601 -0.002718020489573474 0.0001043680993834751)
(-0.002132751157943487 -0.001723895051307972 0.003246168918069048)
(0.0104800246812146 -0.0110653238931543 0.0146918905256174)
(-3.407004578641914 -44.26554484281421 3.59975859671477)
(-1.252826619252541 -34.16323776460882 1.237583888875802)
(0.5529743238201601 0.4487436941945013 -0.05909849899992475)
(0.004536260697384097 0.008631949041007819 -0.0006827975152352716)
(0.5287794921658574 -1.219100207099289 0.3681713886017747)
(-0.009145592289848003 -0.005147399041383931 -0.00495813199284759)
(-1.89184731855985 -30.98973183205405 -6.429177778067173)
(-0.1305842422108616 0.03158704418766046 -0.2134115391060067)
(-0.03679714907577139 -0.05450683309415642 -0.0541933129627258)
(0.06286912578432952 0.02474373940294281 -0.01120523306655054)
(-1.812086265585273 -10.84367345289998 -3.096719862602578)
(0.1713160352258107 -0.3947811652242928 0.1038185295439058)
(0.004870199230715592 -0.004224092823503765 -0.003110171709397389)
(0.2549116661359456 -0.2154649342293603 -0.1721821435692841)
(-2.61412779312701 39.71190894528014 -1.982255691807894)
(2.515550219646566 3.140093862099485 -1.251445483453624)
(0.01005299177879491 0.006162835821243162 0.01429366844673964)
(0.4722209533845407 -0.0276093443238325 -0.2056603560571167)
(-5.545048387797807 47.96695667806388 7.332428144912376)
(-5.682842029150827 9.212040409401141 0.4794356231547366)
(0.001246584724032528 -0.001580288151937626 0.005655985808665992)
(0.006129814261181117 0.0009186978426426876 -0.006760164729420667)
(0.003856346933058614 -0.01349343946039351 0.0003065762498760741)
(2.157390647418098 6.453866590322628 2.719801366775626)
(0.00261846236894058 0.003909640291435858 -0.003981128028899621)
(-0.01141367843252955 0.02358991408055799 0.02288774683223231)
(-0.002040816450368528 -0.01158219986491807 0.05085367839596434)
(-0.006556916983829174 -0.04968686586016075 -0.01526706932459823)
(-0.4143111267021221 -0.226774478008141 -0.2371978814021309)
(0.001696751448523652 0.005519362385444462 -0.0001341402629915014)
(0.003951190765194765 -0.03486714522715826 0.0199476991478728)
(5.169764886187941 -62.80815133198004 -4.988053527453877)
(0.2429630211278077 0.1146620094429215 -0.02563585172827047)
(-0.2231535722233975 -4.153523097092291 -1.095209007478813)
(0.003723098438494947 0.0004648035918760755 -0.001744018332029443)
(0.2511049679279845 -0.08124738356859564 0.04317111688940981)
(-0.001030558378788787 0.0008734455100809191 0.001021397557690172)
(0.3893465611062534 0.2720684141711865 -0.2351587536781887)
(0.007962362199635139 -0.01408655427873362 0.01439614333667389)
(-0.4501308539024693 -0.9153201909896276 0.282524620115891)
(-0.05463564852372721 0.09914751956389953 -5.675832413172166)
(3.757377235951463 4.664258588009051 11.06866080961905)
(-0.1118278762246809 -0.02162163775826068 -0.04233779264184805)
(-0.09568040052821927 -0.0269264450937615 0.05496645919482161)
(-0.0694318895605924 2.532096838739697 -0.4789229887204722)
(0.8477011092687011 0.4288055148061425 0.3962185012906557)
(0.1241024621575883 -0.5713054066020752 -0.1453489000064989)
(-0.001248836181098043 -0.09336337010608523 0.1776104605659672)
(-4.189818274300798 -39.51146559658874 0.4740877200948872)
(4.738539314071316 66.67958994862802 0.6628790286567501)
(-0.01091536424428279 0.04503032690131428 -5.965752695471706)
(-0.1389850279001647 0.007326964012372962 0.09677138854509094)
(-0.2675237573765009 -0.02819695698500797 0.03631471712532163)
(0.01546084663853399 -0.04454967623428586 -0.02766843046727241)
(-3.744074785957193 5.784187521998715 -4.126105205893706)
(-0.1308749699676304 0.008887262139024306 -0.02400663371058772)
(0.003581563313310711 -0.005583612285066009 -0.00451614781212817)
(8.853316857337749e-05 -0.0007163830561946645 0.002214601132842833)
(0.02133760677796092 0.0098746581548276 -0.003572426455149474)
(0.001432598006934645 0.0004223249875564783 0.0003617809891003913)
(-0.7474663045426579 43.54082136892597 -1.296247345941837)
(-0.3748713882139456 4.893151968808976 0.9097093147490315)
(-0.01041472916287004 0.001181673864819628 0.002585743890796473)
(0.01428177743181165 0.0257026271682863 0.09747454872856558)
(0.325073098647293 -7.97733621465365 -0.3808002037033777)
(6.372374991248182 15.0463459038542 -2.451086986374187)
(4.330107642470546 14.70761444074742 -2.510136735461681)
(2.447364329149055 -37.74967766022543 -4.523624250704247)
(0.9891274377599071 0.5397453078321091 0.1116532959620125)
(1.554125312006907 -0.1353118565343445 -0.2504512277254257)
(-2.603904688450598 36.97317623969826 5.816812247917568)
(0.5968851953872751 1.568126895418585 0.1461365705352898)
(-0.05775783531288959 -0.03188970160117715 -0.04990373076829493)
(-0.273844087469764 -7.024168824286092 -2.102953197602407)
(-0.004017238913558663 -0.0002004721125866346 0.003034124431139557)
(1.042380956368801 0.1179949458080925 -0.264168121522847)
(0.2140019088108017 0.1334024334308499 -0.2277553804810225)
(-0.1996308542703085 0.9827338695384094 -0.2750477002524436)
(-0.0307809420055386 -0.03326877742736517 0.05063128174332764)
(-0.1358473189317925 0.07171936686856634 0.1788506750889996)
(0.0100625907692921 0.0059290953387725 -0.009209916059073828)
(-1.346119306956789 0.4733243478556293 -0.4963320782353118)
(1.540128249343786 -0.8651543016304309 -0.02939783372920102)
(1.784592592331457 -4.415300800440477 0.01394386982345348)
(0.8556513761361297 13.58822287931179 -7.613764998343573)
(-0.1396561608376315 0.1071708597711316 0.05966221401561)
(-1.26499104234237 3.013450792872274 -6.443523228650406)
(-0.05459694648240834 -0.02231767462997547 0.02980305670741071)
(-0.03167982453786511 -6.28174336540569 5.29346080382673)
(-0.02476486642663695 0.007867989785274157 -0.01704316586032516)
(0.0012280970643109 -0.001986905583172092 -0.002297704155544846)
(0.3086133973040854 -0.02013042558363523 -0.05880021361479144)
(-0.3291217988437516 -2.831230656479988 0.1483508311606546)
(-2.953825038189239 -7.349945885681926 0.5406599295316397)
(-0.09285243935408441 0.1735815639336953 -0.0294254144899098)
(0.6009251022130374 0.008165642001585482 -0.02063046162936773)
(-2.938001137368628 -5.474371617593883 -0.9691845073729022)
(-1.354562664192465 -5.610137415027875 11.31713208526735)
(-0.04736550409003906 0.1960267077019005 -0.1607362853373115)
(-0.1052086402637287 -0.03748001363308215 -0.1644047540372483)
(-0.6822061400433113 -0.1835599131202276 -0.3260051205258502)
(0.000195890329634716 0.08828368975704055 -0.01663893968255672)
(-0.0005105977593900827 0.003152859081858239 -0.0030540003697764)
(0.05445533431079126 0.03409169733595822 -0.002634714995408185)
(-0.01854363597506636 -0.4513634731034712 -0.4864835278696212)
(0.009713147862413368 -0.01700578297401566 0.008051495373378188)
(0.3802778947814398 -0.05587750709503775 -0.1835257544565522)
(2.179884500710478 5.183264448224297 -2.831971745321247)
(-0.2605894721879741 0.02739396837709484 -0.05950282917391468)
(0.0008549674049207612 -0.002501130544682617 -0.0002564734114016212)
(-0.0006074841590381673 -0.001337235115434968 0.001132105641649894)
(1.459584280264665 5.851555919787491 -9.373111762681109)
(0.944832089810984 -0.3298578195881327 -0.2159263820093468)
(1.969231009776966 0.4088096966407348 -1.508762245671554)
(0.7967813439938624 0.5911968762763852 0.007949704716448652)
(-1.914914585089909 4.79703358839673 8.419470860645369)
(3.019569957046822 5.665588229100231 -0.5755237238032926)
(-2.141817114171757 -0.08770198939115011 0.1481999002330373)
(0.001266345000621462 0.02198961685361352 -0.02219048968171343)
(-0.1501095477471378 -0.4171578494048336 0.05140513679242509)
(0.1577756658965739 2.387745020542487 0.01206619144037209)
(0.1866474790067407 -0.06372711479821473 0.1559422794400058)
(2.489105620266979 65.36108828800646 2.16885747998695)
(0.006808771138845359 -0.004388969159461307 -0.02428624096168328)
(0.0003895661893398216 -0.002061645233531753 -0.01367668361677787)
(0.0003380963762347651 0.02621775333366138 0.02426416878668802)
(-0.00236231247061325 -0.012500367751146 0.0006320701514881902)
(-1.190009582990488 40.71036916369412 -3.116142015233859)
(0.7530831107695507 0.4371911693802166 1.990270130121156)
(0.02845789876508482 -0.007311441963489511 0.008332316902000782)
(-0.003509365271760246 0.00416303234543133 -0.001987074094389541)
(0.04647394471923824 0.01506836137276181 -0.01862801204655216)
(0.0005363359934403553 -0.0003896143312265373 -0.0004530834329033034)
(0.0001585840061890175 0.0001080146191084657 0.0007721230200035069)
(-1.144874838933857 -2.844116054043365 0.1508968826804391)
(-0.0002423535014164445 -0.000201062750984785 0.0004538055292757111)
(1.094730225403839 0.03081999600279872 -0.4609855440058052)
(4.661043470757419 56.71723203996216 0.937734534963615)
(0.1012659054105233 0.1479606885000639 0.02300244073602653)
(-0.002270833481971548 0.00513553534207152 0.02971466068745958)
(0.8475480513968181 1.324603165832924 -4.39786828085906)
(-0.5870515535350128 -1.234206225070217 -0.5289103092561787)
(-0.1616647071868286 -0.02314779232743774 -0.05717982655309774)
(-5.411957666307922 -12.57707105829417 -2.406545769189441)
(0.04684415668093179 0.006131700289555998 0.07073768364422918)
(-0.218274290358504 0.09672372215876322 -0.2116383106186602)
(0.2659595285743701 -0.1287947346973682 -0.02994505113763983)
(-0.004079363210889999 -0.01347049781627829 0.008889176659914802)
(-0.09489850995642746 0.1095144196497611 -0.05416833265199172)
(0.3164557952976557 0.03485326845127205 -0.03601126472591909)
(-1.124211094516339 -51.26013931067969 4.279877445290762)
(-0.000667812931156685 0.00766616696658745 0.001460762081037764)
(-2.869286325597056 -46.2369329066382 -1.723941782707849)
(2.873427058484955 4.530921680497322 2.407895895903897)
(-9.904117022786546e-05 0.004015683054217368 -0.001688177288697166)
(-0.04739789231310938 0.04381891492252532 -0.004913205607571601)
(-0.03419799795946889 0.00235000077604007 0.01241706668395223)
(0.4672590143877865 0.4509977665378946 -0.007217493407142311)
(-0.01076115156191302 -0.001357628929063 -0.001142078427872031)
(3.104217417243355 6.34001364174277 -5.270674961219796)
(1.789984056097357 -1.387098211748321 -8.577568607660115)
(2.921417529302316 -6.794858407886695 -3.958854993704013)
(-0.01499333730052457 0.006688890117890436 -0.02257190719872342)
(-0.8309134998821219 0.2670749584621877 0.15407796143457)
(-0.01144992354114668 -0.02112699695495328 -0.003616745335390029)
(-0.0016329427548364 0.01727128328349356 0.01650059266083303)
(0.02545022437168937 0.02071156132484749 0.0124673547948069)
(-0.3969172858332438 -0.1506209934089897 0.1113126346371805)
(0.195400057790879 0.4678989982766525 -4.306511648579371)
(0.6817307355041031 3.542186200796513 0.02141899010093834)
(-0.01367226404422526 -0.01714415803621976 -0.05862280175486414)
(-3.888043921197312 5.837017703034681 1.740482585131411)
(-0.02992261653445829 -0.04917304279027537 -0.04989852633791766)
(1.672208663544146 34.99367720748265 1.587078557740466)
(0.1871064744944072 -0.2330722760016384 -0.3458563064901531)
(-0.622607096917879 0.3562544276896906 0.8571012200628538)
(-0.02141538504544484 0.01053345121366143 0.007401213705082111)
(-0.6564945114815142 11.87792071346086 -0.0278257061879873)
(-0.6454664194076006 0.6784751754639406 -0.03080654503094396)
(0.01188566943960635 0.0415842606402937 -0.001251723874287097)
(-0.2527081581741512 0.21501446187431 0.6832213710118845)
(-0.05274743119878963 -0.006632056754471011 -0.01098907562278382)
(-0.3922751010877119 -5.305723985806993 -2.058393241111816)
(-0.005088139955721978 -0.0007849060919360797 0.01499054455767984)
(-0.004431188599319943 -0.01663922075264272 0.006849634595930302)
(-1.362751394145171 0.3132887075052827 -1.043445008850403)
(-0.002786473463865363 0.0005768665408542142 0.0005124108619924755)
(-0.001111544582449126 -0.002263016367680414 -0.0004631341653472339)
(0.1870322776398028 0.2445205365399208 -0.1459316571162398)
(-0.2836470703643769 -0.01044037372423876 -0.0036944215515224)
(0.07198408511592941 -0.05225164602646672 0.03016813661065053)
(-0.002105949469911546 0.0002996040261219253 -0.002188686107171776)
(-0.009387208312881222 0.05031140583680359 -0.0532131758564371)
(0.003580025695819491 0.003596531052727836 0.002658743842779358)
(0.05407729169195648 0.007069935075042402 0.01487656822629831)
(0.001978848736259012 0.003724107250452587 0.004810208496918707)
(1.087632254935454 10.77895324962527 -0.04108758818984753)
(-0.00451295987680102 -0.01151272847655699 0.001577900930438733)
(0.002241300436068798 0.000471392810129676 -0.0004086877530513015)
(0.002069747370637737 -0.001147011488277092 0.001219935218183748)
(0.8219154738769789 -0.2086468652860465 0.05791988731570663)
(0.03816818889649651 0.02605669476108862 -0.04953142847617893)
(-0.0008325314669063795 0.002253440530521696 -0.007272597257659578)
(-0.007887949502187406 0.04281539082273562 -6.584757725382873)
(0.002096646982358002 0.002190848624743215 -0.0004521963360927474)
(-3.849387963114371 -5.194907385431493 0.1414142814515771)
(0.5814021751230276 -3.068206929958466 1.284829343678199)
(-0.0009273359149030826 7.536926644921248e-05 0.0006708732079375982)
(0.5064330854350831 -3.312514479290553 -5.288808336791162)
(-7.554688626208394 -53.45439202325331 2.799520061048223)
(-0.1770535864788693 0.009888673914789488 -0.1256498922691739)
(0.0004295618690768418 -8.02380784087448e-05 0.0004992742193380966)
(-8.52824994222918e-05 0.0001746841420024164 -0.0005128748296658513)
(0.2095849104979425 0.3334246018615799 -1.365483570945511)
(-0.0504788084354341 0.0951847732446042 -5.606594207925887)
(0.3212543692813044 -0.6467922345870663 -0.04591302265252062)
(-5.02852915622453 -65.30132205745819 -12.82546424032623)
(-0.05827267282616495 -0.03517033837630523 0.04655674961791641)
(0.008315315751094033 -0.06581987385802283 -0.01124204197952605)
(2.429080656248257 -18.83675269167499 3.674577285905243)
(-4.3282205349255 -5.882563850531005 -9.760502868950608)
(-5.850419251423649 -64.34702644663352 -0.7094664574938505)
(-0.1322141894903065 -1.655742013474851 2.259629933212169)
(0.9128809652211612 0.4139668199471724 -1.288413204633543)
(-2.008235569031454 -69.95243528096363 -10.34390601882451)
(2.407537575096075 -3.793415457564596 -0.3765136354032123)
(8.355300550835869 -56.36987075444462 8.068922639186148)
(-1.524683851773416 0.5449203811207612 2.529040071980585)
(-0.05110038228132495 0.1968870624962213 0.1352244986489373)
(-0.2292008299061843 -0.1214408157531526 0.08407074114980943)
(0.009377040090338514 -0.01856089732094774 -0.03264950554479452)
(-0.245127670894 -0.3732679138178961 -0.1544913405339333)
(2.441308690870289 1.986804107999826 2.523565231634644)
(0.05189079882514755 0.03016933399741914 -0.0007809838720199379)
(-5.192224084801758 -49.70592378671921 17.52623785994311)
(-1.781765532433472 4.982728931109294 0.2892772966214601)
(-0.05606371839927406 -0.04028058552012403 0.05705094883060525)
(-0.002719287957475433 0.0002325729302398555 -0.004920515139815441)
(2.37505299321945 0.2334813699244102 -0.8599875801300926)
(3.507020336628775 91.55252379945325 -8.065930204488598)
(-0.3167714150691897 -0.1580523709763471 -0.1371851219033054)
(-0.008843451866557255 0.008718569656081305 -0.01676715216661671)
(-0.1122823175300925 0.1703011791892527 0.1056721562159821)
(-0.9478065794326989 0.00647608287225665 0.5428605870101093)
(0.04426593355047517 -0.007998387443590969 -0.01157020247512214)
(0.0006829841360017248 0.001659339333434078 0.01807668668497904)
(0.007522625118918505 0.008481971440661949 0.01363187714137192)
(3.684855842745651 81.36772437909129 -4.209964726690608)
(1.482032903202029 -1.881859645842431 -0.6394993010834167)
(0.02011655280336333 0.005315744923760527 0.01972243437672277)
(-2.012266979321232 -0.1191351492758862 -0.4688221099394041)
(3.368826158783744 11.5927121539105 -1.722796995868913)
(-0.002933788761484386 -0.0003591269302636609 -0.0001139423540293983)
(-12.58423247673442 -17.94760409525034 -2.213292943199382)
(-1.665017244574252 0.3653337359091011 1.90944363563159)
(1.801510675075264 1.322205571846589 -3.849727984385223)
(0.0006448834103129316 0.0004844104455791101 7.931326931568533e-05)
(-0.9709075209492678 1.089359602969156 0.4064132870053446)
(0.2348478290916172 -2.669244681850802 3.79815720108713)
(-0.9205507428411509 0.4570449325283983 -0.3778020987819396)
(0.000935599459839772 0.0001900361955213328 -0.002308926126132922)
(-0.3966250859904669 -8.000107797781547 0.6224621185643355)
(0.001387664260117324 3.867856619124147e-05 0.0001048091764509327)
(7.190518559905723 1.267935988230374 4.251490412986923)
(-0.1740144027953206 4.099710540764415 -53.68420205754006)
(-0.009786300542388392 -0.01442758632760344 -0.005505439910330683)
(-0.2111285867581171 -0.4071554155159511 0.1171545392820333)
(0.2989211751838338 -0.2030168182510528 -0.4293118294775024)
(2.141102720309241 13.53034260102759 4.091505521134673)
(-0.2877861318508597 -3.640491805249636 0.1003523655597752)
(0.0003841764589759943 6.219275007841331e-05 -0.0003140043129292404)
(0.0007851634518079209 0.0002699128165154751 -0.0002000031152525034)
(-0.009450510828642931 -0.01521177948709851 -0.01238604553224871)
(0.08668778954254888 0.1156956780519533 0.06270485249271514)
(0.04447703787192724 -0.1203897920900015 -0.007469348924943135)
(0.008611977522425518 0.006277726700854191 -0.04986838775988554)
(0.006683208196637095 -0.01714401583909727 -0.01292776339336417)
(0.001320504873208516 0.001053384770522163 -0.007435356796529257)
(-0.003785455826134505 -0.00665802169406165 -0.022374930709241)
(0.001751068923275173 -0.001837639932832115 -0.00350841357698573)
(-0.04582820264601269 0.8151086459136434 0.1900085554351813)
(0.0121318674323814 -0.01133859863670895 -0.01505311190682123)
(0.08901645523221319 0.6659380606061258 -0.07225802013132687)
(-0.2273138506172316 -1.600749275835716 -0.1500794370641765)