/*--------------------------------*- C++ -*----------------------------------*\
| =========                 |                                                 |
| \\      /  F ield         | OpenFOAM: The Open Source CFD Toolbox           |
|  \\    /   O peration     | Version:  v1906                                 |
|   \\  /    A nd           | Web:      www.OpenFOAM.com                      |
|    \\/     M anipulation  |                                                 |
\*---------------------------------------------------------------------------*/
FoamFile
{
    version     2.0;
    format      ascii;
    class       volScalarField;
    location    "1.3";
    object      p;
}
// * * * * * * * * * * * * * * * * * * * * * * * * * * * * * * * * * * * * * //

dimensions      [0 2 -2 0 0 0 0];


internalField   nonuniform List<scalar> 
19632
(
-0.03006309911998737
0.01837490933646579
0.06618780013329247
-0.739428164229367
0.1334130641897145
0.09015107297868789
0.06520110450490528
0.04709337926689032
-0.01212315154412502
-0.129624140830032
-0.2081099817092838
0.1509313893353963
0.02219286753975413
0.01477709931606922
-0.09650440024283523
0.02886454928343806
0.07385978801748365
0.4924626336819276
0.01369625539755901
-0.004192569954796607
-0.1263140205332257
-1.043169076936604
-0.2789268682042883
0.001453521251241521
0.01151666915299842
0.006128894470723231
0.03329885267525147
-1.081299122190892
0.1116137727370269
0.03123995396140533
0.03870750355670347
-0.1311894904417321
-0.3304281627799925
-0.8508386057580516
0.01671394767029035
0.02275340169178216
-0.004671292351497729
0.03818679011306826
0.03515823572156958
-0.09567384454816732
0.01384091154874533
-0.05211456008403968
0.002121877117924614
0.2978156049483106
0.01642208125277027
0.02863105647220633
0.03143429669289399
0.03237860924854337
0.007473408184959871
-0.002278943600995649
0.02099119576697968
-0.01862453461803808
0.01056628735334793
0.04757371243369598
0.1443976599538233
-0.01940622390861356
-0.1803562327814459
-0.0146541311879276
0.01766334933982545
-0.1254111785239457
0.02923604892995765
0.01521775781695349
-1.172437223342091
-1.560575900346937
0.0257544678407367
-1.547333742522601
-1.732982813990074
0.03718055651291317
0.07462177883110807
-0.05648029007957719
-0.05504418407239722
0.03192163931459675
0.03243248810013871
0.03150669685750223
0.03821754339344896
0.01222110439154966
0.03576593994715939
0.03041170068586859
0.06135491487299623
-0.1392333180665421
-0.0145916859706203
0.3706785524978086
0.01977918892987257
0.02083720901700695
0.02259872403216861
-0.01760269440950603
0.009186569554440572
0.03599025152922805
-0.1358398662451219
0.02045502476607933
-0.1358183954923198
0.001561153985844245
-0.03532004364337486
-0.05519864402795198
0.03123870739185626
-0.04652824947467065
0.006176815980673063
0.02020280883198552
0.03698005640370153
0.03642587618773068
0.6023791197324613
0.003567342373526346
-0.06102378953527626
0.03854169955967005
-0.2527534682524642
-0.2942824946661911
-0.3463925935546714
-0.1630178173961447
0.037166994667959
-0.004118996204490114
0.2480448947695811
0.007778215023466122
0.007935623347771703
-2.093084061456624
-0.01373728952754306
-0.1679891152408011
-2.189215642721382
-0.1968404745857369
0.03180321708597921
0.03432245656145212
-0.0003206510675942145
0.003382908066095291
0.02095575309103838
0.05236212054427346
-1.084532038924089
-0.2899895776860485
0.01213295019537664
-0.0173212755372205
0.099550235878985
0.008942719987401463
0.01879478217025335
0.01585310823602779
-0.2136689302032452
0.03064968557123177
-0.01164495914898372
-0.09817369470291953
-0.03740753047940622
-0.007219058545419622
0.00959869052455394
-0.07635888443520086
-3.436149847151827
-3.656492352244014
-1.212330919748237
-1.79671878811445
-3.293158882895767
0.03685617007707084
0.04388517140465518
-0.1715659462483266
-0.0483798666460382
0.01214627105431013
0.02149773617821436
0.02936295026894963
0.02377321476394641
0.002189497136091292
0.130020852923714
0.01609723624771715
0.04346484297056886
0.03258178839717352
-0.1366077458988263
-1.745519056988095
-2.314922009665315
-2.379708454832032
-2.809373024825536
-1.619030638693287
0.02618676703743166
0.01250964497818061
0.03348207866334212
-0.07202098115028448
-1.360172349934701
0.03615430813246777
0.01851157038846636
-0.04278106551557333
0.02546712705808526
0.03044106512053156
0.02573681026608053
-0.103666282296721
0.01898490345019069
-0.04516618183421853
0.01648066146332271
0.01453636441669836
0.006608001770765021
0.01613144392570596
0.01407906190064609
0.0104930514356679
0.03064371084369865
0.04959071683574975
0.05705855933882582
0.005819565567172069
0.02050689783779246
0.01702487877304428
0.09320621561217045
-0.09436783283074839
-0.09997192621982302
0.005550077038602248
0.01455875793695159
0.08413749023445492
-0.01735403209318451
-0.1535199112797511
0.02709244087916637
0.01720873841953707
0.02373612950573082
-0.06361624201358484
0.0322987617912336
0.03237062919636558
0.02067936226244891
0.0001578003632247536
0.01159745326859202
0.02189622211190762
0.03087081581003733
0.02111744188396842
-0.06634063595145459
0.04815953246873208
0.05499330142054501
-0.02332172823903692
0.009111721398065771
0.01422491687113259
-0.05879684338900348
0.01074948923372204
0.04028872537873779
0.07687604402410063
0.03765418935966339
0.02914855341165636
0.0182691606006332
0.03343234299534288
0.1277306941251467
0.006794514796523808
0.06368041279744578
0.04011315904780306
0.01034776528078438
0.01931078649776172
0.005689552097432557
0.01619161796074189
0.03642274543362994
0.01857683306156678
-0.03770767262596052
0.01921941827441339
0.0252761627127876
-0.02190399161306319
-0.04429961721568496
0.01267301558004635
0.0009890945607668796
2.007346325247972
-0.0990935636495429
0.09739489577517438
0.02717056829390947
0.1526586424819357
0.02788843250213834
-0.07798088749544402
0.03716298464783455
0.07459990658543428
0.037267919415064
0.03628014707754308
0.0151471934667502
-0.05152298871854072
-0.07997441972096525
0.08831491530109406
0.03656501885619895
0.009946449782453843
-0.1550178342728057
0.001495250308028945
-0.08759521428611632
-0.09661288249062398
0.03866932446533495
0.01967404857103042
-0.004955741160070582
0.01997932020991954
0.01980823090771409
0.07679952469957071
0.02023232580000401
0.01076333702012937
0.01958133380725026
0.04159849524609251
-0.05707469034250132
0.03514857924437618
0.1228636594166994
0.02620431974703764
-0.04737424969501876
-0.08158089427398599
0.05559975729953475
-2.091755189860077
0.03366754809223576
0.15515751768841
0.02295846097080197
0.03781349775058562
-0.6349878887915167
0.3080687445258812
-0.1429159922625837
0.002442606189464484
0.1821717934732847
-0.01916672458253105
0.02603614463496428
0.06136754629315078
0.01043330761995509
0.01490635674623556
0.005140296279480468
0.001608317623088649
0.008894911470004603
0.2673088434522655
0.05881026854344096
0.01358385465225516
-0.137280805054344
0.01921296554515186
0.01777241629672504
0.0139688390282123
-1.294093342066282
-0.06779734551668858
0.02491787240413898
0.03309117294828044
0.04316429735080302
0.03373479063100623
-1.277830040906868
-1.320050102713422
-0.3252954980114306
-0.09165285720454829
-0.7134487542719677
-1.989868326596395
-1.024698264624608
0.03492322100143813
-1.690265698095625
-4.667151190519348
0.03622869396646104
0.01587096525178025
1.386672059582407
-1.393355527180126
0.01913800726080426
-0.0541920983931511
0.1284011712991735
-0.5896093189597721
-2.201872571606961
0.07182977928931597
0.0877593011606716
0.04166531627018531
0.05610294445853874
-0.1392170338021351
0.03240520165571233
0.292650920654597
0.007459395318735924
-2.484093091588809
0.0535979293651245
-3.592954523049734
0.03194454267909592
-2.218004041542174
-2.055752770900827
-0.02538299619937722
-1.32764387290837
-0.009685373871827564
0.2065738400009383
-0.04848662790177798
-0.4494599395651389
-1.574484671576499
0.02006424576548694
0.01879976891004256
0.3079975253620448
-1.50913573716312
0.02201547942084742
0.02399003646624973
0.01503833618016571
0.06827459877276311
0.02122412330159086
-0.01537755667853524
-0.07362206126788898
0.01050492501293285
-0.1151062325846162
0.005794228518743823
0.08809326723362637
-0.2735935818715512
0.03682010543241944
-0.1375931275514954
0.01260416553115036
-0.2543794555085439
-0.07657421552671478
0.0054943395513925
0.1344838914446753
0.02904940277587664
0.0255400113380818
-0.02093681522919881
-1.471036585976756
0.03945416123201869
0.03768035463904953
0.02771206752116202
0.04838750399828463
0.02180000440602686
0.02708879874014369
0.01554094070509929
-0.1188153785221851
0.02229776939454607
0.01616011547742661
0.0602472966143734
-0.09113073036999425
0.02257495847712352
0.02292002919075179
0.01787735515952098
0.0239817411682861
0.01802644479507388
0.02413181128076991
0.02426510765640152
0.02658042118535844
0.02761957324777896
0.03504966291296315
0.01756438821307522
0.01836777086825659
0.02964334483478013
0.04301184709475579
0.0158251612559393
-0.02276478942024967
0.0143213611506021
0.04892558869221519
0.3266038825636652
0.2824242108845648
0.01447690375202288
-0.127335518594032
0.04859207357373035
-0.2403218604086729
0.05308937050578867
0.01875064590793871
0.0349771613344631
0.04383453728638717
0.08031484951679009
0.04091387948380588
0.09166193049182006
0.04114684328200684
0.02446695134794256
0.02933615718932045
0.01905167702408973
0.01957269956394683
0.008200172026268365
0.01969082250025117
0.04562276098057306
0.02952219239773245
-0.3251336860566896
0.02042273584772191
0.02001026439870346
0.02148028467251164
0.02109121115073002
0.04342144327739209
0.04713356944035593
0.02095249671344091
0.0223324537119807
0.02219113893874244
0.02148247000470989
0.06306808401967014
0.06266962439895397
0.04392085789476039
0.0771243880019369
0.05212791855382259
0.05253197164952631
0.0001827931495364612
0.06962992884341108
0.02235493868238331
0.02365125342601624
0.05966581970856767
0.03259505477650129
0.0319777422222107
0.03275773168566951
0.0235583835772351
-0.008718612000515699
0.03876603844592905
0.07934521275960416
0.08630498705694124
-0.07270454189530254
0.0217551178245368
0.002926024712484478
0.02285671103832299
0.0849058055393576
0.08226241392783398
0.06769304290926997
0.07020665670150844
0.03239793774082979
0.002274714112984144
-0.02505300291020554
0.03615847658995271
-0.1039650514097554
-0.02268208815374045
0.02731869357283362
0.01761838778258875
0.05797958961688428
-1.303588611397841
0.0196127582905495
0.1146030641660407
-0.02775800506829383
0.007577909641298165
0.07762442206947118
0.03756786006137272
0.08433649899147935
0.121918017149275
-0.660405620181735
0.1491375058082792
-1.655341534409599
0.04382309186762685
0.1395765923786992
0.02120283309731481
0.03193215594209622
-0.04443119272210696
0.126840919197898
0.1633064051278112
0.09306244955510234
0.04835670456559383
0.1580650742254535
-0.1780227970178742
-31.00291005656418
0.02339109173105534
0.01750180067831182
0.05220596740521334
0.03228792361054432
0.04094635140933628
-0.005253681746565373
-0.01605935269727247
0.01386730167812465
0.006079866902957419
0.002585304683891588
0.03838994850073574
-0.2882202987330068
-0.04550320630295972
0.1190032850141952
-0.03029172887754779
0.03823303886859886
0.05102467324655066
-0.3235526304751644
0.2701387416431196
-0.1206387142098438
0.04738674971441218
0.1124488909688942
0.1291129396756212
-1.014141614218566
0.08896832987645575
-0.001917739773708976
0.156676501904901
0.128631829680201
0.01911999055186285
-0.01514290398590951
0.09623093157701575
0.02883274317456734
0.05865650627474515
0.04945318879718593
-0.04498479927249184
-0.04836252334206138
-0.0003883649747547833
0.05751052087555286
-0.1568618013221685
-0.05024852187799964
-0.06457499253195456
0.04232778667120039
0.04397095877990263
0.0433257450240369
0.07434757535708694
0.06608893030147657
-0.08928166026865884
0.02798267493489554
0.02689321522197718
0.03767004911280458
-0.1595793191502456
0.02895877203369748
0.02163918260866021
0.01832270637404822
-0.08024051361356946
-1.260762939283716
-0.0004329459093088537
0.02067646680796963
0.06407708503390347
0.02043340309973017
-0.6597103147626322
-0.02372984819222267
-0.06536784832770513
-0.01693802171485251
-0.001696701956492092
1.468678086358375
-1.250714130799491
0.01691706890874797
0.06909574088843096
0.01817662949712681
-0.9871564003342636
0.05653858687605402
-0.006646218919692353
-0.007109901412381208
0.01669045078786688
0.09390660283255413
-1.466459116968609
-0.1399904986853173
-0.5523085677172653
0.03237906344882992
0.07312353352749283
-0.043254482021796
-0.2304481397429768
0.02243080910125836
0.006893688005949564
0.3537297653961958
0.02023178259625701
0.2395958726123807
0.0203569169132729
0.02787352915059717
-0.2325355219827238
0.02130590109690028
0.01892266788369482
-0.2417918081399407
0.01787944362551002
-0.04240238538701716
0.01876684968281234
0.01913844469120457
0.03287752913262666
-0.03574429227758608
-0.02394610717805579
0.02350837085346737
0.0757698140215023
0.01955234140473081
0.02859703913518616
0.05483924952913061
-0.04670636811025176
-0.001117471047867206
-0.04082903551815376
-0.05059387155190353
0.06534984299603495
0.05902538586338198
0.0524467684126462
-0.07551300029206606
0.02098046122315826
-0.5416499749353884
0.02102942486808523
-0.07487327186022438
-0.6952222149053106
0.07296449488010835
0.05658551996334317
0.02073969557882165
0.04495226444438665
0.02389132992364652
0.02341526116002869
-0.2784386241810791
0.04567834097500396
0.04170924577547998
0.07446831913384556
0.09171198050947002
0.04329736722471071
0.03966873657362081
-0.05423655075711428
-0.1769534367467735
0.08485718804963635
0.0431583385522025
0.004193482378710202
0.03058202329002725
0.004794173232800423
0.02363085844102852
0.07581434509328812
0.04006894168094852
0.03900039778769755
-0.02690669259525591
-0.2951116636331608
-0.06571919431923272
0.05650961671617372
0.1027274428119047
0.06062998080325257
0.05420154417387051
-0.04570994694434363
0.05682475142326675
0.0442616290614558
0.04364898590717953
-0.1364089916350712
-0.1017632351228362
0.0470013746239217
0.05361017120524668
0.02123500543562711
0.01301036938730773
-0.4834172373449999
-0.2472662099424749
0.01474935569804869
-0.05432602818088018
-0.01230318790117992
0.01817676462145812
-0.4242386424097346
0.02756006043777115
0.01810980420016906
0.01888200822174597
0.03168491113125413
0.01189813279465588
-0.01937535414083785
-0.02212966116512039
-0.09334660355184404
-0.5709482712287988
-0.3318565181403798
-0.02686519579826272
-0.003146737323589369
0.02317986573431708
-0.007262996939997664
0.01726887474606586
-0.01584810617380789
0.01460974186628856
-0.04400888377027487
0.01840680462657211
0.01704193879067544
0.005859865412822525
0.03025879799936234
-0.5506885577422934
0.02901361272177095
0.06020350297780782
0.02760329414530144
0.02820380924406826
0.01939811159023469
0.05851948351155143
-1.315536806032464
0.02517489848208458
0.02364921789693886
-0.1507933765606224
-0.04847335099538282
0.09332322659042787
-0.276756483469962
-0.3492417855268231
0.1008614147576687
0.0838692833781558
-0.03571370855442016
0.0210255705771015
-0.03880132873262661
-0.04101428681334196
0.01066298545961122
-0.04207688608858413
-0.03331492744240896
0.008825715728659424
0.02188484491197418
0.009196879762348457
-0.01089269961425315
-0.03215264181123739
-0.1983294224645971
-0.1229752558709822
-0.006530793394583914
-0.05299317270858459
0.0146273101321351
-0.1354977853748999
0.01857850638900468
-0.0377437437241191
0.06528699273048762
-0.008273348990747472
-0.04771732456126956
0.0237014174850066
-0.05409341360535831
0.1062921909629359
-0.718566257881544
-0.03599497108664653
-0.09362756174977885
-0.328659095403777
-1.194548920758281
-0.04388435005925281
0.08213235918050969
0.005307780991475436
-0.00846310736361381
-0.01336204315666037
0.01143265697996052
-0.6021421117388958
-0.1076313537492327
-0.4072865512870352
-0.4433046823719468
-0.09855557729371822
-0.03496885211875463
-0.06827260650554837
0.02368295374839256
-0.02363041254555286
-4.234727998676221
-6.361132704425608
-0.01352601222113275
2.486895076231684
0.3640666244458896
0.02601370790424242
0.02531655790680874
-0.03903109771827921
0.02816330729720308
0.02751209017737478
0.008901846438304864
0.01517704748048957
0.01031045115070597
-0.05497049963782037
-0.4509947381674898
0.009583762943454279
0.01500678306305545
0.01099980477017342
0.01356961949437988
0.04383821434841614
0.02597568520773434
-0.009206537691402936
-0.02489560985595811
0.0457389026581986
0.04898970289417331
0.03977748375873041
0.03959264404604018
0.04134246978520569
-0.02196666232256748
0.03880565102709216
-0.05536399414111418
-0.07971859733514595
0.01808166980981046
0.03517230051337998
0.06918331397744346
-0.1450543927114455
-0.2503117243700238
0.02244528968431303
0.02213989694427895
-0.02319911171171513
-2.080107583261026
-0.07428041999988517
-0.001954739860652614
0.03348707518783559
-0.008283174032539939
-0.08167013870265927
-0.02787906418797594
-0.05931942361112878
-0.01430614750232802
0.03132979542140092
-0.1144158716742446
0.01520113234732282
-0.09926568581176651
-0.1681222751879193
0.5171234732791974
0.003012560990753265
-0.1620216213212959
-0.01756916381560441
-0.05837542850157859
-0.0558990232478136
-0.1499407630886337
-0.0555174287565486
0.04471817143216857
-0.03106075877518375
-0.02129648848300761
-0.7673492957072883
-0.01574821186889526
0.02805633266523048
0.01679637239806793
-0.05939764204616339
0.04000844138847802
0.03397923655379185
0.03307943663544783
0.03791327958853417
0.03251562333714745
-0.05118754781434832
-0.03449423462280475
-0.05690180260408755
-0.03888116025578609
0.03648238037825099
-0.05374888721354976
-0.04336452588980055
0.02109773874727312
-0.1023960081298469
-0.1117765783275954
-0.4555308548790817
-0.2873481629404769
0.3011373447835018
0.02016976072954893
-0.4838671376329146
-0.01174568347457725
0.03847015999365913
0.04406644144173482
0.02320104668199748
-0.01732296352138142
-0.1233635167714779
0.02182501045337146
0.02299495790613607
0.03279275451866244
0.08230819940480374
0.0103435777754758
0.01321485983507907
0.003465831276691798
0.1338443553895398
0.007285387204819122
0.008243995861280625
-0.149644792214415
0.1535819111400644
0.06817130588044394
0.005480567626652322
0.008914638159427123
0.0114948734413231
0.002527599835535659
0.01066646206438812
0.01423232542571649
0.001161614767029785
0.006982182087597372
0.01135401165139633
0.01570860320652124
0.0173730033449737
-0.02237135858821811
0.01678439996626392
0.01472782323169371
-0.06377146315550231
0.01247883401886704
0.008765637803539901
-1.360707994375092
-0.3203537058404798
-0.2604815989708854
0.01123895117829908
-0.406668879588323
-0.5420724343512676
-0.4944889708429057
-0.4933426833719075
-0.8552913337946009
-0.02116085252887016
-0.06939747255213612
0.014164564922089
-0.4632255383600049
-0.2902085062478551
-0.07272088257145221
0.03139603328972095
-0.3151404556898372
-0.1092061757219367
-0.04146961961204516
-0.06210746709013389
-0.01352159556658577
0.01954669410683911
0.007959467384890331
-0.1021967030206654
-0.006675273252722587
-0.06547176768448619
0.3443188559795153
-0.1325325018780124
-0.07601449523596883
-0.04159750337216382
0.02204827818544905
0.06416306535929102
0.05855733250550333
0.04327943077613321
0.01391490128332192
-0.02374394863942647
-0.4765380160015237
-0.05146101255495075
-0.06616263155051368
0.0281986101099089
0.01730100861476423
-0.06974797120985622
-0.05707875640245866
0.2023015498214104
-0.04300695230702681
-0.05242191230013247
-0.117460281273257
0.02181879814499585
-0.1112958936713219
-0.05900237775095267
-0.02474396297832383
-0.01161344636152322
0.02057377091651088
0.02334810772456356
0.02303034581108033
0.2444020272826677
0.02296463347909935
0.02194707257101526
0.02572740473544333
0.02649198414442717
0.02465447124689983
-0.5192208932490642
0.01911050087337675
-0.1446298932730355
-0.6595715892609417
-0.02374042150873974
-0.04148478404502301
-0.0578649669029478
-0.04956923099353368
-0.05049726595369834
-0.1213406796011021
-0.1474102714685454
0.008732175175357699
-0.08583694115333627
-0.09790418474775094
-1.363553557291172
0.02028619287504533
-0.1618827160456315
0.01047428894339998
-0.3511410157711793
-0.03503310110056999
-0.08283017825528524
-0.04113171417037424
-0.06728543299930693
0.002060900837990358
0.02549424498096476
0.02385068462546182
0.02488599321289973
0.01127589851790455
0.01598171114143706
0.02579506919902547
0.02619595329814031
-0.5467683706167337
0.04806850705227841
0.01328449504912206
0.04918187810539627
0.04120619268987959
-1.534844936376659
-0.03294238943264054
0.03116735476924821
-0.03848870360117589
0.03479237854280656
0.03276506421932331
0.03158987233436671
0.03205112683294319
0.04271030661221677
-0.0420539710684544
0.05794156484907826
0.03127254566894262
-0.04114979143928371
0.04253028787643234
-1.266000743439468
0.04295372287089751
0.05966847928453822
0.05410173797740786
0.01794993733052662
-0.8495300932861695
-0.06150527935339192
0.004754273088917822
0.06310827634000085
0.01838124846592046
-0.0667240528592255
0.05719217208841497
0.0593420489919099
0.06309114629593936
0.0974888563066945
0.09671428942010099
0.07691001380873023
-0.09212770154582779
0.0794558581130226
-0.1300607474789252
0.0771054784322055
-0.07525348055476491
0.08967153166473393
0.1020396191502712
0.04134224767580057
0.01662965811475335
0.01140987036883311
-0.2991010050706698
-0.1586143456239
-0.4328394312073973
-1.055707418806628
-2.310483588686433
0.01369599999096647
-0.9238502428899594
-0.1390081211870384
0.009394544463744532
-1.662593575988042
-0.03239343870394028
0.3636222650091566
-0.07782968411055152
0.03724864613878018
-0.06079316185796915
-0.2814421293757593
-0.08120814438919045
-0.3868082922210441
-0.181451230786241
-0.2388453432148286
-0.1086812527089324
-0.1003820712329477
-0.2121608292150925
-0.1002669887336756
-0.04386709951425613
-0.1732319666862346
-0.1321709200285777
-0.09656961829810001
-0.0617398264475157
-0.1676118394721308
-0.06148481705167348
-0.05250364363045037
-0.1024852871364318
-0.1764294551633618
-0.05778513142158442
-0.7861913615929218
-0.1385539295208257
-0.1979335117763522
-0.08623128828655262
0.1483253311620819
-0.005060388704440231
-0.004178113206824177
-0.103068993493308
-0.2089225683276963
-0.432152291783912
-0.05179258040052101
-0.1240066553028237
-0.3013137737909822
0.1544212015020558
-0.01904324518608782
-0.07800503773808182
0.0190604962121932
0.01818125869412207
0.01881734631340222
0.01900591158086901
0.01902372055575239
-0.04002410899771157
-0.0566264318893704
-1.017376577198951
-0.1772593230276704
-0.07427367517908698
-0.1908883296597437
-0.1727972367039082
-0.1131838961215107
-0.0602995680054744
-0.05225487081525982
0.001903176020810261
-0.1253228323679628
0.02967703738238415
0.04427344591773429
-0.05069280787020249
-0.04217224851034489
-0.1037327832017767
0.02481648853155374
0.02819118233903257
-0.03146652602273345
0.01433148537001123
-2.857344301675044
0.02504291800168131
0.08697353873433059
-0.05450371998145113
-0.0928370111823527
0.07699497047242118
0.01846456274284011
0.02664813644578226
0.01335761677435201
0.237072378376404
0.05560347950688662
-0.1525255174129631
-0.07878036169338101
-0.05626922810472221
0.04319143109057753
0.00504115864028976
-0.02952098997661559
-0.05137026423265267
-0.01522285139566339
-0.05884869680067867
-0.01208270754288542
-0.1061997578233149
-0.1467865263170228
-0.05921969852646771
-0.03504163628424705
-0.07128846141500987
-0.001245254331983687
0.03442652000289977
0.3426563553310886
0.0002198235700582558
-0.07931126455974463
-0.2251700667441058
-0.2507115528019734
0.007855879656093395
0.06001856889154601
-0.3200549122812111
0.01522643290831105
0.01532798443762273
-0.05880434474396231
-0.3869607352172496
0.01433111042280495
-0.2879171125218736
-0.1365767460882712
0.02770363706677582
0.6714340706777823
-0.08595289458277497
-0.05612356588271403
-0.08343906090152482
-0.0101151130404193
-0.01465184355266736
-0.0160929588762291
-0.01608294244877484
-0.009023465739415086
-0.1225665441783454
-0.042590865803482
-1.19373094413221
0.01704478655722339
-0.6293194663182429
0.02027684975330638
-0.8112621009809688
0.02754341763020341
-0.4313977414713337
0.03255494817900473
0.03330735712509145
0.03370730396973824
-0.548255495016064
0.03574773821818375
0.03581815420745064
0.01469271178038745
0.01083529995787473
0.01112705796951311
0.003140342653383352
0.0315329000397078
0.03627439108353435
0.02627217032144355
0.02885616995546981
0.03206216477108474
0.01722148305452329
-1.218848035937672
0.02184734810599915
-0.2217488044335331
-0.05367495130172496
-0.3392052335239883
-0.3111742410959423
-0.1692440184135606
-0.1242200091739551
-0.2360941884434182
-0.1585097469997641
-0.8498890022663979
-0.09170111305844038
-0.07237039524752358
-0.08448285494559457
-0.1271106149690182
-0.1596547757754167
-0.1368771533711544
-0.119073846105377
-0.08095130212668503
-0.1809670802574997
-0.1392676794396354
0.03062492666948812
-0.2037255531480782
-0.08078472360556793
0.02488647426525063
0.03104436439775481
-0.04661826989400116
0.0260935368262807
0.01535733195579801
0.0334652774543597
0.0462444547422614
-0.1175495136325117
0.02128590483646896
-0.4599636042298978
-0.04188596889394349
0.0553920852519986
-0.1637579466281308
-0.1226418840424569
0.05712210546759024
0.06460501201268903
-0.3712541893801072
-0.007857387426581444
0.06852751823677956
-0.126547590775078
-0.09669915781828274
-0.0578213517671133
-0.03229290046091651
0.05661967418394456
0.06190231089541527
0.05341474567784343
-0.1051722445471428
0.04571208929610471
-0.06653295201552833
-0.08810305038827085
-0.06124327097440119
-0.4728373348904986
0.04175468074176632
0.1821974483490354
-0.04089790498766722
0.03240488944136761
0.06269235598672923
0.01998646103668191
0.01041354024346184
0.02028548920681401
0.01966308040104945
0.07127404465494648
0.02686320458041867
-0.3884067634500665
-0.7690854816906912
-0.03702894508578876
-0.5374061570803953
0.002546343536688582
-0.09113984849052424
-0.5128544502245611
-0.07016220044485974
0.06413202589564021
0.07277500117458201
0.05666836542775761
-0.08668678865833909
0.3284512802596051
0.1067248023526924
0.02372907504699411
0.0009883207232108942
-0.1813755265408691
0.09358958459673716
0.02650752414493002
0.03047105832743451
-0.003374823634356532
0.02016851302579159
-0.054024342924184
-0.09150063788680576
-0.19951341031571
-0.08809011803275538
0.004018797386713477
-0.03266534815093166
-0.1160768853226992
-0.08241275127561495
-0.1744099416112669
0.4487480788226751
-0.2079047854005498
-0.05285986538521097
-0.3644584731815311
-0.3598007538925018
-0.3383105857433819
-0.4311057615454479
-0.1563934877807546
-0.7307697286323842
-0.4065742034577397
-0.2149574691982514
-0.05087370528423064
-0.1081020672129313
-0.2810820201238169
-0.01850809516491549
-0.5140192445235089
-1.991309544409924
-2.006244287287187
-0.1104221986842338
0.02624948420006757
-0.1164476593935629
-0.1192764296592604
-0.1211355331176528
-0.2076118030914286
-0.2959269846242978
-0.3595619066724081
-0.03904681418785102
-0.548319880710351
0.02212338576907741
0.02191111838608809
-1.080164946567329
0.02454340913561372
0.02094481096801861
-0.001321712171659888
-0.03832903237030705
0.02013044239012565
0.03278184189006668
0.02197747606041554
-0.06244574054563395
-0.1075274839514375
-0.1093388352623023
-0.06876497002582005
-0.1049986229412514
-0.02982879023377982
-0.01306596755036347
-0.2856456127541551
0.06708307590549273
0.07519440671398335
-0.03107071379382653
-0.02852886751233476
-0.03241621786666113
0.745239768437585
-0.03583566471405611
-0.5676296858443676
-0.02857966723245975
-0.05018786110867168
-1.490716851017576
-0.2041357876130122
0.04022179601826232
-0.5939461534333613
0.03439161579926493
0.0256316900085668
0.03573682647046965
-0.07063244455273818
-0.03080500879292445
0.01865041124765416
0.03438348525860053
-0.05870648910184621
-0.1384082861575471
0.03156186297048706
0.04791125239502483
-0.08482669065424467
-0.3662304260831788
-0.6417732967122645
-0.1556274189850668
-0.2042793237455461
0.01117571229665613
-0.02408021273053766
0.0187631058979307
-0.09884450982050347
-0.08969440657902698
-0.1080776913965684
-0.1464869364847596
-0.0853814629025484
-0.2984254016587776
0.2252219278871117
-1.43948167641623
-0.2842246733285195
-0.751171816605706
-0.03463778573693497
0.03259421198462931
-0.04484921174290395
0.07958760650599794
-0.4257735736490402
-0.07283324361635796
-0.07756470343749111
-0.2655235147817768
-0.06011641943535669
-0.4261543519571449
-0.1108737230628882
0.1359739000637902
-0.3119317563215603
-0.9243271718169991
0.219356465019943
0.07146287712654847
-0.1564146069625315
-0.1870197359692919
-0.4229416087534101
-0.1193067177969105
-0.3932329348713339
-0.2676820925862753
-0.486443579474413
-0.5293731260722643
-0.3004838420872389
-0.02062862179286284
0.01015338783382494
-0.1534220440119813
-0.06042612400823674
0.05270787605927577
-0.1476666453210238
0.007452805816196603
0.01620735046836997
0.02193073568528354
0.01557463253396521
0.05315371794243665
0.01455626004132758
-0.09544164949799955
-0.1531210521358832
-0.2195890119511389
-0.06474364361629607
0.02144182614279362
0.02107088891732892
-0.07099983233167384
-0.2782791730695651
-0.07403936853072336
-0.08655441470914013
0.02048904279551469
0.0205592594051529
-0.3521526551554659
0.02024710798518677
-0.04220332636604142
-0.05920246360268098
-0.2587513988282042
0.02172937766785674
-0.04939971305481461
0.02007328354349484
0.02039514779790259
-0.04279173953426337
-0.0515256701365734
0.02196066291171042
0.01772763723453771
0.02102099468352816
-0.03272787481183812
-0.06242480545352152
0.07776405170408637
-0.8176512718644091
-0.1106857203456519
-0.262293360523831
-0.144846134559319
-0.1006877619537928
-0.08981392242844377
-0.1058313606189075
-1.152041078827956
-0.0724472173816509
-0.2705206926493726
-0.3209676207616227
0.08420740252157208
-0.3378480814749743
0.04459141534531846
-0.1669168131283517
-0.1569583483434717
-1.474843828816058
-0.322920679894812
-0.09933000427113584
-0.2329066792035875
0.01256215889047695
-0.363837493472667
-0.2812152729299178
0.02114051036411869