/*--------------------------------*- C++ -*----------------------------------*\
| =========                 |                                                 |
| \\      /  F ield         | OpenFOAM: The Open Source CFD Toolbox           |
|  \\    /   O peration     | Version:  v1906                                 |
|   \\  /    A nd           | Web:      www.OpenFOAM.com                      |
|    \\/     M anipulation  |                                                 |
\*---------------------------------------------------------------------------*/
FoamFile
{
    version     2.0;
    format      ascii;
    class       surfaceScalarField;
    location    "1.3";
    object      phi;
}
// * * * * * * * * * * * * * * * * * * * * * * * * * * * * * * * * * * * * * //

dimensions      [0 3 -1 0 0 0 0];
oriented        oriented;


internalField   nonuniform List<scalar> 
37377
(
0.01732946637235901
-0.8086792607636032
-1.449908912747313
2.24125870711013
20.62048803651292
-4.650910049038636
-15.96995900075407
-16.56574918229155
8.228797404143599
-13.28822648122962
21.62517825938215
0.2200065851075676
-0.004049438666910449
-0.04006607070147485
-0.1758910757061025
-13.90221630976138
-12.09066047018174
25.98998729688583
-15.07203723741318
-30.354524249637
29.12993345452685
16.29662803251608
-8.935204552744665
-24.34732166958293
21.36957213941574
11.91295408283352
22.75632892559432
-22.16056229096577
0.5015923808384091
-1.097359015487169
-11.27764290914022
-5.813463566920129
17.0916065535297
0.1589181470662219
-0.4876457673903009
0.4000267061253375
-0.07129908568790287
-0.6940937782511138
0.5657382376057555
-0.6118088510997213
0.7401643918412799
26.5906885872943
-24.1680259923513
9.190588953457771
-11.61325154851659
1.513226020899087
-14.62566205151399
-14.31252196319339
27.42495799376576
-10.10421559868967
3.664105622284646
-11.81939759538594
18.25950757172629
-1.433033988674056
-0.6519112737900837
2.211973346685199
-4.864866501763402
-9.488970996151616
-3.438539504687817
-17.13550497382958
14.56641471425321
-25.45949918823157
28.02858944776894
-14.97596738288162
29.47220929813353
-14.50537022264902
5.336600655879599
-18.78013390514828
-5.076460517920344
18.51999376717198
-19.60548704384936
18.72265176078077
0.8829252966927945
-0.8240797687233424
0.3080388410370863
1.129511773672802
-0.6134708458913949
-0.2293785943838796
0.1640844679530419
0.1979174128041071
-0.1326232863415604
-14.19950585833904
18.03991852980742
-2.563863724514997
-1.2765489471236
-21.68291267337754
-14.9754412720448
17.05286690157091
-4.71095932402599
15.79421899877849
-23.88980917339008
12.80654949863241
14.85502008293945
-11.62795206193423
-0.3799462843458707
-2.847121736661967
-17.09503319878562
-9.024612818572342
14.70554364319047
11.41410237415948
-0.03061880371898568
0.02124679444810421
9.711032928030829
-20.23640742838239
-8.185866610319806
-8.441982385659889
32.56096633796809
-27.42227645461281
3.303292502287567
39.66583801005053
-16.63488179243763
0.7867599946624313
-23.81771621228525
23.53717323767373
-16.27627845705453
4.236754260427019
-11.49764904106803
0.1605784594291227
-0.2635031667828544
-0.4859936017828758
0.5889183092301327
-0.1168499920845045
0.09953452571836499
0.01457068372379538
0.002744782669173804
-10.19975973783393
3.518362818733469
-11.99904647440233
18.68044339317549
-30.54415972779465
25.67727506177289
1.531781577363825
3.335103088624781
16.61843117289927
-19.01185083197685
-17.95593025644907
20.34934991552604
-26.56338272923308
-1.132280741867429
4.119682190338363
23.57598128075832
-3.484206651393358
4.908216981493662
18.21467934113631
-19.63868967124483
-0.9411117720223162
-1.522653653808991
1.353917520170896
1.109847905661231
-11.22077013058601
2.012049311861021
24.95756082711357
-15.74884000838857
14.27622832369556
7.295577485721957
-5.896139698200312
-15.67566611142843
7.368161355587038
19.97809193280717
-43.21493943671959
15.86868614832022
3.205363105159321
-19.40614187411627
-4.199692204549532
-12.71734732358482
-10.77236616117779
-15.57517260973276
39.06488609449539
-18.93489384638589
28.59466527671409
-5.70377730960907
-3.955994120730884
27.32095436989256
-27.17058231992268
-3.798955797318942
3.648583747339539
-21.59334202947099
-16.49657294315514
10.12785756194293
27.96205741069887
18.59689980027188
14.12911903021988
3.013368747821212
-35.73938757832284
-20.22658595303852
-6.303740625835792
28.0781063148037
-1.547779736096717
11.4904715889849
-20.38046059281378
9.053622110149254
-0.1636331063172718
14.58419704901494
-17.50103898227889
2.917316440705636
-23.26470375007017
11.4012787572829
10.93853820710887
0.9248867856767982
21.61813905846068
5.162651777156921
-2.015952657668443
-24.76483817789699
31.04611610556714
-9.178893669128795
-0.9225987012809453
-20.9446237351998
-2.967803831177693
17.55252030033781
11.37619220563064
6.652675455159807
-18.8901757297
0.8613080686916383
-17.51116134614486
-3.570302538850944
21.08177560649013
10.32040632006639
-4.153761784579173
6.497067687941969
-12.66371222344046
-0.4895817036779291
0.07100300404472411
-0.8884424542812102
1.307021154034269
-14.69563473333884
-2.094392675080209
16.78910392204895
36.666794179244
-9.09628466248305
-16.74928427895996
-10.82122523780953
0.0288144564831883
-0.09705437347906097
-0.04861007507443041
0.05489698175697901
0.1152096871528336
-0.0705721431658311
29.2177427370455
-20.03830666543454
18.46994178729559
-27.64937785888616
0.1342688037965105
-0.1207534741371301
0.001055354086316461
0.2114389038254644
-0.08767574061298511
0.04032130475553626
-19.97511127221113
-0.001264317724223444
19.97547092592903
-23.79901756168397
23.95922368465486
5.829628821845201
-5.989834944797864
-1.550974100126873
26.58373541148845
-10.70721358122916
-14.32554773040608
2.290667751240247
-2.217395965090921
-3.683231857658164
3.609960071645992
-0.1404398100338451
-17.28769237373062
2.524279977709818
14.90385220609416
5.844529737036332
-27.4166446993026
-2.27927903711894
23.85139399938105
0.0215890314312288
-19.99746111884739
35.2211142223062
-9.09661574872289
-46.4684186610758
20.34392018747924
-7.245691902298826
-4.339875173870479
32.3652375068357
-20.7796704306666
-23.05646118311499
14.85019693494716
6.137658890578124
2.068605357596236
-14.30080442962772
0.8594046173227178
-5.709828096090211
-18.45522587827073
-8.68720140756275
14.13057422002942
13.01185306566536
0.8097578421157464
-0.5488615910548105
0.2052020256083504
-0.4660982766448705
-10.82860717003959
-20.06320944327599
10.25935255988493
0.07241203432979171
-0.1161641056542928
0.02822659247959689
0.01552547887712262
5.39856289061606
23.7689509650343
-7.652476842119495
0.05149036706772694
-28.53528092909724
25.79262859531471
2.691161966676015
2.39998774491803
-0.395417098814565
12.5653806860739
-14.56995133217884
24.19220197547709
-0.1538155804162707
-5.289945783836372
-18.74844061128334
-15.87363983816853
-0.1820070884786238
-5.627265746737266
16.454419180204
-18.38746943630279
-24.63033247313687
11.79650265748261
1.845269218729853
-15.05319259357146
1.411420717255846
-25.40336191645103
-0.5935758232611982
0.6944237862737037
25.30251395343267
0.8969696556588074
-0.9460960112106312
-0.3260949824259483
0.3752213380350407
-13.11722730363331
0.2219477289205306
12.89524253613447
-18.25626436400954
17.09694726449112
-17.05574505995836
18.21506215926022
-1.728390874683423
0.2440244483414798
1.458400412887825
0.02596601341519964
-6.397721306281996
22.8511538305477
13.00490299509407
-24.87681223381084
25.2970285940863
-13.4251193551026
15.7017960713522
-19.45313558798508
11.04857591536375
-7.297236398738846
27.80557389113
-13.26509359876659
3.668544149876368
-18.20902444236944
17.65444812805741
21.90134602623045
-22.27609700032173
-17.27969715397958
16.75274992523276
0.900719220867819
0.1509781667186401
-0.008046476304606365
-0.08618907589631172
-0.05674261448545596
1.844374115120777
14.08869767485145
-10.86962367248083
-5.06344811749376
2.801388245739864
1.386161378916841
-1.427012381079153
-2.760537243365265
-11.65964738002225
-5.957364666277567
-2.602873660049426
20.21988570633438
0.008055056626414781
-0.1232837426439299
0.03295415820917848
0.08227452783448182
0.3503673854964516
0.06980918318106627
-0.4163264518222197
-0.003850116817075097
0.00488495490908734
0.5455924615449161
-0.488799002886272
-0.06167841352819903
-0.768725565244017
0.6965814674545235
-0.6032397884884594
0.6753838864483908
-26.03590425969431
14.37702237908122
28.41163180583335
-13.88255485103947
-3.618349685989499
-0.02590610546383604
0.1541501698033578
-0.1265536696514035
-0.001690394661464662
24.20835976706192
-23.65839505220032
-3.517768546042021
8.011752313677704
-13.57674033599105
23.76048375830452
-18.19549573634498
0.01806421675644956
-0.05167244706574312
0.2450471341589258
4.270215678140191
-21.7810181161164
-0.3075706662837252
-0.2438293170438448
0.4099879022199852
0.1414120811696752
0.01849778775647905
0.1706679978097718
0.0846438559002604
-0.1283203417193316
0.05031877452055838
-0.006642288654884496
-17.7938670835013
17.2849464513722
4.548497290000223
-4.039576657849913
-15.79420561348886
23.33809106818965
-3.562207989649207
-19.77587704949197
4.774500581115574
-19.93782674865769
1.997988971055817
13.1653371969492
-27.28735101927691
-0.7009010513303404
31.60381960221795
-3.615567531635939
-6.576303439258106
-23.89924251684772
23.8065640037603
6.668981952324305
0.10493742014701
-0.08122040142937885
0.002607252887708801
-0.02632427157162058
0.5083542588163753
-0.7312954705755987
-0.004393380742223662
0.2273345925829175
14.92674220518995
-0.1731544082908547
7.203245412743804
-21.95683320964807
-0.448365575501394
1.089346092590055
-9.382956489468238
8.741975972308753
-9.631698413431469
-16.78763664939563
19.63214019396036
6.787194868831394
15.56266291716432
0.1022465963447161
-15.55061729667678
-0.1142922168345005
19.76812647996988
-24.19902925344775
-8.452945842637144
12.88384861612035
13.16267912773905
18.19708457943589
-7.826060875531852
-23.53370283164655
-0.2110158721653254
-0.542372897419178
0.3496347465795488
0.4037540230367621
-7.315481758225188
11.11839205083971
11.60423540369192
0.5223229050063024
22.10551333752703
-16.03772193043651
-6.590114312090593
-0.09573068655653594
1.4302809540428
-1.330352573775638
2.417432199351488
6.055163963149263
-9.725049384139252
1.252453221735505
-24.93083450964907
14.38164953777579
32.16732403044667
19.07271613604429
-8.149385043495766
4.003411112637993
-6.81250174427969
-1.397863754993622
9.523124966764042
-1.312759467300857
0.1054078972576249
-0.1145872298095646
0.00917933257179104
0.06500196995779041
-0.1452441817249354
0.09404208300958064
-0.01379987122344199
0.08343372916521621
0.1045671507772307
-0.1305070979053638
-0.05749378201624666
-0.07342608322456783
0.1166178214262373
-0.01437728169896437
0.1239056850207014
2.903472658718792
30.42793677305604
-25.17014140521047
-8.161268026560037
-5.762657504076503
2.60133982008352
-19.39122814680672
16.91880792093633
-10.15049164716
-8.172216769112305
1.403900495320111
-1.758921673503072
1.8884272913006
4.44892097697148
-4.578426594424186
16.0145332406605
14.19999672520235
-17.0879402992773
-13.12658966659265
23.88503849794518
-8.354033129454704
-1.225721567078893
-14.30528380151978
14.39672462733849
9.388068941299975
0.1002449292199722
-14.87487468097565
3.042490646322683
-4.519185174561404
16.35156920909295
-16.93927456919416
20.60029011085946
-16.37836286525194
1.787716710161418
-10.51986347850605
-9.378352804092053
15.46862593570433
-18.29495159335769
12.20467846166888
2.770580915396536
23.12046346564741
1.173210986835917
-20.46793837012782
-2.430596463251287
22.89771337423342
-16.992369705157
-13.58361887536075
5.829191887861245
24.7467966924607
0.005782244508244204
-0.1103553085518257
-0.01618041007787838
-0.1378839030143239
-0.004671826410858941
0.1606199461984311
-0.1455368375303165
0.07265490448142631
-0.07639083227984915
0.01458037973489282
-0.2465885768585323
0.01337599872529654
-14.48727529456617
21.86093858337871
2.958911282655254
-10.33257457153058
10.48594360082133
9.268725250558935
-8.60645933275317
-11.14820951862831
-12.72474720591182
15.29952913918953
-19.07152528075076
16.49674334746908
22.33093751539791
-22.4049406542115
-0.1083979886732601
0.1824011274479729
-0.134831799068841
-0.00718962700286001
-27.09704513813182
16.43544331790616
1.949434696882204
8.71216712321875
2.350624060039235
-26.29630774683516
3.136803017958922
20.80888066883535
6.164093827903929
-0.9960052339434762
0.3492629710255685
-5.517351564689258
13.83881683807372
18.06547999809175
-17.32910506204226
-14.57519177412427
35.4242350377199
-13.28894733836185
3.24267419935895
-25.37796189873702
2.389046532684532
19.64947001347974
3.502325439390065
-25.54084198557462
-15.10117709059117
-2.801695201899655
-1.978544475864784
5.731320825573074
-3.115480902216098
24.15389576383639
0.5062530265372995
2.398366454066676
0.2308707363171421
-3.135490216636349
-20.70193719758895
24.00108100048699
2.432177022670618
-0.9918484781391259
-20.04318019706781
-0.1349275451592626
21.16995622037022
2.423794608576099
-13.06844642505527
6.667575550671341
3.977076265801438
-28.48997376655964
28.52631559458568
-1.028190306157811
2.506292768114949
-30.36177420215266
7.812301236972803
-16.61904425739642
1.096713033596532
15.52206207360671
-2.323751452926773
-19.28925985644292
21.61222215903182
8.104699463935441
-7.839905462685782
22.04084409652246
-22.30563809778477
6.147539070790371
-12.12077944903415
-17.22420624758814
-11.5707693739118
12.07990025025851
-5.428469160013266
4.919338283661483
15.5765447951408
25.17059551130967
-44.84206522433437
4.09492491786319
-21.63167984373397
22.7027143395957
-29.56100826240787
-5.527788874130938
5.509352057630027
32.47522994806046
-32.45679313158264
-0.7104693669510681
-1.130203618942561
0.02094321218530642
1.81972977377606
0.3791907830420789
0.5865773213101738
-0.7196817559320898
-11.82530494707632
-11.07614848540533
22.90127424131412
-2.735928948945643
8.185567662899718
6.686580647377494
-17.08051520337962
10.62196622154969
28.41962041571974
-21.96107143385315
0.5721054670386631
6.67118571798425
-7.691656760774922
-0.2641866125548767
-0.1585235557341139
0.1948541824717915
0.227855985876021
15.23322596322128
-8.468120542168046
-14.80370424259878
8.03859882152552
18.66619603464577
-26.7740123427731
-19.07377010071604
27.18158640877797
-4.198262071648939
18.68478820027672
-14.48719311870027
-1.88881325163767
1.671095081769691
-1.296207970912514
1.513926140897646
0.4990442145265691
-20.26317088728357
1.309866538533947
18.45426013421114
-3.983105723205643
-20.29316874360794
24.04350494040983
0.2327695264110439
8.223293150595818
13.82069677332039
-10.03486784274854
-12.00912208116881
-22.88237287782815
11.05706283603666
6.778618553209295
-21.18100835700497
14.22923539550238
1.70466030655322
21.99473035834046
2.465279162556454
-26.16466982746346
13.05013730543499
-33.60760799422699
18.08373685888595
2.473733829900291
-34.73277186956107
-2.03938771762309
22.58678269802793
14.18537688918356
13.44415534230692
-12.67562584177744
5.296549452167186
-6.06507895240402
23.74388457910972
-20.54220111728225
-7.218809014400962
4.017125552542277
30.2600909847439
3.411331613209026
-8.730414844587433
-24.94100775337857
-35.13185055688399
24.89489144555419
18.41152604972921
-8.174566938243849
-16.18766095189955
24.55648348538816
-8.369179018361692
20.76808740856439
5.951621800026769
-19.51646379584905
1.155919688010611
-7.144308490168375
-4.773810319662481
10.76219912230356
14.72428868149744
3.203531618972806
-15.53001918662381
-2.397801113852259
26.11320473762416
-3.60752028862693
-29.08129557222275
6.575611123219202
-28.82399538945196
20.09017540286715
3.87114704753537
4.862672938965685
-3.231250981612587
-20.42988221162039
3.272538571304676
12.54745053400073
-8.411658644798752
9.745538289272872
-13.88133017849192
-12.19765841504025
12.15686089089554
1.544708693348487
-1.503911169231231
21.44675547215222
-4.276115721693527
-18.3954927850647
1.22485303459973
-0.5497509424305927
-2.618330997498354
-16.2856629095103
15.09421016770182
4.729200453175806
1.337469458329248
-21.16088007921227
-17.54590754235679
11.35903718265058
6.660727191524523
-0.4738568318169218
15.1275684089962
-21.09828346892616
-10.67575523110016
16.64647029098332
29.37548904534198
-8.916848562990072
1.354577757452063
-21.81321823997285
-22.12331961307893
-15.08810848860926
10.77830645735198
26.43312164428319
20.26944186430054
-5.453931090993648
0.2786993943920429
7.585440533842464
16.43174387154363
-30.27728155047972
5.929335068182833
13.87372547489867
10.47422100739284
-11.14120460271603
26.51407710498956
-0.4807176866012013
-14.89215481580803
12.60557238759931
0.7217746905302613
-17.7779578008898
4.450610723123845
30.74197877300083
-7.242815605109275
-21.05490715609443
-2.444256011798971
12.68682605742456
8.43725852945877
-0.5621789754672686
-20.56190561141315
-2.982532263315134
-1.168000045246375
-17.04731575331012
0.8284531818520264
-5.160697555449777
-1.447076679508877
5.77932105368626
-1.27553178432306
-22.12087592483295
22.89948500066559
0.496922708454908
-21.65692652360992
-3.425067557904798
3.687423217576971
21.39457086393333
0.2774570185749479
-2.206781590581698
-17.32659411253271
-2.441202078756627
0.04486041625805397
0.03354232566439019
2.362799337328457
-15.52735095912705
12.03022573670926
-11.71356242806801
15.21068765047712
20.11743333633929
-18.43435372714001
22.6622960841137
-24.3453756933591
32.61604576944994
-12.83782614409757
11.26789648019193
0.008829532834604368
17.56299551984394
-17.57253556456255
1.924351907414501
1.719924327088757
-1.805454228216026
-1.8388220060256
4.267481090706911
-3.538917397124425
26.01658775769203
-26.74515145128931
22.59718088281275
-23.33027344923116
-4.801704244901696
5.534796811303698
20.59950071744736
5.665734523877899
-7.04013618188961
-19.22509905945664
-14.01334379188603
9.120897373203897
14.10749518468611
-9.215048766008369
18.6800083728363
-10.99283994546636
15.02497443569086
-22.71214286306935
4.271966273959634
1.235262796175292
0.6568647580949359
6.546758275705738
4.676999482412682
6.173112264942415
-17.3968700230394
-2.201093925874953
-10.26695620411045
-6.614717004163116
-20.47249747866473
-15.29829049317047
50.1478103509051
0.02060940583958751
0.2777959818932249
0.3060732567645274
-0.6044786443633243
0.6263094380571835
-1.347181758944198
0.4448937563708069
0.2759785645956605
22.5209071669321
-28.64414985113599
-8.858305168351391
14.98154785252894
6.678061711120431
-4.839617707636081
2.49627753745507
-4.334721541086035
12.73150443480195
4.624720849346538
6.573401500330647
-23.92962678443848
15.02132929999867
15.67234196768947
-15.76937674254832
-12.94784597571115
12.26904589428212
12.79930494871907
-12.12050486729029
-22.90401748574545
10.64642621668048
12.25772063301942
-21.96077167668425
10.01893323427418
-1.006007533296718
-8.969963502859132
-2.58205080285726
23.82106019995858
-23.63750653255036
-0.482215576637931
-0.5566617198852502
24.67638382894495
24.44430556248664
-5.404664899858272
6.992130860057943
-26.03177152269911
5.884865860073158
15.25421050988195
-21.30138368569355
0.1623073157301299
-11.28710211547083
13.19346835897238
-19.95128103442857
18.04491479092081
15.72484681386379
29.44397572418296
-46.36689262725331
1.198070089199182
20.66730620574525
19.35401798618477
-32.65316283634666
-16.73260496418819
-0.3300221867918001
21.33010824167791
-11.14697304282286
-21.09920243000964
25.65246725363638
6.593708219150781
19.9454637407887
-1.350573170380647
-18.59573561102622
15.76402653139693
-0.6569878600821659
1.618850354268295
-16.72588902538088
-6.111707582001912
32.37784933387681
-22.49659914261031
26.46354811183225
-15.5722541192359
4.610191353517727
-15.50148534614099
30.08991689342603
11.04659883737835
-38.76804470313611
-2.368471027838396
6.044885843347507
9.472317532327276
8.44610825804512
-23.96331163372731
22.61023161112669
-20.81917409844151
-1.794431292381555
14.85266321564402
8.898492257507391
-10.35318551903676
-13.39796995418069
20.44696668300494
1.917331211546323
-22.31757352893313
-0.04672436561134229
-0.04583117083142833
0.07951663948054251
0.1428859580770845
-0.1765714266850106
-15.84873724243815
10.32469168733993
5.517348847468653
26.73833779260455
-10.64914433280254
-2.083382584185398
-14.00581087561843
-9.599040326600512
-9.944940517732702
19.54389637660673
1.59039467311395
12.19132405305751
-16.9127594462059
3.131040719994221
-23.33693732912449
19.73027758733497
-14.8801754316224
18.48683517322988
-0.2535791114043175
-31.54708870856965
7.780642325464616
24.02002549446416
-16.26893897089662
-12.81944169576352
-8.140176445180412
37.22855711185312
-9.152959045109789
-32.40485705870625
10.63152196606233
30.9262941377452
-2.926569502493332
19.60015956414124
-17.64439878896875
0.9708087273237216
11.99514985299562
-13.85832865400589
12.40057197735091
-10.5373931763448
19.60959850968263
0.1923535468293124
-19.80198955820262
6.01594331607788
-6.237972184880341
-4.641963101854154
4.863991970654016
-4.051935360802706
-19.42986611316298
4.467321712390248
-8.503862919491102
10.46573409833936
17.42088899022679
-19.38276016906358
-1.72880706469396
19.57157400703552
-28.3211484000709
10.4783814577279
0.06195460320820504
0.8550131343984062
-0.2906582994651514
8.114251855182248
-7.711761763852061
-12.21386131203859
11.81137122070771
17.83162102075453
-5.814527434312037
16.94098645822306
-28.95808004466305
-1.652821245909684
14.42344255468892
6.663338353448917
-19.43395966224169
-0.01470383552341169
-0.1507467672512432
-17.69133445592405
30.41658867951435
-8.795124234228808
-21.79397259592638
12.20255152011852
18.38654531000346
-26.87153292086078
-2.855314002508857
12.99424195917499
5.704543035760747
5.803411990952365
-20.47557267634669
8.967617649630155
-24.19978433621769
-12.81459421699781
10.14284563234601
0.09167519405257311
-0.0704283995957783
0.1031455635412837
-0.01147036947831123
-0.06378507280499061
-0.2355569431184011
0.1270700648528376
0.1722719511526312
-7.167757421707417
6.513241171832084
-0.07834671842938366
0.7328629685494266
-0.03499683669478808
0.1812418024521265
-0.09442075138874842
-0.01438423390320237
0.06814872685043984
-21.6184673231609
-16.43257163382897
42.17912728659823
-4.128088329611805
0.1423780679222464
-0.1066726369973754
-0.02652609833559249
0.08937025660830664
-11.43744797257706
15.46193168505465
13.41889726611366
-17.44338097860084
10.07673918249552
-10.31157780147517
11.80016871780616
-11.56533009882887
1.064566681883564
-4.220188330087199
0.004424989312130242
-0.08081582157387249
25.00300172579586
-22.57876294744827
-6.240777205539763
3.816538427183486
15.58541659689852
-13.21268313117404
-5.663366411572286
3.290632946375072
9.600059436097638
15.54356670575812
-40.67097710098892
-0.140785944108825
0.02001472996260644
-0.02877182647324182
-0.08829727694652355
-5.584618034886236
0.922539809887957
-15.56869924455585
4.54841713346031
-16.79751929778202
12.71236750359138
-0.4632653392324154
-8.674455606215608
1.511135019665601
-10.37896068571985
17.54228127226946
-8.236542272850091
-12.76042896333993
-16.4648847979849
37.46185603416026
3.531986027400516
-6.670699221830041
16.48388167838258
-13.34516848378009
-22.58565750222601
29.81890996937214
-7.233957652945844
-11.11435798745766
14.10201025222371
31.47160509589035
-34.45925736074168
24.16860897636846
-17.52208959230889
-9.792866223084362
3.146346838992563
0.005050494780441771
-0.09539107335813142
-11.96376401377588
-5.302282392371636
-5.192846413346954
-14.20643010890912
24.20427921700546
-17.38677723916279
7.388928131117003
-0.03177692252975131
-0.04164916068321339
-0.06054874899668056
-6.057270312775588
-0.08039016867456757
5.404590703727589
0.7330697777671273
0.01358425756173758
-0.03085046667784767
0.1324758962887597
8.477314404884561
-12.85122073278737
7.849798546651855
-3.475892218704794
-1.043643867876352
-14.5638811900076
-3.796720752523147
10.67118434433606
-4.272107088487334
-13.62671032357641
7.227633067931965
2.369480175049326
-2.837801615548922
21.06856378272533
-20.6002423422391
0.04604567827295471
1.102820550132098
25.56180213911609
-22.14029680047554
-4.524325888959208
-24.54979659198296
6.482718799092277
0.2293010432597763
17.83777674962206
0.7178176686483729
24.00593168865856
-24.73430454350272
0.1070505580853054
0.1592331948719313
-8.400065597949062
11.51894223996728
20.21921442616889
-0.6505785849658685
13.26757335868606
-24.57194783250833
11.95495305877539
10.32725115477316
-0.7408745233202245
-2.04624054997016
-7.540136081488359
-20.45490710207555
7.650804578823532
4.300239603773119
-2.73601154805166
-0.9971040158508557
20.99400269666636
-17.26088713280358
11.7835878761423
6.346625349921425
-18.1296500556406
-0.4690079215000089
0.006981332662323555
0.5114390605463668
-0.04941247162988615
15.22742355025771
-9.335427281497898
9.670666648402371
0.978226720845204
0.1417475933521865
-0.005276295844213597
-1.114698017846114
1.225088239180492
27.40596691619868
0.7444338897648626
4.235403983034435
-1.245294723456117
9.321608812166501
-12.31171807181067
-4.051808793087011
-8.811084492810879
-0.4769988417157574
0.8908223986922094
5.201397000279588
14.2133636212813
-20.3055830202779
-0.4274925829203889
1.457968905922984
0.9397043531011084
-1.970180675810933
17.60829875980361
4.720417233042173
7.539477757692589
15.81547450217725
-19.77065658806542
-3.584295671800499
-3.696320878306396
-0.372858791736136
3.314570071472278
0.7546095985836344
-1.376520376842436
-15.07103532704838
16.44741007812977
0.9732724191824829
-11.03656542042679
-7.135705473316248
-0.5842674611703226
-7.864400659995552
12.50685749136198
-4.058189370231687
14.48412107368591
-9.867127801300727
-5.2012607335825
4.983925810753462
0.193465809163122
-7.490958664182227
2.313567044313483
-0.06781984753663839
-0.002345039944609347
0.02582433760418716
0.04434054989488653
-15.88217878302813
-3.027478365957808
18.18038618794816
0.7292709610240691
21.17202848242598
-22.23981011793969
2.323069252902399
-1.255287617406978
10.9535530486666
-6.637096940257234
10.16766496527702
-0.4745888186556043
0.3737334176060959
0.09712650381277387
0.003728897429862806
24.16551530058613
-5.666641353522826
-0.9858305394225073
-17.513043407668
5.029401223367469
19.14338622220289
-0.99764263334012
-23.17514481237257
21.93168347039197
-12.22654628777288
-0.9442057036210532
-8.760931479023444
1.252850712742868
-0.2056997398937866
-0.9730885032376809
-0.07406246950456198
20.96077565076199
-13.36436215593408
4.158075807446822
-11.75448930230595
22.85397121426666
4.232383938349519
-9.351843263283129
-17.73451188934492
-16.93134131834391
-15.47711108689795
30.70388207617353
1.704570329111806
0.3252766390289629
-1.009737931626053
0.5484842498146338
0.1359770428937169
13.69499988467929
31.4312910666511
21.79768056165789
-3.365261416429747
-12.99767794917793
-5.434741196081824
0.3737202026748009
16.56526735351983
-18.43014625213618
1.491158695836835
-31.34851954849155
15.49455185478126
8.201260322620687
7.652707371000385
-20.23060866470567
-25.09662109568602
25.91536697545769
19.41186278493541
-2.35335223055237
-8.120270252698072
19.45699982753197
-8.983377344285534
25.17106805975003
-12.39013417244503
-15.13428611787672
17.53759653330222
-0.5809198211436603
8.214391347566826
-2.617859980911123
6.623681317891436
13.53177519628581
30.49545175493314
-39.18396059894822
-14.36795233909474
-26.32384999553781
-7.585490611676574
29.69962573506519
4.209714872127125
-13.48264229643877
16.64705841993537
21.47978292473635
-24.64419904834572
29.02071147278503
-34.67904845365735
20.27061052132735
-14.61227354055291
-18.52076498945155
-8.328208065589182
22.98810758576907
3.860865468939264
11.49348776293409
-29.64006711692658
4.663937057309041
6.455450919493572
-10.85926135279011
7.002886942882269
-2.599076509081876
32.96520933179379
9.611871969392881
-1.661700234816741
36.35529951197979
-13.24797038519105
-21.44562889201696
23.20518350189591
-11.92351438560171
-11.28885308402073
-15.88448290996058
19.11824455446678
-3.060983500367337
-16.0576657757511
-1.05499525030046
0.5557442439752983
-0.2646139542367463
0.7638649605051973
-10.95040225681458
-18.67985180464141
6.14528943634365
23.48496462518767
0.1614733198247245
-0.1773612176026111
26.07595600605161
-8.888423489007476
-3.900940790956892
-13.28659172605635
12.45413284593209
9.731786836143341
-10.69544809308806
-11.28636634177261
15.81968103577182
-21.39228833895547
16.85897364476634
5.436791308194434
2.852725531766687
19.0189112876228
-27.30842812762608
0.2898476556931665
-0.4044644975989523
0.31785688886576
-0.2032400468142974
22.18919903791952
8.895900650184517
-25.64830838005783
22.41847839865945
-18.14566139843229
11.9922398949081
-16.26505689515069
32.32620855675318
1.094506201868179
-9.542574873412649
-23.87813988516606
2.43943415501008
-27.78343179647869
26.51210513429885
-1.168107492905072
-12.24208314048509
24.39909490280429
-18.88176050953127
6.724748747228245
-17.18932543035609
11.87713425622547
-4.838300473083896
12.70836320570709
-30.64122275384014
22.50219427714456
-4.569334728995551
4.408326126946655
-5.169945306177312
-21.19521403041988
-32.78588339801028
26.65194007230889
-3.60952394929776
9.743467274981432
-4.557772342970848
-22.27333554652688
13.57760301328639
13.25350487620665
14.21441401005308
-11.9214812639488
-5.80850882572997
3.515576079622822
-0.2929571331393855
-0.7225600314491357
0.569392312057766
-23.80042295894617
26.12498148248684
-35.11044192157743
21.71099476495577
-2.200411312996006
7.141356620334109
-2.900002982616263
27.99746720692253
-2.61467841724868
-22.48278580708003
-21.96001272343467
24.56647688853081
5.383912410401195
-7.990376575528579
17.11565994622694
22.29849198323395
-28.96250390934557
-10.45164802008547
32.32965290219466
-30.14021477438723
3.542759968400336
-5.732198096162369
24.29385648321167
-14.49197806559589
-13.99369751405911
4.191819096423361
-34.3926155956263
12.1884624865238
32.91151660211192
-10.70736349306164
-24.23523589536649
12.35267436878398
-22.51005406908245
26.86118397255277
-13.15949546514653
0.3087507691197124
20.13074097485279
1.616466222098268
-22.05595796606544
-5.839956901138375
-19.7967263711398