/*--------------------------------*- C++ -*----------------------------------*\
| =========                 |                                                 |
| \\      /  F ield         | OpenFOAM: The Open Source CFD Toolbox           |
|  \\    /   O peration     | Version:  v1906                                 |
|   \\  /    A nd           | Web:      www.OpenFOAM.com                      |
|    \\/     M anipulation  |                                                 |
\*---------------------------------------------------------------------------*/
FoamFile
{
    version     2.0;
    format      ascii;
    class       volVectorField;
    location    "1.3";
    object      vorticity;
}
// * * * * * * * * * * * * * * * * * * * * * * * * * * * * * * * * * * * * * //

dimensions      [0 0 -1 0 0 0 0];


internalField   nonuniform List<vector> 
19632
(
(0.005208888992314063 0.01292011374918341 0.01264242246921521)
(-0.003804905592666455 0.001992075988860901 -0.0006532660319251805)
(4.102218212626754e-05 -0.0002089219396098649 -0.0001605010084461348)
(-0.2483446570476284 -3.330538494159369 -3.493600210379587)
(0.0005032952911828161 -0.009546909246121371 7.36545690251087e-05)
(-0.002510396640987835 -0.001261790642547835 -0.0002168139086401986)
(-0.001060047122665566 0.009295453922727804 0.008801567254276358)
(-0.002285949559902801 -7.898286347819336e-05 -6.09286053481441e-05)
(-0.003871354322014161 -0.0009762207328784525 -0.000610809323244953)
(-0.2146358740799053 -0.09235453200092439 0.0171969100298703)
(1.43057052110969 -0.041408032579504 0.01031845937835441)
(0.001779050746980361 0.004260919358765982 0.001974192905762451)
(-3.525665060463795e-05 -5.452493692313449e-05 6.74003957339819e-05)
(0.0003446470691425156 -0.0001076359990583816 8.596056079768005e-05)
(-0.00993611713907982 -0.0008109041908527896 -0.003014851357604806)
(-0.003394147683378851 -0.002841439297216385 -0.009046033977085663)
(-0.00323384164011771 0.0008262099945736932 -0.0004569923672348425)
(-0.01621776866131493 0.03124314327720725 0.01192011547968554)
(-4.838707439086361e-05 1.773180943841915e-06 0.0004938366411665986)
(-0.00276633542277966 -0.0004817842792006966 0.002865323997212539)
(-0.03392101276175602 -0.003028913487648945 -0.0004450214516070472)
(0.5180374967965968 2.060770705624185 0.786995794904076)
(-0.09069005057971563 -0.06272136980105286 0.09491023565902323)
(-0.003847624122840943 -0.001285843473201558 -0.001315654765293941)
(0.002465666434405806 0.0006806352431695201 -0.0004342391215181755)
(-0.0005836004851055973 0.002765313615365876 0.001217739964097874)
(-0.0001719593064604525 0.0004798509113298981 -0.0005278857303829939)
(-0.5366816372685353 -3.877199679747092 -3.610287354542138)
(0.004446045927999312 0.01195376640215133 -0.004096777135059853)
(-0.0001580071948116982 2.704119772666123e-05 -7.641690882695783e-06)
(6.471808466936507e-05 0.000283111005586091 0.0001624502975557249)
(-0.0006731362794963851 0.000923800558142527 -0.000176370110482164)
(0.01398394469085764 0.02717107648488389 -0.008175883033535919)
(-3.733447546295397 1.048374276324777 -2.629832021978478)
(-0.0001237615530831593 0.00011515384062237 -0.0003512426560217374)
(-7.00472637297316e-05 0.000137044424724973 -3.158568740002406e-05)
(-0.0005031743345435533 -0.0009933864834340031 3.530763342776986e-05)
(0.001238122493525414 9.56382749166514e-05 0.0003358560409527782)
(-0.0006955577365204088 -0.0002015957083616485 -0.0002596265281363388)
(3.527360507570281e-05 0.001250747822092895 -0.003296737561374532)
(0.001999033965564175 -0.0005075494214256889 0.0005667730861728794)
(0.001582803097340662 5.694412357754247e-05 0.0004263113867694899)
(0.0007610685750760768 -0.001729619103276746 0.001059952851357687)
(-0.07821874497945275 -0.1443574935797135 -0.1770822713304429)
(-0.0007408703290216791 6.034177533855497e-05 0.001224386783838059)
(0.00116364756605301 -0.0001681480097074202 9.272965724329676e-05)
(-4.323984295206156e-05 0.0001076426783063373 -5.654346115624397e-05)
(4.250839478135184e-05 0.0001899977978697627 4.18759083337715e-05)
(-0.001302610762134568 -0.00981647659281819 -0.009604452347197341)
(-0.001335718965675567 0.002065374129359595 0.001269937965298437)
(-0.005180090457495791 -0.001631617868576909 -0.0009353198233410916)
(0.006976601605568952 -0.002326556975682773 -0.009284574156716227)
(0.007144142966094744 0.005070537627396334 -0.001573481301954762)
(0.001247324151566563 -0.001215448216698872 0.0006656501791645005)
(0.001835630618747246 -0.0008257719356567214 -0.0002501862990574376)
(-0.005344211575282298 -0.001057104103097997 -0.000135661873624798)
(0.001649132187865648 -0.0004318238587811611 -1.357219512500632e-05)
(0.001536993695040548 -0.0004098213455127318 -0.0029878162466959)
(-0.001109385972664233 -0.03053140220049502 -0.01943969288352291)
(0.09408078611138233 -0.0408152184045536 -0.128377906076752)
(-0.0007703726333465568 -0.0003523413280166564 0.00113372958681033)
(1.878306673703827e-05 9.843609523834269e-05 -0.0002291650028113345)
(-0.9062461456431919 6.837833749939302 -8.336632340577799)
(-1.140220847603285 -1.818036639044836 -11.38960814710211)
(-5.744778248398111e-05 -3.752268007642191e-05 2.481123553818487e-05)
(2.784118459286204 3.659280027473015 1.306488090707794)
(-0.7402022771678881 -0.4208544799615168 0.3190126255571638)
(-0.001022275608038418 -0.0002883392710918009 -0.0007299638716007413)
(-0.0008082728815262056 0.0004100998225045411 0.0002359830087754016)
(0.0003126252294909328 -0.0003526078706396888 -0.0003515686432514889)
(0.001880344399290871 -0.004876357947948044 0.000218140248849961)
(-8.088558117827252e-05 9.927746428471655e-05 0.0002226869962034202)
(-0.0002995985918733619 -0.0001475197469294391 -0.0001137265162168514)
(0.0005187347388006685 0.0001236144785919693 0.001732799743302288)
(5.433101122754525e-06 5.369547256842675e-05 7.512892592103141e-07)
(-0.000198707305887567 -0.0001371923896322864 -4.637384860894766e-05)
(-5.689561914986558e-05 2.701498806887606e-05 -2.15493834274035e-05)
(-0.0829476912650709 -0.02667482672273359 0.3570570734307248)
(-0.1527466304464653 0.5646386320846091 -0.3615879873408815)
(0.009441900619247833 -0.007548854014382809 -0.009685191498957409)
(0.1347100135734259 -0.2396157560563234 -0.7720762792041094)
(-0.1361848144930638 0.5340833836461044 0.6950046810410209)
(5.956975570140648e-05 -0.0002025637703508135 -0.0003118536748095335)
(0.000226652219160547 3.404211224543617e-06 -6.087209115250308e-06)
(0.0006159228368670898 -0.0009591161012085731 -0.00101869742544221)
(0.0008154955175963827 -0.003622424774842831 -0.003294292615930385)
(-0.002247383687677114 0.0002627531386645336 -0.001294051763751948)
(0.001682652823358903 0.0003042816272402652 0.002018479642405267)
(0.0007801271725720151 -0.0004059965163518287 -2.845432092623201e-07)
(0.002204850332008672 0.002669302828396508 -0.008309761307196911)
(-0.004144233288156827 -0.04036103339429156 0.03293849550724427)
(0.003498719246034938 0.0002335610359570887 0.002937475356652649)
(-0.0002372444731844216 -0.001142571527707278 0.0003888138336005538)
(0.04302898224153801 0.001012818719351331 -0.005544366181673233)
(-0.001020389251059566 0.0005345301082470327 0.00152207083874299)
(0.002326050436858713 -0.0008651274013963506 -0.001802263660550604)
(-0.002348363055377158 -0.001411828091129654 -0.000607977552853429)
(-6.989288986302832e-05 0.0001579684971915814 0.0001328643767262574)
(0.002296525983710188 0.0001325114084504671 0.00105337534926935)
(-0.001677503747449904 -0.0007282254894005651 0.0001552808276319664)
(4.531955003503029 12.29332417848865 -1.600434611639389)
(0.0009777905955936051 -0.001481705754591053 0.002989153260483816)
(-0.008091547117154275 0.005012417036752571 -0.002467725228874315)
(-0.004323865932138178 -0.001061792150412218 -0.001244261111550246)
(-0.105811273145292 0.3942657536853544 -1.167490751483067)
(0.04622984477526369 0.1046222431609243 0.08337901413431932)
(4.303819524875762 -3.73148854750849 -0.9230922210331358)
(0.03991378342739073 -0.02055215805460538 -0.04744357236453463)
(0.002130880555841374 -0.001328194000835023 -0.003297806158837967)
(-0.00471779075123512 0.001493176808975381 -0.001530775772260677)
(-2.449572180735578 1.035651182978178 -0.05835957690123306)
(-0.001353327225057281 0.001099687351653593 -0.001779927253993332)
(-0.0004208789681778327 0.001622246797018679 -0.0006214458844201119)
(4.653438316313386 -0.2587255703408373 -0.5671898684984523)
(0.0005573771951135743 0.0008554415794798453 0.001342181770344337)
(-0.2363958097450626 -0.01363386224032742 -0.01778775529639847)
(-14.07433356723308 14.92753238829616 -6.26527375081039)
(0.1703848959754881 -0.06846333770310967 -0.1363277682926054)
(0.0005550252958745065 0.0001907226034160845 -0.001488365477282952)
(0.002668225385820682 -0.0001941102045428867 0.001822502233941941)
(-0.0004489571274744743 0.001465848382470545 -0.001903711657807329)
(-0.003612334760991011 -0.003191024469962058 0.001222853145855523)
(-4.07413348067695e-05 -5.917311690516746e-05 -0.0001234900970867171)
(-0.0002325440995987623 -0.0001940000466502523 -0.0001589197282712505)
(0.2352032109340333 0.8938784815413224 -0.3447197052139929)
(-0.06459721644531163 0.1207150803616571 -0.0005557637335058315)
(0.003233938147906424 -0.0008372561983963452 0.000439397932383728)
(0.002475919707244183 -0.001100614509303778 0.001376974806813115)
(-0.003744942200277691 0.003618297629595795 -0.006794660448430584)
(0.0003863388152660498 -0.0002435825014441673 0.000216200821639664)
(0.0001610040574475785 2.041017025260341e-05 0.0004580268224085865)
(0.0001233568610261047 0.0005953793311628852 0.0002360297266113062)
(0.01976528739649582 -0.0239699470851298 0.001917165374265018)
(0.0001816654611627242 2.654628152255936e-05 -3.0920572860458e-05)
(0.004204411183391799 -0.004090531401033515 -0.02026531583108536)
(-0.01342290949681479 -0.01720662130022748 -0.02429910977428668)
(-0.0012346766785936 -0.0007022920701931277 0.0001170027869237424)
(-0.0004092257148557817 0.0005352112217588854 -0.0009582972629062775)
(-0.002061329521746107 0.0007174824909955836 -0.00060369528903416)
(5.731227088056918e-05 -0.0002967717169724653 -0.001119708183157464)
(10.12892488176865 -17.85801448306224 -49.70793451181002)
(-0.2405636953728398 0.4520855620069502 -4.268992421057503)
(-0.6466067078868365 -5.738762709377171 -3.117223514975651)
(1.088670368714427 14.97000606095557 -5.807078190772362)
(-5.109156188713459 9.471781610418873 -39.70077244440955)
(-1.899474176210147e-05 -1.527038891283596e-05 -2.27469921702751e-05)
(-0.0007015435211925442 0.003359877554716097 0.002142587361212452)
(-0.09184196153711859 0.125506268494694 -0.2224899096505757)
(0.001088416523892867 0.005510419202089557 0.00452017692271805)
(0.0009922904167385094 0.0002098196106827783 -0.0008911678983802457)
(-0.0009254704727274769 -0.001142370409294323 -0.0007141413872045678)
(0.0001759065927144342 -0.0006333924919680047 2.037859982716928e-05)
(-0.001985479712844898 0.0005110413487870668 1.12554116444521e-05)
(0.001505918779751297 0.0002208936207999229 -0.004926896305514607)
(0.007708542973136731 -0.02569183901080474 0.0168111509244749)
(0.0006325268922223542 -9.330636597320875e-05 -0.0003316049858737335)
(0.0001195402054902661 -0.0001005601538577183 -8.455891550943035e-05)
(0.001869163735463594 0.0005253788641270904 0.0005383273618516479)
(0.0006241030780179375 -0.002328372930722076 0.003558790762298609)
(2.12921196830133 10.51588464193746 -2.591169110270775)
(2.001625794945849 -3.934178784863833 -0.706821421956612)
(-1.657539998254932 -2.464766771545533 -0.4292520130550118)
(5.213138186270236 -5.094700135684017 -18.55711595628039)
(-0.2198143568254779 -3.519150774418348 -0.776163536219215)
(-0.0001098749999535841 -0.0007997812694742146 0.0006807605508042793)
(-0.009941484119484015 -0.006818937368267608 -0.009228633742928127)
(-0.00180050883391267 -8.345885779591213e-06 0.000834634243497169)
(0.009721511496421873 0.005479182306199127 -0.007229375059142139)
(0.6754332865071317 -0.5929916859219473 -1.411710667275571)
(0.001576573661685932 -0.0003713559715251502 -0.001021623364109983)
(-0.001724858156180689 0.003260789732832433 0.0006698828944620211)
(-0.001280609673200065 0.0008449646692473299 0.003120892794846218)
(0.02765702085246571 -0.01608472414996868 0.008621239764970073)
(-0.000164232728924761 -0.0002821357873498472 -0.0002059013797919347)
(0.001090364455792759 -0.00207406065583318 0.001684742358316527)
(-0.003187795453321812 -0.01849382906877469 0.02197797255457297)
(-0.003113883616121862 0.0006157512108898961 -0.0006048524925606833)
(0.002481217819207716 0.0002177923757441571 0.005630531726336442)
(0.0006597969775863876 2.029252067291096e-05 -8.140440319206929e-05)
(-6.788738745946604e-05 -0.0001625917803929616 -1.062855266949509e-05)
(-0.001116977333666833 0.0003103389452676783 2.486172947987014e-05)
(-0.0002210875709791515 -2.590753262329378e-05 8.539372858428537e-05)
(0.0002272713750063796 0.0001521977322451788 -0.0001811320617929175)
(-0.002248715798493017 0.001461500899712648 0.001010526709808881)
(-0.001688896382194493 0.0005292222346129722 6.7468534931295e-05)
(-5.784459607972946e-05 5.547324936123396e-05 4.093584888305569e-05)
(0.003312426198609265 -0.008575986100747899 -0.01082145835245851)
(-0.0005802523243094587 0.0003903983090379198 0.0001560936836105539)
(0.000793259010402205 -0.0006937799632582047 0.0007443741895374735)
(-2.915568545804265e-05 0.0001547398500499016 -9.236712614403108e-05)
(0.0008426424528558564 0.0006769833511285234 -0.0002114056521268915)
(-0.01447501310440803 0.006990164301474759 -0.006970545344457039)
(0.05302824373991043 0.03120889293737891 -0.02083104522902995)
(0.007402485336425731 0.003454207606893275 0.001086372013447246)
(-0.0009000944703416846 2.545911508775454e-05 -0.0005310615206297719)
(-1.908653284101388e-05 -8.069889351389924e-05 -0.0001409689280216637)
(0.005152672001961974 -0.0003396829062895031 0.0004939037463671946)
(0.007941210759519091 -0.3796551000249982 -1.058434461123406)
(-0.0007104534008422319 0.0001589768448068676 -0.0008360775150373638)
(-0.06964305941967702 -0.03216594681595925 0.03940271347418994)
(-0.00038587570386431 -0.000370650505471523 0.0003789572344111151)
(-0.008986091167533674 -0.0008651964003162848 -0.003242480464816623)
(-0.0009987496981834999 7.733247007201819e-05 0.0009189781314157296)
(0.004911461168635531 0.004538902446060103 0.003234695965702125)
(-0.03372965268158049 0.0306846259609682 -0.038215260777496)
(-0.005628507386391144 0.001975048843049945 -0.0006181567637497188)
(0.001246408118567268 -0.0008688953382941839 -6.019713481657349e-05)
(-0.002465081802775271 -0.00210480365845988 -0.001141139352134625)
(-0.0004653185105816059 0.0001096339433600791 2.919452311378134e-05)
(0.0001041173916372975 -0.0001031116779056919 -4.490888009182571e-06)
(0.0009348098537234359 -0.001163665727066923 0.002439674959706738)
(0.0004254979887982021 -0.0001220284824553367 0.0002901377916260309)
(4.498558373056426e-05 -3.00317513772588e-06 -1.303627053991353e-05)
(-0.0004583937758742377 -0.000364986729454823 0.0007728128381205081)
(0.002405438272436466 0.0004762145541940467 -0.0003312788459405002)
(0.00156481062120052 0.007301806174051514 -0.00132747089948602)
(-0.001388773980502753 -0.0005443640356068342 -0.0002996683725044988)
(0.0003655863456239978 0.001013882071329399 0.003708196123754301)
(0.0001529298223237164 0.001005905301895233 -0.0004670101426410088)
(-0.00820757623173808 0.005906579884008651 -0.02943227071729074)
(-0.01570283034344702 -0.009144210192781371 -0.04188090087129747)
(0.01272333954570529 0.001662987709887195 0.0003380267531899352)
(-0.0007595842536320136 -0.0002583736636305978 9.815912067293739e-05)
(0.0003916394675816116 3.691265193003572e-05 -2.402256300673783e-05)
(0.01114179251729219 0.02219605773374977 0.003600993234209606)
(0.001006841147205236 -0.0003650649963114781 -0.002063984697938872)
(-0.000458246422182032 0.01154912701500241 -0.008578620221630293)
(-6.58845969474987e-05 -0.003181917515064279 0.0006758951256189775)
(0.0008256136294288826 -5.363405115626141e-07 0.0002554823064357589)
(-0.0001678490940519661 3.809361544805686e-05 -0.0001888007710546516)
(-0.004031850956246966 0.008745183687847696 0.004825005054309311)
(-0.0004918499268123028 0.0001216825844610246 -0.0002872143908072251)
(-0.0008394114176184076 0.002182208650201212 0.003047183451436722)
(6.882746658329596e-05 -1.617122243847568e-05 1.384822587501441e-05)
(-0.0001780718364155259 0.0002595371221302037 -0.0006623570329939162)
(0.001719579836224512 0.0001097140616403976 0.0005929763624752195)
(5.697151756592901e-05 0.0001203532134492163 -3.281449611795084e-05)
(0.0007458670414282401 -0.00434492325124039 0.01863088310119096)
(-0.007639782780553731 0.001151037134046518 -0.004926217353675081)
(0.002319245285697475 -0.004317401402999427 -0.002377728578275389)
(0.0006144176866551641 0.0008303483070293755 0.001137468915395098)
(0.03700299126325869 0.04953401518960043 0.05109427739973019)
(-0.0090436663243705 -0.000373983611918996 0.001101426365968456)
(-0.001634722861603796 -0.0008068929884209423 -0.004470737275698819)
(0.0001585013145547359 -3.358831187762395e-05 -0.0002231377985156276)
(0.000273360843799249 -0.0009107513668890587 0.0009298650418761295)
(0.001622063282650108 0.0009223071497393733 -0.002625068160791117)
(0.0003052521428278194 -0.0004534309378648812 -0.003109373058892957)
(-7.291379618190664e-05 -0.0002493499824060912 -2.341071685703666e-05)
(-0.0008936224252603508 0.0004230521188759857 0.000157488843142925)
(-0.0001536274011367051 -4.545959620641637e-05 -1.868129267826557e-05)
(-1.322931913743366e-05 -3.669110057930371e-05 -6.107059176686318e-05)
(-0.001718418198101586 0.003456350073669172 0.004409540732491172)
(-0.001423301260313912 -0.0008102082061796616 -0.0009784303038107385)
(0.0005420443248762496 -2.987145155921276e-05 0.0007693977656780949)
(-0.004102886250195297 -0.00948619695447802 0.006037681099816851)
(-0.0003353865890650846 -1.654731062896941e-05 -0.001251550015500777)
(0.01494621317830632 -0.0007955969112122064 0.01061677668961183)
(0.04428948629335473 -0.0353686705580142 0.009965951010350109)
(0.003006966135130288 -0.003907914208997258 0.006095996974834666)
(-0.0001816282408465836 0.001085992147937855 -0.0004408336599078322)
(0.001398127545363838 0.0002395052976330759 0.0004633406714563049)
(-0.0009533966083979059 -0.002346517630588701 -0.00736163065276601)
(3.763442978291664e-05 -0.0001019129419165167 -4.640128845513318e-05)
(0.002529090690214671 0.016180794312739 0.00614408159433413)
(-1.923662188606438e-05 -2.566200421931071e-05 -5.44189814079285e-05)
(9.654649522614485e-06 -3.589206556088158e-05 -1.148771371386812e-05)
(-0.001001052416377948 -0.001500008175776074 0.000320996982147293)
(5.564375189104549e-05 5.330523037706958e-05 -2.162855788656477e-05)
(-0.0003062932549177659 0.0005862152341136293 0.0001572262614460399)
(-0.0002814293224354569 6.732601636700111e-05 -5.67105317427882e-05)
(0.001714064663934532 -0.0005042559000251283 -0.0002469750174280984)
(0.04718561456584801 0.04031454913153758 -0.01282247144133271)
(0.0003316607887009967 1.153711715991745e-05 0.0003101883450852455)
(-0.001398215120412294 0.02295693503138427 -0.002515660043065143)
(0.006934416131458504 0.002189704605011659 -0.006488797596609121)
(-5.534028619329863e-05 0.0002967225516839611 -0.0004917791369207702)
(0.0005130049057934776 -7.047041613848348e-05 -0.000695506713434935)
(2.284712114125652e-05 3.637198355434022e-05 -9.038838390643582e-05)
(0.002292752961353915 -0.01191093928170051 -0.002028107754982861)
(0.0006560135711117604 0.0001616006913909608 6.71675545643071e-05)
(0.009011738582515087 0.003707673291272142 -0.001007624091526394)
(0.001324559835244688 0.000469990003908228 0.001594091836323633)
(8.651721505017061e-05 7.794973153273509e-06 1.361131752005559e-05)
(2.082328048447595 5.301684400157636 -8.555121874827661)
(-0.0003402358098943186 -0.01236340242017526 -0.0004650069593523715)
(-0.0002105085681797408 -0.001084436012897669 -0.000478794493156965)
(-0.01493989056620598 -0.006429472267027788 -0.0007733344001987216)
(0.008972938630333457 0.002599290827880572 -0.0007010584469058585)
(0.001394347452285746 0.0002277220020695519 0.0004035986214107044)
(-7.784843100595261e-05 -1.497169351864879e-05 -8.187861244659023e-06)
(-0.002070471962147437 0.0004670230932674535 3.03197418070509e-06)
(0.002199927482420402 0.002761379836916361 -0.0008039642883072558)
(-0.001289662931261273 0.0004197745567671688 -0.001129266688122783)
(-0.007058770728730116 -0.004325793497451995 -0.0007356099316910244)
(0.001946284687805362 0.0004280373232917562 0.0001177248838148543)
(0.005227846892130282 0.007870499817452517 0.01073010153404994)
(-0.02122971128312312 0.03798377724164625 -0.008538032125575964)
(0.0005653632072033457 -0.001273651975402674 -0.0002093988455031713)
(-0.001499489978438221 0.001304770106740691 4.921585162563923e-05)
(-0.001462807445782257 -0.001380627482141947 -0.006144279642920403)
(-0.00249371364856065 -0.007363579174717785 0.003888763209732041)
(-9.275783249871816e-06 0.0002366816611332392 -2.708196827123138e-06)
(-0.0002638986072819234 -0.0001125606551662594 -0.0001645172856231303)
(-2.732093130870799 -0.9087140813205556 -1.083085424992765)
(-0.0004288403555062742 -0.0005811663727490324 0.001374759959857931)
(0.001145382315464096 -0.0003664539585584229 -0.0002422204349038764)
(0.000102970857794369 3.500811966438817e-05 -7.868229063394312e-05)
(0.002618817406648161 -0.001065892282882964 0.001131934020701982)
(4.401986524938402e-05 -0.0001724182936439778 -0.0001607570086083823)
(-0.6692245834930184 -60.82378024666557 -3.379223519720807)
(2.313394946773663 -56.17382768328591 1.836969902780964)
(0.003306590702047987 -0.04052553749250955 0.05754721537084115)
(1.020401338720604e-05 -4.994410163675729e-07 -0.001697462951559675)
(-6.961106510718078 -12.35742428707218 -4.86968744500356)
(1.783929541423155 -0.11808221939024 -4.142743443877379)
(0.5815980480816885 -52.36976133461926 -7.872305003884054)
(0.0001102146456599494 -0.0003360900942908193 5.190820129584708e-05)
(2.824316331934866 -7.961536849997371 -4.85942092442793)
(6.140636139079058 -6.300069178068716 -69.05844287795416)
(0.00088509327795625 -0.000140982414693723 0.001812170998363948)
(0.007632331831897125 -0.002459743357061097 0.01201500366491395)
(0.1078022091695807 0.4708493623491899 0.1102609134286839)
(-5.454215651371635 -1.942737342889342 -51.11276129842305)
(-2.734221700404566e-05 1.238690153234471e-06 2.066035969710468e-05)
(-0.0003076945184562079 -0.0006473977489257478 -0.001828749116926001)
(-0.03897012413279511 0.01188343367780503 2.284225842049499e-05)
(-6.180741764655277 -11.56785983518669 -10.22263426456879)
(-7.566761871566825 6.734080063661134 -7.992702602354885)
(0.004311549651551953 -0.01301504029049521 0.00877195513056395)
(-0.0002588916427764577 0.000213740352256623 -0.0004004051805764649)
(-4.681434240784245e-05 0.0001557228494699657 7.009002971302447e-05)
(7.348411836083859e-05 3.603328266053475e-05 -9.532229784239566e-05)
(0.001329349215914181 0.0008007150011191464 -0.002091578706639592)
(0.0004021396110557696 0.002451031893444379 0.0004189135859322302)
(-0.001202844337659294 -0.009576801396030246 -0.001040479978865782)
(0.00235032548673676 -0.007447569360138894 -0.001938082775256828)
(-0.6551714097423498 8.415218982237992 -5.25645770785825)
(-0.0008364083669582532 -0.004008225682388935 -0.001759154087712066)
(-1.694803184435443 5.556185068819074 -57.40263051058039)
(4.062206571433608e-05 6.616609316753214e-05 0.0004518967065955843)
(-5.077546291488556 63.61144533310726 1.367734476597239)
(-4.044691328130055 75.17590267367682 -9.902468494515787)
(0.0001591042936833334 -0.0001800500625193765 0.0007830536001637492)
(2.436799577374347 8.302911858226366 -4.481421217468453)
(0.001170570170525412 3.964837903294998e-05 -0.0004077733875273858)
(-0.03674686814350954 -0.1775166860979209 0.005732354703988911)
(-0.003934844473311238 0.0005705954061451073 0.0001123487207008404)
(-0.09219721398445767 0.209450151358286 -0.1832200802081315)
(3.146496199310511 43.29936794655804 0.6806229430344046)
(-0.0002735177984496816 0.004312906699816943 0.00276495552391294)
(-0.0003103514174533892 -0.0001353668345380089 0.0001113492024411703)
(-0.01551343886279114 -0.002235320052102184 -0.0001314556175763262)
(2.992299015570652 -3.902761861181827 -3.049707465099643)
(-0.008720186978540916 0.001402382497626313 0.001914108529054836)
(-0.001080122524765442 -0.000218597051231956 -8.28685020950795e-05)
(-0.0002916885814530153 -0.0001796435532147473 -0.0001382976727411111)
(0.0004755058893117144 -0.0004003838151867156 -0.0006338718370170343)
(-0.0006316085873105135 -3.482897095604985e-05 0.0001352078437026753)
(-0.00561287227380039 0.0006356575697946338 0.001708237477350543)
(-0.09149674712561671 0.05309881404246547 -0.04905178073401381)
(0.0002341124716548887 0.000312533695164707 -0.0002513484681708129)
(-0.0470868372758353 0.02358317938521313 0.01726773323541703)
(-0.0002123116516635189 -1.256408484757413e-05 -0.0001340965225747769)
(0.006771513227751914 0.01062307701103339 0.1008006040899145)
(0.04051484970475589 0.1162239845034406 -0.01740389961671526)
(-0.0002392451016287032 9.737245897773684e-05 -0.0001285442568175001)
(-0.003908167027825603 -0.01807159266376501 0.01668869893912589)
(0.0008268083770916956 -0.009826570850737437 -0.002898043268501239)
(0.0821259834260237 0.1005401279830239 -0.1156159039884572)
(-0.001995773545313436 0.01195145091620476 0.007780329127611315)
(-0.0009060860789545477 -0.0003039829629232907 0.000530601240156409)
(0.02621870617848769 0.05296533413547971 0.03916572381878042)
(-0.0001082553709602901 0.0001397012288185894 -9.332154871275741e-06)
(-8.726756160895796e-05 1.575845904678038e-05 -0.0001224090744284725)
(0.0009515138950182677 -0.000345328739937644 0.00136045228005654)
(-0.05654803254479185 32.41569453640535 0.1479218145039143)
(-0.0004842912129469744 6.067861917126952e-05 -0.0004105749160123744)
(0.0002190989383242537 2.521317283186063e-05 0.0001567207796031793)
(-0.000247549226839766 -4.019987304902896e-05 0.000230115868225366)
(0.07136871554198372 0.01641065929138564 -0.08104888836738494)
(-8.96701011405148e-06 3.573013122666746e-06 0.0001063350911983837)
(-0.0003732918456530669 -0.0003841703581896125 -8.151681528633319e-05)
(-2.172729118710213e-05 9.58012043437724e-06 -3.344320824812869e-05)
(-0.03554199837154209 -0.01669676809431058 0.04969104666778892)
(0.000182871094761488 -4.133869076103284e-05 3.093119459562947e-05)
(0.0001285021439900035 0.0001406702343001067 4.730121125114279e-05)
(0.00030421637110679 -0.0003552219228033128 0.0004593835182435535)
(0.009406368787126144 0.09213127091246479 -0.03517418423444325)
(1.796143735318509e-05 6.112581453822437e-05 2.044448960376284e-06)
(-3.250804378823579e-05 4.846649034001766e-05 -8.418869617215869e-05)
(0.00170291879570752 0.001000559021096535 -0.0004133350309684395)
(8.855642019527744e-05 -4.01903476624722e-05 -0.0001065536998116775)
(-0.0002754455055661683 0.0003182121893069413 3.98405458885086e-05)
(0.0001436603447724676 -2.656627773932968e-05 1.607932991029618e-06)
(7.275452402164437e-05 -4.023746665732057e-05 0.0002313381991588851)
(0.00021207988753231 -1.850026153433236e-05 -8.308368814540992e-05)
(-0.000182716588419079 -8.738098346292806e-05 -0.0001141134834828026)
(-1.785354237041259e-05 1.879453922434279e-05 -0.0001051106698708299)
(0.000356693191229336 0.0002734972197671239 -0.0002292165729452001)
(0.0002335155001499541 -0.0005365996791277289 -0.0001163318841673719)
(-1.490860119783392e-05 -0.0001318758783103815 -0.0003364528651937797)
(0.01039023686107315 -0.02691722892163495 0.07189919731181291)
(0.0001809930892760097 0.0001842697693961937 -9.302309903184386e-05)
(-0.0005626075979546496 0.0007194876355902779 0.000597511139797851)
(0.0002694432137596361 -8.575714699701599e-05 0.0001384013263835162)
(0.0001875305196749461 0.0001386859892076231 -0.000172999071765816)
(-0.005349941324394184 0.00497506184613702 -0.001971402694778822)
(0.04819579647322476 0.2304366424244858 0.007601903039816288)
(0.003946054439589864 0.000516260276477143 0.0002972355302381022)
(0.03803687962867924 -0.01204709131330751 -0.001731049916884886)
(9.408148170423632e-05 -3.16448615549024e-05 9.099136590969853e-05)
(-0.01406918146039855 0.02547761345769816 0.02582745073770493)
(9.700483116829121e-05 -0.0001090057079006671 0.0004117762931275253)
(-0.009942590064313287 0.0002992330182602339 -0.0001755173599300199)
(0.0001174870866453373 -0.0003118025558072919 0.0001588935856270833)
(-0.0008864701497445029 -0.0002539559529993704 -1.190236562625022e-05)
(0.09973713734304807 0.03879629002863213 0.1242180457002565)
(-0.0001115214077063487 0.0003116664524722319 0.0001081715042574834)
(-0.0005186688075243678 0.001476721566438658 -0.0003033693391397044)
(0.000435035102872174 0.0004610914683953738 0.0002470611829861973)
(5.140759372077773e-05 5.549895567560825e-05 -3.45104291229887e-05)
(-7.01317858626451e-05 0.0001886474911585639 -0.0001758243541713963)
(0.001740246896284911 -0.04222841200343586 -0.007792595869770366)
(-8.456061901325452e-05 0.0005184692798604667 9.222020755596872e-05)
(0.003428823480274143 0.0009860643508614296 0.0009612332634796672)
(-3.055727893645047e-05 7.554863153829702e-05 0.0001227515650799327)
(-0.0004236207059726273 0.001663757730792192 0.001549634252286266)
(0.005422158256206555 -0.0001948883402486639 0.002504217150922582)
(-0.1754648366095576 -0.0003309124407592165 -0.04913998504594901)
(-1.38251281954621e-05 -1.939409691826209e-05 -6.586069622586671e-05)
(0.0001766240875533643 -4.872592192722398e-05 5.285795402489284e-05)
(-6.281636600115223e-07 -6.300316107633039e-05 -4.541094460076786e-05)
(-9.959847508169967e-06 6.441920729523517e-05 -2.117976150906908e-05)
(-0.0002177975328204991 -1.619705474860517e-05 0.000105751305195099)
(0.0002147181686744272 -0.0001406531082828267 -0.000138084301816239)
(5.184393658113265e-06 6.283234129661015e-05 8.30082066617363e-06)
(6.685408561588598e-05 -6.34090033808543e-05 0.0001365098094716034)