/*--------------------------------*- C++ -*----------------------------------*\
| =========                 |                                                 |
| \\      /  F ield         | OpenFOAM: The Open Source CFD Toolbox           |
|  \\    /   O peration     | Version:  v1906                                 |
|   \\  /    A nd           | Web:      www.OpenFOAM.com                      |
|    \\/     M anipulation  |                                                 |
\*---------------------------------------------------------------------------*/
FoamFile
{
    version     2.0;
    format      ascii;
    class       volScalarField;
    location    "1.1";
    object      p;
}
// * * * * * * * * * * * * * * * * * * * * * * * * * * * * * * * * * * * * * //

dimensions      [0 2 -2 0 0 0 0];


internalField   nonuniform List<scalar> 
19632
(
-0.1087115749065869
-0.01245682102450473
0.03696959952734351
-0.6846925676407369
0.02837848060766441
0.02492513730839468
0.006419775440247915
0.01238317640032203
-0.03389899634885943
-0.2349289853268904
-0.6648092066271285
0.102491656630733
-0.001576965461944146
7.870977780318093e-05
-0.1397098178352378
0.00174210715452017
0.009867204593829828
0.1438541598347886
4.821956048022185e-05
-0.01804138472270751
-0.1796887668597133
-2.148825501395331
-0.1317758915143324
-0.008725735422162616
-0.007115704067282446
-0.005749669671706749
-0.0005134755631481005
-1.250561169976638
0.04461129873814886
0.000748694896275247
0.007240209099258179
0.08000871022589828
-0.3663240725747689
-1.133275054671152
0.07539043483182795
-0.002439850060818951
-0.0139936199225153
0.003795197718270937
0.005584085681742051
-0.05116019398470106
-0.002577262834423703
-0.02049924323452047
-0.01339254326080828
0.01796698410882898
0.001010271746808414
0.007251347583019442
0.006502301132110748
0.008940719521587001
-0.007830330571331817
-0.004170774797340168
-0.002685126189542032
-0.0361233500802787
0.003912031982576722
0.1401310347550765
0.05055472811279005
-0.03418469489750454
0.1697628903044219
-0.03201926229615775
-0.00416465669421932
-0.1815459471291938
0.001321620639066722
-0.002721903602440774
-1.276691813603658
-1.449559507094492
0.007754759944337357
-1.627061035755762
-1.771636489521588
0.003865970142951203
0.06245941741080137
-0.0306358743074515
-0.0600687082584142
0.01198345838317879
0.003424889601044796
0.005295233761025242
0.008224349238424349
-0.00228941446032244
0.009930745556966117
0.01286676543566781
0.08069741721710012
-0.1169080281806689
0.9021694547791963
0.859693147900259
0.0005597090108188286
-8.468391259351e-05
0.001638451485998734
0.2925297506538421
0.0003852848839047674
0.003094890957656159
0.1962675182913426
0.1655711826526206
-0.1973008528784428
-0.01176162169508157
0.02227732851197577
-0.1323372749577425
-0.001359851779299086
0.09511644103676231
-0.01651502985980754
0.00200598843323458
0.004676713460340543
0.002098547620856765
0.6646507088859601
-0.004441278338114894
-0.04043008277264728
0.009201333905161728
-0.3066345257666786
-0.2751506313103352
-0.1103905368291101
-0.2063393021943003
0.007555772341970588
-0.01416258980402443
-0.07836689653146676
-0.003162462972196268
0.09903446380736035
-1.913995484131168
-0.02238369143919399
-0.08398941758228309
-1.795673752854062
-0.175416576844788
-0.00555184658041544
0.007580801257465745
-0.01565283956022234
0.012322085831953
0.0001183720197493914
0.01717081653863184
-0.8098236106080769
-0.2916469225889578
0.000754729712051861
-0.01334947151068655
0.03267381628133428
-4.060719048303468e-06
-0.006465341715924466
-0.004569249594162987
-0.2633526956403222
0.009421036045357026
-0.02383245239603587
-0.1640553258244719
0.03766008541326188
0.146697658193303
-0.003832075440466634
0.03565053891152856
-3.074643286121999
-4.239395097897974
-1.988277798188631
-1.39523286887191
-2.886358901079483
0.01098320950854795
0.008039992087825297
0.1094620982510653
-0.08638051291129462
0.0001935355402200587
0.004059982133488365
0.007109499985677078
0.004545067831165716
-0.01218519794457001
0.04799948362924718
0.001312064809905913
0.01459850141036551
-0.002862608273857655
-0.05073259228755789
-1.839600769857354
-3.198636708700061
-2.590012696184558
-3.663089042346618
-1.675695542838069
0.01007203377139866
-0.001577791756729791
0.0004269169332020127
0.1098115914264416
-1.651656800235593
0.09449330476580312
-0.004036479471823188
-0.05731132736638028
0.00780855147916661
-0.001039132036672873
-0.005623686967344197
-0.06664723401371098
-1.908638694645275e-06
-0.0656122132514267
0.0009600985965404755
0.0009774718450413456
-0.0001134683919536061
0.0009175993042135507
0.001437436038779023
-0.01453901950266377
-0.004481916711806927
0.01296602687898849
0.01459051307596026
-0.006172526817856096
-0.003079605646084135
0.001659875765590243
0.02910855703774835
-0.112193818944981
-0.1941281209680535
-0.03527291167412344
-0.004084862974779549
0.04578129983653082
-0.01988734833289431
-0.1288964215570778
0.00209195276173805
0.5960851353309867
-0.00755496690369271
-0.04685413267202661
0.004508308723113831
-0.01015712590911656
0.0006653433350367011
-0.03522874687366322
-0.001286614412804057
-0.00307219124806277
0.004147473956615664
0.003247381504791319
0.03799641712734139
0.02106104682614635
0.01388552927962768
0.119153987669443
-0.01576376451392067
0.001488492882513731
0.07447463940119425
-0.003512960740842991
0.006491495945616297
0.03753873619009015
-0.008762343019722219
0.009893775113830399
0.0002174911891829055
0.00731278316571596
0.04002435053511706
-0.01695261176670768
0.009894829476390183
-0.001799141088949638
0.03669588989295465
0.001152166917681255
-0.02164496587889192
0.003747076216546903
0.004489864281549643
0.002063073990483499
-0.009756721713423337
0.003280153460011968
0.0006071668539315455
-0.02655314538283781
-0.1095720611821735
-0.005618788296197526
-0.01383204443329112
0.3470187849525099
-0.0405679008674744
0.02483276383108556
0.008480628899996172
0.04255547757024621
-0.001390070476180268
-0.07209524422260084
0.008585518741134173
0.02017221661579183
0.01424627381521167
0.003119203416754626
-0.008137894862111496
-0.05477345891251874
0.05911595327800824
0.02715393686864624
0.002651155371157543
-0.07478441552327345
-0.2211204986136965
0.0284461947983928
0.04890268339317334
0.09523284836770775
0.001926885223337596
0.003390470367909376
-0.02998203102314355
0.003755332254979609
0.002246033348261328
0.1433163609506645
0.0009623670362337154
-0.0002696429286215388
0.003092107873016432
0.009179531653357597
-0.03878857582515965
0.006320008709819303
0.03238623704846263
-0.006165716993348552
0.04338494159184608
0.1450422650060373
0.01805661689306863
0.7795380026253907
0.004323487997977245
0.0728803337973874
-0.007982000833134004
0.016944708077899
0.131611596968437
0.08198755228597931
0.09871013320073259
-0.0252446131162503
0.04196090690724273
-0.002749131132174175
0.009296172157543208
0.01447147261142413
-0.005043041610471036
0.0008180331870110499
0.0008919962303472229
-0.009048893259493849
-0.001865964013363551
0.06852456318254883
0.01324309815359093
0.001208034206807195
-0.2021033915012768
0.001219732913856154
-0.001659149611899083
-0.001361041965533189
-1.510389068756383
-0.03317483788882008
0.001808684799617225
0.006512526767880993
0.007621718266641989
0.00782420638830731
-1.446965370602514
-1.217101819904838
-1.101374429865328
0.04927738363148425
-2.105512139538622
-2.066075573070021
-2.168945682696908
0.009650469045877604
-2.036511287847813
-4.302527374561535
0.007777391303657319
0.003545713264984842
0.3343488483004233
-1.352313596949075
-0.0002982198360335398
0.02537827137512742
0.0267973376663214
-1.232534656904047
-2.261703361031186
0.01630297037782304
0.07022474064239689
0.009766303510079871
0.012566342457905
0.09398611107792422
-0.005961249272698727
0.1477561253462819
-0.03344073173811545
-3.198384759192978
0.004240631674380695
-4.182141105300952
-0.002957414529088552
-1.627042756417438
-1.933984150516988
0.004217853154089342
-1.085686179666018
-0.01072302170257543
-0.03913159937791232
-0.02935618244355356
0.5118216183593512
-1.500484857744833
0.01457901463422386
-0.004578059516300752
0.1035411496021783
-1.388489173247331
-0.005132009271936366
0.001100570359565788
0.00197995653486402
0.01882286965953018
-0.0002100766152230104
-0.03292260002374878
-0.08221841024254906
0.0003022263100269082
-0.181896691307433
0.03586705250603597
0.07708192890389198
-0.1397097448445292
0.002419484128133879
-0.1717522291231647
-0.01325901887167015
0.02061840853451409
-0.09922421144466949
-0.01341163448572141
0.02884048894387345
-0.001480118039652812
-0.002312420359570131
-0.0001302425605175282
-0.6595255995812308
0.009154535823164618
0.007597916268635536
-0.003075159411361953
-0.05165265550172284
0.002773477780392275
0.0431471187614881
8.877100676443594e-05
-0.1445585349701031
0.002924606614362924
0.0009147239675796274
0.006776629211085658
-0.2488930509553161
0.003067503221432187
0.004616719305593595
-0.01309377513598402
0.002249344738754201
-0.0007577453462326526
0.0006291791601459815
0.0001643064872040451
-0.000650800929381895
-0.0008386416690831858
0.009717988832382939
-0.006287197164519152
0.04618523020494349
0.03028041095119969
0.01936910166429231
0.04166899708423509
-0.04242368349054519
0.007331564794426141
0.02278257838236928
0.07971782374176137
-0.06671311008811637
-0.003390668459928523
-0.1539955476935093
0.02127962237682906
-0.08631966711308862
0.03250682631070951
-0.01088123676313023
0.01407350770101994
0.02342597556474927
-0.04794029358978481
0.02112837771090071
0.03140541348310592
0.01968410169719843
-0.0008256333314082298
0.006994669737480631
0.07594722019254804
-0.005065608792933533
-0.0006740730095597344
-0.000483456481012061
0.004942695534071443
0.006840706515417536
-0.07547697361146762
-0.0001817693128076826
-0.001293042158100843
-0.003345460928602845
-0.001625890245967975
0.0159684003697998
0.02048651422841703
-0.001658901848640083
-0.001518424232418957
-0.001068893165260447
-0.001975283493850571
0.008391402909580473
0.2247164713042657
0.004481745240530418
0.03103276074105154
0.005889975423708376
0.0098299982627324
-0.01503180160048856
0.01424102311612439
0.0003103836313853789
0.0003750410889704503
0.01501683022679575
-0.0005023188281777416
0.01349303444121933
0.0008039137888679048
0.0007253604265393901
0.02217157154354486
0.008332894072372041
0.06705108920415807
0.07342866524179389
-0.02196447034627331
0.01914309834001887
-0.0007058743345831556
-0.002324806185398561
0.08200535569091397
0.06132537965682164
0.04350260211073801
0.04337538149580394
-0.1207335823469379
-0.005092753063897985
-0.01642861587180605
0.006393124838440459
0.04724136421349331
0.003454212239021076
0.005818747996649124
-0.002420972957062043
0.009417380713552359
-0.8587931042587578
0.001608023506320665
0.04972792768921554
0.02058893535192157
0.02420926880278014
0.02256821334364636
0.006981070516864972
0.1688712185074874
0.1345819972767893
-0.822039760415279
0.132630416919177
-0.4739027575229416
0.009007203453996016
0.1236719714022294
-3.860145490873484e-05
0.1095179720756119
-0.006684565751486812
0.1337572692802737
0.1293993340841857
0.03838579832622275
0.002675878289952444
0.05676085418218735
0.100707995214842
25.18774967575589
0.07009838934158161
0.08578532556178388
0.03196658853029954
-0.00143371874828512
0.07912135431824356
0.08510516570020445
0.09646551835806268
0.07498572087722973
0.1026827832346237
-0.007465037775909234
0.07739690503268012
-7.016131728378729e-05
0.03610738696586991
0.1904432987224743
-0.0227627136621474
0.01110899770506828
0.01058190534649897
-0.6329961732532978
0.1137834550682549
-0.1342290005736048
0.01436692091948314
0.05788508222109335
0.0565813537358262
-0.636001538369497
0.2229100391889523
0.2158029890353634
0.1196468863489519
0.2340344399920187
0.005724009027097734
-0.01342936059074326
0.07195469908964247
0.01196543835339689
0.02567700423730114
0.02987570871876247
-0.008953573025654662
0.05565468688093994
0.007515578596086005
-0.01095206687269469
0.1231156631563289
-0.05422658272267409
-0.02860326431297025
0.02219862241928352
0.02509896832803422
0.02443019534312887
0.03495959347538376
0.06870637089001412
-0.09052268802445324
0.002238153591131411
-0.0003698132069061569
0.02297058142819017
0.08313644828816541
0.003099273922122519
0.0002010812675101601
0.0009558162910915241
0.0650885258959225
-0.06283281035279488
0.07523313896079234
0.001622128418066206
0.05039745064981756
0.002606923105443458
-0.2836136692606467
-0.05791634709782655
-0.09795546150360326
0.01952701212452126
-0.006334552824580186
0.3074441753323396
-0.4377362312235757
-0.0009556456919757302
0.01818534721391584
0.003046376100744737
-0.6994758572524985
0.01389681678106101
-0.04987701611190534
-0.003761543274216707
0.002443833188892947
-0.3030141754664356
-1.773716045651439
-0.07631318500871097
0.008420571005468187
-0.001020499846996588
0.05261536307776804
-0.09147071747948635
-0.329042201088199
0.004438104190078669
0.02859824913443205
0.1627852713658455
0.005972417826439231
0.07286844479556905
0.005291901069948108
0.02380469953121186
-0.1817869616714248
0.001444196767085558
0.01932152283996019
0.04254009353119451
2.412432663334064e-05
0.1490852067322907
0.004946046947884421
0.002393637216958597
0.01038232665143608
0.01595463903624809
-0.01758592461088937
-0.002186178099830305
0.02170495236057206
0.01749687792019531
6.651030863430129e-05
0.02087726579337539
-0.1039923373843645
0.0009521917228514159
-0.0312537759736115
0.0191973141327682
0.02370895835646759
0.02332152742537308
0.0209558111421164
0.07908859978614856
0.001027979708209914
0.4109778762240575
0.001160000702377845
-0.3187554076423881
-0.3319636856582302
0.02416767039972767
0.01161648231325198
0.0001106459059770719
0.0118199014099077
0.007684265660160383
0.006978533768162622
-0.01292169643416142
0.01295416317209885
0.009544485465156804
0.02055530785882111
0.03102542591066442
0.01071815083092359
0.01390027835325853
0.02128243036264657
-0.1131657806945382
0.02396127034521708
0.01158613326063676
-0.01802651584480195
0.0005884014798423267
-0.03922198313684022
0.005097925852078251
0.02172811817446002
0.0112318359797845
0.003917418114676464
0.0924905758927677
-0.2346848098518142
0.2147396418457666
0.01645929877790176
0.06774126885773538
0.04167933469091972
0.01651625569741441
-0.1045388284665569
0.01787209831811228
0.01125443319960263
0.01101951553671712
-0.2000400761878887
-0.04496630820340421
0.01192710150083818
0.01502837410871877
0.0007292961133035907
0.0001829352245251926
-0.6706795524210104
0.2126696983160072
-0.002761072556396929
-0.09251228591077675
0.00883951530501699
0.002896740914923404
-0.6854063945148654
0.006409056237303531
-0.0114519772011863
-0.0001953325051064416
0.001224426633344877
-0.008001684900892484
-0.04443290395992407
-0.01317592665958804
0.02569195630010282
-0.8073176709430341
-0.6522443625134948
0.01205839000987649
-7.698613477919074e-05
-0.0006293748001041565
-0.08770701132980917
0.001650960899986122
0.008105212640601246
-0.002736021793165995
-0.04622012490639467
0.002546406307540023
-0.002256477123459287
-0.07763678508485811
0.005417577806982494
-0.4725608969019011
0.004871651735826881
0.01109256445221103
0.003419757206599608
0.003656604153302671
0.02265860962215141
0.01059913662591642
-1.800343081466333
0.02158452915367856
0.02142765806018437
0.08558901736704255
0.007359448779664819
0.03527388180530124
-0.3751709066251699
-1.084303041848854
0.01799928343026458
0.01756965661443356
-0.004099864654093325
0.01924093615495638
-0.09196742841043963
0.008954744850202485
-0.0009274520216799159
0.001728784054147093
-0.0277808151758607
-0.0007701119066407126
-0.004704000940554771
-0.00139551480963673
-0.5095836204774854
-0.02983092638934849
0.6257068938671169
0.07301102728445254
-0.0277790739509342
0.002324814056965203
-0.0003359457727948068
0.07236528247947652
-0.002027678955466578
-0.03374591209757275
0.01194462796279379
-0.01273339191269581
0.02966033503798548
0.03789041471039546
0.04819959251027599
0.1180359622511791
-0.3488985407274743
0.03637258992606413
0.08566357125662401
0.1390172517618363
-1.385017661056173
0.1064754102029523
0.09450540217719595
0.03544265222192818
-0.0484646411189911
-0.05780297692369286
0.1053314901672788
-0.6721929586380003
0.08606762694106976
-0.5012003049826667
0.5025369537458068
0.09919613862160774
0.07441266729435032
-0.02968137093709083
0.4788579307236006
0.07387966236702109
1.06930075640279
1.130873936981492
-0.02204785400084959
0.7535499724509296
0.3851091475751275
0.001976781383019994
0.001705126290272411
0.08878543365625204
0.00306218127310635
0.00357482249526101
-0.002179191681375094
0.00269622454287903
5.567455761521921e-05
-0.09849971042364322
-0.4926166158202876
0.0003199325590565888
0.001938145144036314
-0.001271081151611472
-0.002830605744383262
0.01231929490235551
0.0545389071988335
-0.0009914302005478574
0.03940841691671061
0.01353023787037153
0.01378846039857144
0.008159637518244282
0.007803896696735052
0.008526455403829142
0.0216983212866496
0.007269440549193348
-0.04704833898769501
0.1465441380899026
-3.829002187493876e-05
0.009637196961222737
0.05821706847249034
-0.2184098113036782
0.08748042249101927
-0.0001582398055174883
-0.0003406444072074061
-0.02426884925253565
-1.63939928169585
-0.02853504890468357
-0.0002207354903618215
-0.04886857627356632
-0.02881081469553615
-0.1559181356022345
-0.08245555027438076
-0.03570570268368931
-0.1568536849423428
0.01124705361334388
-0.2428719548194645
-0.01635431089233797
0.0298555962869502
-2.211923047399692
-0.06670372791266402
-0.009086268380928905
0.04853075765952172
0.01576461595906482
-0.03015306508517283
0.01332573183882217
-0.1991734117953122
0.1939761943579578
0.0001212616588977794
-0.02154056171554014
-0.01540187389142177
-1.088384822436252
-0.04389430983586864
0.03124312417936081
-0.0004998546099388487
-0.01766072012604242
0.0270086448729206
0.02806265299863913
0.0282861134195946
0.03119082396297179
0.02919498952929427
-0.02434590781015685
-0.009398870077132707
0.01152306840834866
-0.03189129510532566
0.02465110599911364
-0.03300567130002088
0.0519645528566048
0.007663130830479286
0.1116911237379985
0.0346625270881893
-0.02754705856919478
-0.1575113255841843
0.168421309093999
0.00995275572807857
-0.8299698318744685
-0.001937290035586821
0.09193159298230173
0.03185839615294783
0.008619684994536888
0.1427517069416151
0.06520478788942469
0.009738388605439359
0.008243754588217406
0.01442785870251235
0.03938253748179854
-0.007645317197541141
0.01919558839530834
0.0113807193087147
0.04973854244127203
-0.009553686852351393
-0.008039107309679536
-0.2900783654827147
0.1538735497954569
0.0155372964672774
-0.009035559896828884
-0.007585197105488759
-0.005813064421870008
0.004077486200245536
-0.007670766762540404
-0.005066346654529514
-0.01170528262220559
-0.004961501358600391
-0.002747450183477303
0.001497104106057056
0.002109329331903733
0.05126203944818852
0.004723785518966276
-0.004048346065507007
-0.01663983650298072
-0.001542967903035067
0.0001539051990606654
-1.177927251448033
0.2660987375345308
0.2387500543181853
0.001001869658429933
0.306738231649672
0.4151358492467601
0.282160869484512
0.3691556803760853
0.4216804788718173
-0.1269277733533476
0.06508109786163747
-0.004585215098909248
-0.03067755547515458
0.0735760512329916
-0.2357279158510629
0.04407262825196096
-0.5437005621460635
0.03268398730175597
-0.08531927360941063
-0.02504020091477711
0.1343273233278518
0.0007831547029339171
-0.01953113243998872
-0.04017240527314824
-0.02586196717707319
-0.0258302796350655
0.1698389244242955
-0.2249687377547378
-0.02445314431739627
0.001661013997467186
0.004295414884978439
0.001110176171669625
0.01295897377641238
0.01950356205479423
0.004698080077139932
-0.002823732712028112
-0.8077845765805468
-0.1703213444972343
-0.00955400058972425
-0.0006191557471849618
-0.007132764834792059
-0.03058271354160785
-0.01864042061661626
0.07453938095510962
-0.02523498557785567
0.02833264167816859
0.03172840562477094
0.004826618903267927
-0.2623978161165484
-0.1091582256164326
-0.001138453170330002
-0.002136646699392866
0.0002444416680123501
-0.0001430279325726832
0.001653101238680557
0.1101188912689236
0.0003524141535553402
0.004196612919191814
3.251901379356479e-05
0.0001453505918773863
0.002028065777784197
-0.8917430430513313
0.002650406526415903
0.1051138235125512
-0.7506360048768403
0.0485828952385808
0.08942326835956531
0.06402137297972341
0.05331020289991269
0.0825328460460968
0.06832638943645034
-0.006088278401469772
-0.007281808243236973
-0.01578232847035263
0.0554350222502948
-0.1529288359957284
0.0007106383825844913
0.1028754003287314
-0.004472923408252855
-1.9528600715675
0.020888967438503
0.03938278044935352
0.01233490966667168
0.02577648362682384
-0.01444490731394884
0.01584736130916957
0.01832331321129574
0.002582591354479469
-0.01130291690125044
-0.001905618691085145
0.00353714884174252
0.002342805110486553
-0.5910423636096453
0.0101545140538386
-0.005529995217034189
0.01315887098028238
0.0151833362117175
-2.036599746775156
-0.09536795931528226
0.01929576602467949
0.05459284866634669
0.02161617579501724
0.01915734660329246
0.0189959936227371
0.0205468001457956
0.01548392290482566
-0.3579712875931855
0.02187475883528563
0.02051083961330561
0.1023577002347838
0.09430646489539127
-1.090966253274895
0.01649467549433098
0.03912565697030428
0.04554551938461935
-0.0004741372383378295
-1.081096147311161
0.01541602297697228
-0.008061395489625723
0.02997587660266398
0.005727191012513982
-0.1327772372154754
0.04202155564021715
0.03009227323371585
0.03880154501969345
0.04752040899325444
0.04869799788922925
0.03461727008164559
-0.05652311019902598
0.0380028100175955
-0.186608762341243
0.03209670795845661
-0.06984193654509924
0.04288618766185754
0.04297234862874888
0.03217017090587865
-0.09862913006363973
0.005282416363787442
-0.09260495299779589
-0.2123696253203567
-0.4985466835819558
-0.8987722513823255
0.7031178055969598
-0.181269200242285
-2.142682677036167
-0.1129790536234765
0.0003216599175827486
0.177361562333596
-0.001267237154048541
-0.2098172112481373
0.03157185156821783
0.006202812486885052
-0.0419267062835559
-0.2677082425601485
-0.06034438016964201
0.2360818655319891
0.1914376370312799
0.085243526598534
0.1415614302901257
-0.02187894134994655
-0.1946472065357104
-0.3204605223507453
-0.07213687813091992
-0.2558178588154115
-0.005332624438209021
0.0131668498198902
0.1003353898650172
0.05369833977516762
-0.08981885331424615
0.02966970414631247
0.1034252352310806
0.4087229093484345
-0.06430314313432822
-1.082455082962087
-0.211980642608278
-0.2266616681231564
-0.01976951260074316
0.01539986533362878
-0.007742610301097425
-0.009003328503155106
-0.112421503470853
-0.2807042850698549
-0.3679262913644484
-0.02366485673404862
-0.1434936060181953
-0.2929966283723643
-0.05184921526100397
0.01050222660209863
0.02271394139030006
0.002848919884589813
0.002187185391576841
0.003196317412164477
0.003629988765027884
0.003026065075713557
-0.03346087049754632
-0.006071234780579866
-0.6992120031334751
-0.123778064898845
0.05697689450632883
-0.0142255517403808
0.1077029147849124
0.006013668930727477
0.03397228371279262
-0.02944595050326804
0.03730420388121787
-0.2309974879806453
-0.003600428690112138
0.02312369267225525
-0.05406165128135387
0.009082961789623308
-0.03057480369870839
0.003006339269131767
0.005430226490203596
0.01654454643093788
0.0212821250251567
-1.164999360351949
0.003983372239522946
0.0144801137311569
-0.004398773711735741
-0.02036784875571788
0.01636162176051505
-0.0004228098504720675
0.007725787043179981
-0.0003712780915893798
-0.03648602568318051
0.07052371112427716
-0.07594067606855685
0.02768058568007801
-0.009795175418283042
0.01104814977261907
-0.03773743821884812
-0.04032310457973989
-0.05419378654205734
-0.01986066908281508
0.02351718678737251
-0.02184754862728839
-0.1601777653381181
0.00829219149152252
-0.003755659349639605
0.04716366251381219
-0.01504341213871195
0.01048937662062986
0.01797318823939285
0.1125897905179504
-0.04115552189843451
-0.1014967880605795
-0.01071567998703468
0.08788976714208541
0.001994519748507029
0.0384305087091977
0.04328481169464016
0.000612945463759773
-0.001720790153386806
-0.02874579145216806
-1.032987582157854
-0.001630795518266813
-0.3508790963675786
-0.1812231263935296
0.006217086684831561
0.03831314096438312
0.114038408232416
0.1057482802887983
0.1269616075148882
0.09995908601578735
0.08259058487097612
0.09942023319998078
0.08664759463589485
0.1040410748243517
0.1882909831044533
0.09886373074572777
-1.995030857911845
0.05289923032539962
-0.1282815859656596
0.05644245128557697
-0.7635611786085021
0.057219380504067
-0.07877171126421591
0.02814325955357571
0.02996012626740644
0.02660381974928753
-1.040242063721527
0.02989196776023657
0.022339585372736
-0.01003483252113099
-0.009641992325402231
-0.01275221709122605
-0.01478064270700185
0.004943995076804418
0.007958600530554782
0.00286759631410404
-0.0007105745948139796
0.004590202413177966
-0.003251318919981388
-0.8969944439615272
-0.001772281435570801
-0.1866976037139096
-0.0193949022328916
0.3535108865781205
0.3067458399722033
0.07715939547167684
0.02228022777648757
-0.2077351673305181
-0.2528529655710289
0.4236343655389251
0.11310115379475
0.04804766666226414
0.05266711781920264
0.1220636323390145
0.139149429811891
0.05295854687679093
0.1098577147319959
0.1069087872090514
0.1425836077525995
0.004175022781413807
0.01312781262869939
-1.147680255287069
0.05158667779547369
0.01055134207876841
0.02608295777899829
0.08605628356990547
0.001008133031664039
0.02343555689747801
0.01006845977615306
0.01879653587366001
-0.04945057416482827
-0.0001301032316476604
-0.6225972582257179
0.008984771778400779
0.05979860655449446
-0.1387860348943449
0.02101533313376041
0.04442952723719894
0.05126545769504724
1.376946490573776
0.04373851312676701
0.04676187200723771
0.02387923137216367
-0.1166495124662894
0.06752689088431792
0.06831616776235121
0.06896160350977271
0.05105901530258013
0.07782230950117858
0.06565830044892564
0.05410796656885619
0.02897087831037399
-0.119106215519046
-0.02255714148274993
-0.5635510740100744
0.002448595301854366
0.09035852068939958
-0.01888752476635239
0.0065336729975607
-0.001753193623447199
0.0004719395186419756
-0.000308295531598311
0.0007062426449809348
-0.002013159185304087
0.01420786007696115
-0.0004714219774014483
-0.5190796098717906
-0.6532437600927292
-0.003351609715344056
-0.7575703702281394
-0.07938131988224542
0.04912924538525756
-0.8329789451171209
0.04893791900504064
0.03104953240530904
0.05161795563292016
0.03360381960722018
-0.127238940797809
0.1160057649090343
0.03628744002489682
0.1821705756555796
0.04881068512294008
-0.2032470464172975
0.04945729295380422
0.03275691085203448
0.01667066617868883
0.02543046633502933
0.02553591926646112
0.03536569305909758
0.01200002485794886
-0.2495072534008749
0.01894905141669335
0.0228830361305959
-0.002306497381268659
-0.08259654212889556
0.01506878927665964
-0.2074212099726912
0.2982348501173508
-0.9350736147273467
-0.03705726377725871
0.080443687255361
0.06001527204351905
-0.4447550781521236
-0.5602615986607065
-0.08978121617844821
-1.172877880465352
-0.5626831211925432
0.1227544002795624
0.008411393189246601
0.02466624145018488
-0.7372413127382107
0.5894435186519081
-0.5189958175288715
-0.7784756375154587
-0.7858696256316232
0.05203338942422588
-0.4594667738788416
0.0006653564360185783
-0.0983192103548842
0.1981749031064171
-0.1938685806178222
-0.916276720384251
-0.5957571224504574
-0.002876626653880717
-0.5970055307078493
0.01128577071699253
0.007210086962707663
-1.193573278518402
0.009015233670838601
0.005210195006251935
-0.00247024851806126
-0.01297936193626132
0.008214428594514947
0.01933150393822133
0.007099384102301039
0.008380105208883305
0.06211347894338404
-1.387312436062996
-0.02160224020975645
-0.03010833634122911
-0.1484884907318487
0.04474791915889495
-0.0193732923574888
0.1228568919562177
0.11969327656983
0.1064732088282671
-0.0005888483248269283
-0.01216210108800388
0.8807622210046322
0.180725893685954
-0.8028701019742805
-0.00215514272301395
0.1416247496893551
-2.095242396181844
-0.2796661463611734
0.09005227945922502
0.9105181432863172
0.01189314897053591
-0.1109747910812756
0.01261396463165376
0.05764551558806621
-0.01788732733090809
-0.002181121467252259
0.01180910576788007
0.02226264018828178
-0.1187090600784384
0.01058852978101401
0.2702879431540136
0.06218192700421181
-0.2885468152420855
-0.4093136630135047
-0.02318239181025887
-0.2447416129408601
-0.002260540316508619
-0.0198292954295699
-0.001900890707113428
-0.06232225261828211
-0.132718490006757
-0.1130686986744428
-0.4513949260387906
-0.1403491362406619
-1.243632472514712
0.1582645602306836
-1.495040680630578
0.01433151264076122
-0.7347544858638762
-0.06095808256664283
0.02908266550464714
-0.03048622422379028
0.0310609771623334
-0.48438265747558
-0.008961840863088284
-0.1043692739423313
-0.1066912928577542
-0.07103762733173664
-0.4686369613278408
0.04388635850397282
-0.05901795456337466
-0.4021447166575264
-1.101692626092738
0.1326220727677875
0.02227205202911889
-0.2092078387707377
0.102700023391448
-0.8138594375781134
-0.02549000443161383
-0.3706720223242021
-0.332498169116717
-0.5309488070515219
-0.4975187231113505
-0.4738526140545242
-0.02835169953609749
0.01576314599771543
-0.1456020433348648
-0.0215543737449239
-0.09630868676314806
-0.201869915232963
-0.009249697306027963
-0.0008343779099942287
-0.004171735816541402
0.006023352091788372
0.01221799013653574
0.02291981703639131
-0.1365089104873056
-0.1732104288562843
-0.4225712587558541
-0.08633827944264998
0.00543386280904871
0.005606429209807277
-0.005829512349841723
-0.3533244364675998
0.04084367020485372
-0.1003722179788476
0.004080230911344349
0.01215414141026135
-0.01831835440570522
0.003781951693015607
0.002266047050518292
0.04454251845551991
0.2441746064010605
-0.001333997263657381
-0.04780928221503711
0.0006266351285094802
-0.0008424985929238157
-0.002193760506318573
-0.09551871257309244
0.003176381829541408
-0.0003047241687737666
-0.0003252338832967852
-0.01615906244021763
-0.1247008151763489
0.2061055352947379
-0.5851784509616211
-0.1846387708019785
-0.4154512387693481