/*--------------------------------*- C++ -*----------------------------------*\
| =========                 |                                                 |
| \\      /  F ield         | OpenFOAM: The Open Source CFD Toolbox           |
|  \\    /   O peration     | Version:  v1906                                 |
|   \\  /    A nd           | Web:      www.OpenFOAM.com                      |
|    \\/     M anipulation  |                                                 |
\*---------------------------------------------------------------------------*/
FoamFile
{
    version     2.0;
    format      ascii;
    class       volVectorField;
    location    "1.1";
    object      U;
}
// * * * * * * * * * * * * * * * * * * * * * * * * * * * * * * * * * * * * * //

dimensions      [0 1 -1 0 0 0 0];


internalField   nonuniform List<vector> 
19632
(
(5.02051306152702 0.004214360341251158 -0.01328595925016325)
(4.999925746369755 -0.006835152756504728 0.0001290679754969433)
(5.000785753678942 -3.745279507724865e-05 -0.0004045620038789617)
(5.049557439664548 -0.3155286523505123 0.1710949210560835)
(5.000752851757344 0.0001371844246731419 -0.001745977862138281)
(5.000744259198545 0.0004400930723590021 -0.0001280101995438561)
(5.002154782496513 -0.002778859834909914 0.004838969751315595)
(5.000301788862984 0.0005656570014473605 0.0004945205474460902)
(5.0000048195928 -0.003120446443863899 0.02793671542679718)
(5.031730642962148 0.1360990230976473 0.1920436198455219)
(5.281549870271385 -0.1321334128513326 0.3231783606436169)
(5.002560859108746 0.003066629105836127 -0.0003389228876280769)
(5.000519054765475 -0.0009836490917121345 0.0003678738788037654)
(5.001711252623905 -0.0009985536898346862 7.196703327648841e-05)
(5.01557163085513 -0.02456636129940627 0.01625993031339556)
(4.987052895871857 0.0004689300645106724 -0.001136871954217254)
(4.999663891642728 -0.0008686625380806131 -0.0006332620656776635)
(5.005938225076036 0.003513222613504743 -0.002577936637345206)
(5.000063967075008 -0.0002195068799418916 0.0001696604859175947)
(5.001365754080977 -0.00611354291025956 -0.0003361372152025283)
(5.036029072028334 -0.01157007070914628 0.008535430482616315)
(5.282910217390777 0.3840393317477476 -0.2861501110361544)
(4.977664942404646 0.009172917893448431 -0.02744511520591517)
(5.001645109167776 -0.004057504529807835 -4.505038081958597e-05)
(5.000382648297856 -0.003132032995335586 0.000310599827378064)
(5.000222544601914 0.0006826868872415675 -1.582060965045597e-05)
(5.000814042043485 0.0008922414896688115 0.0001238783338481923)
(4.897929952026534 1.149338792915966 -1.056528418372749)
(5.020376610706134 -0.01933327195442429 -0.009074417598820776)
(5.00059422445419 -0.001310833515211247 -0.0002115578015418973)
(5.000474189846712 -0.0002201071903714407 0.0004370045035514438)
(4.999671991737833 -0.004144282649134214 -0.006328191858929081)
(5.069419599014181 -0.001515171470611041 -0.07314563678258003)
(5.200816391637128 0.1948612370568953 -0.3094461715081818)
(5.002150523926614 -4.427448709728522e-05 -0.001961404928663008)
(5.000621798962678 -0.0008002067885400332 0.0001385093922233294)
(5.00126346026101 0.004081454817073928 -0.003618152208963777)
(5.000626130372539 0.001628049414157497 -2.982321999198981e-05)
(4.999897213533899 -0.0003875126915362874 1.494282108419068e-05)
(5.022671183592479 -0.007600540570881624 0.0007777677371711455)
(5.000065905852721 3.230881027907241e-05 0.001007393049738074)
(5.000789068858759 -0.003187307503027122 0.003430495800709592)
(5.000814161940311 -0.001926363131925155 0.002211447255314433)
(5.053190954800983 -0.1820498888856502 -0.05549703704754363)
(4.998919231850455 -0.0008433331148622993 -0.0008528786092363912)
(5.000123735102274 0.0002110450485120103 -0.0001216586906342303)
(5.000259797040413 -0.0003878086682783982 -0.0001906366140298245)
(5.000591165539089 -0.0002379576173948674 -0.0001770371137603624)
(4.997397789123046 -0.002648112674570875 0.002200565630399532)
(5.002005922197483 -0.003488854029755317 0.00247300939509029)
(5.000352155535857 -0.002029402168077968 -0.005352454612878687)
(5.003243604500845 -0.01618855064252013 0.002370791399127281)
(4.99930848620636 -0.0004907566056293836 0.0009608750358199329)
(5.004008958549069 0.002699845053134084 -0.001726215640656034)
(4.999730400181812 -0.002446898711267363 -0.0004056898404022396)
(4.999777679878813 -0.01969629357969018 5.818883451593802e-05)
(5.001881682514104 -0.001715047447914489 -0.005729813757605637)
(5.001598281692829 -0.007288524609866678 -0.0008575068432409678)
(5.002051040143439 -0.0008955402824378509 0.0008778994782983771)
(5.101850712002241 -0.03025615776069772 0.08207808833713327)
(5.000465784181837 -0.01013683398711286 3.650952781146696e-05)
(5.0002786809222 -0.0002975196145737772 0.000369940409413801)
(5.0171131171296 0.1358683348394914 -0.08685146785603987)
(4.73674172811346 -0.009758932562291163 -0.07013712666701896)
(5.000681478066922 -5.59592581010328e-05 -8.587367922788074e-05)
(5.10831672863777 -0.1109841007787842 -0.3708495643256576)
(5.249599739778839 0.02665522886842737 -0.0494200717340671)
(5.001268080586345 -0.002121708308216085 4.709139697624962e-05)
(5.001155436356054 0.0002209414693786725 -0.0007714876894238923)
(5.001964043787675 -0.00330601494475565 0.002308767145776763)
(5.01308151850303 -0.002355241192975329 -0.001263339700815324)
(5.000859413136324 -0.0002506377834590612 -0.0002570986729684512)
(5.000707006945692 -0.0004722993947438767 -0.0001734585868845024)
(5.000610103883598 0.001091879947874106 -0.001856807544760688)
(5.000376915449501 -0.0001448272359923311 -4.044425078622816e-06)
(5.000144814825946 -0.0005708734455744095 7.601847231414847e-05)
(5.000275293667392 2.574050183941582e-05 3.973289077381301e-06)
(4.796869794624587 0.09927449802023429 -0.001674687465349899)
(5.079573273274219 0.01497252300533342 -0.03908966399532332)
(5.028130645706865 0.001004803608172678 0.01823067259436757)
(5.168002913411506 0.08097014158911099 0.03407323738049992)
(4.857749869299041 0.5688404610747558 0.2129576391629215)
(5.001955853014619 -0.0003591694839461884 -0.000110650654320004)
(5.000620537107363 -0.0006107097286601082 0.0004566513374205919)
(4.999009667042504 0.001228353341430524 0.0009180651270183141)
(5.002562814883662 0.003434235589200135 -0.00259459344176967)
(5.001172470751293 0.005239629067829522 0.0002068004602190961)
(5.000538907977817 0.0007635338041026953 -5.890393378050634e-05)
(5.001421549389953 0.0009926264981424046 -0.002978044759542564)
(5.002010619554229 0.002087951869095908 -0.002883010547907162)
(5.033187212817156 0.00812550102885401 -0.02808770939779977)
(4.999776636164589 -0.008657344171089766 0.0004585168359115839)
(4.998690277795953 -0.00458807918940173 -0.002363125456498903)
(5.022785650920988 0.004703794130545932 0.02180316180475434)
(5.000550186350829 -0.003845726822636961 -0.0003740405706442779)
(5.003607097563444 0.0003967163505601942 -0.004982275150602395)
(5.00280677549454 -0.001173469744368408 0.001799017939595158)
(5.001044394418024 -0.0007167018777682154 7.336453587718888e-05)
(5.000318308026283 -0.001533028515062764 -0.001411353858813803)
(5.000109765138935 -0.005555109365106051 0.001410888669507166)
(4.587860028132923 0.4326146383556317 0.2894299356509366)
(5.000203657669766 -0.0009717045510539372 -0.000747935771926238)
(5.013119461401939 -0.0100990104264707 -0.003200756615675554)
(5.000238282515999 0.002618148302379302 -0.001375811185182109)
(5.045762228437094 0.1201112899676497 0.1680303478854556)
(5.061317836375856 0.008991923536578721 -0.02014036261949764)
(4.893383304921885 -0.04388579181708174 -0.06672000095488234)
(5.037414109213947 -0.01784448823057687 0.007479625754804291)
(4.999876866664556 -0.002790226842878157 0.0006953782065789824)
(5.002037076595679 0.001809528241992608 -0.003607188063226197)
(4.775283915914753 0.1980211724596563 0.384670807448236)
(4.998314105039149 0.001819518494677828 0.0004752070141578122)
(5.001998985484982 0.000444645876842656 -0.001842205906529029)
(5.172242532458989 0.07252163454281534 0.1445900580832723)
(5.000706637980783 -0.003732529305095086 0.0004437567050183045)
(5.06756678111222 -0.05514400987075919 0.03537186881781845)
(5.235434261952025 -0.1259025352162911 -0.663120597884213)
(5.068930548350891 0.2087416980326697 -0.0172261132280895)
(5.00045991812144 -0.002181769762784698 0.001006605272185976)
(4.99987000677103 0.005985645175586486 -0.002310635986578843)
(4.999708676171174 -0.005314874551402688 0.0002369028614460865)
(5.003633445465575 -0.0008012317341923795 -0.001071583032726464)
(5.000364629315493 -0.0009879355495686411 0.0005396319883764713)
(5.000467825240823 -0.0002150651565691086 -0.0001133240321115934)
(5.187951052263116 -0.05237835121998233 0.1801839425572707)
(5.055577719277681 -0.007663538890765845 -0.02180183804602885)
(5.000710216018486 1.129771247383438e-05 -0.0007393423158469423)
(5.007187537135309 -0.001436922922454135 0.0001294499433381742)
(5.002212549668238 -7.148763276319288e-05 -1.052656301537737e-05)
(5.000103843219128 0.0006296963857629544 0.0004767068885264539)
(5.000443765552777 -0.001224532631190265 0.0002851047738997485)
(5.000243762704111 -0.0007378763569678024 0.0006372398021139322)
(5.048223165136271 -0.02372219486288696 0.001607692928200903)
(5.00045470655779 0.0001465591799048538 -8.920443751463321e-05)
(5.010995854887345 -0.0006100990313144403 0.000636180986316916)
(5.020576728997726 -0.003693864391854581 -0.01023842814702657)
(5.006468660544952 -0.002355319098974264 -0.002582137857350679)
(5.003599175412065 0.002854485503194598 -0.001841261102386733)
(5.000732475370638 -0.0007465770732826805 -0.0005924948370123875)
(5.003836266823738 -0.008549778877170351 -0.006540372570323983)
(4.469869567897143 -0.2114186575791933 0.4916325807425663)
(4.883088261392668 0.6160841191398474 -0.1300291122474281)
(5.329577935683065 0.4401095035698291 0.001497724578781792)
(4.252824885392108 0.2143324592675534 -0.007185183709980615)
(3.070579998971983 -0.6559378176819219 -0.6676055329677483)
(5.000341364148957 -3.584886400737169e-05 -2.739065415123896e-05)
(4.995974591043956 -0.001563729135234108 -0.002010742747063167)
(4.990191205057872 -0.01312673547424865 0.001249078984819069)
(5.016634741251853 0.004276235732771314 -0.002821510949359023)
(4.999736430732973 -6.084436828960002e-05 -0.0002309346414185929)
(5.001577893863811 -0.001975117478805481 0.001840735170112045)
(5.001580876818586 -0.002444685232083616 0.00311854233126334)
(5.001910186136487 -0.0008615953185282043 0.001819829942415364)
(5.000957472989398 -0.003255012030040022 -0.0005776649533065518)
(4.976242914471842 -0.01076228656993286 -0.0001425489929064287)
(5.002259190586019 -0.001950144117036763 0.002621889581309251)
(5.000425682173792 5.903965646077525e-05 -0.0001186604863826394)
(5.000725111381676 -0.003005991425567161 0.0006748880525936367)
(5.003533986880892 -0.006675327359968041 -0.0005314487791234087)
(5.068797912613441 0.02890451241362166 -0.6563159776746714)
(5.06239193534771 0.1581726586071979 0.1333401032503581)
(5.001063146222782 0.194955193816371 0.009799499527568228)
(4.565102532594709 1.271675672209551 0.3138842138819578)
(5.212305664179027 0.3828701900610252 -0.1425440138695676)
(5.001392683930736 -0.0003072213951382647 0.004234306420805775)
(5.001245963584723 -0.001772302115057445 0.0006176290045572065)
(4.999675753469421 -0.0008749525062086212 -0.0009456962053835804)
(5.005191406611656 0.01335096188512816 -0.01207142969818055)
(5.1453895358666 0.3378089868742956 -0.1388762748825127)
(5.002415184887222 0.000527857254283621 -0.002499678286864608)
(4.99948452772452 -0.001056436459913187 -0.003679926529504959)
(5.011548709836409 -0.004907991481469833 -0.002507575355946048)
(5.00351062231963 0.006194298007709358 0.003079000464651759)
(5.000406830854843 -0.0007261919263207714 -0.0001904962016799692)
(5.000029935124406 -9.914429363566956e-05 -0.0002285054157992063)
(4.902507528602372 -0.02139024543771293 -0.003522937924714455)
(5.000841800431348 0.0002075581066655801 -3.024994283179934e-05)
(5.013486594727383 -0.002769979196295398 0.002097092204209742)
(5.000864947084414 -0.0001003618273776277 -7.066405376982473e-05)
(5.00058879384799 -0.0004453510806821737 -0.0004218764325169415)
(4.999877080997519 6.183747301220915e-05 0.0004218670776060214)
(5.00065388218987 -0.0001727355822397693 -0.0001934118652894083)
(5.000715409585519 -0.0003218699042846108 -0.0001802420758877951)
(4.999702508673743 -0.0007692173392011445 -0.003588235023434273)
(5.001007452633168 -0.004945617487380691 -0.0003145374452953117)
(5.000414324435617 -9.63046761477323e-05 -0.0001260086608338655)
(5.002550780396367 -0.001433473585513669 -0.0003191104258692464)
(5.000586994703324 -0.0004741233901957764 -0.0006383260225672404)
(4.999766160704157 -0.000368743125944279 -6.240842461161566e-06)
(5.000711049130984 -0.0001249920466671934 -5.425321916013639e-05)
(4.999431425724714 0.0001124540408101553 -0.0005709166515855705)
(5.022425510214019 -0.01305555234468085 -0.001185828465196045)
(5.029093136561288 -0.02773044239739643 0.003092770241785061)
(5.001757876755912 -0.002126504260598332 0.02602056878977502)
(5.000675771314188 0.001426930629409473 0.0004437687663320141)
(5.000896211922426 5.972017663129405e-05 -0.000233002032684401)
(5.009011312531054 0.0001630539918528052 -0.0008216587418106328)
(4.985390206105427 -0.092712095150409 0.1368373573708268)
(5.001802648669254 -0.0008005413595218078 0.0005653660838975941)
(4.990050702631267 0.003962261282445497 -0.004923680138485946)
(5.00070837382771 -0.009497803382791428 0.0008565741099601144)
(5.007795902456951 -0.002832960625574046 0.0008188240304347839)
(5.000246457711965 -0.0005013145463059149 0.0002376009003128998)
(5.000880968248374 0.0004899624523675597 -0.002022514940368817)
(5.000272226337372 -0.00186575879636922 5.347310762030902e-05)
(5.002824148017907 -0.004338860830877953 0.01866673748958755)
(4.999954985160688 -0.000695756088782576 0.0005468978600149401)
(5.001615097634098 -0.003016533349745389 -0.003668668157153024)
(4.999809111398823 -0.0006934473057259998 0.0005389878239092392)
(5.000702230305919 -0.0004024906740099113 2.261406149675767e-06)
(4.996230958827841 -0.008012883924010533 -0.003010616629048415)
(5.000625184223017 0.0001621311822404084 -6.140700456710477e-05)
(5.000129772465036 -0.000124207428852966 -9.3975449664057e-05)
(5.002186854920387 0.0014016062441718 -0.004791114851168188)
(5.000314040421918 0.00116155892816237 0.008995698059801906)
(4.998511481658475 0.0001649695738556527 0.002560146738450549)
(5.00366699918562 -0.002558014617547364 -0.003929669164729128)
(4.999876433050463 0.005562439924932771 0.000837065368650017)
(5.000151285663187 0.0001746541196991587 0.0003073700880147495)
(5.003525951047131 -0.004981474200411588 -0.00635428716524246)
(5.001309760340932 0.01087494548716657 -0.007574679531852267)
(4.99786664068574 0.002759806826104742 0.001390192917250862)
(5.000225894405774 -0.0007456929294587787 0.0005891897813617055)
(5.000340360023819 -0.0002317385406131165 -4.65713914618769e-05)
(4.991320221987886 -0.00421847590850924 -0.003184891824146474)
(4.999398018190134 0.001569314325507398 2.312173227139367e-05)
(5.001461398709021 -0.001476542329582521 -0.001530953993281084)
(4.999213413213753 -0.002164589624173564 -0.001867014261052066)
(5.002378267823294 -0.0009105258961368726 -0.001258002704692475)
(5.001650065723716 -0.0005625711707801604 0.0001557365741925589)
(4.998775471856099 -0.002413255176647889 0.0002649442215990937)
(5.002144641019399 -0.0002450217135992262 -0.0002167459760728213)
(4.99937561508307 -0.0003658386755905963 -0.0003561094153840898)
(5.001765765927182 -0.0002188258957441149 -0.000156198780149135)
(4.999676145698253 -0.006531181788839094 0.00275378415241355)
(4.998510476126626 -0.0005180729645561758 0.0005181198639972539)
(5.000375011740519 -0.0005545588099699584 -0.0001488644274151897)
(4.95695159988958 -0.008228729969414133 0.00797930437082405)
(5.016139544947266 -0.007425519135947789 0.002396786749802813)
(5.00070328716269 0.0001183190006265317 -0.004036165896004972)
(5.000571708497098 0.0008297671970160382 0.0009529940968268597)
(5.041559964755225 -0.02232415422037746 0.009735220702489519)
(5.018678409961967 -0.01330138876705196 -0.007481230083469403)
(5.000274125870015 0.001522666571787827 0.001520965945120183)
(5.000906054839733 -0.0005984797417301264 -0.0001183399887950867)
(5.000049805201463 -0.001297598613807556 0.002963587175916372)
(5.000914237663461 -0.006392796067994887 -0.0002084963142216253)
(5.022311126800365 -0.007027583547780922 0.004935294008897419)
(5.00042270769152 8.482741545985235e-05 -0.0002881216822239978)
(4.999632128239751 -0.0004153763669608768 0.0003403059188373422)
(5.000555516885213 4.935831518502123e-05 -0.0001053330457164905)
(5.000255797742517 -0.0003682613513659572 -4.475941546039799e-05)
(4.999143724379469 -0.0005607968960256413 -0.001182622101060066)
(5.010167376735351 -0.006375489188295683 -0.001499230142590662)
(5.000249676331691 -0.004350295452929087 -0.0008887090901161082)
(4.984140268434841 -0.01014917681174377 0.002015486084826004)
(5.000265336036551 -0.001823022474382985 0.0002818725121682827)
(5.006292140073242 0.04155569865449837 0.03402725943976961)
(5.032646199739936 -0.02319581901761235 0.00538379973777872)
(4.999651156176652 -0.001632241597200911 -0.000505813140099531)
(4.987265990360789 -0.009165293432132186 -0.006349671985553419)
(5.001256965381819 -0.002286650857773622 -0.003145769054682391)
(5.001376815724793 -0.0007805136136042313 0.002542387193170661)
(5.001174144095807 -0.0005293586806391702 4.710049662673033e-05)
(4.998683152277467 -0.0002598769991743491 0.0143379675701277)
(5.001122721279847 -0.000442125307268466 -4.000049161995915e-05)
(5.001198748199264 -0.0006315922225656525 2.354807770416411e-05)
(5.001063167528961 0.001091205167668402 -0.00201368381041521)
(5.00088608750267 -0.000594942490007513 0.0001230977623321765)
(4.999946290565424 -0.0003435966688509418 -0.000515422726506794)
(5.001376406890825 -0.0003940750101576303 -3.237404456377556e-06)
(5.00001386760287 0.0003457347941338917 0.0005695758472153085)
(5.000631792342547 -0.002262218594711111 -0.005216858757049322)
(5.000558216143431 -1.858496280034162e-05 -0.0001473372399219996)
(5.002070712820849 -9.627193103783799e-05 -0.002060272240710876)
(4.998971934066486 -5.507669843874328e-05 0.001086436264016997)
(5.003956244385222 -0.004101760606591037 -0.003220001366349491)
(5.002413136291334 0.001585390214143356 -0.004413710163305957)
(5.000428769466785 -7.861235565099318e-05 -1.417808592879132e-05)
(5.00558771180472 0.006582116947878721 -0.008737752098377533)
(5.000718695671961 0.000937397340821742 0.0008209180834963819)
(5.001006413592986 0.001851437936148812 0.008852862224414428)
(5.000925001082452 -0.002846227547425327 0.001391891391460572)
(5.000906501766048 -0.0005995488915472827 -0.0002905545801444946)
(4.856287332753575 -0.03852811526235352 0.5669519655484486)
(5.002781712552776 -0.0002826427448687652 -0.001906355218911795)
(5.001254664598838 -0.002729599102936197 -0.003707602514253281)
(4.999522052012527 -0.008185341537575601 0.03838117691026564)
(5.001558983039496 -0.0002571279709377675 0.003427242230570255)
(5.000475069824136 -0.004373525538113114 0.0003822699876530277)
(5.000934993003535 -0.0002734152863044063 -0.0001873916951823139)
(5.000031290178382 0.0006596987322491008 0.002397161955843152)
(5.000022375377828 -0.0004920685981934043 0.0001037583820922753)
(4.999518627409202 -0.0005017063632992638 7.511620241295405e-05)
(5.000029436805603 -0.0007706969139940157 -0.002405080403537513)
(5.000227670417881 -0.0002517455479214717 0.005470958573885209)
(5.000917646704838 -0.0008063621949566482 0.001118111250786865)
(4.995262092852506 -0.0004290201824303744 0.005220654952338496)
(4.999866196046782 -0.0005026012769398844 0.0003021205321828322)
(4.999215646109512 -0.0007747216811774799 3.507888338848426e-05)
(5.030993261678979 -0.02666183626329462 0.003142332172892666)
(5.00123333060208 -0.001398059756753906 0.0005271189034833567)
(4.999812698161191 -0.001219777703511664 0.0005386795523058144)
(5.000375784007088 -0.0002047366143823269 -0.000114203341558451)
(5.060918510596882 0.2863056567543781 -0.2788394224116313)
(5.001312605023845 -0.003564297161264641 0.003288401982162093)
(5.000767998040257 -0.0005204335499671634 -0.0005237154029561071)
(5.000685430362354 8.248385857963198e-05 0.0001364831176902672)
(4.999868632142666 2.887705293198727e-05 -0.0001510243094517798)
(5.000548882095615 -0.0001486671649815827 -0.0002315929679174476)
(4.32008025765897 0.1966074611832215 -0.07508401977509029)
(3.826245416947961 0.3640863064494931 -0.3087491284396635)
(4.857807755979518 0.689256797707126 -0.1407646703637463)
(4.997482359456275 -0.008655116620302382 -0.005446721881520288)
(5.099924451183885 0.1165800844946804 -0.06543647567839847)
(4.144876726429765 -0.3930999326256954 0.002375969842066693)
(4.042238774476169 0.09031518124283985 -0.3182901359236971)
(4.999905161264564 -0.0005451862729909381 0.0003511571144112529)
(5.181248947016921 -0.002321523801336777 0.6741551689331666)
(4.873572884985619 0.05991961954029646 0.3430393812251866)
(4.999630535844993 0.001897665579375529 0.0009709280388753116)
(5.001088146221543 0.001813250195851545 0.0005675874126717404)
(4.988511281187196 0.001900255461255816 -0.08608504752727444)
(3.196533333845087 0.7638876701473544 -0.4060249228560776)
(5.000436454832239 -0.0005707288526263284 4.159856519536014e-05)
(5.001362322073219 -0.007622730202463003 -0.001782141636903929)
(5.000816554500703 0.005155671760650161 0.00551399311565362)
(4.919651984677841 0.6850096754844762 -0.341274100102568)
(4.969423392014702 0.3393024445985094 -0.1226468226852866)
(4.957508515263632 -0.01127322886703243 -0.002855887250280788)
(5.001282012832744 0.0008585556717702937 -0.0003195459007880984)
(5.000257706739313 5.952491726876574e-05 -0.0002469696464094195)
(5.000135329564324 -0.0006256033139531798 -0.0004209784219610406)
(4.999035389491391 -0.005289149240532753 -0.007391931939264396)
(5.001164790284509 -0.0007134232486995197 -0.003741194265302831)
(5.00134143948967 0.003365712308444798 0.003209237769869862)
(4.997981934844796 -0.002806989352416767 0.00166780855169149)
(5.232690005995022 0.04731303302867003 -0.4913600986608619)
(4.981592325414043 -0.002574692823965527 0.00011529942314673)
(3.954482691406609 0.9565939707513743 -0.7986400650123843)
(5.000537680202575 -0.00214445381053264 0.001068491688003865)
(2.941895819455451 0.3209327948508888 0.2262921857696768)
(4.194648096268335 0.2146721706490386 0.1830842520037343)
(5.005749144766362 -0.002912866521507371 -0.001255312911745147)
(4.486063194084966 -0.02253504211663939 -0.2072613606055716)
(5.004735998710048 -0.001944556048917423 0.000102166426454083)
(4.785022959753428 0.006582741803926108 -0.05258810831278778)
(5.00248090469062 -0.01025718097563528 0.004882660384080234)
(5.026529572468188 0.00553424302559493 -0.005308223724878478)
(3.545081767881956 0.3430354611827827 -0.05368447611545634)
(5.00148099741169 -0.003662885810366507 0.001382778681176705)
(5.000285387373339 -0.0009904370156149942 9.598542489874055e-05)
(5.003634322582402 0.0006988728342365783 0.004162470210967349)
(4.139097553651507 -0.377337494550918 -0.01351927294353424)
(4.997781443314696 -0.004105127753058429 8.691322685217031e-05)
(5.000380724982336 -9.319472870481657e-05 0.0002912611974788601)
(5.000352733216924 -0.0004616672584605421 0.0003130364658490082)
(5.000286241159587 -0.0015435564276624 -0.0002067686411195613)
(5.001350497248488 -0.0003531810424058986 -0.0001152217323630249)
(5.000381197108864 -0.005227254548361152 0.0162982638636623)
(5.028795005475696 0.05117393411178454 0.002669037282023676)
(5.000245592468891 0.0001919680386106184 0.0003110736581642678)
(5.024380161787453 -0.02100535651995351 0.01145116654572393)
(5.002265269256413 -0.001153631126469776 -0.00128231534501329)
(5.023150906812749 0.001128877235130442 0.0008575208472199104)
(4.767943472249908 0.01626788560966206 -0.01043123405034769)
(5.000629964919826 -0.0009279517496366819 0.0002270124746651789)
(5.027236827490627 -0.01837472079321592 0.003204430001992461)
(4.999233313786258 -0.0008234925029881512 -0.0003607605276831193)
(5.026805533716797 -0.005320513841480809 0.009749959890625097)
(5.013421672606949 -0.01081861492003926 -0.0003592913146443194)
(5.000504864386465 -0.00212652497241378 0.01118681247035279)
(4.922992807638058 -0.01897375452102566 -0.007240985614474489)
(5.000892535293689 -0.001711913628468674 0.0005930849976710262)
(5.000864118120995 -0.002301339592540949 0.0006207699300770967)
(5.00666584455003 -0.00204650488969228 -0.0008647164437912417)
(4.013833221056045 0.3203903158012832 -0.1373581257378619)
(5.000404523500377 6.315896848561124e-05 -5.927685345860385e-05)
(5.000123212386571 0.0001409420279604701 0.0001337459875197389)
(5.000771165037942 -0.001863643096988782 0.0007676706335892762)
(4.993858275962008 0.04225049673637012 -0.04972518345006819)
(5.000767764558983 -0.000555577739133049 0.0001691893913705547)
(5.001308825029999 -0.001461932977319673 -0.001554250607864472)
(5.000379222275384 -0.0003056982952721231 -0.0001385774822056603)
(5.034703121624394 -0.007071471582337163 0.001742727024313593)
(5.000763919222129 -0.0006844960059671438 -4.978785252024207e-06)
(5.00026034452733 -0.000527132853861355 0.0003201431125765357)
(5.00033737950646 -0.001279342491707229 0.001751568689394993)
(5.039416530993178 -0.01246091270380682 -0.0191353530131435)
(5.000750065226917 -0.0006413909163822906 -5.901307560501017e-05)
(5.000843497244615 -0.0005408972173794263 -9.007080869088946e-05)
(5.002766081064378 -0.003533109342327991 -0.0006145220530102468)
(5.001253002184725 -0.002230284300148032 -1.871853391862715e-06)
(4.999926697381536 -0.0004545193106013666 0.0003942092602239195)
(5.000769080159562 -0.00140535150986131 0.0002422499377621335)
(5.000939974444599 -0.001461383578141041 0.0002991389940816534)
(5.000883641714184 -0.001274686621347293 0.0003737002903925898)
(5.000719685598578 -0.001531095534458265 0.0002836518649406331)
(5.00023031049765 7.212610359059626e-05 -1.63972235168003e-05)
(5.000314745633226 -0.0008672789444549062 0.0002727292835471504)
(5.001530580570862 -0.001536119442388436 -0.001766866427405193)
(5.001330074240836 -0.001707028162045965 -0.0006142669246214233)
(4.978924119339862 0.007545458336845485 -0.001149786137293166)
(5.001467663509938 -0.001254191693064094 -0.002228213902993329)
(5.008956045607213 -0.001537933549157007 -0.0008262620887867684)
(5.002905870073718 0.0008084195370171518 -0.0009185516421202619)
(5.000735824840858 -0.0001173366798049841 -0.0002370988004916784)
(4.999382747854353 -0.001533268832336743 -0.001470453620173922)
(4.556549014142631 -0.01967126654996262 0.110404348566762)
(5.000647585034592 4.686375150765564e-07 0.007914644241028921)
(5.031778155467905 -0.0004392794315181871 -0.01314294095220006)
(5.000798763776483 -0.0006572865233215572 -0.0004005136496681693)
(5.041551068145616 -0.06169081889006634 0.01789374924776158)
(5.000782457062498 -0.0007139198216978575 -0.0006278903841141871)
(4.999468354815064 -0.004048045955350957 0.007957550649526978)
(5.000875706521776 -0.00219522485715123 -0.0005288596122193293)
(5.001363531633655 -0.001672871571102876 -0.001024481950544935)
(5.002295945216813 0.04460011380144368 -0.04710002477930821)
(5.00118133931809 -0.002482171640710612 -0.0006231247392086081)
(4.999524529972418 0.001178072170455022 0.003446241340419145)
(5.001399711484646 -0.001949664257938609 -0.0008502625724476059)
(5.000851244975498 -0.001022792879421474 0.0005944424801760729)
(5.000491551021138 -0.00014866396230286 -0.000248854779956458)
(4.999571225247392 0.001676364926055983 -0.002899275780920141)
(5.000195129440728 -0.001114759536071395 0.001185149474926381)
(5.000339342226749 0.0005736706727501219 -0.001761532342148159)
(5.000379157649601 -0.0006936620593383194 0.0001377957963423411)
(4.99959582942759 -0.0002463578145688605 -0.0001988125697734669)
(4.998070019150926 0.002767785032881462 -0.001260247748091566)
(5.04472175444267 -0.0365766160542416 0.03739214835482623)
(5.000443530032712 -0.0006840944460498389 0.0001272574899177546)
(5.000370524789543 -0.0006166766889798996 0.0001248176452241778)
(5.000489772538753 -0.0009511788078585244 0.0004176987683839624)
(5.000420209196998 -0.0007926142771362965 0.0002292736833811643)
(5.000667881272826 -0.0003514273916404398 -0.0003155752351210165)
(5.000717354702418 -0.0004526974007226374 -0.0001895843765627736)
(5.000388867180257 -0.0008026945254504833 0.000137407996249104)
(5.000588680757216 -0.0009950614941428911 0.0004766920696513312)
(5.00062054512159 -0.001050492995884797 0.000507227162675895)
(5.00050217860842 -0.0009879354667813418 0.0005671284295172942)
(4.999868290104685 0.0004996977844108769 -0.007488199851119789)
(5.004307042073185 0.001774737745661384 -0.0008177363232798121)
(5.000543035695598 -0.0001158307590812618 -0.0009390605107632887)
(4.996805617167635 -0.001469045938849932 0.004009596348705025)
(5.004114187121671 -0.001620763557176183 -0.0009350217056814781)
(4.999782909497435 -0.0002238463923363546 -8.293347647200057e-05)
(5.000498327487579 -0.0002199649616304764 -0.0006971410745911107)
(5.000389665711058 -0.0006890689398454909 0.001091879893512495)
(5.000823165009209 -0.0008885470823141184 0.0003443433477533518)
(5.000796492916988 -0.001005107340806979 0.0004279906425394225)
(5.000083405292153 -0.001441297789343692 0.0005583205107907748)
(5.000519718548877 -0.001078324985904022 0.0004881204013682499)
(5.000666941477628 -0.0002584312697328143 -0.0001550119844897223)
(5.000678566172549 -0.00139616765155677 0.0002953826409947252)
(5.000967627791802 -0.0009294047437751002 0.0004988656760488548)
(5.002419355108936 -0.003428593323517059 -0.001319253166550071)
(5.000278993741484 -0.0001395755564576864 -0.0002044053303227827)
(5.000832575464356 0.001176462574528962 -0.0008515074121548746)
(5.001233934816752 0.002309613611579925 -0.000233132089501144)
(5.010273089799761 -0.004456009654394742 -0.0003477163257888287)