/*--------------------------------*- C++ -*----------------------------------*\
| =========                 |                                                 |
| \\      /  F ield         | OpenFOAM: The Open Source CFD Toolbox           |
|  \\    /   O peration     | Version:  v1906                                 |
|   \\  /    A nd           | Web:      www.OpenFOAM.com                      |
|    \\/     M anipulation  |                                                 |
\*---------------------------------------------------------------------------*/
FoamFile
{
    version     2.0;
    format      ascii;
    class       volVectorField;
    location    "1.6";
    object      U;
}
// * * * * * * * * * * * * * * * * * * * * * * * * * * * * * * * * * * * * * //

dimensions      [0 1 -1 0 0 0 0];


internalField   nonuniform List<vector> 
19631
(
(5.040988115067529 0.04625877185792542 0.05385775910329088)
(5.167599745286527 -0.3383526150041825 0.1170980336758285)
(5.003072785268095 0.04903989742597253 -0.04510831875994641)
(4.598630616265506 0.7616112523071551 -0.05033229229816852)
(5.06482642098559 0.1148634193871019 -0.01704933455823723)
(5.055450576453132 -0.02624662949899936 -0.1794763717858007)
(4.986331470676644 0.02295379721013853 0.01702546037540331)
(1.744734629853548 -0.02306426443627199 0.08682498607616433)
(3.808224941611464 -0.6877148561258368 0.1255604536985684)
(5.016702343659784 0.02980945494805688 0.01839421014317472)
(4.940945110307282 -0.06369765187873007 -0.08353603766296405)
(5.016029253813841 0.05678185904721345 0.01384785604542151)
(4.339444876895826 0.1873062785392276 0.6450443316678748)
(5.04031153207112 -0.008129477233036969 0.06751855936612919)
(5.000206886531983 0.005698992643510122 0.005370503441958643)
(4.994586067922123 0.3537934080821327 -0.2399803739738749)
(5.006612339347527 -0.05394394471982433 0.1504652304989679)
(3.975096180542098 -0.4599945254366967 0.4462833531119806)
(4.445862149935077 0.4111099797552786 0.2050719118593164)
(4.150777981855391 -0.1370271048026578 0.3164343633531704)
(5.014020090340014 0.08048106696792266 0.03996712488196975)
(5.059629313776504 0.05870410351471356 0.1061795266882197)
(4.567906583569396 0.02505496499563619 0.3727862268027324)
(4.961323579005353 0.005088894103935895 -2.441853661993616e-05)
(5.066085238868418 -0.001436519659074124 0.1032449144132347)
(4.98419146252122 0.09526292816982478 -0.0319616290876311)
(4.979552878691291 -0.00126208313162248 0.07529943172883768)
(3.759668535450998 -0.01093932021355901 0.1152503759925529)
(5.044834587206617 0.1781408911572533 0.1656010230870252)
(4.996751199252805 0.001396478651959488 -0.0123249434446645)
(5.067085563724905 0.01415747210200388 0.09562981172677872)
(5.067789571663757 -0.006926652772947668 -0.01682312576547541)
(4.933234813837482 0.2282497447823786 -0.1561753502786813)
(5.026521479631404 0.05043033775039597 0.004832556972584294)
(4.569190931853827 -0.06946331532400199 -0.08480404687100693)
(4.370420834736238 0.1978288671304899 -0.51014575278096)
(4.926171476490378 -0.002102956368455857 0.01430437468575059)
(4.315927380072188 -1.309364074878253 0.5455968003583604)
(5.058920624137508 -0.07959851915210092 0.05054254978568857)
(5.087803518396383 0.7791478950102111 -0.4267498039529546)
(4.341263632571021 0.1970769504983676 -0.1687796000575091)
(5.021362885130269 0.03242137802507326 0.04347800021512969)
(4.999345865024369 -0.0009245932653999308 0.01315306306497822)
(5.022798968084788 -0.07375703554042716 -0.002800324102862026)
(4.081959107381765 0.01810488212221804 -0.3540314655937808)
(4.483363121486271 -0.0881384558950208 0.04505924322869569)
(4.991240296009747 0.006742714212312504 0.002032821879141609)
(5.010965495470323 -0.06310368251700769 0.1628056940295827)
(5.037060748037751 0.05179897200457573 0.05570142228186491)
(5.058059924503699 -0.03143925555618664 0.06453181913224836)
(4.700735688250209 0.2777632742996307 -0.257356599476013)
(4.790828100838195 0.05844085829833898 -0.122184159826608)
(5.071482355015386 -0.02173841510931735 0.07126713653256021)
(3.886496727790437 -0.002997522497130018 -0.01451262961378161)
(5.019252918247982 0.1756793390781763 0.1518496431319107)
(4.868584818981493 0.1700436344135754 0.7152381884562965)
(5.061411426468437 -0.01810094765037673 0.1070571522523231)
(5.038531579747524 -0.03492923546977025 0.09855515786943736)
(3.670779178120914 -0.1730715463908384 -0.1110134098999174)
(4.99865117736864 0.01855284216159891 0.00259948265646566)
(5.020279150016186 -0.03701256749340686 -0.007615280140873628)
(2.325720743496425 -0.1880545814047765 -0.06320083776582057)
(3.225057430037329 0.1061967168274705 -0.1032396373378447)
(4.999257445973666 0.06243171640556384 -0.1266139419048517)
(5.039068235054287 0.04070773632183607 0.0533031203627093)
(3.060194162091731 0.08898669628523218 -0.09922235595086332)
(5.07053495379601 0.002065510433019971 0.06513588003286093)
(5.047963404928295 -0.03040794289518456 0.00331649594784086)
(4.942427587424921 0.1275770408133515 -0.009906018779433503)
(5.020076677946816 0.005993597632046491 0.003494708674102541)
(5.015450599958815 0.02793276623912605 0.0192607155529952)
(4.125305616130239 0.7055242473409206 -0.2850168676116226)
(4.990621545062058 0.03064033966603691 -0.07352919349925296)
(5.082103883719986 -0.01784610717340145 0.03926726555128771)
(5.067873671034138 0.05994189365198604 0.1203237983582751)
(4.99656792758384 0.1214326254824308 -0.1588534934592596)
(4.936062905526829 0.02237731477255202 -0.04445204478881692)
(4.698018746170813 -0.02324221092243364 0.4468059956696022)
(4.947944141739796 -0.1919287175616012 0.470356566607984)
(0.9219281906902036 0.03251383730744486 0.3205427659458303)
(4.992546212250485 0.07203429241814238 0.0147781502204361)
(5.077630532147555 0.06076300619990984 0.110953259646072)
(4.914817597053188 0.1080393353224495 0.03882141373301754)
(4.908138898648137 -0.134221467809814 0.130423461502212)
(1.813255699483333 -0.2436854982762613 -0.1011875435076052)
(2.109879664310278 -0.09764951726931367 -0.5535110933145883)
(5.069699360688049 0.02260766079776413 0.06081706649090183)
(4.977706838988913 0.1268812613536764 -0.1261015939032545)
(1.763563529260291 -0.05215966722503511 0.006693485701177363)
(5.034199596777245 0.115408179635961 0.1370702077936393)
(2.415221771232664 -0.09093804914059671 -0.0136363303359449)
(5.087844097179607 0.006302418914594589 0.07297773885739278)
(5.076384017261506 0.01809633144092444 0.1025976952070206)
(5.082640343849375 -0.02326038712533518 0.05664145465408783)
(5.066653233034851 0.2879028168084374 0.2262468880331412)
(3.145594177958553 -0.2119581627440277 0.1642121068935713)
(4.894403186909032 0.3244778383687486 0.2584359284171214)
(2.58514404387843 0.1131418888468379 0.2552944185523311)
(5.052066996701915 -0.009275147055889096 0.04902397782432513)
(5.083883892067752 -0.03198222965031279 -8.026514489340537e-05)
(5.073544737641636 0.01520910234616655 0.03583856986780926)
(3.268189338258234 0.634943978559808 -0.4383659238236917)
(3.451185666742516 -0.09272111923770654 -0.0003936191681834113)
(5.030043822258373 0.06499726288146225 0.03607137332252081)
(3.896147390496667 -0.03648259338032222 -0.01066149756592817)
(4.349669596882224 0.1083685312596363 0.3063337079737232)
(3.211128401974949 0.5468287562038655 0.1843041681563405)
(5.081040365024423 -0.008722756328895603 0.08459744610289219)
(5.069495221917516 0.01997283022188475 0.1032577764498641)
(3.401458129307177 -0.1980379286941186 -0.1260574695920252)
(4.957059617150035 0.2049967549178156 0.1486637528890937)
(4.896991987982006 0.1549382790683879 -0.1662471892046345)
(5.072983895884459 0.02983362311443517 -0.04889207007631905)
(4.717173696083758 0.1827307637154736 -0.2375538717307753)
(5.086466368113474 0.03406837171231342 -0.09064977001638819)
(4.942296238326262 0.03781979177225434 0.004511847001334706)
(2.715789072233154 0.8427262440818837 0.2002118934057251)
(5.069303987054599 -0.003624253619505015 0.04526746492536574)
(4.787328645450246 -0.1210860548271158 0.1221035100640799)
(5.083125167979304 -0.02162814523363234 0.0370743771845852)
(5.080951207245868 -0.02059803504982319 0.03391457889846462)
(5.084361699952249 -0.007881402300271498 0.0333991189251116)
(5.082922410201403 -0.005123939582485078 0.04261876758702671)
(3.663050888324381 -0.005709609403179806 0.003903198892625812)
(5.013900292194528 -0.004027069878793399 0.03550555725981946)
(5.040956191763929 0.008590002845114731 0.01162873919864347)
(4.971447976615416 0.1323049707329861 -0.08031337400993636)
(5.049469735871162 -0.02664326339542229 0.024778154365188)
(5.025833373193716 0.01233509166726678 0.02739691446715523)
(4.545457055713348 -0.0629170905328173 0.2390727423231095)
(5.044495288251921 -0.01239363931782022 0.0211974933744685)
(5.01395647329508 0.0279845999125566 -0.0434666026282771)
(5.08234520616382 0.120659935457106 -0.1298097059027293)
(2.662027525249229 0.1316275922563341 0.1025631131477403)
(5.012126917955873 0.1154340680665402 -0.09485823819356412)
(3.400035901551613 -0.6033392308001161 0.9325441810975373)
(3.542223267185285 -0.4888386064356921 0.3150541469487562)
(5.1634609849487 -0.02149118559504203 -0.02326142758322056)
(2.391582214212662 -0.2448806594448938 -0.2282562967257316)
(5.057269718660843 -0.02539670587026721 0.1004294574277165)
(2.470498371093757 0.1018564393672695 -0.07671139194423983)
(5.443161460324363 0.4859985538173746 -0.5324386390814296)
(4.222429691445828 0.1540241957325541 0.009052635599329981)
(4.977880854442885 0.004388314031832499 -0.002165898530182898)
(5.133371917874213 -0.01625093433135267 -0.05156343825560074)
(4.625555803813913 0.03052468136081923 0.0004123021806051192)
(5.050850959768158 0.02386733100088875 0.04128547933966825)
(5.019209124762584 0.07595178715544357 0.0166794016923451)
(4.986049438323442 0.03814604202718995 -0.00161641700186962)
(3.055800614173818 -0.08433693234785478 0.0216428516597874)
(5.068194097374549 0.0005707993683971524 0.08400132806162208)
(5.064385789198291 0.02300437992270475 0.05330729936322079)
(5.063528676373969 0.0171242516278008 0.0712450226602277)
(5.081458271519239 0.00797411977252812 0.03898934359037606)
(5.063709262061331 0.02195800151585036 0.07011133790640886)
(5.01706577895788 0.1336007668519226 0.1084473191875487)
(4.986300490315906 0.04120970854492104 0.004927217522171355)
(5.027973233347044 0.2386063060586288 0.3853449577057259)
(2.580577871960277 0.01594369702534005 0.138458143433128)
(4.566401324566459 -0.03234809226111571 -0.01497619548654977)
(5.075512165462149 0.01859190109607512 0.05770451674645444)
(5.005935194198169 -0.03787357201765545 0.02124581340891436)
(5.077955183555562 -0.01894619424670272 0.04332492849661937)
(5.082763668096384 -0.01398633786204858 0.04541023305402221)
(4.97929141919558 -0.002326599602567728 0.007914415322227098)
(4.968586139503773 0.1138879001277995 -0.05837078771069316)
(5.089299033172519 -0.01134834045682802 0.04307582480591012)
(5.045011227814641 0.01070051513661121 0.0170490284146078)
(3.299684568519305 0.05782870621115116 0.3010774912736415)
(5.0341809824558 0.05770431478909806 0.05473821314306378)
(5.067272887685969 -0.05144629042036514 0.04964423255683387)
(5.056666690105528 0.003309836532786842 0.03680851825178646)
(5.056914155323977 -0.02594021280676441 0.09635901009277506)
(5.07694928631299 -0.004029546466924951 0.0366250688927038)
(5.058744663918088 0.009597757467642718 0.09185884065926707)
(5.06254013427606 -0.01828603081771768 0.1011934864187538)
(4.997920595447976 0.01601131285469183 -0.01856959588456644)
(5.066714028265837 -0.01153809082757332 0.07809142392853631)
(5.113742864622646 -0.05199995984253715 0.1439901421174131)
(4.017133517556992 -0.1595993695166216 0.4184730432353789)
(5.045263297755584 -0.006734497706286265 0.05631280786823663)
(4.991922624835665 -0.003612768298403046 0.0001080101642668967)
(4.974368448194208 -0.01536525281409801 0.009552851985095034)
(4.600244753493874 0.1126928775661768 0.1554270349936549)
(5.009709544937246 -0.005412274087500349 -0.01571068864987973)
(4.969074284084933 -0.01325674481816941 0.02449437358988325)
(4.991475599411745 -0.03156975629330935 0.03358408302033527)
(5.073322032450895 -0.006218915029464087 0.04337898431918449)
(5.075104817016688 -0.008045395209356543 0.03567177531582109)
(5.066489801610917 0.005581319757959563 0.04343639410161586)
(5.073419191477715 0.02576654843979823 0.06165365411325954)
(5.008900456430274 0.05291977049873855 0.2086016677208254)
(4.994970313126324 0.0533808361420674 0.1673890180540399)
(4.989880013741597 0.01152806733708555 0.003939412553422178)
(5.035780450562454 -0.02782792908833491 0.07279594647407146)
(4.69204348526526 0.08647886854394163 -0.3999216826332688)
(5.071122213845163 -0.005365223100379678 0.0962319185432844)
(4.981051005838222 0.03825308395362665 0.01417862876402718)
(4.937464908743069 0.02273508579584356 -0.005006468026751108)
(4.961713159706112 0.08525942870213218 -0.05568795852280971)
(5.062214552719346 -0.01309869509795485 0.02703855713529976)
(5.069547789842227 -0.01224301751689152 0.05023078293816557)
(5.030463006368804 0.0327007475934383 -0.0529608006939609)
(5.079426085945665 -0.02903610539340623 0.03690588370695818)
(5.009551590004082 0.0004635279900429215 0.009402051026826565)
(5.061455253459726 -0.03969526707913526 0.06939382242000193)
(5.049315656218543 -0.01066287880504991 0.02179794718260352)
(5.050290647081474 0.02068124034909955 0.04947298308366932)
(4.798118360489058 0.3597168519606568 -0.04150794867158922)
(5.000146914182103 -0.004636474202002031 0.008926216051074467)
(5.014857510878193 -0.09339722704686894 -0.03930259992635462)
(5.006034449375397 0.00829669292524016 0.08139724878448239)
(4.429354340817971 0.1406525480189854 -0.396008776528661)
(4.996932311077498 0.02887564115283137 -0.01005713792009588)
(5.051627060668531 -0.02670632162267926 0.07370048733508382)
(4.30255314863825 0.08555499677051219 0.4126559566680855)
(5.01775895335363 0.007432919717286067 0.01934272070059055)
(5.010021006132956 -0.0009140819805768688 0.004764956530097997)
(5.00415793118233 0.01842828187079776 -0.0132765825887583)
(3.417237921876715 0.1345356311469021 0.00111710235991921)
(5.015539122232302 -0.01753244357663327 -0.00440218416392972)
(4.966269681202005 -0.1245687533509056 0.02706076043813528)
(4.965622067761302 0.03950056423106942 -0.005972477684372571)
(4.998022085033727 0.004775140066063982 -8.655963300687524e-05)
(5.027405402261037 -0.005977327594918904 0.004313777142852898)
(4.978053042671108 0.1103987259447087 0.01819410577087076)
(5.024020705834927 0.1003946719197307 -0.07483329653469642)
(5.007855883719692 0.07158601283315924 -0.08827969774580187)
(0.7636890257346808 -0.03376031364330725 -0.3060146641764773)
(3.77782633235969 0.1100995924585333 -0.1249622055732771)
(4.971801287083745 0.02332872072539013 -0.03474089990245849)
(0.02712529137225838 -0.008756890828004609 -0.01827261554094106)
(0.006452643327306939 -0.002489702336011674 -0.000259079652075525)
(3.256939034104209 -0.1202224042993698 0.0522612939982291)
(3.8918755694504 -0.07433982383690943 0.06569622867628711)
(4.141851491418723 -0.190181265541944 0.4950753848357396)
(4.050662009391157 -0.1732331540810577 -0.2117103089940366)
(4.767421187462101 -0.6142912327618346 -0.383209681185714)
(4.970280444296932 0.1087655153223546 0.2845272826797879)
(3.012471594834221 -0.04120573583094005 0.0246273825245805)
(4.938910733778146 0.002646390806016117 0.006978587835785333)
(5.117753674741906 0.03982494991538478 -0.05934863582503309)
(4.996700939760789 -0.001273243193049327 0.03199971834435492)
(5.065770511036533 0.02390058480962782 -0.01017450082352596)
(4.980782489878594 0.01920268714367611 -0.0210369945104829)
(4.924264429680159 -0.16489638125293 -0.3156914405284962)
(4.925377665186584 0.05070471642756751 0.09291245348864829)
(4.971072602559018 -0.02590014483226658 0.004826294859570789)
(5.108855216982267 0.09860104868119934 0.1976740825479327)
(5.031817447686789 0.01831438303944273 0.05623782382120717)
(4.701280245123278 -0.09849236773493274 -0.0002841952638686582)
(4.649006176731326 0.2673052677371496 -0.04707027932524631)
(4.973182790543461 0.1070361243924962 -0.07940536366031931)
(5.125157561554397 0.04754006083635211 -0.03010339749494027)
(4.917508041348272 0.006851127936417449 -0.03786845444079463)
(4.804960833150056 0.1067405466560701 0.3955679931722935)
(4.948410876592005 -0.08090729769384994 -0.07067840781950667)
(3.43285708284945 -0.05892047388654445 -0.151459392485838)
(1.788163576217036 0.05165012957952058 -0.0561352690988177)
(4.960424813509395 -0.1001373289051624 0.09369300121074041)
(5.001588735619095 0.1370274110618382 -0.06481699622364966)
(5.055056887790751 0.09071018986855987 -0.004084927462662158)
(4.561197372695139 0.06177172425712007 0.08179683486622485)
(5.042375938167698 0.1012226388121891 0.1726288660534843)
(5.063303863253934 0.1371962186587877 0.1919099696137933)
(4.99921272057926 0.04674087267259772 -0.03929247934290277)
(4.987606226243589 0.1305000631938334 0.1075303749391417)
(5.148019151382464 -0.01516341646149162 0.1123922996172953)
(1.742545119995318 -0.1721876084748387 0.5406612377911388)
(3.840229349158316 0.5348324143422674 0.3630194842463069)
(2.518171824714276 -0.1143582103115205 -0.04915570447672168)
(4.987583893813446 0.07452973545584307 -0.09967186552309808)
(3.174324331637643 -0.1617095411711882 -0.0237619117942321)
(4.996179890794474 0.002140653246451617 -0.01617002773798825)
(2.556186950470663 -0.3112995931217514 0.0331105365264117)
(2.062530663183264 -0.03700688569033234 -0.181880524034357)
(4.996602680255153 0.04540440793379037 -0.005214644773038619)
(4.329466049686032 0.03466905422077494 0.06270767459762332)
(2.686452265273625 0.1679012912430666 0.1485398313191157)
(4.985969715200832 0.002425191781226999 -0.01456839368258488)
(5.0588305106944 -0.02344830774306865 -0.09724169896479865)
(5.010335453135318 0.07941708174622271 -0.1666561526398197)
(4.80737422450544 0.06889201460366504 -0.0875327453766814)
(2.488985575485481 0.398579031012475 0.01829758288353875)
(3.234160320421838 0.1192969439503276 -0.149380651516326)
(1.163634042769164 0.1216970052486526 0.3453060826235941)
(1.359633025065233 0.1201794135611186 0.0699659105057359)
(2.509713624392297 -0.1137616152962372 0.412013723868042)
(5.053487363412462 -0.00264985151209478 -0.05110557335415079)
(3.809538723431064 -0.1841579475771504 0.04481113634465262)
(5.094049674352187 -0.003392808199169434 -0.09726739895591244)
(4.970589873337365 0.05938519405212447 0.004639100949147758)
(5.001328308610647 0.1084739894778868 -0.09143674560329684)
(3.025765222496505 0.119856681200313 0.7267179363262769)
(5.112342443224009 -0.01318574207357297 0.3882807595268872)
(4.998641774551305 0.007025090067952814 0.009264028259530162)
(5.013816843347289 0.001890039039811293 0.07102283803104054)
(3.537338291226482 0.1796081913337502 -0.4168815706585394)
(4.971214981797718 0.08036829497958732 -0.05924728992432913)
(4.668782387895694 0.4065862490508523 -0.09946406917628133)
(4.881671898470861 -0.0967258455179545 0.09053894820869587)
(4.229432723642582 0.02908938694658184 -0.6014180346815475)
(4.421541508956818 -0.06360550133843888 -0.1859816338688053)
(4.680123445664248 0.07912400958854332 -0.1089984949551612)
(4.911380045587205 0.00869595896966315 0.3638205965062032)
(5.042780658769753 0.02952250062347941 0.04480314899926382)
(3.073037251651 -0.1157884081476365 -0.04725006173234535)
(4.810382450983857 -0.286337560005035 0.07773092524442397)
(5.032543996551786 0.06129106583554944 0.02862775440067795)
(4.918701886864039 0.23976910345489 -0.2124959440729124)
(5.036000421856482 0.1050161076660044 -0.1032086051048635)
(4.997808610992423 0.004093904632055393 0.00346693518071693)
(4.97768868162089 -0.01070815856056814 0.008875303363245463)
(5.007301025043637 0.05796536415839299 -0.06514610676588392)
(5.053003623713431 0.118319926951597 -0.1841909547769867)
(3.204378042503225 0.1206857637721684 -0.1010175429372557)
(4.037774240266812 0.03738288238896485 -0.06745285688699419)
(4.975340404816979 -0.04088128111251103 0.03936930355312857)
(4.987634866206161 0.02162001073563391 0.1622979364080471)
(4.983491083636323 -0.01204176606460895 0.03045019180482344)
(5.115458875528894 -0.0352842259229346 0.06519706879595211)
(4.964944236549818 0.002709041178192846 0.04694594000192134)
(4.000395044307609 0.1997141832326245 0.02710747394314705)
(5.125698208098395 -0.03319189047227288 0.01134350828252194)
(4.984986402739324 0.07977285720315481 0.006441003918798239)
(4.928370428952948 -0.003934961966666743 -0.02022382958397296)
(4.587262521395771 0.1910451668267898 0.4093441704960815)
(4.97177220520091 -0.003961168145049968 0.004975960920961434)
(5.000441824999005 0.08021328389776486 -0.1019215076980669)
(5.001591219247251 0.010081250950249 -0.01805324085499355)
(2.339076222793479 -0.2302467169667624 0.02209173791369082)
(4.348154005228499 0.293358177557524 -0.06256836508182521)
(4.977790885874777 0.3276351895381097 0.4261025026879472)
(5.037979734285797 0.07284899271768813 0.1544555082534107)
(4.969601699693548 0.08202327106374466 0.0243444131932981)
(3.220286719174888 -0.06442130398898201 0.001071206863453841)
(5.152272134772383 0.474396709323543 0.1267786617345935)
(5.0376835733682 0.08375530385313011 0.1004104222953074)
(4.456377421521736 0.1594958464339032 0.07886820710977113)
(4.964947525837156 0.00417445267263262 -0.008528422313880041)
(3.945198586317256 0.06724705119752368 0.4855217500441569)
(5.09806374671567 -0.02146138530455046 0.1088999590660365)
(4.991349402102494 0.01157968725554311 0.002187627250080299)
(5.168361856710565 0.01931894823402378 -0.1220973929569645)
(4.420591429628119 -0.04375569847891993 -0.3662773832834536)
(5.019574871523572 0.05371439674383753 0.05596861834262124)
(4.393035600471548 0.1098405591402519 0.08094487475362144)
(5.073087933155028 0.006818249833840617 0.03812365723739923)
(5.008485635195862 0.06631014086042276 -0.04226448847277632)
(5.04940412938554 -0.1060038742125478 0.1124495082249216)
(5.084217244080836 0.0433570910791846 -0.020620558802806)
(4.998962464643149 0.002755692825510128 0.002805873380443512)
(3.392458165227346 -0.03752288969592785 -1.092591697987157)
(4.883502841164192 0.3121543450153589 0.08806051991327311)
(5.027964428558791 0.0452059533150994 0.02890642449066301)
(3.585278280808991 -0.1344739222153981 0.007850860678296122)
(5.031145509481798 0.05479991025931268 0.07014512447582942)
(5.032562817046963 0.05846602534531795 0.005461164757407081)
(4.730065504532042 0.5990572335838975 0.04077841537682352)
(4.611393442636624 0.4007626481440283 -0.358846022375054)
(4.034787215083271 -0.07408400536744034 0.3118148439632912)
(5.109018448338319 0.02842932063563046 0.004803932184453167)
(3.213154155628833 -0.2498780249610477 0.288817317806945)
(4.818230060315178 -0.1228375195436682 -0.01351486335430769)
(5.086739152248195 0.1307823711061996 -0.09811764077156318)
(2.53703161180389 0.01353905297998234 -0.06397375169150292)
(5.006284324876956 0.07055993311511043 0.02695427932214961)
(5.077584937997985 0.04578556678830671 0.1234711882356084)
(4.290848094683708 -0.1480763655863834 0.07330228438683369)
(4.942761931933097 0.180419351618674 0.02240132458243878)
(5.03764746758617 0.1052627786741203 0.02059364878156423)
(5.045372819435079 0.07587830263250166 0.07547029806849595)
(4.73984542923414 0.3359121305684878 -0.08878094558663509)
(5.004328309820577 0.1110073834045094 -0.1778071199712878)
(4.396345504772165 -0.04706283338672436 -0.1704065407948442)
(5.182805960386018 0.4213541700241124 -0.6112729972305855)
(5.040590469590875 0.08134982322453728 0.08632247024871463)
(5.015907180062446 -0.02568025987717205 -0.006369482666104653)
(4.606117725824731 0.4074066598128931 -0.01906959505556869)
(4.976008052606054 0.1046673703544437 0.3128406065245001)
(1.2930844341295 -0.2725382348113732 0.1649853284678522)
(5.086514740034143 0.04251469250132237 -0.1286416766205211)
(2.752533354678433 -0.1354282863784056 -0.146581976867058)
(5.056269594312584 0.2675878813064381 0.01766770680676484)
(4.902675178155267 -0.02233585863942428 0.108209135437061)
(3.359107735889832 -0.3184768568744096 -0.0776405694083537)
(2.985010119824302 0.01923860702206626 0.1528072422847728)
(2.958107635308315 0.3030124294847491 0.14745046716577)
(4.582925879522268 -0.137091684894526 0.08220333551891466)
(4.984608120393068 0.007926401947012487 0.02003551701134946)
(5.024495705806483 0.01367536546322849 -0.04426765973446085)
(5.003026757627222 0.07942848051136019 0.07232047999370651)
(5.023219670727235 0.05357245136702052 0.03100328879324033)
(5.02799868490288 0.01036801427894852 0.1232457275564101)
(4.9371255313736 0.0781054947181737 0.007144117861305231)
(4.996683469496713 0.02030162452429698 0.007891578560279177)
(4.908070843581315 0.1392825289951879 -0.03647648335163487)
(3.385316661377947 0.1909284657503583 -0.03569648996377579)
(5.003071045313624 -0.02934687797200907 -0.04463802431091426)
(4.945968682181387 -0.075134313635111 -0.01863941857613681)
(4.894505289334942 -0.2075816063268377 -0.2393398417216059)
(4.996286964689521 0.1161428686560419 0.1786757965515891)
(4.389018226608816 0.2371383755412409 0.5736498214293404)
(5.086257666082584 0.1236986556834365 -0.1752343266546801)
(4.802397119435442 -0.03040165891214114 -0.01327352228105186)
(5.043466680982128 0.05291169845939524 0.02856533085966428)
(5.055015527906194 0.1441217850035944 0.07692922824246903)
(5.042347849224232 0.04971445373463116 0.05285483212089427)
(5.015873958691179 0.08977631604979 -0.03202402741935716)
(5.015304743195954 0.0509719832690135 0.0136962308159234)
(4.978771186722822 0.001610239578976941 0.02189851937414225)
(4.888913771829459 0.285713058605563 -0.0989318007356299)
(4.978039676695998 0.001520713276411526 0.008068955017115534)
(4.979708206403608 0.1022232274264451 -0.06831882557066601)
(5.006123133727247 0.00165799473773308 0.001204815957041871)
(5.047919502440265 0.1587709879159228 0.1262761485126688)
(4.084755364625098 0.1843001808480737 -0.03601659134781943)
(4.922947318673482 0.02276363369932205 0.3644388123814567)
(5.014014702218066 -0.0001778171535061782 0.01213265096793762)
(5.084030810643539 0.02551487152079631 -0.00870061365334571)
(1.853629993914229 1.052539774690795 2.854327779062792)
(5.043244466064132 -0.03566391822618577 0.11235352999056)
(4.949813289001502 -0.02204034114056107 0.009611786463843138)
(5.022048962885004 0.1008927351498469 0.06564690561173583)
(4.959824849262104 0.02779509524095055 -0.002816208110507583)
(4.949904615763037 -0.04130435094156731 0.03395579092339386)
(1.732396576154337 0.3589375803900353 -0.0676933391785115)
(4.976707004985055 0.13893123750107 -0.001002159397442271)
(4.687328946954404 -0.01167763991152014 0.03820202741603526)
(4.936770179349423 0.00944261922731447 0.01452827692004784)
(4.977789622762942 0.002706820072071908 0.01138811023423846)
(2.54647203843239 0.1801277795109621 0.339231710156967)
(2.470792448631702 -0.2413003844007756 0.1330369731815236)
(4.964617062320148 0.01554988252976611 -0.005613735599735298)
(2.00761365429363 -0.03411547046214779 0.1403293772196876)
(4.998230153742148 0.01324128788408685 0.03803252057729958)
(5.079817004845385 0.005255609697543247 0.1224708412718855)
(4.961631609201139 0.244295515896477 0.1233193010923194)
(5.00034093445198 0.0003551451412472782 -3.23779562997124e-05)
(2.229936513921944 0.0576264269962794 -0.05868043751946745)
(4.962957479983747 0.2073352310335043 0.1132595610606645)
(2.197007123585853 -0.04857754552679527 -0.1438718265321216)
(5.070781575572495 -0.07478355839768344 0.07202216146988939)
(4.942875534935896 -0.04940671901148116 -0.1273887304430682)
(4.54776196447727 0.04288740317883677 -0.05734345183017274)
(4.779974390742464 0.09472937285074573 0.17724439083139)
(2.14477899698513 -0.3300142408876516 0.06486299743370627)
(4.387790641226509 -0.0035206102648839 -0.1421715111857397)
(4.806343534510156 -0.1481174133973703 -0.05109231403414255)
(4.761028685734823 0.03230251611057233 0.1206515833692073)
(5.013055460788128 0.2049097167752087 0.1917965019880901)
(4.893951669878504 0.03997551900045094 0.08071827179255722)
(4.982181177199342 -0.02377050620436121 0.05427632055611018)
(3.950317414355934 -0.01258134393404768 0.1277255226576526)
(5.008234548217917 0.333336807706557 0.06218503762430039)
(4.997871560666656 0.002918626840261033 0.008630709516313569)
(4.90045489037355 -0.06976655787560768 0.0137572635136079)
(5.05483463715708 -0.01592259945902149 -0.02443591601838439)
(4.431293021165134 -0.03755853942881335 -0.1933294119462508)
(5.015037698027062 0.005247634210910103 -0.03226725439973334)
(5.062662662743362 0.1000040488449823 0.04821213757695698)
(2.111618209858193 -0.07966964970868985 0.1450978175197278)
(4.045068433314492 0.3857997542622135 -0.6743067439886189)
(5.018671266494715 -0.00473908530978974 -0.01631401213858895)
(4.909912336035336 -0.1614906695471504 0.09305876044973926)
(5.007129475815876 0.02262166332454437 -0.05556327909468899)
(5.046479080734344 -0.0102864235312098 -0.1060154835711198)
(4.572097326592973 0.7620371317879663 0.495935112197662)
(3.716989869413584 0.6749440310717377 0.1031896138772463)
(4.580311888471307 -0.1350442143505333 0.2338600789385956)
(4.857064581512622 -0.1709437157369262 -0.2874626634082179)
(5.144489441790147 -0.03998960657493847 -0.2554093177802039)
(4.994727460992988 0.07431902724372402 0.02388914277069932)
(2.551812742839137 -0.5327444054210614 1.460160664103703)
(2.262283336823368 -0.2096176899737485 -0.01277792890504345)
(4.586346246195964 -0.1617217932097793 0.04634474260855118)
(4.991872164203402 0.07221085905432136 0.05366414333487491)
(5.096070005920606 0.4162991211843699 -0.03408899164139681)
(5.004928255718451 -0.009099826651210251 -0.009850382684599255)
(3.937556615523835 0.01128369106046302 -0.261560526400312)
(5.113934790470696 -0.1790667425892996 0.05100989399830814)
(4.90126625144474 -0.05463258852659887 0.04552270859186784)
(5.06108014086849 0.0265187157916584 0.03498906131476764)
(4.850142199954931 0.178963246329933 -0.09081977249706231)
(4.744553024455391 -0.119417973463612 -0.02902392356071462)