/*--------------------------------*- C++ -*----------------------------------*\
| =========                 |                                                 |
| \\      /  F ield         | OpenFOAM: The Open Source CFD Toolbox           |
|  \\    /   O peration     | Version:  v1906                                 |
|   \\  /    A nd           | Web:      www.OpenFOAM.com                      |
|    \\/     M anipulation  |                                                 |
\*---------------------------------------------------------------------------*/
FoamFile
{
    version     2.0;
    format      ascii;
    class       volScalarField;
    location    "0.5";
    object      p;
}
// * * * * * * * * * * * * * * * * * * * * * * * * * * * * * * * * * * * * * //

dimensions      [0 2 -2 0 0 0 0];


internalField   nonuniform List<scalar> 
19631
(
-0.02585194749371286
-0.09904862802118303
-0.4943089070535137
-0.713511838501155
-0.03541718033759252
-0.4000722558620909
-0.1210269770219355
-0.2307858629119824
-0.07750380739787874
-0.1735366984172892
-0.1125225237197041
-0.1636179107221307
-2.000624579660712
-0.1720853239166909
-0.115268529371987
-0.01235593643354242
-0.4538894075489042
-0.1070084157991628
-0.01943495513337044
-0.07809666998301397
-0.07648670392940365
-0.1402163016866271
-0.09835136824822921
-0.9836250641127062
-0.1550977010330478
-0.12751189815985
-0.1906385248697513
-0.1693198393647074
-0.6773745236647424
-0.1617317910191474
-0.09303715178140866
-0.5219387385587055
-0.07955969290119798
-0.1688795762342591
-0.5339528221061272
-0.139529523036752
-0.2512405430943718
-0.1127967584223005
-0.1085921510245841
-0.2944756544349669
-0.6411402584100157
-0.800591398822995
-0.3735039779248207
-0.2537429759041595
-0.3497787881580375
-0.6811535288263217
-0.5773374131375449
-0.3293319469205871
-0.2761868865252309
-0.04807202825506113
-0.05290794977480943
-0.1568624178462898
-0.1738646306687551
-0.174701882432666
-0.08542228519480673
-0.5362109423775765
-0.3262927645376248
-0.1228653672123477
-0.1413166510648902
-0.7192209360415008
-1.133976357934911
-0.5413912217659763
-1.118646710997937
-0.437667179520884
-1.656750857928768
0.09078182483920794
-0.2262431574467328
-0.04435434371365837
-0.6134175613962608
-0.004198784811542376
-0.5414596227405998
-0.5756980480453295
-0.314465474828529
-0.5854984743110139
-0.1927146486384435
-0.3478013541848585
-0.1323010665829226
-0.6264318420627887
-1.265152748765856
-0.165240902436573
-1.405656864810572
-0.302663305907447
-0.09441239919130488
0.4180375170950383
-0.4292880260247071
-0.403756617641573
-0.4642953603633341
-0.2678220147266042
-0.3747332735766983
-0.5826147558494019
-0.6098466379252035
-0.1225522147786047
-0.5956524869082911
-0.5340908521940596
-0.4098902243977544
-0.6490865859792005
-0.08654156480373383
-0.2053117559560401
-0.3652809894101915
-0.2492036875323847
-0.1221647349774477
-1.417376902273981
-0.1253355728646473
-2.059662577127421
-0.6915071706899334
-0.5791013008505322
-0.1991209693832248
-0.5820993796475549
-0.1679531716185148
-0.02577924374928284
-0.2399244170298654
-0.6829233577707032
-0.132111034624413
-0.3187805544293492
0.4129169391205083
-0.6386816657103972
-0.5949909754399577
-0.2076480302897788
-0.9703914390362975
-0.04347425429520076
0.06648406310071266
-0.1484213691578017
-0.1588948348142969
-0.1798504380202629
-0.2374408838156497
-0.151422257709363
-0.08725010339058718
-0.1536194381818808
-0.1138341060869247
-0.1431695266441011
0.06413934491388834
-0.6637850693870411
0.06608223554737133
-0.6358493713126104
-0.1930954800285674
-0.1767448861597725
-0.2243411868585342
-0.1102831961671794
-0.2331901359697714
-0.2237924308322201
-0.09583949157178956
-0.1637860492056336
0.1131773156745521
-0.5323071370659197
-0.1820463090663099
-0.265277956419327
-0.1884432135284202
-0.1425525186256882
-1.353375537353616
-0.7918468917200093
-0.06394892236100781
-0.163250350274675
-0.1410267915852095
-0.1764417065812808
-0.1025967304966685
-0.2113089507699813
-0.8305547598573065
-0.2577467924163345
-0.3410398972381683
-0.1724048476191484
-0.03334211947902693
-0.1472696718004464
-1.412238183539828
-0.1165742974151446
-0.1315038341788231
-0.1454142131932276
-0.1247002638668853
-0.1119256636962951
-0.1184063030429621
-0.7242298300103583
-0.2071184501497684
-0.6233933763171975
-0.2107450000969913
-0.06091859745091154
-0.1478839263140219
-0.3352033348549014
-0.1109956863448617
-0.9901498318792881
-0.1803091023202534
0.001029462394784946
-0.4778303422268843
-0.08026953085287351
-0.1086333117266013
-0.09492992935671042
-1.56177536790589
-0.9131990175284757
-0.3824210963644364
-0.01236466476267614
-0.1308417779089912
-0.1816187764019888
-1.131620914529069
-0.3011812050599492
-0.1311050925952434
-0.02993218442374533
-1.009356870350804
-0.6531577186252536
-0.1335130272850885
-0.4953879607982951
-0.6382010169849719
-0.05268272858812718
-0.1847490476895068
0.06904461284391289
-0.6192128177189457
-0.7367918715932228
-0.1176952443974283
-0.09306993960851705
-0.02517621988044831
-1.010123411458236
-0.1063407134016484
-0.2575611123982198
-0.2235910403421595
-0.2011240148461255
-0.2987660489105805
-0.1353330029808537
-0.2888931931812563
-0.8311241965144134
-0.5664203676503755
-0.6894029394370915
-0.1173641192595731
-0.09327252179934213
-0.07604576621943024
-0.4432632501343431
-0.1352161219024781
0.7704095979473973
-0.3186015552859395
-1.477354134314727
-0.3393587588322746
-0.251723664173167
-0.5786511235027698
-0.512553622711561
-0.5144165752812586
-0.5949244732814937
-0.8274175435877479
-1.217457715089083
0.004730273459611605
-0.1656201809546156
-0.264262658430224
-0.4512863828184761
-0.1317555506635571
-0.4141155625949557
-0.1167961190014504
-0.1701039205985354
-0.02808012586547281
-0.03441744953827381
0.3487491003715213
-0.8882738716583958
-0.1036854710997006
-0.4855063277515912
-0.9182628564604518
-1.029534775680606
-0.2797404929103866
-0.1465586046129048
-1.060348387562559
-0.6780129794949683
-0.8191726934762632
-0.7646799978369726
-0.1836859909170868
-0.4475788037645277
-0.03228232064125641
0.01814811647569949
-0.04969668482488617
-0.7661703918927724
-0.4880888570059633
-0.6093098101966192
-0.1142172051482608
-0.6521706638185071
0.1869782885494169
-1.209355179156322
-1.799767205185152
-0.4896386923234083
-0.3937800776983785
-0.1366293203480277
-0.674765790965229
-0.07982979179926056
0.01824880560806114
-0.3302940191383532
-0.7886626178293052
-1.280084763524107
-0.4421722225584118
0.1845126274536908
-0.8909485262584164
-0.5119281419282694
-0.2907150163726739
-0.264554035669389
-0.8630593980722961
-0.4086986643461254
-0.04803334661981229
-0.4300947618895313
-0.3289562855081847
-0.3001233424308034
-0.4031725785051023
-0.4382705365290923
0.08243603693302871
-0.1521158859081439
-0.01826957400177682
-0.5745512727620923
-0.6236333883361715
-0.3431100243060982
-0.479142653723175
-0.6593391807071876
-0.8493387996452749
0.5680431137478908
-0.1065017529341172
-0.6821164267329848
-1.044911488940038
-0.2208427736624816
-2.139558892671742
-0.04092551592822895
-0.08615375264484806
-0.1716284780343434
-0.03464680701395523
-0.3879528387530896
-1.119218400546209
-0.2647041878658704
-0.1658565837621864
-0.01559412785547874
-0.08387421727130324
-0.08374760227311756
-0.04050575391083978
-0.06286901586108178
-0.629369879139381
-1.355030780718505
-0.6330072297366449
-0.1236712593060335
0.487641738454742
-0.3225253107945849
-0.05444906654973491
-0.5801790565553845
-0.6226053568364724
-0.4211608833017341
0.1486117560439945
-0.1747838129450748
-0.02016477041366798
0.09550905850191543
-0.4618610932295769
-0.08962324477296686
-0.2331119595396484
-0.7319002031823816
-0.1083226083658058
-0.2609767548839811
-0.1573615397873711
-0.4953156791092395
-0.2909247322437282
-0.8465922578812826
1.169940583280599
1.17504647263978
-0.1061184101838587
-0.03268906345532716
-0.2506359509493676
-0.303675069036987
-0.4083814873330051
-0.5778036805286063
-0.16286785486502
-0.5929589972087814
-0.3388818821823194
-0.7255629675125194
-0.1627070017084697
-0.418148603617381
-0.4347909690280175
-0.3976583670353693
-0.3535231744123932
-0.9499276105009057
0.2489779939396518
0.02128708603254061
0.6076731491262781
-0.2594092093497098
-1.443348009727755
-0.1755285793236941
-0.2912317690949288
0.06740715359171234
-0.06304581609610245
-0.05870635484647559
-0.3317819870845718
0.03453066791759056
-0.1985023683048107
-0.04157722337981783
-0.09221998465661851
-0.1070693519568252
-0.3198556995849532
-0.07122398622948542
-0.4583545419451096
-0.116446775730681
-0.09585976482803747
-0.0484562196964481
-0.7450126582311724
-0.6314369663888599
-0.1125896787031698
-0.02951167333519166
-0.06174465116298564
-0.5681195659764275
-0.6750779779203232
0.00993722278260714
-0.6395454437382405
-1.322242463912314
-0.2792625696773616
0.001751095617583511
-0.01095590416624261
-0.6318841917478425
-0.2969571091495618
-0.2878937375323551
-0.1547986997162785
-0.6219325110573696
-0.005544017720450965
-1.329082784656621
-0.6614564231817696
-1.846326464480097
-0.7825052776973995
-0.3668950719988615
-1.425446774051092
-1.101614809545335
-0.7451100065894096
-0.216255531356972
0.1968514640924998
-0.4350965328442382
-0.3988329613646294
-0.3588894281615762
-0.7454468848530654
-0.2894460483716884
0.3157815339555117
-0.690838628363212
0.01469624150798745
-0.1401040658946651
0.4509564539148199
-2.350716207593807
0.2546555900365871
-0.2269507770360888
-0.642752033618217
-0.4035205072201871
-0.09826005157491353
-0.218703907910373
-0.07237522690223959
-2.628455204907235
-0.7112825555167216
-0.1788698297213339
-0.1204444290717364
0.7022860573394233
-0.06225541010848291
-2.115795925051599
0.08646673378047866
-0.9958097147816825
-0.06647793620389326
-0.5425282958708377
-0.2398413104474411
-0.09292864119354634
-0.03688845366865416
-0.7748207756258456
-0.04176325795272583
-1.591536405166801
-2.23798552095364
-0.2411627741098197
-0.3395153505641732
-0.4257662367217693
-0.6268423871505645
-0.5847552522216058
-0.03203726245386115
-0.03346702476356583
-0.1047846092808308
-0.5115641059783184
-0.3738967838069819
-0.1521858230676695
-0.09923710458181891
-0.134026015967988
-0.4148774057380099
-0.09209726575863564
-0.06786892400816712
-0.3240344084147973
-0.5849156780842987
-1.072436249058417
-0.01229538540749019
0.02531312112420296
-0.9818201189716216
-0.6373992386560063
-0.09124948341929691
-0.0464814597710926
-0.5871520622274251
-0.4416309167081059
-0.1221982752473461
-0.3669783098293823
-0.5181774914836488
-0.4132113809001427
-0.7581205205192004
-0.4519982885896704
-0.07343080572148342
-0.6230398824925989
-0.8135610523638713
-0.4732323097810125
-0.4806500815021888
-0.2283077000211507
-0.1278620639471458
-0.1280042308915949
0.16506495718866
-0.8578112084097337
-0.02818397790547384
-0.02016304021233322
-0.6605970195754416
-0.01708960649994441
-0.3440049176723399
-0.6752078602331408
-0.6920124733987075
-0.516615313664495
-0.3066025595046721
-0.0886200325633001
-0.2414597765092444
-0.03501746507758886
-0.02035141848590407
-0.1064860164320446
0.6948945254655966
-0.02615350479818597
-0.06074690526411367
-0.08066188654881956
-0.7663963208809083
-0.1956070397614408
-0.5092190504202728
-0.1217495299211468
-0.07847663672149753
-0.07502151974673354
-0.2919271519343884
-0.05749474985275542
-0.6500689703716303
-0.7565993728373666
-0.927716792461438
-0.8191672827278839
-0.3590452417279863
-0.280126070968385
0.005432007170814516
-0.03908812642364318
0.6214706021806955
-0.8801886232093253
-0.478245435125251
-0.07495189968257115
-0.06828134244813266
-0.08562065948109905
-0.07755957013692517
-0.09044177150666188
-0.1074065233097602
-0.06417472773058097
-0.3654910873180839
-0.06449296960953128
-0.6478686126565594
-0.3831809165456173
-0.8347439285777658
-0.3859058374809001
-0.1944346115613338
-0.3004007325906966
-0.2264447415578618
-0.09712842097928799
-0.06421020532086477
-0.2875258832430045
-0.1894282456612828
-0.1938239309737966
-0.2318766404474083
-0.2998849452819271
-0.6482003581579069
-0.5533030981228761
-0.4942940905166684
-0.07779694480805867
-0.9898531744209667
0.8821315063178859
-0.2518599521908443
-0.6883261735401022
-0.1522363645783207
-0.2792531433979848
-1.078970546053629
-0.4829276746681215
-0.04527544100483726
-0.2676118503738849
-0.5756703746192678
-1.309639622966223
-0.3504312005831612
-0.2414644292882433
-0.6736412288476302
-0.576315464660807
-0.1661108370289046
-0.04980732208688553
-0.694113134056516
0.09918465905518568
-0.04481445270198332
-0.02928317209586977
-0.6478967189398136
-0.8151422673442063
0.05244118674207836
-1.289250934000441
0.02869262357924893
-1.534614668268403
-0.5564834731810685
-0.4825565879559865
-0.4891607528485213
0.05068381361155088
-0.317078824619951
-0.3744545181971866
-0.2457211781446581
-0.2158976068306684
-0.04354428497909044
-0.6343557009743355
-0.6929062716439709
-0.1802928345805302
-0.3073441104126126
-0.7822239779796747
-0.3427313033338131
-0.666261565327906
-0.4171796161887086
-0.3115150953175234
-1.707261086313907
-0.2275872058861347
-0.1146963751526414
-0.3519389148393866
-0.1762094458010181
-0.3272386591275832
-0.09373333351462225
0.03265245834859584
-1.043889402572104
-0.4254383123521058
-0.5324312560662292
-0.371418681029603
-1.004012708486488
-0.3715437783869797
-0.3023650916272018
-0.2694292542467652
-0.7201129236866501
-0.6629526591600204
-2.049747957999727
-0.4587468111956247
-0.4052286366028695
-0.179816902500353
-1.965821905980887
-0.4567375447984907
-1.152792472128591
-0.1419324130346789
-0.009122873713455127
-0.1925770810045838
-0.4774021076982733
-1.434521200411598
-0.06855674177612757
-1.496710522231763
-0.3612610814655159
-0.6436672138808756
-1.253968764245634
-0.6435569260522224
-0.3144012169773507
-0.3660633511507159
-0.2461613279265147
-0.8750892240990549
-0.7911706216684993
-1.898170826672783
-0.8516057168719462
-0.3415708047258116
-0.6194128919490229
-0.6145712924454266
-0.5863453722790477
-0.6044298488285206
-0.5528721578864
-0.6394197841931734
-0.8525035248765264
-0.1879629736519008
-1.040016537838838
-0.4007662077709034
-0.4963277642354826
-0.4645927101597135
-0.4513569732788541
-0.336067885371046
-0.2511645883952902
-0.05396750910384597
-0.9561064947737083
-0.5507366382405752
-0.4713449679368734
-0.4599266979973495
-0.3188214858486517
-0.6810614235126408
-0.1777931189362957
-0.7178066829341844
-0.1351367827129043
-1.453138503541538
0.06446756838176196
0.19743489275573
-0.3001770154549775
-0.559825530980621
-0.3607477684219217
-0.2128963274802611
-0.7149280762065781
-0.4566825762704587
-1.898960778888406
-0.9090491268262602
-1.371940993378712
-0.4271308321939442
-1.266547455172588
-0.8273799433787202
-0.1882825796449932
-0.8095726926066512
-0.6404235036221311
-0.2578759439576604
-0.5328300529478192
-0.6021898836571308
-0.3862007027778522
-0.3817346402520508
-0.7356220881319976
-0.5507802474743007
-0.5704282051905494
-0.4723782357081405
-0.5127808222110345
-0.4659706404490172
-0.1758311501764002
-0.4133819504823442
-0.2322632795891243
-1.240333845952867
-0.6009623641269933
-0.9711514945361819
-0.2212497737230074
-0.6586033180642678
-0.4113047466648542
-0.3097670291927272
-1.076472076177258
0.3822150882335421
-0.7836708911591567
-0.4272921591671368
0.4074888399171346
-0.6000640725110248
-0.7208678136241417
-0.8107797553265399
-0.2207317668409284
-0.8730123002318346
-1.139906318920271
-0.3395612053870044
-0.8750436633722374
-0.7254764468322644
-1.070937383866179
-0.9365776607442383
-0.6386543699134485
-1.378236834152403
-0.6708309986401954
-0.1309626648575624
-0.121409735114101
0.2840475194014554
-0.5352167503946383
-0.9700673675192634
-0.4223532961416241
-0.4029910147149052
-0.6682965326866789
-0.3022093179804213
-0.08316032206220102
-0.7963599792656353
-0.06470629130102171
-0.4961420660288402
-1.29427612712104
-0.3200601856324259
-0.2637432307664044
-0.7424360454206914
-0.2594161624574195
-0.8227799132782526
-0.09442242075822378
-0.7310077879362022
-0.1155081123705642
-0.8273072828889479
-1.086500137774441
0.009174276237765474
-0.5680155138782764
-0.6233323576169119
-0.5484488930285711
-0.3283200049395794
-0.6903878572619768
-0.4150165018608409
-0.597644748812157
-2.452423847901867
-1.043195371992021
-0.3742537497075992
-0.4442669504452654
-0.3479606347748957
-0.7808173808538954
-0.7794615187435591
-0.7446587037158189
-0.2850958472333083
0.1804942903918512
-0.06699454825802606
-0.08310762995721586
-0.7831004700109407
-0.1450200016346356
-0.1436042690499289
-1.455757274720748
-0.118995212265244
-0.1850378763249258
-0.08276769573875908
-0.8985400766287118
-0.4734514189685606
-1.686004532622323
-2.672196880855374
-0.97201635365982
-0.1257546886486827
-0.8329722834000499
-1.387595518819947
-0.1847293737997739
-0.6352872247659933
-0.2299453935877455
-0.3814113467662268
-0.1165612849440486
-0.3492467837736399
-0.08410977032899369
-0.3838458928456508
-0.969691294286238
-0.5408103711806662
-0.1429421429054299
-0.5422195993330409
-0.4849491274924611
-1.081915482293258
-1.022080236867565
-1.531042836556419
-0.77181061791301
-0.6369567037795106
-0.7079579221208944
-0.7776957939369195
-0.683065953966968
-1.417475269442846
-0.08979270804470166
-0.5362519165845374
-0.07615776441589488
-0.2017445216676436
-0.3852026892288395
-0.4251986575701726
-2.015491769330451
-0.5792475641703908
-0.5695087621148432
-0.3698194684367417
-0.5124813332806365
-1.014513525986369
-0.6956948524011449
-0.5671728282946767
-0.5688620650537656
-1.751459736481694
0.5270664854287431
-0.2498264330872574
-1.059070347252648
-0.9967283846876661
-2.596599853449036
-0.5760225059578876
0.02998262437505547
-1.085030452229508
-0.1452225316836445
-0.04114546113378812
-0.3026087493175263
-0.4712964534516741
-0.1086400342666293
-0.03370709651941722
-0.2662517339171194
-0.6654658425874057
-0.610687245525886
-0.2737667354435908
-0.4684985027065846
0.1148336857248285
-0.766754344951876
-0.6924571559989947
-0.1084330363175486
-0.1026345872146727
-0.2658604889880543
-0.6012308648821543
-0.2759961049016801
-0.7900869963513429
-0.527194486429345
-0.0481546151731734
-0.2609224235254454
-0.3884128795108684
-0.3126331477778156
-0.2494356570065319
-0.7495361277948787
-0.3192636384993356
-0.2987473775539878
-0.3533169138161375
-0.7898665302435551
-0.513516903801336
-0.4944004230642593
0.05358575668178425
-0.8150524557573857
-0.9415014902188729
-0.8432579528191135
-0.2290086415348401
-0.9822955889018707
-0.4135661196655717
-0.5340438503435445
-0.5904993406959554
-0.02994253295168457
-1.043209315003202
-0.6766218201302986
-0.4715936749923706
-0.5573065688766848
-0.8141503972911798
-0.1358544349437661
-0.4803364120755841
-0.06936040572941179
0.08091578820904913
-0.6143124604803445
-0.2467889396191354
-0.08762807279369463
-0.6425454846697921
-0.6603202406742348
-0.2303315678612967
-0.262626673881513
-0.211171849408635
-0.7258575506615478
-0.5272193018458601
-1.3089405567435
-0.3770693189399644
-0.9109584796095737
-0.6310964735982026
-1.555607221294118
-0.3118441977436561
-0.4796817227799374
-0.1549132509035975
0.06492335813700024
-0.5902536053670432
-0.3957144271293543
0.05203573269198297
-0.5771169576216223
-0.5391857962308847
-0.3263067881996014
-0.382248666094926
-0.3939853378332969
-0.6466937247551724
-0.8804368165907845
-0.9848443760958193
-0.8794803487364947
-0.4490923640871008
-0.2893280662581329
-0.4622832384793055
-0.3881900529596745
-0.42323035924949
-0.1651534795220446
-0.5290159795432371
-1.547619177923743
-0.624169274286323
-0.2332499250793351
-0.3828335067484845
-0.6447979925173576
-1.466058548270944
-0.2718548678016046
-0.903214562639444
-0.9724309386544437
-0.3128070433175063
-1.567455038717156
-0.8635830433512039
-0.5348803126986875
0.5262160765676641
-0.6804165729281746
-1.426360401759038
-0.8251237350012561
1.762627652042142
-0.1363549818419541
-0.73232675301674
-0.6294313960858985
-0.4367709458966191
-0.4684182108641515
-0.4612171629784343
-0.5503715369205191
-1.353057082176003
-0.5052283137742105
-0.07574493516682115
-0.09105081249601672
-0.1226422229893759
-0.08536180023187674
-0.3895342423288528
-0.8068808986439009
-1.744816559301174
-2.825304617663194
-0.3973933111073845
-0.1594412157380251
-0.2794763164542373
-0.52936993893767
-0.1226560351982113
-0.5456351035745081
-0.5881888348393273
-0.3779794675411412
-0.5585823763935855
-0.807227931716135
-1.317700522774554
-2.382794596987565
-0.9085203395115868
-0.5499721230333908
-0.6650416300853
-2.017191366786375
0.5978631627673301
-0.5831456190944392
-0.1276608730122664
0.07250687787139848
-0.04767738743722191
-0.3369429841280077
-0.07055803190798575
-0.7313201281513017
-0.1289427177136163
-0.1632247820242793
-1.219339345386712
-0.1848375157543652
-0.5332364531194426
-1.127542592187905
-0.2655903546601958
-0.6404455046390427
-0.1752778262048938
-0.5152763487523577
-0.4664235821298933
-0.6681336332663254
-0.777085001381236
-0.3945491197442033
-1.598187995117613
-0.4404692525604105
-3.877902862377205
-0.2191691091954555
-0.8231032816992717
-0.4723031495749522
-0.1944930735387517
-0.4555815950302237
-0.6647589729109166
-0.08866061046036465
-0.1493684847413487
-1.075792969875827
-0.5122413084158864
-0.1027878332302963
-0.07564011532283246
-0.09595934849348661
-0.1699304131709073
-0.5482597976038233
-0.2054032132959183
-0.1373230285845932
-0.213012963781701
-0.1105879245023504
-0.54435203089657
-0.3116936095678293
-0.104597781219781
0.03262935995018075
-0.6722265582432346
-0.1311487056531548
-0.6279487479006225
-1.65457561248799
-0.299710854283419
-0.3411387242120641
-0.0865064503320585
0.2383322075376526
-0.4166139553007865
-0.05860848955365081
-0.05654861032841161
-0.3037627165517764
-0.1704196205263737
-0.09944334747886077
-0.1540098485537018
-0.9580124351276009
-0.6800532273912437
-0.4776759735011686
-0.005194162502137591
-0.4066090634399679
-0.3245791377238715
-0.2464952995682619
-0.1526917281782849
-0.03066813913674422
-0.2848775352056566
-0.9095178154112651
-0.4704390335458136
-0.9330003442619381
-0.2949427500636483
-1.19249903544282
-0.3680540648393716
-0.121499888712527
-0.2852857716403293
-0.3342803525318591
-1.611249955177145
-0.8106785130446971
-0.4050090022138215
-0.256937311567153
-0.1851554238598914
-0.2904239909557035
-1.57957906563441
-1.796919402844773
-0.4727649710499026
-0.2614478040435552
-0.1181446304998026
-0.5867234381600295
-0.4989713128270312
-0.7683255682090481
-0.5132079565851937
-1.895280298614708
-1.006068167027747
-0.2174605799898656
0.4038646033705681
-0.4057806922623287
-0.2100933823991458
-0.7618636592539885
-0.2448896967220873
-1.803580014952775
-1.570641193318314
-0.2019698427393979
-0.5267184657704892
-0.4268825275698986
-0.5870208228982746
-0.4615339602911517
-0.7795062597468877
0.07085951200131957
0.3430772784983382
-0.08893920455933259
-0.1540761147149109
-0.1190583399719167
-0.195795621552267
-0.417243976007585
-0.0770830219715998
-0.8527047427661466
0.4076988012425704
-0.3313786167154771
0.1115451324115948
-0.7893007773915751
-0.4780391501659219
-0.4877525287879467
-1.050944975689177
-0.6597965295225779
-0.4147991417796472
-0.3837734056557619
-1.171960487673478
-1.058607555713176
-0.133221188056597
-0.1886151334333002
-0.2465222982091926
-1.529875864812242
-0.1243622152792575
-0.5818801997399395
-0.1411502559123829
-0.5091987123681194
-0.955415864401864
-0.1323051565238872
-0.7981712646281697
-0.4723971570505037
-0.5570134614354301
-0.01434993442228871
-0.2037220601040224
-0.05321854778034853
-1.709424435710477
-0.15186116172339
-0.08686600730513828
-2.285527465593212
-0.1681020663191041
-0.6464893069755595
-1.463315036969827
-0.3362179665957707
-1.139904513750479
-0.6359257675736059
-0.1921942521617045
-0.06995344328925024
-0.6909538885518605
-0.5933737032659874
-0.477673542079283
-0.1769350784301382
-0.06651087106548886
-1.125969184949261
-0.7040694714357341
-2.331370876812071
-0.7542521640804022
-1.557372797621333
-0.6406997865272409
-0.4549655602421185
-0.06090183253989215
-0.08722256779812142
-0.6871302286165564
-0.06516074466990818
-0.9353742053763762
-0.1108968112539407
-0.0655545918875258
-0.09915847538408513
-0.075405083170408
-1.858958408650995
-0.1029036116871285
-0.1888604380038161
-1.051305974547816
-0.09490396429259751
-1.233856660952471
0.4452958698434892
-1.073978393541904
-0.1027819173832539
-0.2170856508138071
-0.09231482560262456
-0.7793264110370115
-0.07211847910777987
-1.705913064945736
-0.1023886810299101
-0.3086430952485636
-0.1714383076430994
0.01363475369459765
-0.3739282449421128
-0.2572514058707103
-0.3158456961282083
-0.7137390778700407
-0.563434989079472
-0.1771589622986395
-0.209549339111525
-0.7110972801683685
-0.6488207936465595
-0.07550242584508354
-1.349310962655407
-1.115189394596244
-0.2921044443122435
0.1634642976007625
-0.3392639265014576
-2.24356233119425
-2.442040920562048
-1.877989532698189
-0.9566125717277586
-0.1750130635306585
-0.09088322217993822
0.4626654222430781
-0.1389698665270268
-0.415522680003457
-0.09835741968274569
-0.2451193143494864
-0.224044071554743
-0.08289754685989036
-1.715069571772003
-0.097128846697703
-0.1614598043717068
-1.21550978947862
-0.1163440641746711
-0.4866755757938309
-0.2125760163400703
-0.6179847848288307
-0.1192569542889362
-0.1956960469656932
-2.861630070077752
-0.6765435724291406
-0.2085803929411696
-0.5882086381307144
-1.767642321492783
-0.198683659795352
-1.996797155473072
-0.3887407641308547
-0.1494585515369108
0.05977218591941159
-0.07810579275472029
-0.3569869375154953
-0.2254053565939751
-0.07335913027441875
-0.4116143761216897
-0.3826454164560597
-0.6294309786472527
-0.08232592009852895
-1.595942509567857
-0.07366645108433779
-0.2586591473709964
0.3093531747586777
0.01137712523560097
-0.2255651231729376
-1.066457534837584
-0.147316196285234
-0.8349525471866464
-1.207398895080724
-4.354619718370519
-0.6465416819927674
-0.2892691053523463
-0.7128698028765554
-0.1521590338993605
-0.2838540669837182
-0.1340790234924133
-0.07977034614633129
-0.1195153306176177
-0.695627959534156
-0.3781764275046423
-0.2676172395377672
-0.4129100505331621
-1.030707594573784
-0.7565220431397913
-2.430268667271697
-0.245975197113039
-1.116866057965751
-0.3485488551427508
-0.4052159178126036
-0.301416605602109
0.00124321820897564
-0.6347676087601776
-0.7923164067372007
-0.3385824828822654
-1.546042857063614
-1.213582025125799
-0.2132619968861613
-0.5605558575260495
-0.4108801790876812
-0.120772313963174
-0.2897838807226195
-1.182642097336942
0.1426586723490988
-0.7028217456020157
-0.9899467112148203
-0.9265655770903148
-1.985687269126259
-0.9672771251078933
1.692435398479343
-0.4671393909784061
-0.8846698442377816
-0.1753116513746078
0.03108207605158796
-0.3527783993100452
-0.2408352985226658
-0.2388824152476356
-0.1525820715229013
-0.05516369458691003
-1.319242426407908
-0.3391269459605294
-0.5024685764955216
-0.03826809487846305
-0.6537614147215388
-0.7609396174599524
-0.2206082434891804
-0.4582200400558857
-1.4145418550199
0.1881282546817624
-1.455089425760148
-0.1406293195588751
-1.41791327863127
-0.5659978207147639
-0.02272215909335314
-0.1659524174926112
-0.2896607917555033
-0.9886462611036912
-0.1903836563738142
0.1436577980852131
-0.2726572743378108
-0.0283609867313975
-0.2647686566982632
-0.2593544238335821
-1.51462485433694
-0.2504483911872395
-2.554824383441844
-0.2771539541514181
-0.3316259910578704
-0.07030785474949174
-0.2355657635982029
0.006135381575773634
-0.6750204121322249
0.1043566847198562
-0.2097458456346261
-0.2133959755933867
-1.4691093163548
-1.733607187995572
-0.08048472836664781
-0.1116602773958469
-0.379581371923893
-0.2441923888869108
-0.6701236807057911
-2.026963943152406
0.4071167348543795
0.06469100895360458
0.02495709613986064
-0.2319503765684841
-0.1626222601509205
0.1941322993175516
-0.6255056686109981
-0.3048050827581445
-0.8642573999692524
-0.5708630887976133
-2.248857140426991
-0.1443252134074983
-0.8811678764028464
-0.5034609393908043
-2.221764244251951
-0.2382346000365074
-0.09214503673927718
-0.20257435789946
0.1382026810454625
-1.077086612691656
0.2871873528604658
-1.216349436181986
-0.5780927312399223
-0.6288184286594818
-1.018413756402221
-0.2630416937987073
-0.2994869862472834
-0.09451544682325536
-0.0536370055064902
-0.3047259156447242
-0.01467653502295298
-0.07132381306711903
-0.58802793831018
-0.07998319235454454
-0.03388641558246359
-0.07910820360259388
-0.9390758444659355
-1.336502631707703
-0.08114709721236023
-0.1167683943842713
-0.1858297887572254
-1.438051207460042
-0.01980279420337819
-0.4229524534514538
0.3163276992792157
-0.1145841397034866
-0.1299784236706041
-0.267031197116097
-0.1072035313789454
-0.3754321415489446
-0.08840347474462971
-0.4530660764835514
-0.2768771375900955
-0.1356303263293099
0.03167884472813184
-0.4020957212075196
-0.2669042778068323
-1.099203704821849
-0.4521007056799854
-0.5472577848986537
-0.1273198565945552
-0.4511766724157963
0.2591193778927042
-0.09993980034171815
-1.110468084198546
-0.7925725017282174
-2.166578582944761
-0.2987067297461819
-0.06341916267249749
-0.4522709085676995
-0.09327435201437989
-0.1556296420966804
-0.1555110200600269
-0.08417621824588759
-0.03724075473547185
0.01517854074010243
-0.1853299345105619
-0.02443287476838317
-0.4798110733796918
-0.2507120086770665
-0.1764595770252285
0.5933334324304539
-0.6464862015340826
-0.09871239656912256
-0.0253611043509945
-0.3554193957208538
-0.1284490892660369
-0.1417146839487242
-0.6015646757509965
-0.1518482541746648
-0.2717565706262819
-0.2513235709934172
-0.2008866631859841
0.1830980791448328
-0.5677978098480533
-2.161719009500047
-0.6815025500479538
0.02915882159917229
-1.543532238697322
-1.404854861465095
-0.9348335965560016
-0.1729475908928537
-0.2657116648843602
-0.177874491947929
-0.8243309129157633
-1.480530785873037
-0.09464237777529641
-0.2300851810012877
-0.08775690473795354
-0.4534189231845903
-0.01391217092871535
-2.700784749533122
-0.8308829438548656
-0.8995622350029471
-0.08949752451545133
-0.08352032526761373
-0.04457424311313861
-0.1237884361956513
-0.5537294407862287
-1.203789341079977
-0.5047215334237483
1.376223498990282
-0.503095684759544
-0.4069349796156472
-0.7664744405084986
-0.73872909927571
0.2897326737333605
-1.613246873500465
-0.6652066544175234
-0.5331011685114868