/*--------------------------------*- C++ -*----------------------------------*\
| =========                 |                                                 |
| \\      /  F ield         | OpenFOAM: The Open Source CFD Toolbox           |
|  \\    /   O peration     | Version:  v1906                                 |
|   \\  /    A nd           | Web:      www.OpenFOAM.com                      |
|    \\/     M anipulation  |                                                 |
\*---------------------------------------------------------------------------*/
FoamFile
{
    version     2.0;
    format      ascii;
    class       volScalarField;
    location    "0.7";
    object      p;
}
// * * * * * * * * * * * * * * * * * * * * * * * * * * * * * * * * * * * * * //

dimensions      [0 2 -2 0 0 0 0];


internalField   nonuniform List<scalar> 
19632
(
-0.06922152198335942
-0.0167386616725626
-0.01017046114431021
-1.167150072869016
-0.02097215470927727
-0.01214292484648082
-0.03807315968011299
-0.005698001773557201
-0.02776380366412886
-0.1855785447246186
-0.1517365181199863
0.008145801404160085
-0.0170550830272708
-0.02300072587159732
-0.1431140546387972
-0.006617220965298465
-0.02666125509699752
-0.05402446891428125
-0.009020426015054938
-0.01346793927037646
-0.1256336636526983
-1.557021560900854
-0.08751412660307065
-0.01019791345236662
-0.01160698590586741
-0.01085137073283414
-0.00845126304209021
-1.462795762028014
0.004046995709402064
-0.0211619014687926
-0.006911483730775928
-0.044889614936464
-0.2944666517037395
-1.027996064665893
-0.008768625670071155
-0.01725089615452994
-0.01398872971316341
-0.008759936506128779
-0.006831585793456889
-0.09064190403238451
-0.007285653835317124
-0.05708523868468052
-0.00985467866563528
-0.05362915222121708
-0.006493250049638142
-0.005389780999644799
-0.005617500549879676
-0.009214503069837902
-0.01193068874161446
-0.05222354813287268
-0.01818424798446608
-0.02935450771525037
-0.005846369136539054
0.02591071620097141
-0.01265178506432088
-0.02729570120927197
-0.0168329932142438
-0.01644281275169065
-0.007174418069369872
-0.1915947115326507
-0.01362344565250282
-0.01036495257429815
-1.022296978543098
-1.753208891167004
-0.007545486157754113
-1.602534372967938
-1.631439782737514
-0.008995764475716667
-0.01104591064645739
-0.06023929121625669
-0.06681576335963374
-0.01214066937807281
-0.004817293555738153
-0.005638769200134861
-0.007832036827601545
-0.009139273857677649
-0.004316395201048779
-0.1580360887236218
0.02985785658953998
-0.1576030165055015
0.002861226693832773
-0.06101227514393453
-0.0164139354347297
-0.01560484091583364
-0.006428249043729184
-0.01790420533703908
-0.00622794269899386
-0.00871882710104261
-0.007782378942286445
0.02263569400078802
-0.143005795916
-0.01201413870338881
-0.05413012621470946
-0.052644186437546
-0.01330328697619668
-0.006059297354348706
-0.02232264583196442
-0.01705527666423728
-0.005407813734215745
-0.007988736592732287
0.2355682075670806
-0.009910013046317247
-0.06750874219645935
-0.006199743146448563
-0.2122618498304811
-0.2805824182839483
0.1382617107460684
-0.1631157838355911
-0.005286056886329033
-0.01676140876734982
-0.08542550460123582
-0.00695588956209151
-0.00657010310279389
-1.896595883320382
-0.01463532731900237
-0.2097910545491023
-1.980382939688032
-0.1543103694723218
-0.03395651271422442
-0.007514837907975119
-0.01372029124005754
-0.02424922561819657
-0.01377677530711655
-0.009964284870321397
-0.8640017078375644
-0.2122363302679075
-0.008189295126547451
-0.0335658548243986
-0.01176995465084732
-0.004443378987441337
-0.01839108908628514
-0.01387879931602104
-0.2658477989161785
-0.005259185516427191
-0.02164846693652676
-0.1398392796080808
-0.03019083993451249
0.02364708996296777
-0.01173887500333401
-0.05004070960995367
-3.30417264253781
-4.129081026495747
-2.312441822685517
-1.878653271190948
-2.918653404032836
-0.004946016409858755
-0.009873679807118884
-0.03458239127769602
-0.06457318218642316
-0.009018864405844415
-0.03430332565961846
-0.03554659230161165
-0.02803149310271569
-0.01578858181843279
-0.00697135579819765
-0.02923282043092242
-0.004392456210041236
-0.01335629753741889
-0.07247057100510138
-2.031908595782525
-3.349481357927546
-2.290988039935236
-3.720932918368219
-1.171905219582539
-0.02033830150418158
-0.01077097054258472
-0.01119324324951414
0.03670959788172276
-1.591954593216125
0.005570979015072214
-0.008233790559366204
-0.06287630707740033
-0.008321604852481157
-0.01545154439116911
-0.01592651702573072
-0.03049127535633519
-0.007288361722490416
-0.06062926217386085
-0.008706312170135426
-0.008275780617584806
-0.005010668375309417
-0.008934304918062951
-0.006862110331594082
-0.0128530680781916
-0.01027285825432457
-0.007636896977845423
-0.01236292589778482
-0.007229572432805097
-0.01023313209717478
-0.008259443255117696
-0.007121846516748319
-0.09075592074538689
-0.1664301336712605
-0.04315668621436008
-0.005073691737855087
-0.009552453757163199
-0.03999930343461689
-0.1518984953367238
-0.02807080082139849
-0.01265983178032887
-0.01420099142210639
-0.06570262675535916
-0.008191261184547804
-0.03314076592377822
-0.009100513707113445
-0.03750035454399329
-0.009498353544340298
-0.03020817947294148
-0.006167073691019993
-0.01087429476061363
-0.05030217606854964
-0.006320976596282325
-0.00806081225440952
0.01060444657254151
-0.01852712297264159
-0.008994531144055294
-0.02104354058348432
-0.009958311630953707
-0.004744572829333279
-0.0322234270091255
-0.009072155422113379
-0.01402720621751749
-0.01133855401291142
-0.005648625953185419
-0.01352207293548217
-0.007179849260169158
-0.01296716437607535
-0.02227357841863559
-0.02017367354768634
-0.01698735122238867
-0.008126676217008353
-0.01565334999298809
-0.006421020022939377
-0.01558192002486818
-0.05385439866157724
-0.003572215225813435
-0.01246893333494333
-0.01869904808214679
-0.09445545623937036
-0.01443359794400001
-0.0102711819331936
-0.01708156536340039
-0.08417754569348107
-0.01042133588966894
-0.01336593624139975
-0.01590123431902413
-0.01818782834457396
-0.07749602064510162
-0.007131516964300947
-0.007491522704378067
-0.006434833410323837
-0.01147730477950637
-0.01172733431115408
-0.06100967689467097
-0.04957535541808269
-0.01325642418222008
-0.006265329397694344
0.005411878459842114
-0.1968662531656555
-0.04206869729706229
-0.05433266282784622
-0.03469310445692556
-0.007039355384400393
-0.01511449941160852
-0.02883594283776526
-0.01351305051929369
-0.01571118803481663
-0.01499926701671497
-0.01388489282781523
-0.009536480022571589
-0.01520969631397718
-0.00709481452901359
-0.01255383335529263
-0.008450663212160335
-0.01610994333102139
-0.01554139625929237
-0.03613928837117532
0.01233981212692301
-0.007271604870259487
-0.006959512789920347
-0.006617435979374222
0.0002643797909165456
-0.03122755538816799
-0.01517222528719028
-1.00350543397483
-0.03275310771724323
-0.03943124579197341
-0.04052035890949413
-0.04443293871136672
-0.05173176534251437
-0.01131605191285586
-0.02455293273553984
-0.01348314339590502
-0.007451057896174854
-0.008675273784036951
-0.008894598441674719
-0.009128651300971093
-0.03660884146102449
-0.01264316219499338
-0.008921109284152498
-0.1867928804449276
-0.01232263519260307
-0.01185326732682629
-0.009530218419837226
-1.521552555501266
-0.06335557950563794
-0.01600298741401541
-0.007855995782604382
-0.01149976812722593
-0.006976102072613019
-1.499219816100011
-1.119978334343838
-0.3003510000645098
-0.05257305697560707
-1.417115083652834
-2.650697110661004
-1.610300806367801
-0.004100277249913798
-2.289099418131923
-5.188190679744528
-0.008489913137070589
-0.009617371102255188
-0.07996870924396178
-1.7072331428163
-0.0126231713830501
-0.04764206548157848
-0.01186800675196021
-0.8348594837929697
-2.578415483164295
-0.0182010240986846
-0.0021969783803238
-0.0069054551150238
-0.008562919819052729
-0.04008671784990523
-0.01390947254177397
-0.02505661764531037
-0.02122411368615538
-3.446463546398366
-0.01642624691370582
-4.966313616166986
-0.0325802352780191
-1.814632305134153
-2.225634026094152
-0.03582870717408757
-1.431489199401545
-0.03443680759438835
-0.05024289685579079
-0.06688889062300002
0.0161578135812233
-2.141671578138655
-0.03813424855619176
-0.01505500989280415
-0.02197303796168406
-1.650008592397048
-0.01125080768272732
-0.008982098144835134
-0.005657386213756854
-0.01397453759297787
-0.01491593299959694
-0.01893787449868762
-0.1108865059459422
-0.004476112265865953
-0.1562748441457013
-0.02266367478237165
-0.01754046166368648
-0.06033292858383238
-0.0251916805777692
-0.1327796445479085
-0.009160157496932251
-0.05863488406276043
-0.09610803091646342
-0.0178226291503221
-0.0383533408895631
-0.0299894704786226
-0.03134753560784387
-0.03396998368514177
-0.7645190199783378
-0.007014858714055592
-0.006103112581952995
-0.03283191326025656
0.06350176628692417
-0.01449014606080734
-0.03005917076989059
-0.009301104806665879
-0.1327875760925357
-0.01367635016796134
-0.008559870674922402
-0.03216574918438048
-0.1547785995958873
-0.01469272013733654
-0.01288376542216127
-0.0383826309508147
-0.03224857957477439
-0.01126742134246378
-0.0238406719660172
-0.02409862485310923
-0.02483900557442364
-0.02482127494772553
-0.003928950152487707
-0.01629082076711744
-0.02687265130371645
-0.02603822949913711
-0.04743122244750649
-0.02726881708132212
-0.0479433943639548
-0.01669258515486827
-0.01009181994747085
-0.02400997611606967
-0.218071772830632
-0.01133363140241238
-0.136156091253097
-0.01540482360448613
-0.2591511179079459
-0.01688541786290147
-0.02501140668585381
-0.03353815852491519
-0.03022782562607327
0.04563340130107746
-0.03370167192912257
-0.02495117228264953
-0.02780947339298107
-0.02036254525981902
-0.006645950141777904
-0.03529819413672378
-0.01441638577735783
-0.007809965520539329
-0.01355512400797085
-0.01231810234445774
-0.007219877283374975
-0.3123876903166489
-0.01427531398162292
-0.01407279450749712
-0.01687026670685246
-0.01515481247545675
-0.01262560027125014
-0.01269597367605143
-0.01517800796152766
-0.01774065931545985
-0.01735005460488641
-0.01689410883982492
-0.02773669926139794
0.02375781078131758
-0.02888250862331707
-0.01519374285200989
-0.02072508886166075
-0.02639214327080428
-0.01127895463719144
-0.0267372722972585
-0.01739404731801863
-0.01874593478709873
-0.02819827603980029
-0.02305866378491842
-0.008982407545596992
-0.0243085625102453
-0.01957604380226539
-0.03262892611903454
-0.006596587373471157
0.00375218029819854
0.006447184981213975
-0.06534666268391064
-0.04556398558591888
-0.02404004636604123
-0.02432137686909591
0.006828117471805432
0.003182297563341016
-0.003392540130777126
-0.002365439759121749
-0.06558118342447805
-0.004899466650238157
-0.008448458557971245
-0.007958341842298718
-0.1020882634209842
-0.03051129653894063
-0.009768572104653882
-0.01062209143127431
-0.02045161457366305
-1.362359391748028
-0.009458677898023434
0.03741614170537399
-0.03801098849906694
-0.02062590584082177
-0.0336627122406964
-0.007133268545084265
0.005651526672759113
0.01199430812511542
-0.9176995900356772
-0.003232212003937715
-0.1820702453530278
-0.01098066847457209
0.002257630466733648
-0.01015288738036729
-0.03816242782123304
-0.04296125393523873
-0.002805113505817703
-0.004085134409024332
-0.01387014580196665
-0.01412747483707362
-0.01841155058198198
-0.04528916622854481
0.2406289534650733
-0.01962821227178987
-0.01955308893064917
-0.005795760686702167
-0.01507453629084654
-0.01430586604178785
-0.01793070139146863
-0.02114568103443824
-0.0184681796027029
-0.01700818614788255
-0.0428189558950798
-0.0170328992786128
-0.2590325218735514
-0.04092632009421505
-0.1034107061962028
-0.05407153288575061
-0.01164014259690493
-0.008609400069563872
-0.2515622730130442
0.001935273014946869
-0.1266304320749855
-0.005346507033935354
-0.01173828313938705
-0.01350026522080261
-1.098050947355012
-0.007503014008211948
-0.0154798975644603
-0.009299864901252838
-0.008404094200143142
-0.01328239692264124
-0.04194031213443852
-0.01138417412690768
-0.01145780364811557
-0.01602843672021268
-0.006857071330478332
-0.05308638882761643
-0.03229946390535706
-0.03007725674961599
-0.04624196386040971
-0.02699271592345825
-0.0779780872640696
-0.0614780200535578
-0.009426535234829902
-0.009485222148999061
-0.009614565027412883
-0.02436536467482522
-0.004166935033359604
-0.09287893902614874
-0.01412774956026823
-0.01641281100075154
-0.02101199741800533
-0.0529297833255145
-0.01157300529091173
-0.007183437263704667
-0.008857162916636491
-0.03664555436173552
-0.5656406844753062
-0.01164000475009055
-0.007952515986955268
-0.002595525819498736
-0.009111975262728346
-0.6651997090143136
-0.06018143416522923
-0.08804681884567905
-0.03686437488436302
-0.04207232113057558
-0.03368454672849935
-1.044084979110212
-0.01029822945065109
-0.00996581807602483
-0.007983941291592774
-0.9842351817741904
-0.007923793733388163
-0.04989392805601178
-0.03858271344502665
-0.006640372010412576
-0.1909111945796678
-1.66404176914925
-0.1794179193350307
-0.1411193504458283
-0.006286479465164245
-0.01066657470394514
-0.08024152908362016
-0.1659076461705653
-0.01730007077372556
-0.01534336079272918
-0.009637252732127033
-0.01595608984660673
-0.02009874890992201
-0.01580540000270926
-0.02066690778992352
-0.2887835804438328
-0.01445797989909905
-0.01819439702739998
-0.2867657545274969
-0.008916886941739645
-0.005576958009362124
-0.01726467491090515
-0.01044980450635354
-0.009167668903776578
-0.04728728550741113
-0.05063189498428343
-0.01830613471201748
-0.008789900704754439
-0.03108426219173684
-0.02734003649942092
-0.01011664250285785
-0.05782713745983895
-0.03148945395640153
-0.04671717623654945
-0.05419037733866967
-0.01148537912795629
-0.01071410420825095
-0.009505805717234259
-0.01912928199624833
-0.01361010082422442
0.2890961688751974
-0.01296577111391113
-0.08334263759745489
-0.9203925758866993
-0.01008080782026512
-0.01295739133623255
-0.01391769660755746
-0.01225887408148402
-0.008116825392678164
-0.008266753918434762
-0.3419076740639889
-0.01291370894132866
-0.01211682014044061
-0.01073924273358046
-0.009961870837181024
-0.01236122868581482
-0.005378778060949235
-0.05655924108073848
0.04629487816090701
-0.01346895736769359
-0.01303619237517873
-0.009553671745541276
-0.009787933134496295
-0.04882928798715028
-0.00530200244046191
-0.01130277146917874
-0.01278161880436423
-0.02455467816259302
-0.04916353399742031
-0.2597871368756867
0.003970846671102122
-0.008763103578618783
-0.01187580493741678
-0.004013738109900655
-0.009171975884476517
-0.06124111016726255
-0.009004392517949976
-0.00714277219557385
-0.007214613326045118
-0.1677763792751774
-0.08282169288325551
-0.007487134859471545
-0.008072282835216995
-0.01513631813570407
-0.007549715871923353
-0.4362945463769318
-0.02295027605551351
-0.00609849589411283
-0.09170584813799544
-0.03579926046502548
-0.007057393506039462
-0.7439281547888702
-0.01307621661939927
-0.02027633380685534
-0.01186001106488166
-0.02575103194826956
-0.01333458600598294
-0.05649039973346299
-0.04681434032199379
-0.02281533564748095
-0.5272648217279242
-0.4347103978191499
-0.03831707477290834
-0.02339248653449667
-0.01818975757065992
-0.04751113041685766
-0.008009093607661364
-0.03859712311019006
-0.01031025595943354
-0.05734341404277676
-0.009274316828512465
-0.02390718411451615
-0.03238066896576458
-0.009220053988413902
-0.8746841861214615
-0.008586968699079307
-0.01531721524110029
-0.0100016961830345
-0.009284083305984412
-0.01587194667709535
-0.00711327338203518
-1.460829210781997
-0.01245808788014494
-0.01441964301541845
-0.1913747921731258
-0.0564712521859316
-0.009109630062254728
-0.5201834420858434
-0.5079408913375267
-0.03204915569862801
-0.01613420551895088
-0.05575955049010473
-0.0127028892125242
-0.05203468417668103
-0.05427480429931613
-0.007119411852637134
-0.05539530709532442
-0.0500962996173365
-0.006598651247363364
-0.01627632260016799
-0.007001931739144198
-0.2131756029156374
-0.04256734368398361
-0.226771503278282
-0.04821450769538718
-0.04173468445644241
-0.05475479347953139
-0.01952681308050045
-0.05133435444947163
-0.02364168132219481
-0.06135554612195672
-0.01482338296019827
-0.0351336337117942
-0.04538538077149715
-0.01696313611589358
-0.03992191419530997
-0.01490079077696022
-0.6520405634154046
-0.03941014664079691
-0.02616990828152473
-0.2158000710809217
-1.127774018236465
-0.02354841066737563
0.01126946667863282
-0.01913475443047562
-0.05380675868688661
-0.03405049756543757
-0.009669249018992932
-0.1919951320659896
-0.03080287298521361
0.1751152779913698
-0.02853916218296905
-0.02295283415803592
-0.01548594952172025
-0.07288942866181021
-0.01049099946218158
-0.01300941254174768
-0.01094144147755998
-0.009764395282664484
-0.03618606217775359
-0.01739247875583977
-0.01961914620416572
-0.008108507941006898
-0.00992704875652904
-0.01782316636972187
-0.01017416455092226
-0.008631618302330404
-0.009258812076611231
-0.00768743767463478
-0.008497584886334713
-0.09687144956243463
-0.5293333356650423
-0.008418224576924501
-0.008364712160819084
-0.009685841015440178
-0.0104008928938316
-0.006349533734121816
-0.003730062791826273
-0.02695891858690865
-0.027458714519693
-0.00637865659098482
-0.007199077767568159
-0.009209283263908784
-0.009090313243395343
-0.009283130294027133
-0.02871817745406061
-0.008688395073210977
-0.06638545991264624
-0.005687162306479207
-0.008493155172983069
-0.003736481914831551
-0.01901606434875021
-0.1530466731491326
-0.1856439772814485
-0.01076402008021456
-0.01033683998065445
-0.05415986714516784
-1.628182022151669
-0.06517829365559755
-0.03315365681860849
0.1482737527232209
-0.01776842137411091
-0.08046839287091205
-0.0703005720182993
-0.06218035590477619
-0.06478610828229335
-0.02095951345636554
-0.2590597973158946
-0.03528291083293159
-0.06545247009463763
0.09371181371340118
-0.1163254979134242
-0.04229016591760312
-0.03250143512519823
-0.02759481318607751
-0.0619201715757793
-0.05806970889967043
-0.1565585022944941
0.03789479331932183
-0.06129076675792763
-0.06097035005465277
-0.04780928960403542
-0.6716278856137882
-0.04447754685211732
-0.02061369491578027
-0.007794112320469445
-0.05841882069124952
-0.01060650473872769
-0.01411425548913729
-0.01574988500290114
-0.01220615996658349
-0.01303651570760085
-0.05230249312210177
-0.0829972043868317
-0.06023756859354344
-0.06580940382238526
-0.01233761954178138
-0.06978832862254972
-0.04737746091370123
-0.01308621716358937
-0.04130635063949561
0.01115763345729621
-0.1125321551734762
-0.09770895745072122
0.006641149310175343
-0.0122258318965598
-0.4854614111192279
-0.2225039356631628
0.008634364168381937
-0.01584658837920612
-0.01059387354466895
-0.003731226369181159
-0.0538307151300372
-0.01290945659958437
-0.01072177061515991
-0.01510446514145912
-0.008349185579834523
-0.03279513869837208
-0.02590356118072938
-0.03628000670112125
-0.01747211694504185
-0.03547781034445487
-0.03221511128534186
-0.2099317852276928
0.02183241656330627
-0.01030177545738066
-0.0350325818577271
-0.02985647414964023
-0.0292914358511948
-0.03101411688012242
-0.03673580900671577
-0.03235815020625259
-0.03736173132038211
-0.03021647155981647
-0.02446356120193244
-0.02198001383888109
-0.02089609556305094
-0.01757885703649225
-0.02000993131055364
-0.03326097658486821
-0.06164187037096656
-0.009657306133981294
-0.03016769551005355
-2.794395835412732
-0.006595475282785646
-0.006352332848994335
-0.02539409790598286
0.001122196183672127
0.001211123079739971
-0.01427995213713441
-0.01220326211874237
-0.01583704636985447
-0.03939051618012316
-0.01686893017600074
-0.0258154644672563
-0.05398543905463037
0.01394842369125764
-0.2416147529713976
-0.03305431943124846
-0.3047430676158155
-0.07074727551664078
-0.09215267825487297
-0.06219371118523181
-0.004609527497430983
-0.01421511552359042
-0.01454576620858914
-0.07408667213099498
-0.03677106393069197
-0.0638582456914341
0.200611448460367
-0.1802176122096208
-0.06776182323271188
-0.05507071238818367
-0.007810023753026732
-0.01873482020271876
-0.01476920100196234
-0.006079310150350262
-0.02462116615235586
-0.01697096678904736
-0.940880443607257
-0.1151424063202701
-0.06782104118206742
-0.03075030268833742
-0.01313667497286398
-0.06563589623125431
-0.06134567333743063
-0.01518599296359143
-0.06022218447427287
-0.05190553461830998
-0.0898935655032977
-0.01868823146819661
-0.1659013111011396
-0.1088188721026732
-0.03672673416228446
-0.03437442251272424
-0.009400629339738245
-0.01136336422454019
-0.009233118103370273
0.2532322493027538
-0.009864541585055474
-0.01790028751279171
-0.01123860511121029
-0.01079327338576242
-0.009941782039548092
-0.6875199334968819
-0.01365363544476266
-0.03177665073998103
-1.056839709937036
-0.01623168183717469
-0.01004149237812454
-0.02671737224634415
-0.03189703040086819
-0.0161514015360871
-0.0509631931311064
-0.1587835747372885
-0.03295593266671323
-0.0636474129966671
-0.0533948737741764
-0.05294842698896518
-0.00815579910944788
-0.03725378791981716
-0.02907374291605666
-0.3844319037462527
-0.04611493559822958
-0.05381765409384675
-0.05368092051043894
-0.05670759535560567
-0.04672594879741465
-0.0151994104121564
-0.01628039255205892
-0.008637433037215113
-0.03230979743812587
-0.0275447917024742
-0.006413119583933645
-0.007199763844503611
-0.6028828858642973
-0.01728407993904309
-0.02963847313165747
-0.01788278031628313
-0.004402668616126039
-1.958803694483976
-0.04068657358395573
-0.008160736086016779
-0.04634799368398263
-0.00801546658619169
-0.007875417663465736
-0.008598026190562057
-0.008961364114338956
-0.005185643598202552
-0.09277247597201908
-0.006485213266604287
-0.008263513835745083
-0.1320639892189551
-0.03211761453171419
-1.3477445642277
-0.005002178948492713
-0.0139699234808447
-0.01436040134026357
-0.01125272939254833
-1.195631800153536
-0.02012741707730216
-0.03396076637581479
-0.01204131876895527
-0.01778424179541459
-0.1087449979246649
-0.01424338876339476
-0.01275779324279573
-0.01015853550592022
-0.01178850514498538
-0.0127047311006719
-0.01127568755174719
-0.1136049620768826
-0.01163981741447004
-0.1527944667880108
-0.009562241275553498
-0.08875388022980513
-0.01075453161263869
-0.01451291956232115
-0.02285559762455273
-0.003093227629639679
-0.02806634484957695
-0.2363906344157315
-0.1880872310794017
-0.3705765149546532
-1.218101582509166
-0.02658888002555638
-0.3733444215988331
-1.579398990072133
-0.1569286309481013
-0.02157216918298518
-0.003495465007527871
-0.03398424846950376
-0.02944086385412203
-0.09880198064987041
-0.03126220595853586
-0.06751936541860108
-0.2166387206725225
-0.1830932922421305
-0.2904730012033666
-0.3192181664131805
-0.1188897767259825
0.1231052810133006
-0.106851811152331
-0.1926383160242194
-0.3137167162087776
-0.06446316078206006
-0.09042706770203257
-0.1265572510743879
-0.07477052640190612
-0.00772493846185408
-0.1889524097289257
-0.0762539229920494
-0.04668432173984063
-0.03321810164411705
-0.5134653158286774
-0.0878946218536043
-0.7587681658010604
-0.202225113364602
-0.1901870883953376
-0.07086586498929498
0.07015523013137688
-0.009671364021131841
-0.02589355904712289
-0.0993349594918084
-0.2401311666970253
-0.2220269938701799
-0.05951794941874163
-0.1278693196935621
-0.2960674414188313
-0.2935009139800749
-0.04675146428433644
-0.05006148675401993
-0.007343816980719045
-0.008092866705353143
-0.007394414709969572
-0.007511703164778484
-0.006960724872422176
-0.06605712702934145
-0.05709937718520003
-0.5024653861181717
-0.1569986609326368
-0.03384968361007444
-0.2514615050207977
-0.08717428764077009
-0.09421726646113665
-0.04735177020164875
-0.04464507999225426
-0.005932064883291751
-0.2222246866767739
-0.02118312913290768
-0.007334968829723566
-0.0609226522359713
-0.04690225354552181
-0.1025336960126551
-0.01372860067780887
-0.01485892486903414
-0.03325622367452708
-0.0367662362845882
-1.172641219506987
-0.01347871875765528
-0.04031460366990267
-0.0595359255475495
-0.08461883010659527
-0.01745710823027977
-0.01044769566457193
-0.01390443287517063
-0.008146988378379759
-0.1705533875493788
-0.01984763430956521
-0.07652607614296258
-0.05731914842219223
-0.06105640071762011
-0.01403718905552479
-0.04097439162728237
-0.05900677137042469
-0.06041568646076402
-0.0451069461129225
-0.06809366669750691
-0.03779758471031864
-0.1581072786420078
-0.05939817666778952
-0.06806723150020792
-0.07185579391350724
-0.06330072821736647
-0.02351408834618589
-0.002896824090531628
-0.001645704847741061
-0.04329678725517139
-0.1083639284352962
-0.07530236430033593
-0.3001015787682806
-0.02127663839128078
-0.04019901754126714
-0.00953111178178063
-0.01848362257522973
-0.02108798967115897
-0.06099740782794653
-0.304482240612289
-0.02114852888053634
-0.4053517964011898
-0.1595260877285671
-0.004678935613739592
0.4135563689586563
-0.01887460048685939
-0.01484324561611549
-0.01165717733443387
-0.01020728264988277
-0.01128886124840396
-0.01234479082911823
-0.01859211274252634
-0.01286160566126758
0.005879402703534388
-0.01616129278874523
-1.30804553642965
-0.0150493497968791
-0.5115646321408347
-0.01479446713850097
-0.7207688261941313
-0.01112051198936993
-0.4647282110827637
-0.01081183915498686
-0.01042628731434334
-0.01011130597268206
-2.058291978107385
-0.007890076867681327
-0.01064571757213058
-0.04022872678211581
-0.04120012666268773
-0.04211740147205622
-0.04511784102855875
-0.01572758256943395
-0.0166524612045061
-0.02014375102970897
-0.02331403228788635
-0.02077639028463455
-0.02840331265143141
-1.46760752904008
-0.02685792324623121
-0.3661541059269458
-0.06072949176927175
0.005326467623154192
0.002718744143298669
-0.1552923938420877
-0.07357181544701405
-0.2534058572412235
-0.2237059456008379
-0.01140227690129658
-0.02432078202491133
-0.04481313915115971
-0.0470681173509998
-0.02669921270431169
-0.02616363980328222
-0.05480862642048535
-0.03119968956099977
-0.02284068864762375
-0.02840830870766372
-0.1010186514479927
-0.0334087258742351
-0.1084583364843068
-0.04889643023330902
-0.02505710448338709
-0.02724137157330246
-0.01290033132176805
-0.008423008177574538
-0.03409042970051285
-0.005886690257736039
-0.02955646317835648
-0.1063074967014605
-0.009488401141994526
-0.596747040988437
-0.05331563671750421
-0.01251589402722903
-0.1604939867191532
-0.08023579905164482
-0.01211925004899485
-0.008774109657456104
-0.1006324287929168
-0.03024965937803031
-0.008904160627716403
-0.08822688436436536
-0.07768959377914565
0.005179599925065863
-0.008309321050001324
-0.005313492645708102
-0.001644832581337374
-0.006629003110799586
-0.04440298176939463
-0.005656524066643624
-0.05938417600702786
-0.1151671605145485
-0.08120735456851887
-0.5090486112580894
-0.01837453357663466
-0.04682353443786696
-0.05352444910204398
-0.01875242067981986
-0.03374883625209958
-0.01535136727447158
-0.008399006061624876
-0.01783560887965401
-0.01253459517953232
-0.008389778361405984
-0.02871074855047213
-0.4481385614815553
-0.7757576207765579
-0.0525263275016626
-0.5627672949384087
-0.03590669671540819
-0.04960641238516636
-0.6723078712036125
-0.0347623840135404
-0.01103685045478141
-0.01497667566499076
-0.01099328121395161
-0.0816184820689199
-0.02652405903906006
-0.02253576832401116
-0.00614392499513046
-0.01879365332079616
-0.1997494550395958
-0.04913579886670263
-0.01585264831319932
-0.009137666066952417
-0.02994246708042508
-0.01423504788322293
-0.04240015551063093
-0.07103788718288423
-0.0834770218049242
-0.1153565712118699
-0.02611810847670174
-0.05153600225549361
-0.1103642742585464
-0.0623587927048775
-0.1685716398787176
0.5543944061631247
-0.4102363160725235
-0.0579220052912699
-0.2839000016277317
-0.401370453280974
-0.3424482478194815
-0.5508647007395582
-0.1562129076087524
-0.8920865790886906
-0.5371507869162931
-0.0701803807040161
-0.05408126633046708
-0.1198911939046219
-0.3170435268690093
-0.24563877105986
-0.429565060364005
-2.227691032746979
-1.230858585569466
-0.08533637505239816
-0.01967512949537144
-0.3348671857348859
-0.1224312553363497
-0.01422203489259346
-0.1962061102085289
-0.4297263335807301
-0.1222399166388044
-0.0511104770017905
-0.6777759341176925
-0.02775284359428147
-0.008788754331263735
-0.6537455108826893
-0.008663476623309246
-0.007342776464524016
-0.03193529300999423
-0.05720693042523942
-0.01269518597846366
-0.02642287256946485
-0.008016007035443026
-0.06778732564434414
-0.0493665747514562
-0.1919888621570635
-0.06864037589429389
-0.09258628676454697
-0.135540604705584
-0.03672895895473609
-0.08228567308486795
0.004386655282108061
0.001020771435956572
-0.0119482766067824
-0.0523859845437198
-0.05070552806895982
0.9394245874795328
0.08408305011217386
-0.5057110498474906
-0.04753121163094472
-0.006304709604941353
-1.326387859175464
-0.213149136798455
-0.005080464213561961
-0.6112733710737569
-0.007885531175577238
-0.04217358772802918
-0.008219896183199365
-0.03412430683543012
-0.04882941882686946
-0.01592922761618028
-0.01125252892716671
-0.05228669150985521
-0.1468950896869798
-0.01145332478548845
0.3170991354489636
0.02435324764520144
-0.3577158627385232
-0.5865452579289969
-0.1819777013894253
-0.2639816024957798
-0.02400694255275128
-0.05105878810555323
-0.01888845896606169
-0.1104258500296879
-0.1280929295596845
-0.1111231121187905
-0.1740446766857503
-0.1158161672066039
-0.4663299622088954
0.5096745229716847
-1.523502586643304
-0.4056024875074695
-0.7847672293653386
-0.07046213327579155
-0.02338122689038653
-0.06101940181476901
-0.01113754504867457
-0.5360043959868979
-0.3551574817401251
-0.08010835037095147
-0.2293632825120157
-0.05451924081665972
-0.4248051660000237
-0.06247002617009336
0.01425029684966449
-0.7194197312137434
-0.2420583906758576
0.390624673727323
-0.04057496543588246
-0.2231570833491443
-0.04791653867198191
-0.6137818794559019
-0.07057861221086496
-0.3117858357374646
-0.293253488261684
-0.6105065629613107
-0.3778727591581929
-0.4298121844311157
-0.05845914024422478
-0.02621833569154334
-0.1559534499771129
-0.06836807888998896
0.03725834188133056
-0.1762506907437936
-0.008141806582324636
-0.009916151993030439
-0.02755235963788772
-0.003762846330309972
-0.01498885253586702
-0.01414428255291527
-0.2178130446799864
-0.1269701024925962
-0.2401789500378201
-0.08155126580289072