/*--------------------------------*- C++ -*----------------------------------*\
| =========                 |                                                 |
| \\      /  F ield         | OpenFOAM: The Open Source CFD Toolbox           |
|  \\    /   O peration     | Version:  v1906                                 |
|   \\  /    A nd           | Web:      www.OpenFOAM.com                      |
|    \\/     M anipulation  |                                                 |
\*---------------------------------------------------------------------------*/
FoamFile
{
    version     2.0;
    format      ascii;
    class       volVectorField;
    location    "0.7";
    object      U;
}
// * * * * * * * * * * * * * * * * * * * * * * * * * * * * * * * * * * * * * //

dimensions      [0 1 -1 0 0 0 0];


internalField   nonuniform List<vector> 
19632
(
(5.014362660682954 0.00714535229988039 -0.008280579224159356)
(5.000127361848486 -0.004535133251346104 3.814370039171758e-05)
(5.00051996225483 -0.0005132538375066375 -0.0002711804954780779)
(5.077861621702481 0.07373404081386646 -0.2218161980947563)
(5.00068645071895 -0.000585174844725076 -0.003616631123875319)
(5.000647943261604 -0.0001871374265030674 0.00145777062235521)
(5.001719247505606 -0.002356524907023123 0.00199633310581505)
(5.000261039058984 0.0003093917419388995 0.0001008824655097904)
(4.999896929345556 -0.001166299769376277 0.01241518529041233)
(5.04082247802312 0.04010469833973437 -0.03922942098507489)
(5.032418589896122 -0.00667180223805371 -0.003334047705106014)
(5.001440402653063 0.0002618317202301414 -0.0004713150730238588)
(5.000282581650505 -0.0007938204624509601 0.0003285599590607517)
(5.001136448398461 -0.0008709789474175612 0.0002247197787876825)
(5.010751433357796 -0.003885268549435876 0.02158992192032369)
(4.993280681544594 -9.289205082402178e-05 -0.0005593817420213538)
(5.000261041849479 -0.0009077555187333569 0.000579783865781071)
(5.001556825758625 -0.0010109773671342 -0.01873435113749635)
(5.000143183694371 -0.0001444201286953073 8.910204238180759e-05)
(5.000454495318069 -0.003875887104834213 -5.906814665907325e-05)
(5.022786486057769 -0.02194459659674318 -0.0008381562225774792)
(5.178684565086435 0.1498300055550336 -0.2096941269902899)
(5.012023135095833 0.001320519945824713 -0.009076602665110647)
(5.000509654151145 -0.001395633938260139 3.498072265394416e-05)
(5.000125646590836 -0.001957528876318709 2.638472820690458e-05)
(5.000103572099418 0.0001807129471181477 0.0001806769964738752)
(5.000294377696503 0.001771725413359027 0.0003166548793608082)
(5.031861790203537 0.1768834395203941 -0.4068869583223568)
(4.99984887065385 -0.002643315286104592 -0.0007164613969650268)
(5.000285267742157 -0.0009336739533599696 1.760744673416335e-05)
(5.000034173214521 -0.0002330099835299889 -0.0001521843199781713)
(4.999578515613904 -0.003993830434570093 -0.003320663756748344)
(5.057343447988889 -0.009765663851588295 -0.04872656453152375)
(5.090393153621527 0.06147717648659725 -0.1669187482668339)
(5.001716395466635 -0.0006054533041174121 -0.001581946177269747)
(5.00027658714723 -0.0005502014134947376 9.323772560335237e-05)
(5.000449608476417 0.0003510034744024236 -0.000506635068504908)
(5.000322947583701 0.0002089727988333296 -6.014496456451281e-05)
(4.999976659712819 -0.0003402992715725824 -3.563512876959486e-05)
(5.015291157418234 -0.01460091496188373 0.004664526546797613)
(5.000076889219369 -0.0002412741404368448 0.000368295941480667)
(5.000739842583257 -0.002272830050479444 0.002486115918390778)
(5.00011627795271 -0.0002864123856427265 0.0001930966780290048)
(4.973434471386181 -0.02880628919131424 -0.003033672452407979)
(4.99946146938098 -0.0002849827216629715 -0.0002989495380558593)
(5.000285052041023 2.639159014612438e-06 -9.37688828579559e-05)
(5.000282303468513 -0.0001886154787420039 -3.510239523880881e-05)
(5.00038310074675 -0.0002810716664628683 -6.154050589199203e-05)
(4.999425608977299 -0.001008632893526967 0.0007114228487393231)
(5.001618169365738 -0.002834129774438947 0.00121963920548173)
(5.000219616651386 -0.001464646263910295 -0.001630952627491124)
(5.001038670994771 -0.01019457853858248 0.00128563982429889)
(4.999739702900206 -0.0004104119122553947 1.447499286820745e-05)
(5.002295488904743 0.0003310712061217983 -0.0007114030589876872)
(4.999781843902979 -0.001722366716857458 -5.28070907624469e-05)
(4.999592318642949 -0.01095309903727525 -0.0002637230578905241)
(5.001347322986187 -0.001800100928680851 -0.0029252208447456)
(5.000760382788669 -0.005287292089749178 -0.0001720614203554111)
(5.000205336049476 -0.0004787239127871245 0.0002215946225819942)
(5.009342540578914 -0.02668104639444151 -0.02203387401152314)
(5.000176821605365 -0.004391017086442038 -6.1731024517081e-06)
(5.000063787319575 -0.0003157655603538105 0.0001769766488129728)
(4.847160643980736 0.1873634665014213 0.08998956491285483)
(4.328456169926747 0.5676885665238409 0.4598777226096761)
(5.000475074247325 -0.000150624450417128 -2.914753748520691e-06)
(5.045908387123831 -0.1422174308376558 -0.488715557471107)
(5.244615367617722 0.02017677315983756 -0.09686464730373955)
(5.000548155268524 -0.00282246002312873 0.0002566106303986756)
(5.000691980873007 -0.0006016291894602446 -0.0003310276074241223)
(5.001276049632486 -0.002757011014104014 0.00177009425751833)
(5.011873868457942 -0.003228919202604051 -0.0006937895803398961)
(5.000428733891974 -0.0004922802135956248 -1.149673905264966e-05)
(5.000322180730817 -0.0001886917585425591 -1.848572861732147e-05)
(5.000458161477144 -0.0005792122896526681 -0.0008324229219003925)
(5.000217326176697 -0.0001757596106237321 -6.725716018879418e-05)
(4.999987900600545 -0.0003388086817449994 0.0001357295509278037)
(5.000230078895171 -0.0001252948494250535 -0.0001160483381164064)
(4.82670723996998 0.02586526753506 -0.003158316156679048)
(5.017975967576539 -0.004461081058566569 -0.01369368889910515)
(5.035821822460051 -0.009512832690040544 0.01220520715331019)
(4.999805817584527 0.01475786439105987 0.03297128126296831)
(5.012882010790659 0.3076916724995021 0.28751403624607)
(5.001498551018243 -0.0003065819796791912 -2.671892759245327e-05)
(5.000299583973972 -0.0007289060396624318 0.0002966509496869123)
(4.999732901739396 7.10322796280668e-05 0.0001040213151360132)
(5.000445604105133 -0.001222293289556944 -0.0006841649961268357)
(5.000419903791522 0.0006579807183619091 6.88171236063264e-05)
(5.00032308957714 0.0005606191214443806 -9.013724684115978e-05)
(5.001556280618482 -0.0008392611370563142 -0.001255848920192204)
(5.002676243533974 -0.001066971118249511 0.002626546932264357)
(5.027314767468534 0.003716798732232998 -0.0233810178109048)
(4.999916444349781 -0.005578119895614475 0.0002493007193252275)
(4.99892174982829 -0.003106127253700483 -0.0002582723195205295)
(5.020789827294874 0.00126025911766357 0.0225961818508892)
(5.000399527655666 -0.005638457988419935 -0.0002982273025678398)
(5.003503776230621 -0.000624741982687035 -0.002532857100639123)
(5.000713675701067 0.0001560177565198081 0.0008968627847282313)
(5.000686198798736 -0.0005519770408323378 0.0001323839028559442)
(5.000124846543653 0.001425548536457021 -0.0004927025102063978)
(5.000101718713275 -0.005657835934676196 0.0003609114319877395)
(4.508310041737975 0.2140590907358141 0.4087209712949454)
(4.999864204483295 -0.0001254355297819648 0.000154924133884325)
(5.010194049867568 -0.005889118324300257 -0.001944241748220662)
(5.000066114297716 1.664510754143672e-05 -0.0004445857657378467)
(5.052595660791652 0.07041266910748396 0.08613759447233811)
(5.06286660463899 0.006347534911977136 -0.03251542645182597)
(5.117882949193736 -0.04796354136938219 -0.1140707502202815)
(5.024934248542731 -0.01496485204168467 0.006623303829767696)
(5.000113215629816 -0.0009654375687708659 2.121233858071198e-05)
(5.000754836570152 -0.004162694099763637 -0.00108083690087364)
(4.97550152519204 0.2533339804753942 0.3339081240128228)
(4.999216366542584 0.000769942438110302 0.000171252173102822)
(5.001860809426479 -0.0006490798139749163 -0.0007931330580732593)
(5.196750041089868 0.1087335203219751 0.09770400316095737)
(5.000157829003093 -0.00518745214317374 0.0001305023079181324)
(5.011572741969656 -0.05279029244241509 -0.01922159964347127)
(4.983343681050173 -0.05641395386759226 -0.4904403904035643)
(5.068019404687368 0.1628134076385555 -0.04857717093140255)
(5.000075889807927 -0.00178558442563636 0.0005127171079027747)
(5.000173727753252 0.0009276820924371863 -0.0003067541963312069)
(4.999964873638092 -0.003734857592266565 3.051023305542621e-05)
(5.002900572026372 -0.0004518396895787415 0.0002017911072478319)
(5.000176288379069 -0.0008397037797787409 0.0004636187248458876)
(5.000321421764454 -0.0004251014444140273 -5.116945812092699e-05)
(5.240184233201779 -0.1435948657303457 0.004386107872273439)
(5.04435688856414 -0.01308776914569378 -0.02552875364086403)
(5.0002267561864 -2.646064344207395e-05 -0.0002354563500619199)
(5.005622512223087 -0.001203340059605752 0.0002573288584412786)
(5.00109111048174 -0.0009206863010367049 -0.0001298016496328599)
(5.000115307706354 0.0002336955402667551 0.0003479028443518115)
(5.000172824885545 -0.0008515367754080101 0.0002167861186425875)
(5.000019282399835 -0.0003881335251168689 0.0002261844124587566)
(5.038738161822298 -0.02390726602591631 0.005947888642084774)
(5.000334690022905 -0.0001034324343107275 -6.218428087853372e-05)
(5.005530119380713 -0.001050900804723764 0.0005127379088623782)
(5.016243678283641 -0.01245763193763598 0.004819512363864747)
(5.005009984823393 -0.002665004579265977 -0.00225303349425795)
(5.002249969308127 0.0007352019342233276 -0.0006944166564627292)
(5.000193580508145 -0.0005827272245112198 0.0001574143058766427)
(5.001951051251285 -0.006772679733845295 -0.003742139700146352)
(4.56008784835107 -0.5051488039870889 0.5507852985535684)
(4.903413378997332 0.8756546347012709 -0.4350766533222942)
(5.341072023944617 0.368827645369266 -0.007379113875084928)
(4.141967264684683 0.2844819676428146 0.07866966528368158)
(3.126706182088791 -0.9743059495922362 -0.509245810767436)
(5.000291163379122 -0.0001334988288546893 2.463175446097287e-05)
(4.995301214050566 -0.0007303587545842843 -0.0006831032693818092)
(5.005560871161155 -0.002874846778271485 0.0004252322486180271)
(5.01416945970394 -0.0003944861779718616 -3.812555105002791e-05)
(5.00002801078965 -8.972275347779141e-05 7.789065687899467e-05)
(5.001677622657466 -0.001177628905738061 0.0009860245912894044)
(5.001579470306154 -0.001505057847099372 0.001370446143519665)
(5.001515276549968 -0.00106727954183272 0.001057756695264996)
(5.000365342048426 -0.001217220417650628 -0.0001865022845896171)
(4.967700142769825 -0.003197574395182575 0.003112143852093641)
(5.00167994204108 -0.0009201041389011526 0.001198186329461048)
(5.000328832306375 -0.0002033938715352359 -0.0002033344045971296)
(5.000331860842663 -0.003573011937350477 -2.208623823354035e-06)
(5.001793481410199 -0.004085251568537275 0.0001391559017628158)
(5.028212952339365 -0.03477741924099356 -0.502201936304444)
(5.133909619309916 0.1592201398383663 0.2231887933491521)
(5.064276634838198 0.2367151464809695 0.01784340165335732)
(4.588552936325518 0.8073228286322752 0.8125598656783231)
(5.165010269291688 0.2994323027085909 -0.08778783935117684)
(5.001126029824484 -0.0005718147711690047 0.00201825042106631)
(5.000343464156646 -0.0004880714872774511 0.0009614291001906724)
(4.999767916697166 -0.0008511797634006151 -0.0003975072452115505)
(5.002562976869361 0.0007288003240588121 0.002655310669795104)
(5.10064399673145 0.3112335269791365 -0.1227638516544887)
(5.002029432711005 -0.000267172685631397 -0.0008361093130584972)
(4.999830750781134 -0.0002375488135040229 -0.001790574436868461)
(5.009682851606318 -0.001826593623110663 -0.002542911703234093)
(5.000508772216237 0.0005636667955023592 0.000424261831556863)
(5.000094722324996 -0.0006367971120180733 6.668969425897611e-07)
(4.999838541354714 -0.0002312713441148805 -0.0002342858590905188)
(4.968850880264148 -0.005678421404188393 4.351378747367083e-06)
(5.000658209487333 -0.0001768802744944556 -9.635014829900097e-05)
(5.012125316690675 -0.006262636949091466 -0.0005484104250866271)
(5.000570989253683 -0.0001670594913974983 2.530293075208422e-05)
(5.000407839790137 -0.0002690424928912645 4.224911112252314e-05)
(5.00006644338399 -0.0001584697299984274 0.000171126390536271)
(5.000483525956653 -0.0001721873698529029 7.783401020035106e-06)
(5.000437025982413 -0.000214743186245892 -0.0001137323116272958)
(5.000219583797277 4.093873768725286e-05 -0.002106880113944669)
(5.00040597806485 -0.003347209085108886 1.651249272995893e-05)
(5.000199975279713 -0.0002594662101016833 -0.0001584541207660445)
(4.994907322460008 -0.001278131146968901 9.325878178327198e-05)
(5.000262163434229 -0.0002689556970658028 0.0001702818495943252)
(4.999893706500163 -0.0003481821729780307 8.195658946789976e-05)
(5.000564549302546 -0.0001133625202030357 2.538897986729226e-05)
(4.999854382537687 -0.0003030753993579813 -0.0001919912168069869)
(5.016634166277139 -0.001146066791413412 0.002846362066313343)
(5.025008846851844 -0.01952782057751778 0.0121218988541533)
(5.000828281898292 -0.001057433754531127 0.0230351047255164)
(5.000328771532613 0.0003196334313623855 0.0001250794160238565)
(5.000637887273702 -0.0004259463949392413 -5.016047460907178e-05)
(5.007710463452409 -0.001282674256207407 1.726060250094768e-05)
(4.973419893834278 -0.1555546608028026 0.1517688942992181)
(5.001342482828863 -0.0007731787661764358 0.0004037765614795225)
(5.000831360681236 -0.0007743082247016359 -0.01065714836928556)
(5.000399092030011 -0.006804296655482401 0.0001076395839777177)
(5.010364102699446 -0.00780167519020015 0.0005726081600657604)
(5.000136306698828 -0.000113556268134058 9.992426307670223e-06)
(5.000694381347865 -0.0006198368708052405 -0.0007377782417253216)
(5.00026046272234 -0.001327487968577044 -0.0002184814320578936)
(5.001336676003007 -0.002945973365252384 0.01615707083558014)
(5.000027393144753 -0.0003492776510053357 0.0002255036151959701)
(5.001120784815039 -0.001521375135027853 -0.001326634862669027)
(4.999937482871416 -0.0002229911505249104 -4.743736682920492e-05)
(5.000450452866465 -0.0003671125502288645 0.0001184547002386334)
(4.997368353628602 -0.005598068756585913 -0.00108012312304844)
(5.000461057988306 -0.0001483421657309216 -2.945422589622955e-06)
(5.000108718805929 -0.0002864989228986582 -0.0001361209654082147)
(5.002294595246146 -0.0001057597589761318 -0.001550336149275952)
(5.000267615273826 0.0002819058920607796 0.006354841832651894)
(4.999533784881038 -0.0001592375104262777 0.0008085385183638094)
(5.002955858512902 -0.002631483300579344 -0.002277804785528228)
(4.999869796884068 0.002223626972927832 -6.907598335569666e-05)
(4.999800351356423 -0.000168928666867602 4.813257877797472e-05)
(5.00037958532573 -0.002885359724945265 -0.0009788278394960962)
(4.994999241241372 0.001329869437202354 -0.001542151729048798)
(5.000043216304549 3.169774652727615e-05 0.001797243386275431)
(5.00024011349405 -0.00053201170897673 0.0002270262874396535)
(5.000251985984364 -0.000106097754453188 -9.849986080239163e-05)
(4.988672150491608 -0.001008819041217155 -0.001225672607680114)
(4.999765893253381 0.000259349099536551 0.0002737307334176043)
(5.00014405733298 -0.0009858428369324806 -0.000532885961130579)
(4.999595947910932 -0.001018600125451471 -0.0004433746801160778)
(5.001657814414347 -0.001359203034938316 -0.000507435683140153)
(5.00129854377546 -0.0004974553903608571 0.0001516807048071513)
(4.999866629450162 -0.0006778649853362327 -2.6931671126576e-05)
(5.001555826927921 -0.0003450256544801605 -0.0002053505755764179)
(4.999783529005554 -0.0002302400948790785 -0.00025433872493812)
(5.001323726663007 -0.0002247601151478057 -3.901691234210093e-05)
(4.99905935305996 -0.004631428292325442 0.002067014146373425)
(4.999547547198685 -0.0002218481220015158 0.00023182576976616)
(5.000189760676892 -0.0004849398507400181 -6.706288106834131e-05)
(4.985738487925588 -0.002237623292058805 0.001602519099172509)
(5.012539370512903 -0.003411749198092585 0.00180045018000435)
(5.00025011291313 -0.0005312316236201916 -0.0008554110602358025)
(5.000104822541329 -0.0002404838306604553 0.0004246508243047389)
(4.961329970304329 -0.01543649897503875 0.00028184534924186)
(5.015046347114557 -0.0115094559500447 -0.0060668757176315)
(5.000441155402363 -0.0003207390699935124 -3.005473051060488e-05)
(5.000614064242853 -0.0005736973254005968 1.967567700053603e-05)
(5.000276887138447 -0.001246467243376507 0.0003923530376914242)
(5.000273937650911 -0.005808400358971668 -0.0002278767180197134)
(5.017747979502117 -0.006200385472992244 0.002619246493767071)
(5.000282727136089 -9.847810074260186e-05 -4.763589123648482e-05)
(4.999877541462496 -0.000369033900363622 -0.0002628732642149655)
(5.00040568544281 -0.000156388546255821 -2.609066873334918e-05)
(5.000048554349611 -0.0003775484032155416 -2.18868202094669e-05)
(4.999770049136532 -0.0003995915025484008 -0.0002590268304859178)
(5.008685493436314 -0.006579124191595859 0.00470799804307587)
(4.999601717680401 -0.003532178574956145 -0.0001498587645422175)
(4.984317937515533 -0.004117065797084544 0.001757847441506126)
(5.000240684671153 -0.0004272836404627397 -6.743104958143628e-06)
(5.013782730069141 0.02433250724319611 0.02308605498162411)
(5.025980636394318 -0.02349944576940802 0.01104846062576775)
(4.99910328835596 -0.002211238932262734 0.000115961251882587)
(4.992765231987224 -0.005825117223111648 -0.002659966983319834)
(5.000807932191523 -0.002706021249521322 -0.001460944452018243)
(5.000584941918696 -0.0002470646921938697 -0.0002558859265798226)
(5.000831740439944 -0.00049779512626012 0.0001833299576060187)
(4.999960663322605 -0.0008371322004125875 0.02392910258870838)
(5.000774095585466 -0.0004311984226532869 9.933005789087546e-05)
(5.000871038554576 -0.0005489149800986875 9.617124289658129e-05)
(5.000645319487915 -0.001150870302487204 -0.0006992624185787961)
(5.000661268194534 -0.0005081741324673449 0.0001747067190640947)
(5.000148881565534 -0.0002221235639998425 7.391055344416264e-05)
(5.001015964296067 -0.0003831439618336391 0.0001289181640088354)
(5.000131978705806 -2.57364113058933e-05 7.995839807332983e-05)
(4.999544054238745 -0.0002800684990261098 -0.001931349989911477)
(5.00020857868747 -1.013201912491663e-05 -5.390142980214313e-05)
(5.000487847119585 -0.0008690860001745573 -0.0007382091146625986)
(4.999694192840953 -0.002424812144693053 -5.401045322057173e-05)
(5.002866318084298 -0.003745335927312553 -0.001842722840441722)
(5.002426892741209 0.0005662256564275484 -0.00178601466231412)
(5.000306419618116 -0.0002702030918582422 -9.835047327746956e-05)
(5.000935599106115 -0.001925576118953756 -0.001160547901249314)
(5.000278473157844 0.0004604904075884934 0.0002371066379061502)
(5.001485804810562 0.0005199641148085346 -0.009959640177418592)
(5.000241708639911 -0.002121345968967224 0.00124065726640828)
(5.000480437673471 -0.0007879962363098867 -8.853591676621373e-05)
(4.54840526747832 2.114440850545845 -0.1147161452143184)
(5.001623801092249 -0.001051238230839232 -0.01264171095618592)
(5.000761164703428 -0.003190411255124243 -0.001589654012257907)
(5.00045240653254 -0.002551231773745639 0.02322124549324978)
(5.001811023283794 -0.0005556857537556666 0.002030393969767756)
(5.000281269471505 -0.003213860191540415 0.001010279269753853)
(5.000684571287321 -0.0003565261418153996 -3.117627750788237e-05)
(5.000486744290374 -0.0007376557274371587 0.001339353428653785)
(5.000201990851181 -0.0003172294892634784 0.0003592305724126048)
(4.999801028419821 -0.0002954706827333943 0.0001238480764240869)
(5.000421070511558 -0.0001902042258495462 0.00154160523495561)
(5.000235489071323 -3.868822552834908e-05 0.004196285925780897)
(5.000015711447166 -0.0005041219716075386 0.0004613408771108874)
(4.979029180202808 -0.00455369034826958 -0.001201816732036369)
(4.999818910619528 -0.0007116475917965208 7.231690813366942e-05)
(4.999605916654989 -0.0006418472761402133 0.00012743612158357)
(5.023929302849901 -0.02276001982088124 0.01177059271546457)
(5.000208240446264 -0.0006945294257080867 0.0003755251735837617)
(4.999881662487915 -0.0007245876542936069 0.0002755778556698096)
(5.000196943950692 -0.0002986653738681388 3.754111228552519e-05)
(5.056046146295788 0.2380615711111581 -0.2669716430473418)
(5.00097552859547 -0.002690507965707981 0.002525024778978468)
(5.000632373785186 -0.0004437007963990509 -0.0002150221080437209)
(5.00031119361634 -5.947251400782969e-07 -3.953196013565321e-06)
(4.999910669854136 -0.0002661067388959399 -9.908096648685377e-05)
(5.000368325716238 -0.0001100560514508072 -6.741120986497817e-05)
(4.454959072645232 0.01810374898161424 -0.3139787115933166)
(4.126947237504702 0.1476909556432052 -0.2724899965859039)
(5.089727256422233 -0.01593690812699104 0.04738873286218583)
(4.998512327151633 -0.006198770705569093 -0.002779025666758188)
(5.051399674202319 0.1838196222710693 -0.1825882980591049)
(4.195564806143583 -0.5924280181637106 0.06002912576801558)
(4.116024412085978 0.2467341768286015 -0.3313448559520626)
(5.000196518468216 -7.240161786503581e-05 7.242776485340967e-05)
(5.25902345400521 -0.03138562694949941 0.8058672488356264)
(5.108366417171375 0.1203008463172512 0.4219006697133011)
(5.000188455459225 0.001836178897257987 0.0003347657197835475)
(4.999982999385372 -0.0002171884579476472 0.001173371600100828)
(4.905461625948483 0.005067332259761083 -0.02816472071474262)
(3.15449658141354 0.9602959051280687 -0.7156364063335924)
(5.000240548550487 -0.0004684029208762036 8.997669508213137e-05)
(5.000808121987017 -0.005657930752260601 -0.0005222501860802284)
(5.000250811385087 -0.0005688583332440656 0.0004491961760971813)
(4.970212420419488 0.3685134139048306 -0.2046778344085627)
(4.836787196791098 0.2776059842115559 0.05107771565308285)
(4.981861774175291 -0.003332714638441636 -0.0005025864680062184)
(5.001294284465197 -0.0002343219598338983 -0.0001119421138976126)
(5.000105203979799 -0.0001441242836904281 -5.504000186050454e-05)
(4.999933509557889 -0.000461523052821689 -0.0002172695684159528)
(4.999540386880238 -0.004007021288218834 -0.004406132838602324)
(5.000368455298187 -0.0003439510545337061 -0.003663172649537606)
(5.000981921422043 -0.001498556573486663 0.001155363651273289)
(4.999429517569216 -0.001254665569246674 0.0009414738397420998)
(5.19852356591205 0.002919780481075645 -0.4201794945244227)
(4.988744334852573 -0.001286348004190389 -6.163189888623797e-05)
(3.671152759539176 0.6475509157483409 -0.5583180854310051)
(5.000272092936789 -0.001440732032298176 0.0007529520581351484)
(2.853087888400481 0.5270884515740825 0.3061705901611896)
(4.235018490806626 0.008247888478297022 0.4443861227914045)
(5.004673594881499 -0.002745872411003189 -0.0005090787800617079)
(4.344611646128411 0.1058755190439462 -0.2694210720480778)
(5.003798613331689 -0.001793557242442171 0.0006435206251433993)
(4.936186561624028 -0.001836448121603286 -0.009970218431782793)
(5.001222623417194 -0.007108590365799868 0.00478205846449866)
(5.019939650397518 0.0008160048220503847 -0.001526293318585527)
(3.434013802298038 0.1759018588208484 -0.08999180196505878)
(5.000059641789607 -0.002414162998610972 -0.0002460903969511106)
(5.000108576146193 -0.0006515802488080861 0.0001723895490349989)
(5.002855410509634 -0.00155916293204424 -0.01322574475259224)
(4.239410110742875 -0.4443321103168348 0.1190606715788844)
(4.999691812769689 -0.001844117868106415 -0.0001253063831289176)
(5.000194018483842 4.348354704641793e-05 7.42769364830795e-05)
(5.000233644638423 -0.0003203305460975237 6.718981242048352e-05)
(4.999999873948058 -0.0008839330887949979 -0.0001529609376047888)
(5.001006976020294 -0.0002132035802028392 2.214841372159989e-05)
(5.000169384365037 -0.001697613063911531 0.00716397411262522)
(5.032006544757047 0.04814825149244983 0.004319942029951332)
(5.000276591655483 -4.057213621424468e-05 0.0001514667035491651)
(5.020029378970359 -0.01647259207002674 0.0121433078000298)
(5.001646455872505 -0.001584876070651107 -0.0004969872311466185)
(5.007122351698159 0.0009855870986553779 0.0007866309929003637)
(4.928961861106103 0.002452833495715935 -0.0003843661329995916)
(5.000485970635742 -0.0009217476055987504 0.0003017147410084024)
(5.020146875424888 -0.01140527081100636 -0.003501537045867556)
(4.999863898571614 -0.0002539112881541723 -0.0001545466324260069)
(5.010730644039429 -0.006046503918735219 -0.0004563541105362961)
(5.012521965216761 -0.01158734796045491 0.005529103495713352)
(5.000264237400477 -0.0008123275066965792 0.006020479209122384)
(4.939560137160573 0.0002220522992760457 0.001141883260352354)
(5.000675414816392 -0.00128315580243054 0.0003993813178357157)
(5.000550704771114 -0.001700640660571247 0.0004949240876688324)
(5.005270184509636 -0.001928114100209249 -0.0004932480737345232)
(4.204332836563177 0.1641579214534697 -0.1499572463176289)
(5.000266313747169 -0.0001312130156919511 -0.0001251541145637165)
(5.000322015915049 -0.0001122057621263794 1.617291839339263e-05)
(5.000509949594623 -0.001523401385354445 0.0006178954995321023)
(4.996882744553688 0.06308190487374075 -0.002623722914408881)
(5.000486728740898 -0.0004869334612248486 0.000136637340321373)
(5.000531126818385 -0.001720950179808563 -0.000570073618439973)
(5.000236285862814 -0.0002202844772856058 7.447202776758385e-05)
(5.023826233634895 -0.008719690583577919 -0.001002038765927349)
(5.000467029981725 -0.0005343513753587657 1.049315622755523e-05)
(5.000182806347955 -0.0002792983420775274 0.0001433769842376211)
(5.000615271666244 -0.001487408186327061 0.001042891623652925)
(5.028039557346308 -0.03410476184765746 -0.052051727589467)
(5.000493121872358 -0.0004979091838666323 2.690435436190544e-05)
(5.000584512959461 -0.000508297581106522 1.168655823265533e-05)
(5.000425887230546 -0.001926653492319943 -5.805604175402972e-05)
(5.000604746470724 -0.001935096168699413 0.0004086101623899768)
(4.999981300977204 -0.0004301135758700392 0.0002339368797901362)
(5.000375343768105 -0.001148859483779326 0.0003477054683471881)
(5.000559433249781 -0.001124939512246249 0.00029080280050851)
(5.000507887533751 -0.00111455726679877 0.0002732428922051726)
(5.000394380750357 -0.001373830408962553 0.0001047858482878486)
(5.000255980455533 -8.559732514044248e-05 -3.250408639242652e-05)
(5.000095137547009 -0.0006394446475068173 0.0001929271071483728)
(5.000693130894011 -0.001515529940482622 -0.0006582572825160536)
(5.000569551204324 -0.00149629684617534 5.593175384868822e-05)
(4.994573685566646 0.001372865475931412 0.001709760134784892)
(5.00060177731248 -0.001302244130428745 -0.001016040114105622)
(5.00650015059276 -0.0016710883457028 -0.000116502678908413)
(5.002282234880298 7.824713184066348e-05 -0.0001068632010659689)
(5.000520164717553 -0.0003632221417732198 -3.188085990699218e-05)
(5.000013983580243 -0.001128264635040669 -0.01033404764645325)
(4.808641135755896 -0.01505089975358984 0.03510723412376363)
(5.000364232330027 -5.401077838062758e-06 0.003617102929161861)
(5.024286974252728 0.01711874570724962 -0.01561305298779593)
(5.000417388081368 -0.0007319772637495979 -0.0002511433151104215)
(5.044095819775899 -0.03854015550510396 -0.02375877988777781)
(5.00059302805353 -0.000865714064852108 -0.0001848370051375534)
(4.99901820838521 -0.002665366594737578 0.003606473953804149)
(5.000005729381112 -0.001717091219770803 -7.68348628028179e-05)
(5.00028368897859 -0.001872816669904753 -0.0004364195331718601)
(4.990300914370939 0.04630799255545422 -0.03553289759421033)
(5.000282612425373 -0.001850144956744085 -0.0001242901509121284)
(5.000270515237858 -0.0004651366291548036 0.001134623730428662)
(5.000435529731281 -0.00177200976859664 -0.0003946789294917546)
(5.000524470449097 -0.0007231321012950429 0.0005025008001675148)
(5.000306441059629 -0.0002258729511891434 -0.0002052140972647754)
(4.999433466212619 -0.001647672220422946 -0.0005750197798353847)
(5.000061441382506 -0.0008330891862051574 0.0004131083878974101)
(5.000133947927154 8.333787236301407e-05 -0.0004787215885379454)
(5.000182314500398 -0.0005286348552082176 0.0001055262267235452)
(4.999957779858013 -0.0004206871971573928 8.731964490061607e-05)
(4.999177743795508 0.000524317522059025 -0.0001010264860851801)
(5.063534974923415 -0.04348033287194851 0.02231326997757865)
(5.000263899415629 -0.0004891545992246956 4.08461145196505e-05)
(5.000202603783848 -0.0005049336861962888 0.0001674523631997318)
(5.000204442662706 -0.0007109347568314759 0.0003124251122617983)
(5.000173079459741 -0.0005626563989566409 0.0001808241565165443)
(5.000391596254531 -0.0004682702164878981 -8.10642892934329e-05)
(5.000432161490834 -0.0005211019501004568 -1.284742047613845e-05)
(5.000148389810279 -0.0005930489969612517 7.864654306324866e-05)
(5.000295944063337 -0.0006889486506762621 0.0003234739328436716)
(5.000401415855193 -0.000766243667351276 0.0005078783244660666)
(5.000283598804679 -0.0007870532783131704 0.000281773680513631)
(4.999946795772659 -0.0007004572943153228 -0.002566435365434847)
(5.000492537032502 0.0007822062030744898 -0.00704640645330802)
(5.00039769776181 -0.00116586852548104 -6.710490525277503e-05)
(4.999121981853382 -0.0008596575163801966 0.002786091688320841)
(5.000993662082132 -0.000581155964821023 -0.0004684326630623431)
(5.000423618991259 -0.001050951913417391 0.0005616067589887555)
(5.00014421867596 -0.0002441266531939798 -0.0001876823071659737)
(5.000561959128436 -0.001177387506542195 0.0007666132596173824)
(5.000583270911557 -0.0008202421003024909 0.0002267748398588207)
(5.000589116756982 -0.0009188052106302697 0.0005632588551930961)
(5.000619656274528 -0.001156737603990899 0.0007870230263078371)
(5.000276033504013 -0.0009289814507161071 0.0005154991803352499)
(5.000455293735644 -0.000349885528711097 -9.530429988227588e-05)
(5.000481972799606 -0.001093013789206036 0.000332621532229757)
(5.000710302834682 -0.0005870139811109383 0.0003836024935854592)
(5.001679511364968 -0.00302780028953907 -0.0003901404880405939)
(5.0002978588639 -0.0001156665741853029 -0.0001081883104447091)
(5.001154018312844 -0.0003635329602334733 -0.0002006621009337543)