/*--------------------------------*- C++ -*----------------------------------*\
| =========                 |                                                 |
| \\      /  F ield         | OpenFOAM: The Open Source CFD Toolbox           |
|  \\    /   O peration     | Version:  v1906                                 |
|   \\  /    A nd           | Web:      www.OpenFOAM.com                      |
|    \\/     M anipulation  |                                                 |
\*---------------------------------------------------------------------------*/
FoamFile
{
    version     2.0;
    format      ascii;
    class       volVectorField;
    location    "1.3";
    object      U;
}
// * * * * * * * * * * * * * * * * * * * * * * * * * * * * * * * * * * * * * //

dimensions      [0 1 -1 0 0 0 0];


internalField   nonuniform List<vector> 
19631
(
(4.997284955917001 0.003827743067992034 -0.007375575044958053)
(4.947249636536255 0.1370668603947956 0.4368712237848778)
(4.831950982287301 -0.05272263816043694 0.4646077580774121)
(4.045478546097591 0.007392888060310055 0.24828834877666)
(4.999776497046982 -0.004828498012309391 0.001163959526878099)
(5.083012494066605 -0.07162454435097586 -0.03626210601333068)
(5.038599999519038 -0.01230541355427294 -0.01489763326151238)
(4.891605576908399 -0.04725122944139037 -0.1143632482538207)
(5.006249409542776 0.04059458782367049 -0.01751568762245583)
(5.022490088431626 -0.04279797477608117 0.01889959415037615)
(4.983550945934829 -0.03629465964719236 -0.08446258394769793)
(5.044741783164588 0.01108419600726803 0.02983122808374672)
(2.573957468932254 -0.227798151397888 -0.1726466224162955)
(5.033780188194391 -0.05111548160330079 -0.01656437746457014)
(5.020770790800311 -0.02110031436432402 -0.004855954056125637)
(5.018542935167926 0.03415241083106212 -0.03053986699875268)
(5.072386377640494 0.06871327480569016 -0.1599261885220616)
(5.021435846855083 -0.01522742976249848 -0.001085707840810316)
(4.988683649490868 -0.0008193676846935345 0.0005771640999053186)
(5.013922341037723 0.2747202974894029 0.2491734069180289)
(5.005842098300852 -0.004713096955491593 0.007518965717118542)
(5.026019974932382 0.007917112942402433 -0.02194033207485368)
(5.001939079978849 -0.0460778289670314 -0.05596758575798259)
(4.866526936744603 -0.26606704365166 -0.08976279914930843)
(5.032128276012216 -0.02401477714252476 -0.005750343018852115)
(5.025374661762385 -0.01422692503147572 0.002769868320410171)
(5.052897733897071 -0.006667354510260047 0.02905840207844764)
(4.977819823819575 0.06113791973634712 0.04935470072168704)
(4.055494485218568 -0.8642067130435575 0.1901575892402478)
(5.050710085234997 -0.02949781062066446 0.006936098458654397)
(5.004100416437462 -0.00317657581034704 0.002069048082729977)
(4.997873219334434 -0.1800702803506096 -0.07335843893920531)
(2.394058722268363 -3.334808926965059 -2.079918520755109)
(5.031428471769471 -0.01454929561006299 -0.01554525880849071)
(5.113648817846134 -0.1692800345020319 0.02359517424326734)
(5.028839862442398 -0.01123102173505653 0.00771411729846434)
(5.068657645688076 -0.03782480098486519 0.03022292334337577)
(5.002610806916999 -0.01219556312802542 0.002849160535909417)
(5.044709513878924 -0.02652407560218598 0.08735492132748281)
(5.062771476848571 -0.03935252962594111 -0.04643185534631845)
(4.908398143655159 -0.2211362264747548 -0.1480004786517633)
(4.451055169443201 -0.1196344010876715 -0.3773121025336811)
(5.079051486545803 -0.04958814091196879 -0.01401516452887722)
(4.068825592244848 0.002448487535067719 -0.2191086354734636)
(4.98560506416645 -0.1272242924839306 0.0549597396141594)
(3.852585447880157 -0.06050346331700993 -0.1738157912899119)
(4.711289904926774 -0.3366157061572359 0.08426633687984841)
(4.910643249420055 0.2109949111551113 -0.6636880316709265)
(5.067987994470432 -0.0567976226810445 0.005802661580514371)
(5.013455540534822 0.01997528364333926 0.08013348974367875)
(4.97553024382552 -0.008737818628993945 -0.003996327050186364)
(5.049968974185331 0.0117761309593339 0.01846761184140277)
(4.487807592257186 0.01814402774499644 0.02570978761878628)
(5.079075180524595 -0.03379847160217573 0.0009361985174207187)
(4.980912683773149 -0.03778040015281011 0.06163394056182254)
(5.014756710763751 -0.1978878445260713 -0.1942003941295609)
(5.075393779534174 -0.1876692384390693 0.09289789602478875)
(5.032603071614878 -0.008525176758953711 0.01291670999575385)
(5.057358194180917 -0.02428768276995569 -0.08893974040150669)
(4.192742890726486 -0.0551192839883836 0.2601725957126163)
(4.385915525571697 0.2761865327203978 -0.06858462163950005)
(5.138881337531963 -0.172682248830645 0.2102901683024052)
(4.852829882976692 -0.1037016306921699 -0.1474592339991494)
(5.108840889883985 -0.112188250213482 -0.006428068880103203)
(4.025778014689632 0.5486840369746276 -0.516278771636507)
(4.995910776387083 0.00470389539633581 -0.366819670141581)
(5.032646257114081 -0.007878995105231096 -0.01170854329626116)
(4.990656478946836 -0.01109728730257095 0.02223772037414622)
(3.589990136042913 0.1647826147873006 -0.4204283746736201)
(4.997152452125515 0.01040599616154018 0.07000817957968612)
(4.010450210048383 -0.04431949312597396 0.05238813250851225)
(5.082512516717657 -0.0785372408819217 -0.07942406028737777)
(5.098905808920924 -0.05344643385862673 0.02495496994189919)
(4.569965493300091 -0.3123916314605372 -0.6343582219668259)
(5.067357570151113 -0.05423589852446141 -0.1430417318288721)
(3.891698123553754 -0.1568319343304135 -0.05955083610574562)
(5.012183201017084 -0.03037409293111385 -0.04549716332873813)
(4.729172471792339 0.02099109310010226 0.6133538168084651)
(2.764239802827749 0.09627897430241776 -0.0749477248788718)
(5.040159282104298 0.01060914233159819 -0.008609438203094474)
(2.155749497307164 -0.1211013692971891 -0.102814420755027)
(4.940765725717915 0.2163283575418141 0.1645554426854869)
(4.44426725327628 0.06091675173678934 -0.1283566746357585)
(3.617418303277402 0.3572209600844063 -0.1986689721736054)
(5.056087585070159 -0.03115370867819685 -0.03791710172819763)
(5.093694677832913 -0.08688216042891556 -0.03372115962620179)
(5.084365309445121 -0.1363461705918281 0.02579798881686652)
(3.941165586260428 0.146517633121833 0.002995508406727499)
(4.122423186966569 -0.03396358059929813 0.2551754552337824)
(4.372405228312032 0.008928374873716255 -0.02712522737979933)
(5.109247396306647 -0.07271742783944571 -0.1473706222907469)
(4.310234718899857 -0.01954543471580956 -0.1167320067032742)
(5.11627263544792 -0.2414232173068455 -0.06467561043988815)
(5.097295571403238 -0.1083748777135511 0.04799934660681455)
(5.008664459768251 -0.1515440057517069 0.05068543808378115)
(5.113238699212081 -0.1151146951667757 0.03568545901073294)
(3.914753688187135 -0.3975643317974784 -0.4457634088809949)
(5.024617612540012 -0.0099128820060059 -0.1779477261128246)
(5.112534857818088 -0.1590895732989858 0.07329719474480312)
(5.077052465558787 -0.09445263905068414 0.02732312847167663)
(5.022386904449643 -0.02931660938918824 -0.003255966377477867)
(3.076368828352124 -0.04557275362890276 0.2431877544011584)
(5.033259862708623 -0.0217902248807821 0.01516186815304872)
(1.841054128008098 -0.2205179111974878 0.01538056572738311)
(4.929946793183325 -0.06554775920852852 0.298451351925568)
(5.056441159543443 -0.2160049505120478 -0.101642812879415)
(5.042141478967397 -0.01571660732651792 0.01046144127725491)
(4.115397101706051 -0.2441793277674245 -0.2240607473001443)
(5.029643030493968 -0.03301811547090658 0.01237398659861592)
(4.978779842631996 0.01404891563878018 0.005461590206864637)
(5.085687937406613 -0.03390622790940275 0.03298116239573092)
(4.304989922392052 -0.1954990886594848 0.1745421832669604)
(5.017763762805429 -0.04302488065255978 0.009507245199955938)
(2.736863295085028 -0.3902479935853655 0.09705628885759464)
(3.423769894343325 0.05096137156341745 -0.1152381228811707)
(4.909716982309662 -0.04208603067623799 -0.1610500837542249)
(4.752945341120154 0.1749644849714516 -0.6162017436447251)
(5.064831985199078 -0.06948406670384764 -0.0660799906961579)
(2.910641183197475 -0.01738140158227944 0.1799070023660055)
(5.004915992237538 0.002206866094740989 0.001005640483084186)
(4.993188786179273 -0.09893695947697527 0.0905329071239112)
(5.02064628904422 -0.08101831204543732 -0.02370996181928537)
(5.028531488259921 -0.01671035412193644 -0.01018751936470888)
(4.98527158920923 -0.02386359096102919 -0.02125608582343469)
(11.48027297839616 -0.2610319680801775 2.42434081391418)
(5.021664501139754 -0.02440686787362426 -0.01954239489898892)
(4.59905670059491 -0.03398167841068303 0.1339821104032145)
(5.030890206960978 -0.01344728886564493 -0.01288195467840812)
(5.017818578696934 -0.02377253316530681 -0.000992213878840346)
(5.038495369528636 -0.002357509496927383 0.01521537684551399)
(5.070714078209183 -0.2189421446051678 0.1682856887566215)
(4.501560497756733 -0.1063690442906702 -0.1432209822242159)
(3.670435515326228 -0.3419362054673338 -0.07982094280403035)
(3.561890718261619 0.2389791005904981 0.91321001884179)
(5.033393234455776 -0.02023894907706737 -0.01730392730785986)
(5.04790201678159 -0.01455510635929901 0.01890709726241813)
(5.067104803113035 -0.06714533133788547 -0.03505683512916149)
(4.674091227784769 0.04432399877524928 0.07064892314264057)
(5.001287813135242 -0.1992297035517693 -0.02037383359185782)
(5.05699129570304 -0.003042580220884289 -0.06762482910677824)
(4.886172633658765 -0.02324516662201697 0.02630248363497446)
(7.145146662974243 0.7532829954954366 -0.2297484698578933)
(4.965777277373198 0.06461214644850181 -0.2297961294127547)
(5.091038249541859 -0.08468850191306737 -0.04660280538679989)
(5.066066219966034 -0.05125924437034435 0.09914910782341177)
(5.055699537022803 -0.03034619060321054 -0.06850067394387337)
(5.037226164034065 -0.01404660126883109 -0.09156544035534166)
(5.020737905649554 -0.03163515127710616 -0.005078122397967742)
(5.10207573145709 -0.05750273161779466 0.08624148371403254)
(4.697285976840672 0.07550301603209782 0.04036206548331778)
(5.011468737962304 -0.003177843067420365 -0.007470164184665402)
(5.054181347999607 0.02798053118849605 0.005545413856548493)
(5.038569569873967 -0.03259228490444403 0.01518971611463965)
(5.052104404674775 -0.007625990845170774 -0.01197711281946399)
(5.010952713710751 -0.004198541510813419 -0.004638503482942188)
(5.031065183010648 0.01159496674698015 -0.0273897349254529)
(3.615987395862622 0.385727914127623 0.1971365023949999)
(5.088009451009311 -0.07381132343269579 -0.07131098689763747)
(5.084099160211601 -0.1394769562723198 -0.04106786498361976)
(5.033837603011841 -0.04771662076731649 -0.005395354409224763)
(5.014520544715397 0.002958964783931556 -0.01551879497876187)
(5.00335075194972 0.03219268909919196 -0.02554350952333494)
(4.729352533148736 -0.4798396820847455 -0.5600787622712708)
(4.999351422196249 -0.00792917625133541 -0.08053753135040632)
(5.033607845259648 -0.007256658422170117 0.0001001244693588717)
(5.029241517366208 -0.01082327676717084 -0.007662766546133152)
(5.026100618229374 -0.009905295678224716 -0.009976140862555266)
(5.018388257678982 -0.0244469734331217 -0.005894081881609239)
(4.995242999520877 -0.001499306763033888 -0.0001727929084067131)
(4.598296271418898 -0.132489312877675 -0.3920245703258753)
(5.10428390501866 0.07835963238185263 0.08067389283290757)
(4.889250604278165 0.2825519093245324 0.07193246427254678)
(5.058897569136279 -0.02199928841630039 0.02007218750225112)
(5.201115741873227 -0.007754679002887678 0.04865268527918774)
(4.992413339218364 -0.08053996000062266 -0.006986698736604858)
(4.6661510639508 0.07429269938611092 -0.236096147471391)
(5.047282480172186 0.01522113925153465 0.01590264045459345)
(3.429995268205222 -0.05928495801390871 0.09167482650664728)
(5.04388541632653 -0.0255204298231623 -0.009501160742193648)
(4.62123466254763 -0.1669620567345931 -0.09592418594114627)
(5.097889259103807 -0.161152223707553 0.03610649024087765)
(4.988807303796781 -0.0160663085856814 -0.02765945292695883)
(4.937663171051523 -0.01140937985543264 0.06402209830106644)
(5.088292687857364 0.005860835425277014 0.003822097849382577)
(3.933031453278814 -0.3836515164540421 -0.3689312334108661)
(2.425359290420675 -0.1780702664151375 -0.01586682821295677)
(4.256658263283229 0.114597269989034 -0.1766869120736984)
(4.99798804637659 0.002111321110167689 0.01533775320625899)
(4.601715050629426 -0.1111130139822618 0.08747506667275678)
(5.03349903755592 -0.02549487811359421 0.006420143947924855)
(2.914017073286761 0.03945806126187874 0.3703228165730243)
(5.12370026125057 -0.08343286228716798 -0.03621365104807362)
(4.908219807569621 0.07393737867882602 -0.06262446124268051)
(5.023786609283993 0.03221890157551722 -0.04540617553802277)
(3.696531708129683 0.2118515079900088 -0.03476786628958493)
(5.140279467857176 -0.1087251835398081 -0.04484790004080618)
(5.010533868686231 -0.03757961794559155 0.003859416796415002)
(4.930573639420335 -0.07340973644056027 0.163955214588018)
(2.681633516301738 -1.337510972757372 -1.288960915926067)
(4.897665233424349 -0.3218445050638184 0.2321868438531463)
(4.017956830589445 -0.07094122673246199 0.9404690538657038)
(4.999996855543906 0.05939090840977083 0.1848802013865535)
(2.084982277688403 0.2244019880826333 0.1964816918504765)
(4.285000560568887 0.2178363368888918 -0.08746817908358932)
(5.014430874014429 -0.03464227923338897 0.01686842282443543)
(5.01726706475611 0.004486481202898993 -0.01629214800279223)
(4.952740329714266 -0.01168568349517314 -0.0130006911793802)
(3.497700615929991 -0.07312914776897544 0.01874338742398584)
(5.029983970479678 -0.08161192086398354 -0.01582950975524629)
(5.047262187943116 -0.05172153004218514 0.1146421923110122)
(5.058919757409636 -0.05927005744276616 0.02507392294430905)
(4.997534159064386 -0.01908631998804836 -0.3402758546380895)
(5.015414857807595 -0.1348034116482463 -0.01636406128510152)
(4.995119143713475 -0.007239707821490565 -0.008791024789364412)
(5.04818460957009 -0.06356432403578363 0.002400672082638064)
(4.38275186262458 -0.1529465887580449 -0.2235408535971965)
(4.863052541110132 -0.2856810823311991 -0.2230560705051027)
(4.791453662408761 -0.219698809099201 -0.1351539616964698)
(5.010811712648934 -0.008460796803258393 -0.005437022137247643)
(4.966887635371092 -0.01215307774032789 0.1801549116873078)
(5.002238307268666 -0.001062867496872932 -0.0162921013771209)
(4.991854990221916 0.2148215840154588 0.1608159244832852)
(5.173140368899896 -0.194283690922679 -0.1414049733004272)
(4.898193994622928 0.15602185800403 0.1463973707523183)
(4.917610781209767 -0.02718896641464314 0.2194858305094341)
(2.84144263498196 0.00676976986681194 -0.05967775143747901)
(5.062640952081913 -0.05790348873306659 0.02022646606517696)
(5.079767157496794 -0.03197013822656969 -0.02023341492960115)
(4.736056010657739 0.1347117396877739 0.05337549997846799)
(4.812115994601118 -0.1023920008651069 -0.03389478481091243)
(4.897953378678753 0.06948245689590594 0.1193932058107023)
(4.824527597778922 -0.108875542305244 -0.0555638367709399)
(2.889915835150003 -0.2051038647908347 -0.3181980256348279)
(2.229894937531661 -0.02990195604043419 -0.1583815150910388)
(4.937679624968823 0.00458283755463381 -0.018482526145441)
(5.079607661901871 -0.1053182068489174 0.1007551716953612)
(5.147342807289164 0.03831896451979799 0.1925213957807236)
(5.098689322485009 -0.09199993221082609 -0.04209209609588637)
(4.374780105409247 0.6996880213954129 -0.3429754419313413)
(5.10089638783127 -0.0650564048262145 -0.0204378020124095)
(5.00013876162772 0.007441585735156995 0.007968086619431467)
(5.016623785147606 -0.06040968502421291 0.02879138888308182)
(5.109268156688713 -0.2481836807446245 -0.2044551692309473)
(5.011130478821827 -0.001673075929622053 0.003058673050532211)
(3.380692966074956 -0.2907093886077579 0.3337437103485413)
(3.102199718026673 -0.04120020635182481 -0.05273857295052179)
(4.980184715577717 -0.03165570615392128 -0.04776755884463518)
(5.061442651066215 -0.07201229578518671 -0.02496746025793957)
(4.367052427012429 -0.1140988963644441 0.04709095136209013)
(4.759424105694288 0.7228082230381713 0.6858781937682127)
(2.675537764974663 0.006814537918339011 0.006645921291887006)
(2.771732717125519 0.1212736957105774 -0.1325194107838112)
(5.148335226206403 -0.08639237721439091 0.1548595649462648)
(4.95222893926601 -0.1653618632338952 0.004274376770244269)
(2.063613542694561 -0.1268118639158597 -0.1415917825284976)
(4.942559775560905 -0.4088380438780752 0.1867442408286475)
(5.056229622879377 -0.02635624357443598 0.09350862884997162)
(4.198708192562251 0.0472702873516009 -0.003784928751069668)
(5.036154528655885 0.007117962270590526 0.01136126278085985)
(4.172678692722154 -0.0257663809063065 -0.2764514669652035)
(4.353837835212448 0.1930779757527244 -0.1067390917811224)
(5.088053662291093 -0.1096314833378764 -0.1721081512560824)
(5.094976493641353 -0.09092914100163096 0.1503201074468305)
(5.122673769411349 -0.3323725631658283 -0.1144511137891514)
(5.014354214190634 0.3872303227206555 0.015193351994144)
(4.103797760707422 -0.004025995156428459 -0.1777989528870061)
(4.339131305597492 -0.2883800492869963 0.01939968697207753)
(3.017152052244301 -0.3306411265845487 0.1284206686450639)
(3.715352421031134 0.1633896587748878 -0.0114442336580889)
(5.097386477741725 -0.1044104250425542 -0.02131993070540499)
(3.726457482403315 0.7205615230780037 0.4879992698533451)
(4.93850065562105 -0.03155840345704283 -0.1243339150425202)
(3.702290355435928 -0.1663384947481058 -0.06243854694615165)
(4.986798706935359 -0.04788101310518606 -0.06511291516905449)
(4.975396725902971 -0.04585959273833297 0.0475112140838554)
(5.097354719151629 -0.04486624642643602 0.01078925636286866)
(4.229717573012328 -0.2258738329048056 -0.07626617810060782)
(3.563434833925333 -0.4734816706761795 0.08056600895420173)
(5.097195412959795 -0.07571036921436941 0.1489844238340458)
(4.961268969283315 0.1258820955263597 -0.07871585588839554)
(4.561441806009247 -0.3865829448412934 -0.1628084868238733)
(3.222721164930783 -0.1212268117828237 0.2537886557165708)
(5.057283615444972 -0.09837276272209709 0.007842050843072806)
(5.093516185502844 0.07424105359950965 -0.03334393231270035)
(4.771842491425262 -0.1602690344759187 0.02931566180049458)
(5.03757281836389 -0.09436881211978375 0.0118266366591379)
(5.010569604057721 -0.001588254134620577 -0.01752732478925246)
(5.060954679451259 -0.09723974745471635 0.05096719378520829)
(4.948963143125223 -0.2515919321721831 0.03787714407718489)
(5.06290204817776 -0.04052847351062485 -0.09524182993602502)
(4.889805487293208 -0.003614431824150894 -0.33097779733501)
(4.108987731088483 0.3684687733507455 0.3256883626081349)
(4.981275353622552 0.1813879698478288 0.05251300073293283)
(5.033965895805447 -0.02358684988062432 0.0005133639255673566)
(5.006759708196261 -0.001496768211288592 -0.005182952403155289)
(5.103584961488258 -0.06455435167023511 0.3997650940407335)
(4.893100156555032 -0.2061758713738637 0.09978378591728655)
(4.397523756823725 -0.2806768720646189 0.1181750233879759)
(4.666529433036876 0.0997170940368652 -0.2215492810364572)
(3.216611443413537 -0.1297370756598752 -0.02205744492823483)
(4.355351056677612 -0.1196412634804113 0.008386134732633624)
(4.912983732185811 0.3413187790287722 0.03285493906283142)
(4.90500176319638 -0.09200497834680084 0.00938826329028649)
(4.995672163775414 -0.2713977268946968 -0.1678192490127924)
(4.632595886130551 -0.01661003977726905 0.01394358907039135)
(5.050031707877594 -0.03042394244008961 0.03902000364862038)
(2.596709936030177 -0.3474775688104996 0.07506252597285985)
(5.00885408744708 0.008761028503554463 -0.002569353766761357)
(4.979915443665693 0.006153000719739313 0.002936891780892822)
(5.000462142633385 -0.01988484179253849 -0.005229198081775945)
(4.976286734504367 0.006670731307833455 -0.01631540471866689)
(2.694649597276077 -0.1671948102571052 0.2328766488027655)
(4.693069349511043 -0.2946949952317602 0.03383245644981603)
(5.07810179182078 -0.04887694192116637 0.02873084515503493)
(5.043196001855414 -0.01354759355427064 0.008681454714104482)
(4.986777348324497 -0.05856603391568604 0.1118841643924507)
(4.979248794383505 -0.007360582218476043 -0.0129907696498931)
(4.981013204716498 -0.007992296890723963 -0.005125310033663293)
(3.970344563530364 -0.2173230380972023 -0.03720299614821576)
(4.999428599847433 -0.001929897317424818 0.00757074685525407)
(5.039665722364438 -0.2955594026379883 0.101272452661603)
(1.490438693659655 -0.1369823667417704 -0.0005174392210782934)
(4.999497647387851 -0.028743240856654 -0.1224085992823865)
(4.884175978591683 0.04476844820233027 0.05810441747114917)
(3.973997076690911 0.02626747966370373 -0.1370395275891341)
(4.027458758864752 -0.1581605926046839 -0.04894178227725973)
(5.090789434795619 -0.1380985187773239 -0.1013955505666801)
(4.364998293996097 0.5851158599457215 -0.3386038425070116)
(5.116059955606777 -0.1220195968177504 -0.06497019320071439)
(5.036633565476104 -0.1326924701793034 -0.1233681588817256)
(4.98950775491657 0.07182208778338356 0.1337805657243377)
(5.044527575351187 -0.01709039590085576 -0.04121771408945891)
(5.005947502889041 0.04367126367790666 0.0895442480386249)
(4.988678645125441 0.03747775701979467 0.08473829354620949)
(4.022826696104144 0.1319587007821679 -0.4715664998545043)
(5.017448809099567 0.03659827622315116 0.04106531796638047)
(3.601872974737999 -0.3938651646222854 -0.583079383389996)
(4.391163956872835 -0.1631741344381807 -0.1732508054930388)
(5.000749712207973 -0.01121137703241171 -0.003675435791367838)
(5.076422424560964 -0.05989531543348565 0.02937020489075959)
(5.03712540259564 -0.0077331551831485 0.04292534457202907)
(4.910561448594003 -0.0763151370769555 -0.140561268094672)
(5.062796139061625 -0.04413070517184549 -0.0189486415510303)
(2.994468786570767 -0.02935453903976364 -0.1308847699378209)
(4.705724309437801 -0.4164927664534685 -0.3137029175657373)
(4.008178233038763 0.718024773086705 0.1850532708027736)
(5.0151323377778 -0.0242370184083613 0.02893806746864984)
(4.948373521127538 0.1485448907344233 0.2781992652773709)
(5.075278629048422 -0.09872271468987051 0.02117696540344761)
(5.032201273194338 0.005064620503153896 -0.04741339301115613)
(5.082804159187397 -0.07810354006805088 -0.04812985993216708)
(4.966286053868902 -0.07978891056927555 0.09544798103832886)
(3.589316840462662 -0.1794314951446227 -0.07838434654841106)
(4.066558689613681 -0.2078917582382105 -0.03781022623253163)
(5.059148067354024 -0.08977026356669604 0.06900266275300419)
(4.224687938993914 -0.3263693568549557 -0.03262371658391779)
(5.071994763401355 -0.05430513509770155 0.1014743735193986)
(3.874217163529905 0.147352073946364 0.01511231482562209)
(5.131948142421384 -0.1827984373238146 0.0618939633359124)
(5.021524556533686 0.1275320096911301 -0.149042655851828)
(5.089663710522315 -0.06392867834549215 0.0007450544878402578)
(3.082049763636421 -0.1766849653346287 -0.03598824069608353)
(4.983039134505606 0.1187391843383114 -0.237713468554176)
(5.006748386847871 0.04456732880697072 -0.03178762930661376)
(4.885635408484693 0.2014639993372198 0.1523622732527606)
(5.064852616447065 -0.05338529584687188 0.02263057028630181)
(3.326359262569425 -0.1736641012995838 0.2281834123176485)
(4.918780898639968 -0.02282121844096039 -0.009217658441800983)
(5.059148290259982 -0.05694158524500418 0.02118127133240488)
(4.919584801434754 -0.02962202471016793 -0.07716579568084177)
(5.002136396737413 -0.009606254440657323 0.009849929338670097)
(5.004352872604488 -0.002458315708283611 0.01185119391790386)
(5.097683406022766 -0.05338281368319316 -0.06602542322841641)
(4.891601175436842 0.1300132926641398 0.1831987320741086)
(5.124985946210591 -0.009864625884443487 -0.02500080121404786)
(4.997958304770062 0.01494775637453139 -0.003105712815800267)
(4.92341042043549 0.02052028396399889 0.3711557511904811)
(5.030316538124685 -0.002200310712752296 0.0108568966911524)
(5.090679632096027 -0.05397087555994261 0.005200230224099001)
(5.018521791872989 -0.04392629152409622 0.0548060249636498)
(3.690268750955697 0.2151485849780927 0.1541815723963497)
(5.024690928316481 0.01057947488855731 0.01790615539183892)
(4.996375989464468 -0.004859532182800859 0.02075345802101459)
(5.01164199845552 -0.001230437113587858 0.001992418262511088)
(4.735742101541088 -0.09347061770223891 0.5760232126180721)
(5.178366297042163 0.3232916587265878 -0.2088433845946492)
(5.060637737691597 0.0469506090842201 -0.005189701010339338)
(5.113666835735308 -0.09491110430854063 -0.1427201240300762)
(5.050667784134532 -0.1400860882407163 0.01607960748694054)
(4.597277693348825 -0.2454405938747789 -0.2039407341066766)
(4.726171042974523 -0.2757699968116236 -0.03162272657053172)
(5.00211399042439 0.005042637919467483 -0.01125150055391307)
(2.653617555043715 -0.2936065931047507 -0.1305779602345095)
(2.806174598110778 -0.3600132732791355 -0.2322389115413262)
(5.060957777510852 -0.1093365107762416 0.142833931399601)
(5.005141023915092 0.002469765747562014 -0.00588523141165985)
(5.012792979285747 0.001674626933334759 -0.004203892593174663)
(4.798597333465203 -0.1857691046694299 0.2162652963574346)
(5.003315613305991 -0.0928790257266463 -0.0408527223618386)
(5.063178329327401 -0.1226227114996353 0.1097023944556146)
(2.217486751100404 -0.05267812312284337 -0.1273416864417502)
(5.055597847977174 0.004102472965212749 -0.1605403910774328)
(5.076864634252405 -0.1962777932028648 -0.008498360317132175)
(2.684786313020973 -0.09933483514960748 -0.02966136918377526)
(3.989032795246644 -0.1523054710244828 -0.3678060523992689)
(1.879243781945234 -0.196015439631015 -0.2378292837646817)
(4.547284935701859 -0.7025828636340148 0.3810305273073653)
(4.870200465725432 -0.06096964954548189 -0.7065111319157202)
(2.726738616902885 -0.4492763096083605 -0.2528390919258801)
(5.071794801610707 0.1866607135092669 -0.5802894045422349)
(1.883828992013025 0.01969126718225156 -0.01827364333027825)
(4.581984536740038 -0.1925615252590881 0.2968526159459739)
(4.964125651002769 0.07701110616580727 0.01268964510953462)
(5.048828485351191 -0.1380765376941156 -0.04714853572081325)
(5.121561315854724 -0.0916927113928509 -0.05880031350175232)
(4.990430295787611 -0.07901637492208279 -0.002662015419914604)
(4.333195082277461 -0.3489896220699805 -0.5471927971897138)
(5.075491116102532 -0.03567764170093918 0.1014424246584954)
(3.94036004438578 0.279636440313894 -0.6141916560081816)
(4.246177956066252 -0.1835254183883333 -0.1946915399368717)
(5.006392756479972 0.05035014371032507 -0.0351652169935314)
(5.016141844528003 -0.02097574386292527 0.02529197917321771)
(4.857332959871226 0.2167989313863572 0.0273348822183121)
(4.823588291170124 -0.1361909944063695 0.5023035807952064)
(4.963465605832496 0.05922844489832584 0.09564300397620878)
(5.071094456938915 -0.01590416950552923 -0.02459472337180872)
(5.098659122983796 -0.05175224122537816 0.04186654086251067)
(4.968141894599613 -0.1294577702840341 -0.01133673104517435)
(5.040384808104474 0.01169974203863776 -0.0379832101513831)
(5.04449770091418 -0.03359353612272457 0.00679620993895837)
(4.949140414022326 -0.03733954257017782 0.08086149115806883)
(3.606960890559206 -0.004050791378822798 0.2832342639910179)
(3.677131531583782 -0.08248716737927804 0.03205628213265949)
(5.021983493682401 -0.03025772620102528 -0.03877707123263704)
(5.020172191370303 -0.1955449073057288 -0.1801598678244933)
(2.174238793477299 0.2864122910216072 -0.2387319387474826)
(5.001519097146659 0.0005252421491737688 0.003063266936397068)
(2.819090836934733 0.4553713221746279 0.2514324633617099)
(4.032919832713112 0.2402758430928605 0.1863671050923479)
(3.51009374976141 0.2511813029179368 0.004480294842416275)
(4.998314182717905 0.001065949162119788 0.006637569215134883)
(5.076812781149994 -0.1978419397619662 -0.2228447072403294)
(4.894245756354938 0.4097199609169108 -0.1185696287378098)
(5.009934444651313 -0.2013322492782799 0.1979739865343594)
(4.991572766360104 0.004811952252390741 0.0003463484444151121)
(3.214400903664368 -0.04232288703736498 0.1086393833891088)
(5.006486368075179 -0.002004465167816219 0.002216592432367979)
(2.911176694960598 -0.1930632219181234 -0.4443906536715208)
(2.551841862600701 0.4002718313807336 -0.2567909386968318)
(5.04934839273949 -0.05050899087491088 0.003524014241665346)
(5.029205033506329 -0.1287746722979856 0.1372201629809412)
(5.018578485600247 -0.1203575569471383 -0.06056837411680152)
(2.43575650500392 -0.1179379235745078 0.01855680832836309)
(3.184657060719606 0.07771765299881678 0.02977633834681682)
(4.997443924267525 0.003512364134924283 -0.002737593931120661)
(5.001660771540231 0.0021721240999559 -0.001639063029588116)
(5.007480206924463 -0.03056081861824056 0.001698181360316954)
(5.03870178439832 -0.3833404423640535 0.004302523966325906)
(5.072217609037887 -0.1194994448015066 0.03234656074874532)
(4.99139854719817 0.01345176334065821 0.02300865453080591)
(4.81825135959516 -0.009206789116920812 0.07016564998150784)
(5.011511187673412 0.01975883439062863 0.05219299875223719)
(5.156732723997798 -0.1930308762060705 -0.8587570275450961)
(5.000715009877269 -0.03392831850998387 -0.03126325571218802)
(4.969052142181383 0.06826467733337888 -0.1557667804972101)
(5.071298041046419 -0.04536409563121573 -0.02095900402258708)
(4.772944614358718 0.0436284665270427 -0.2069494887869481)
(4.442051463220416 -0.09873981664702494 0.1206323555511344)
(4.948214010788172 0.01620434504713636 0.002467147445496711)
(3.983525816787975 0.1525229610397979 0.04209383367108863)
(3.589662802580181 -0.02384800995502187 0.2937629465947669)
(5.080652752632377 -0.01264822577801442 -0.009004785725646659)
(4.984736660403952 -0.02312996698467173 0.01596816462804924)
(5.011820866465079 0.001809538184487404 0.0008019164119354663)
(3.134321375917059 -0.3939751253824172 -0.288579089850598)
(5.12027813629196 -0.06255387918472885 -0.01543855859632852)
(5.002638653960235 -0.02784416238321122 -0.06446601303989832)
(4.029380026038431 0.004334764517644235 0.01977634568403476)
(3.789037038352294 0.2199132951133713 0.003658759551779014)
(4.837646332766029 -0.01953148029156537 0.2374066421167604)
(4.808454014171609 -0.1800323892829085 -0.1529729720553674)