/*--------------------------------*- C++ -*----------------------------------*\
| =========                 |                                                 |
| \\      /  F ield         | OpenFOAM: The Open Source CFD Toolbox           |
|  \\    /   O peration     | Version:  v1906                                 |
|   \\  /    A nd           | Web:      www.OpenFOAM.com                      |
|    \\/     M anipulation  |                                                 |
\*---------------------------------------------------------------------------*/
FoamFile
{
    version     2.0;
    format      ascii;
    class       volVectorField;
    location    "0.8";
    object      vorticity;
}
// * * * * * * * * * * * * * * * * * * * * * * * * * * * * * * * * * * * * * //

dimensions      [0 0 -1 0 0 0 0];


internalField   nonuniform List<vector> 
19631
(
(0.004571693519109112 -0.001554557346991288 -0.002614999578196006)
(-0.03687501018848841 0.0251160675508961 -0.03126784815471181)
(-1.266188133966679 -0.2332969575291817 -1.120041363644627)
(-1.344757071113303 -8.514758715920138 2.040213270642292)
(-0.0013545167000818 0.001831751112441618 0.0004501788451337845)
(0.0925272551358884 0.0162009584899204 -0.01602170964745107)
(-0.000585529339484559 -0.001124725563358991 0.01198480430448489)
(-0.20015315308516 -0.2066817020693443 -5.612700826831863)
(-0.00148133717099453 -0.0007940368707830853 -0.008143200236437323)
(0.002856438694419296 -0.001036753522549495 0.0007255292149208413)
(-0.00144529628703176 0.007897613099482071 0.008392787486907728)
(0.01344457719936067 0.05156318319907716 -0.001364085099752371)
(8.10974821783695 14.14384442683202 4.28621259723221)
(0.01070596219285741 -0.07424034616856415 0.02044540868896843)
(0.01479272132009 -0.0003996654209515102 0.004553553181801158)
(0.01473423365119923 -0.01075023324934071 -0.02863598945350563)
(-0.1546705587891888 -0.06926475017766504 0.6927469288962331)
(-0.00166844470539541 -0.0005918641611480854 -0.002641615996121607)
(0.008939413826875992 -0.001575646919755616 -0.003612713369821358)
(-0.0219946269952844 -0.1987044581406477 -0.102285107253786)
(0.00135507536216619 0.0006146736345843984 0.0009136270109440042)
(0.01697908963321126 0.1121684832535801 -0.03690694872049795)
(0.008578232254132781 -0.003273660780904173 0.01881711017850215)
(1.673877653059481 -0.1109471013576315 -0.1052879330343754)
(-0.002132546129749424 -0.002309083406251813 -0.02581390621107348)
(-0.01726627313991969 -0.01155808678717776 -0.004711296958971462)
(-0.02213599912651844 -0.02812956766887528 0.1202728860628068)
(0.002879449833499893 0.05104610801947887 -5.847486390239354)
(-7.136598081615034 2.585286019613814 -4.613826800985604)
(0.07593089957867988 0.03662030413739937 0.04979592822916201)
(0.0002188224292949231 7.482350198074615e-05 -0.002570068638209957)
(3.694468425576767 -2.826532206714112 2.710654917040983)
(0.1274289449936083 0.003841325370048457 -0.1207787345168518)
(-0.006502847315366629 -0.005580871966036286 -0.01005764071294661)
(-0.5766163668653229 -2.181643627590071 0.4455841225306592)
(-0.0280616442908269 0.0139361907324358 0.00448926534509177)
(0.03609391047929955 0.03555134124597606 0.03479565465331583)
(0.003457700689787142 -0.0004789563883087596 0.001386677737391311)
(0.2309543674872215 -0.07480491482105497 -0.08330546235839484)
(0.3020960022974084 0.009994496146734113 0.003064892630242198)
(0.8420201351086167 1.160828337603033 -0.1969838585975691)
(-0.09187651506845385 4.182989029289094 3.829517619054516)
(0.01549951788941326 -0.059068933223888 0.05673611156259133)
(-0.2742547291488861 0.8336051969489602 -3.292083487253121)
(0.1664812282735706 0.0421612676437241 -0.4854384409671759)
(-1.454283985559908 -0.1693332419485667 2.616977324873651)
(-0.8005121840345586 -1.428343706448902 -1.964500493161724)
(-6.859877835610018 0.01420508376013241 -1.006631572833188)
(0.05008189387843027 0.01120193907980041 -0.008032552099542796)
(-0.06041763223171152 -0.03657138976675155 0.0838087335001261)
(-0.005705014915549075 0.002548383054718329 -0.007639150827871028)
(-0.007699799880595114 -0.02261478870202368 -0.004872077685684295)
(0.5153078074991432 1.025502580149804 0.6832882393707076)
(-0.01782712184971932 -0.01070240954925846 0.02779399863656005)
(0.00188801961638208 -0.02246309284501158 -0.01453387357634659)
(0.09955623852685903 0.124496624761648 -0.1637900484084756)
(0.4219825891882073 0.4482856851976901 0.3292441814626748)
(-0.005501556811340648 -0.0004412281473748243 -0.006389066567273127)
(0.003687606299351859 0.03874528371890815 0.0479550231206298)
(0.567425404712853 -1.195337779712745 1.425715576355111)
(9.052516567034921 1.178526733217082 -8.624690715578014)
(-0.9264642071547181 0.7101872170535187 -0.7683271022013107)
(4.259905762444208 -0.4243855573575765 0.6311672475487953)
(0.2390551759099607 -0.1199651929015049 0.2564612443238444)
(-3.781884240707106 1.622398397135818 -6.155468607950766)
(0.286386146947799 0.1354323276959162 1.636976015071158)
(0.05488729753105817 -0.004184185222030977 0.008155179080959453)
(-0.007279474505315601 0.02869043679148452 -4.746284441272883)
(4.493961983083219 -3.646974139174003 -1.927820111627733)
(0.007887408280417512 -0.02667102713078112 -0.1045065972714024)
(4.054936574446257 4.580192333275771 -1.973756027544439)
(0.04109972091885099 0.0248593782000195 -0.01963467322267527)
(0.02305469906829195 -0.0939959147872432 0.03013055017140211)
(-0.2060191668785964 2.541740552906566 -0.3185907326161503)
(-0.1141596548548798 0.2435316997349833 0.04244080230560485)
(-1.17967503218146 -0.994866907246536 -0.5857258498040261)
(0.006772911272602216 0.007725547145682628 -0.001437471214844794)
(1.68567404008631 -0.8387141569735341 0.4002917258736565)
(1.687778783005196 -17.93235501834475 -0.08104760403563854)
(0.005070681767502205 -0.003163986834381146 -0.005366795057420425)
(0.3890194074495539 -42.25746022542182 -4.120245765677464)
(-0.01239180038356252 -0.2500306455804464 -0.8725326413575035)
(-0.4323497719475064 9.884622383693003 -1.918200419985626)
(2.065053755545782 -1.125592144127006 4.428010127612027)
(0.03609862171917963 -0.02813276998387034 -0.03361771051591347)
(-0.1041689368371881 -0.04407443840992951 0.06771204001926343)
(0.1198515111645844 -0.3568279625095209 -0.3270427337760232)
(-1.540057548460689 -3.291791356641213 3.980070471277467)
(1.061395248925675 -5.96167637570546 1.335218723869268)
(-1.791755960830269 -1.705581931734568 -2.149389745137873)
(0.181923748067846 0.3197490678014279 0.05584107663321915)
(0.3763146959801231 2.005086396199355 0.228704108974054)
(-0.1419779183318269 0.2422444923995212 0.4034283494340778)
(0.1058282296572639 -0.1374043753694323 -0.00607997532878389)
(0.1878270722877807 0.1478700046091229 0.1550300272598662)
(-0.4053567473856745 0.2548903598777462 -0.04319458442784799)
(-0.05787133235181019 -1.367705030233478 0.8141473009102804)
(0.1289978907299353 -0.1042668102450666 -0.109552579472217)
(0.1306797017249625 0.1939232292037287 -0.2513068145661563)
(-0.04911000709739048 0.01625620955175798 0.0258283930755377)
(0.003119618952501613 -0.01073911712029889 -0.004074757258929812)
(-6.279852510142113 61.37405676836885 11.35541007049994)
(0.002171736715508317 0.001745845972576586 0.005746745129090461)
(4.36103648814908 50.05435096876207 -9.960978790615181)
(-0.01217805173218353 -1.606652596537256 0.2053325938210506)
(-0.09659495777724639 0.4742402659142734 0.0423944394188478)
(0.0133936338595325 0.008319683030754962 0.004821939563304737)
(-2.136107017719112 -6.313407826115817 3.860333991603258)
(0.009633521572345203 0.003904614012789945 -0.01034450101021419)
(-0.001231169133301903 -0.01582360917681806 -4.580745745623515)
(0.05118919970374534 0.08731108192162124 -0.1133842839615634)
(-2.189042009593345 10.0136609642336 0.5623134654060775)
(-0.004072832263295825 0.002088898284578174 -0.003795832644830222)
(-0.7007405703768129 35.63287978694392 3.872927342910317)
(0.5099841337114859 2.105392135716831 -1.591867264591503)
(0.4725228509985601 0.5081205724959975 -0.2173244722802326)
(-2.933566341091921 2.518204389087942 -1.785475485765226)
(0.06775283093112194 0.06623546887477094 -0.006512289420754262)
(6.077806967526929 11.84041639982833 -9.514923164562315)
(-7.616364193358704e-05 -0.0005129654748119276 0.0002293463996225486)
(0.1188625099218349 0.09049001722758776 -0.03092795617530184)
(0.04889428819757531 0.01603357139227386 0.0256970964950116)
(0.01383796632332481 -0.01007418686030998 0.0005498895783655265)
(-0.05042707786326671 0.1166801999453935 -0.115916315746064)
(-0.009401484958218161 -0.01016966364148817 -0.08112359729255209)
(0.01360547367971551 0.005409249281115002 0.01819536351350056)
(0.0331100306809075 0.0006979963412413505 -5.570667450682834)
(0.0008611149718730669 0.00466372745926328 0.004246575534473166)
(0.01510637665524055 -0.001754915235938633 0.01287646092757895)
(-0.005036084612794202 -0.005038241452022843 -0.01208288023533104)
(0.06058177286625517 0.05278218318922404 -0.001588140275012067)
(-2.750045454453067 0.2959435943547269 -2.590946092650383)
(-12.20474711809059 -36.54063549700669 4.311418486478504)
(1.779042311361447 -2.20484935380637 3.515465367755016)
(0.003114770088118477 -0.003592931386235221 0.006589853676729318)
(0.003258654458947512 -0.00491004026525498 0.01458252855527822)
(-0.003293091249503013 -0.005724033140655761 0.03266143176636757)
(-0.07351551591262206 -0.03233071846169169 0.07388446807355201)
(-0.04755907889762899 0.00434249956097181 0.09823151647537638)
(0.01576724745061132 -0.005711063681956279 -0.01592706433787818)
(0.005157768507359151 -0.005856383890186466 -0.01014999641116226)
(-0.02524705749431419 0.06903855950436838 -6.044644817399565)
(-0.1109281166525653 -0.2046518107050941 0.2397824958695043)
(-0.06863386285148948 -0.06880888763706011 0.09574941846564072)
(-0.01481843336401147 0.01943195758755005 0.1098420921226338)
(-0.04019992120646539 0.08948009046781392 -0.04783931186743133)
(-0.02395988540492696 -0.07215952899234952 -0.003128195314745526)
(0.01133243521902285 0.01166957021818267 0.007090387358761584)
(3.133176562517219 -1.817950841310859 -1.96148070929524)
(-0.5073179819668283 -4.213109626441345 -0.2644574413414628)
(0.003389958011790003 -0.001764718220927734 -0.002867444159745848)
(-0.02558240700029858 -0.01206243317338247 -0.02075697968340612)
(-0.02250596201243199 0.008681575693610472 0.00654378616980363)
(0.05961565154894458 0.006278117097134656 -0.0204636753453515)
(0.01616676695046448 0.004901023525594259 -0.01021596596544883)
(-0.02879878441910515 0.003046357036594657 0.01882272542698732)
(1.867014201711551 0.649016420947557 -27.16582411828156)
(-0.3211106765266511 -0.1386711626513101 -0.03182193688562941)
(-0.005895033320444464 0.05887927662363689 -0.1983710348112785)
(0.02232254044750727 0.002533769011112939 -0.01655473221830668)
(0.00269475509528066 -0.02251076022870466 -0.01335884636037517)
(0.01822682391054616 -0.05038554947463657 -0.04821487520195277)
(1.938341749572613 6.859216115648842 1.262663170124741)
(-0.03295833377733286 -0.03524791640320914 -0.0178351350980419)
(0.0174449212176761 0.000818300567198579 0.001177118077567263)
(0.0008121579633662539 -0.003059215528080034 0.001109525872612932)
(-0.0005111178815234059 -0.00274762672389311 -0.004375714738210223)
(0.005124559361397744 -0.0009238767874253284 0.00286659788115135)
(-0.01160831576840159 0.001127933387994306 -4.201794330772082)
(-0.3665668728818703 -3.153865237339432 1.673950329573734)
(0.03722680830983958 -0.015184069596515 -0.003419155191765194)
(0.300510092804791 0.3150438062322736 -0.5464264904535427)
(0.208534678836785 -0.106528955710802 -0.3289535974790574)
(-0.06498032287029418 0.1954759953371267 -0.1327541928557681)
(0.005988760073152638 -0.05885322282382995 0.05749746834578478)
(-0.1797974180895341 -0.02681590726202333 -13.11664258105235)
(-0.02026555975173288 0.02671596398767612 0.03951400606370445)
(2.656484606254959 -4.325184161590527 -7.614124010764172)
(0.02405300731582952 0.03741054625405132 0.01963956686949624)
(0.4107373767661349 1.129315119019413 -1.254056151608049)
(-0.09756624199054567 0.918934958502995 -0.9928900420309611)
(0.002304619226084165 -0.005756893380827037 0.0007126975327584628)
(0.0009637181599647634 -0.01197629184964888 0.003791874011386236)
(0.01987510185472413 -0.03653060038512876 0.02873293151213933)
(-11.75854449734862 -38.21732493875111 4.57537154977956)
(-1.056122923135184 -28.135526676752 0.5432018533507529)
(-0.03183917756953492 1.46704276311604 0.02753921367249883)
(0.005948181584037295 0.005192118464374472 -0.00076937509944212)
(0.7367142208130886 0.2883064997170477 -0.953064783542213)
(-0.003673060564172792 0.01152754518055963 0.006443590290024431)
(-2.810427816438717 -28.90544475215863 -3.718527401354034)
(0.7995594302325342 0.02695886086871954 -0.148557095253005)
(-0.145910942626543 -0.1579478372284666 -0.03719121448537078)
(0.03710850884091875 0.05896671549674042 -0.001451270931976569)
(-0.7344825984485521 -10.76628042377452 -3.20696218409348)
(-0.2538033127660376 -0.5382415303345544 -0.2613863672640582)
(0.006251390803875059 0.00307889965754119 -0.001516377645742107)
(-0.2575595088496421 -0.6245159892013067 -0.2724756880552007)
(-3.500675731880186 33.45124269170103 -3.998186306239016)
(3.209020152495793 4.108310839242171 0.4620023826696914)
(0.02280225904597431 0.005208930120504829 0.03523318546434873)
(0.6881299228406168 1.029740489617507 0.05096997374523693)
(-3.47948498183922 46.54290709158586 6.050634278731331)
(-8.091958113851227 7.486581670010279 -0.4871858375187887)
(-0.004036431182299946 0.01245498713034603 -0.008973659601417926)
(0.01082619466937004 0.001137814687087865 -0.005068554971387409)
(0.001426890361123138 -0.02935428602508268 0.0001554790817303569)
(2.339109207763773 5.807157275486492 -1.558289844202654)
(0.003655933612319518 0.02098337473008821 -0.004692787542573552)
(-0.04606291935309256 0.03637598680292947 0.04465547348029499)
(0.2172744112615614 -0.03165169390743378 0.02550377807645957)
(-0.0521836170888287 -0.1388811085342126 0.03205721886225074)
(0.752278951821326 -1.396214508197097 0.6391545660761013)
(0.00133210662521035 0.01824291356593631 -0.002839934295430002)
(0.2335721158066836 0.02891050234850615 -0.01559819391655006)
(1.950132517790969 -63.83793616884134 -3.95006987421973)
(-1.585874164870413 -1.047815062645122 2.544545741637323)
(-1.168792988143965 -3.481506212453027 -0.3666009445834286)
(0.02001891639564741 0.001263266360693089 -0.0007519514241554059)
(0.2826233489533444 -0.7180317010930419 -0.1674405598367384)
(-0.002240733402967191 -0.0002917990350873117 0.001068655792877243)
(0.2646291633966891 -0.6625943477764273 0.1544473822244095)
(0.02042456679417593 -0.03355322293253984 0.02066201738182191)
(-1.156353407120641 0.2292811605667217 -0.1208167328185981)
(-0.1225562392742662 0.2670772382385994 -5.663523607879015)
(1.452015668360563 8.207628454655978 16.52568291937443)
(-0.05516392151151603 -0.01737890025678092 -0.02380469206527033)
(-0.01207928263172703 -0.01592354050863795 0.04387433853552031)
(-0.2076865935365531 2.832839453978361 -0.02362345246609454)
(-0.3785961984159864 1.407697072842197 0.01199542030033096)
(1.938359048967416 -0.9293860368650021 1.066078605915475)
(-0.04599120300185772 -0.4581822479624658 -0.04033863401286533)
(-1.146960744513523 -35.81260640203499 -0.05926375974768308)
(7.504614625676432 62.04028674651212 -0.3214581821039222)
(-0.007944901825600851 0.07328945345286028 -5.947419043791928)
(-0.526965080331274 -0.07170989139935818 0.08330624515782088)
(0.4387919330203618 -0.5162030210144976 0.02346483491129374)
(0.03778316364737574 0.08823780608572909 -0.004169856304640215)
(2.075377180678082 1.847085172725842 4.403026768002317)
(-0.07611707656090003 -0.05866690647146901 0.03399644329265236)
(0.00429586155942448 -0.001987223098487249 -0.01022540532004781)
(0.01160772639014376 -0.004184293739241994 0.02298708088338518)
(0.08232920431905887 0.02467454851555277 -0.01093901475406359)
(0.002412871181563913 0.001844665441173328 -0.001640943859767023)
(-1.119741125776308 37.86152080992128 -3.899094736572117)
(-1.455922264595337 6.700526752233789 -0.01726118449266045)
(-0.01975724605782901 0.00111643829427347 0.001796643703640733)
(-0.1717142119077624 -0.1183836635567384 0.171255122144223)
(-0.2771026028470726 -8.419422140390992 -0.216033659990648)
(2.872009329302212 9.961602212545973 -9.002171438897022)
(4.398399707371307 14.63712637796499 1.00118978062444)
(2.596702102833508 -38.00929554795628 -3.235861222698636)
(0.9347294089652676 1.008877985756693 -0.3601716127595156)
(-0.326400226854181 -1.478166868660619 -0.4540074869436606)
(5.017802018177449 30.07696080523567 0.9610262433578755)
(2.403866922703909 2.647966228071045 -0.33520843673865)
(0.002487207018490527 -0.01886446552956939 -0.03672740734070627)
(-1.477251634210869 -8.561172457764579 -1.682132641195335)
(-0.007254790098223435 -0.001999241179131455 0.007814824564690924)
(1.338953421747855 0.5376068087847911 -1.93018372941569)
(0.06447550323252765 0.0339750773223666 -0.01288751217174453)
(-0.645372720624291 0.2567820971762677 -0.9054933202534331)
(0.02926025500586956 0.2352097116775974 0.3049450102175982)
(0.002360352896738409 0.03145121045303065 0.0285090570685923)
(0.03488282828426398 0.03215195497566525 -0.01124750397240876)
(0.5309051276337611 -0.5757793217287865 -2.4406473529726)
(0.5520919379795184 -1.824915657211466 0.379139649669188)
(-0.5173030550755578 -9.604576535417191 -2.005473032004726)
(1.218599653377326 14.73487690897671 -5.737550013156073)
(-0.06099102466933404 -0.3503274185855048 0.1818449805525551)
(-10.60685026720335 11.29142184562913 2.042363236353733)
(-0.08613737235581764 -0.24284258355708 -0.07036525686824685)
(-1.571237091629167 -7.671584951266177 10.08347590829641)
(0.02771081467538003 -0.02300596529545914 -0.00255626077285594)
(-0.007843000369543961 -0.01197323047043541 -0.01038860088791627)
(0.2190043670020231 -0.02834715020155733 0.05109254799472369)
(-0.1941606058906443 -2.043368427269784 0.625505334035335)
(3.352523551185614 -15.82739326889586 0.4503925460189113)
(0.01677238036776232 0.3178204745118777 0.01930919982642611)
(0.6916222229874734 0.1587272327746372 0.350177335100528)
(-1.110681808904968 -3.45792050959532 1.80589472009778)
(-1.2566589289721 -9.017991803133185 12.19729290683167)
(0.2710604132903413 0.1262561026253309 -0.05105535426802541)
(0.1223165350238536 -0.02417504320286437 -0.00263944593097315)
(0.1698916329736884 1.438600564611268 -1.817718749125587)
(0.01359538364853121 -0.06326682015160147 -0.05479686032688251)
(-2.327433637514031e-05 0.006672120246845784 -0.006300169741898651)
(-0.05907848252058474 0.06443230067733319 -0.0339344272787406)
(0.5177481469140204 0.3192476756200959 0.1487845809644753)
(-0.04734824820545669 -0.01040649231074111 -0.009623445718983095)
(0.3915783822213074 1.622022002043316 0.7994437475739036)
(3.183460184200983 7.332428137740907 -1.53577655663749)
(-0.1489500938091627 0.05416863175025104 0.02536603319579381)
(0.001973822143186786 0.006599353567088293 0.002272316519319085)
(-0.00030567137180008 -0.002120049832928941 0.001508442329510917)
(3.085368454324334 10.73924430075787 -13.79323318014539)
(-2.641960680484007 -0.7867120628440634 -1.63501495780571)
(0.1704202240790749 0.3782246572361608 0.1251962205008182)
(0.1359481982676254 -0.3582857672986269 -0.9880900629020942)
(3.559878192815402 4.511330260623687 4.518722742748536)
(0.9194386984290482 6.441288052971551 0.6970576558661143)
(-1.148056739705626 0.8203122860226726 -1.125578132776865)
(0.005725886534855441 0.04711382024096306 -0.04312174215522224)
(0.03622010280990956 -0.3457133110512224 0.199228288080719)
(-0.4675704936254318 1.973961425039542 0.2807329203804855)
(-0.009383329814165696 -0.01345981118216877 -0.0004144799183155041)
(4.068427061540759 57.75518929586103 4.661414966850697)
(0.01571384462469003 -0.01849297868722777 -0.03447325100714804)
(0.0007130173166255941 -0.002332873362115104 -0.02713883276616705)
(-0.02494636269175848 0.02794283571887483 0.04919170315978698)
(0.008660888680561481 -0.03326192796071253 0.00413473235404392)
(-2.285673697959918 39.41770109158075 -0.0964776302610923)
(-2.201566381743445 2.08104674183578 -1.87531244969855)
(0.07040917431187102 0.006835635525804018 -0.008475171344697701)
(-0.02707523769833466 -0.0263047335609872 0.00933951895433938)
(-0.00728277372389613 0.01890764580088126 -0.01096633474266519)
(-0.0001675049100826194 -0.001404525228129017 -0.002683758676451414)
(-0.001141984078762961 -0.0004603795046801575 0.002218751326444669)
(-1.63312562874876 -0.5262073475823008 -0.1817805461087324)
(-0.00104370923181379 -6.650822810993256e-05 -0.0003181568318152228)
(-0.05926424259755791 -0.341202841656024 0.3215252128072135)
(4.665274913669652 47.82123642334417 0.6635524512586879)
(-0.215135438337542 0.2569053620501818 -0.4284563394280866)
(-0.00827136044286135 0.02513349432826183 0.08827783285488153)
(0.9325105916485209 0.1631013821864147 -6.029124248045939)
(1.184586794628298 1.105614440671187 2.454675095735281)
(0.2122048865376886 0.1922788924789414 -0.02027830296242121)
(-0.2929496836128147 3.147103158270227 -3.265571491564144)
(-0.2531109400722599 0.08551570227239312 -0.08822638296936454)
(0.1229326572468332 -0.6932056394542228 -0.3370042382481982)
(-0.4571100236789759 -0.01755277841200142 -0.05484678186616054)
(-0.02529075892745419 -0.02317801062234558 0.003229401350732739)
(0.02279161190539528 -0.01621742322060792 0.0115326858879127)
(-0.04329741626610623 -0.006500877855343631 -0.06345103116412235)
(2.533243737180737 -45.87981124982661 8.280507565499668)
(-0.02351148427981173 0.002253741507168571 0.009234041003060797)
(2.387672513956119 -44.1814990151686 0.7550526430862051)
(0.5586565294137422 3.481805161483926 0.5096700859073877)
(0.002688069740952662 0.004234349685235851 -0.001863704813635751)
(0.004331617827379806 0.00516235193109563 -0.001772630158265179)
(0.02635957780200924 0.002559321639345099 0.02261638792375361)
(-0.08816481457686459 1.048751139477891 0.1116956754370646)
(0.009857365579690712 0.02103451704263718 0.0165266445752829)
(4.75432821340074 12.92117395775527 -0.6338342587467738)
(-0.6376538787934203 -5.808260394003056 -3.456796942857101)
(0.5980617239030354 -2.753437348093443 -7.62427867238835)
(-0.01866017533606475 0.01604423148581729 -0.03475317871878573)
(-0.6315734185477212 -0.1435468100236805 -0.03555030748609778)
(-0.02960696327217561 -0.02188437902087424 -0.02851336418934588)
(0.1166062972168535 0.09346584346895886 -0.05792228898673191)
(-0.004100079625356676 -0.04607840923717137 -0.01095504809523532)
(0.02845661452883452 0.3015013341442841 0.1553675914668671)
(0.3220244604222364 -0.3654951206957583 -4.993666514938715)
(0.3731397562448921 6.0861886103775 0.938840914927869)
(0.04324908635196752 -0.0543425171615435 -0.1997105877466333)
(-2.545278358881166 2.732174449580015 3.287408608772515)
(0.04715582549463951 0.07025041920937715 0.01572110547298673)
(0.2270024587257997 32.73412419359746 0.4858023773506588)
(6.872462287496882 -0.3311359656871073 0.6988214220119845)
(-1.337246006124827 -0.2074328602727202 -0.8866851971256386)
(0.1061394503582388 -0.05047008708481773 0.0420232567035484)
(3.386531505036342 13.72641370472139 0.1663012022526541)
(-0.3104760478594203 0.06973785894381368 -0.1135140857077193)
(0.05036399680351096 -0.03881381799022821 0.05798174391780556)
(0.7471158388025376 0.2092255637939453 0.2692554896143529)
(0.04460827124352193 0.01154384824965076 0.01795741269740475)
(4.229587266877339 -8.910819094759596 -7.254850611437178)
(-0.01758016430692779 0.007735794623948343 0.0417456821811253)
(0.08996499972019245 -0.02015721968587767 0.01745718933616191)
(-2.903191155260008 -0.4823320977451521 -1.74845886736479)
(-0.004104844478782883 -0.0002780044466511419 0.0001169706581506541)
(0.002364567556676743 -0.004464416399497521 -0.002613595555898274)
(-0.2728464849883706 -0.3119588740955777 -0.5882850254684194)
(-0.2447938387511254 0.1192766384047226 -0.1710174396370299)
(0.1506882924666534 -0.00887784944831296 -0.02931896675423005)
(0.0004702417135439383 0.001583127724888209 -0.005092009782432649)
(-0.02496953956499804 0.1496177694101027 -0.1451131139946225)
(0.01089043320840083 0.005468182110191545 -6.518553688542386e-05)
(0.05391757044966605 -0.03197473316449147 -0.01099389160923591)
(0.004417816017136448 0.004931544727812256 -0.001177281469989524)
(-0.2545852700386508 11.10400278095892 -0.2707639270343649)
(-0.01568060712189911 0.002886256777139678 0.003052962400540353)
(-0.003787343793566026 -0.006529469793571614 0.0008780417969791012)
(0.0008868919013333824 0.002320737052272046 -0.0001401378498157242)
(1.191958373203192 -1.466017621149022 -0.5077814792065296)
(-0.8668157275584272 0.05001943769701783 -0.4324563604556495)
(0.003461725049088292 -0.008445901882826077 -0.01094173561326784)
(-0.01366252190470662 0.0820850922058633 -6.603040954970236)
(0.01107445399779402 0.01322886498377603 -0.000838657967153828)
(-1.13977201088971 -5.816030137909676 -0.288624686007324)
(-2.668505814977647 -0.5486563259706985 -0.05781084543659873)
(0.001199223887701355 0.0009113517159945052 0.001805506872324617)
(1.075219461827222 -3.464598562317136 -5.40600475959252)
(-5.261572104008561 -44.36567147049249 -0.2503421125196559)
(-0.2082005344787556 0.1485594906476709 0.03096530451008305)
(0.0003136920040022416 -0.0004841953695059117 0.0004291117719735295)
(-0.0006372637914556059 0.0004278344555028961 -0.001610810674561064)
(0.1422016692273291 0.6811436523157546 1.067811918879669)
(-0.1800591046961742 0.1503867582795315 -5.622694436809706)
(4.012711376913636 0.4998891268173402 0.3630252802271415)
(-3.327489975678721 -59.46940555313157 -16.67017310837101)
(0.1641884823836338 0.01971415965017888 -0.1455769692930969)
(-0.04831542702277387 -0.1449836025012342 -0.02709547229419893)
(-1.018067256305589 -19.18577216371378 3.344247517192433)
(-4.063516111423877 -1.498944825473612 -8.872124124457347)
(-2.311260815717555 -55.87873283125237 1.034849444400443)
(1.955835814065069 -2.266986777800336 -0.666416924564579)
(7.271917346231315 4.323072144560581 -1.158386950889947)
(-4.20702010322654 -62.47405284723965 -5.830583781553182)
(2.684103601879642 -2.873405129477627 -1.312027093237895)
(-4.814650070850125 -39.89236153282646 -7.157305215745366)
(-4.763477701302157 2.325926090086082 4.716677437527434)
(-0.217402298570685 -0.2357538379098634 0.06017000930898833)
(-0.1422547212614202 0.06362047437475543 -0.01549946473974891)
(-0.08001724427254531 -0.01992303365209666 -0.01650713897936981)
(-0.2265551631936919 -0.08014755730584142 0.1103745703581833)
(2.263114228140264 6.84086121811656 4.297058673755333)
(0.1417841745917563 0.01829520111152005 -0.07485319241870136)
(-4.138621771043827 -52.9070926394179 -2.851575023124572)
(-1.024660710173733 2.688984656228449 -0.1464020473277037)
(0.01040835006740928 0.07033869163217339 -0.002169961372790258)
(-0.007860369564107322 -0.001484339499896411 -0.00285225518790565)
(1.486850530026778 0.714583226896802 -1.851559300099188)
(8.556894086422973 92.10813467094329 -4.333690448457642)
(0.2321818919599378 -0.1082336874155549 0.1316419709632123)
(0.03062830722586393 0.0162250100427799 -0.01411311870887705)
(-0.006411803988815849 0.01991141121019366 0.09978642442089508)
(0.03860869349926921 0.121916280532109 0.8247371267620728)
(0.03251411429510323 -0.01413266253898875 0.001182500884886348)
(0.04240055474425603 -0.003485075959639702 0.02431554450161358)
(-0.008627984074361026 -0.008361865628057859 0.002767720718524698)
(6.758130842371733 80.19646563515064 -3.47624756804275)
(-8.522497809132627 2.627635534526736 1.135720532517333)
(-0.01110972290189596 0.022819326528266 0.05346333104391215)
(0.1044455105595065 -2.808977022966351 0.5417993644491961)
(4.497992879650942 11.33926088720088 0.05841529565728054)
(-0.002331257979205892 -0.0006119203628362874 0.0008820537744397409)
(-14.89667292039271 -17.49361595437945 -1.473212486852848)
(-1.515572772909076 -2.447119833213669 -0.2739802588157224)
(-1.008020801273455 0.8008695273257149 -5.467648485618724)
(0.002065910800794307 0.001163733250528954 -0.001269079669898237)
(0.4590893208124068 0.7442199941169367 -0.02124198960678569)
(-1.600598053778175 -6.348500028131199 3.474439097508622)
(0.6196871121589852 1.609951976808133 0.3209990840527776)
(0.0001827071555452677 0.0006066583182746322 -0.006354020116415622)
(-1.949168105409498 -5.100495156279272 0.1954486103946846)
(-0.001072346887791496 -0.0009901544402835508 -0.0005282546917994646)
(8.85113058992428 0.2909499806889669 3.69753440645991)
(1.664484850302447 5.330806350344618 -42.29614640699651)
(0.001851347699579932 -0.01039585163616255 0.05574102262811344)
(2.78021248959709 -0.9175122920349297 1.923326541944125)
(-0.6138609122893638 -0.8873023747155492 -0.6802226867853063)
(5.62132137262427 11.97465000572361 4.777714438839947)
(3.573916342918893 -4.89549207340581 1.364623175994388)
(0.001311527400599194 -0.0005843695755242357 -0.001636959967200235)
(0.001529792640089836 0.0007000874502720216 -0.0002756884720435166)
(0.01000271117032977 -0.01531402778798703 -0.004511362826044221)
(0.4415447914820815 0.1072207118415201 0.4890985678474667)
(0.1887099465357689 0.1353764632670144 0.0754816516100761)
(0.04446972293048074 0.0048760155994849 -0.0998103292252713)
(-0.01444334223600357 -0.04437341401076312 0.00256037451967249)
(0.002102679193478509 0.005810707603999786 -0.0161529257691198)
(-0.1028232669421211 0.1471848988645869 -0.07925340284958524)
(0.0004189703077010104 0.002637122489676033 0.004492932304659187)
(-0.01628542879700367 2.548362092776296 0.3373906942125789)
(-7.281347857571868e-05 -0.0002487544519751842 -0.008863787298016733)
(1.335492452755584 0.5932476620656184 -2.416735243790386)
(-0.9061036387512563 -0.3194126823312806 -2.848669892260885)
(-0.005363922824918188 -0.02104681836190744 -5.979236775726002)
(-0.1835453759610042 -1.114611167932134 -0.1601636503508619)
(0.3156100093581755 56.17110309084615 2.528305515066205)
(0.263117267412357 0.6566322452231681 -0.1094507379992196)
(-0.005117639100302484 5.002916629789911e-06 -0.002502929599598864)