/*--------------------------------*- C++ -*----------------------------------*\
| =========                 |                                                 |
| \\      /  F ield         | OpenFOAM: The Open Source CFD Toolbox           |
|  \\    /   O peration     | Version:  v1906                                 |
|   \\  /    A nd           | Web:      www.OpenFOAM.com                      |
|    \\/     M anipulation  |                                                 |
\*---------------------------------------------------------------------------*/
FoamFile
{
    version     2.0;
    format      ascii;
    class       volScalarField;
    location    "0.1";
    object      p;
}
// * * * * * * * * * * * * * * * * * * * * * * * * * * * * * * * * * * * * * //

dimensions      [0 2 -2 0 0 0 0];


internalField   nonuniform List<scalar> 
8465
(
-0.01452232195742532
-0.004305566006636857
-0.007325713352018507
-0.05197379749365543
-0.02963855698025662
-0.04801164322622407
-0.04563429983887867
-0.04469807835626562
-0.01974571149280305
-0.01727443944053624
-0.01821046778606312
-0.05796736421789335
-0.02722298476784841
-0.01295204592101293
-0.05307726446526872
-0.02712526399233631
-0.02924723378663015
-0.0570019254232349
-0.0285280357805948
-0.03701141505031724
-0.05187707247588105
-0.01951356419256178
-0.03037435502930493
-0.03729765270726943
-0.0234192675527535
-0.0324413459631023
-0.04061125713900992
-0.05759685006458705
-0.04200215604136941
-0.0442644384839079
-0.0407655405703674
-0.01232813469192437
-0.0454792290958582
-0.003527576560111335
-0.008462214614026053
-0.03632787171912175
-0.03376078879323215
-0.0029642945226258
-0.002093964721148962
-0.003824824213911949
-0.01680559698545587
-0.05339579075870959
-0.04607486811879057
-0.0266387517600555
-0.000710078445792903
-0.01022649016045195
-0.00599019933950951
-0.03740244729473766
-0.04173095192560354
-0.05616364023533704
-0.005000092868576275
-0.007269699586590309
-0.04909426179814687
-0.05227986244195248
-0.02683217278490696
-0.05130126283674634
-0.01086692475749095
-0.04192156538355533
-0.05395372383618866
-0.05413214532600946
-0.02147587566153876
-0.0375790036857362
-0.02310403195021849
-0.04985778898637828
-0.01519221052704657
-0.04478452565276778
-0.05160657441418654
-0.03837609920787369
-0.05082207267473632
-0.0480449735038849
-0.01438538537189586
-0.04570695796528872
-0.04424809219915258
-0.05382132461649172
-0.0525340424969846
-0.04248495530691447
-0.03141574836951943
-0.03084513092149823
-0.05103922427154706
-0.04164077296589724
-0.02996673153675368
-0.04652305995346104
-0.01381363226779106
-0.04198214513786406
-0.04806010420219461
-0.04526834724624976
-0.04967100316436801
-0.04884215580284418
-0.04503697466409375
-0.01258401509170435
-0.0344302150466774
-0.0219687660336721
-0.01836402985614826
-0.01296386548121658
-0.004858883408302169
-0.008095622201514554
-0.04258615827508611
-0.009192266430572624
-0.03113588948027387
-0.006314992440575898
-0.05623909563126094
-0.02315402722368773
-0.02011068756499752
-0.02255830652164868
-0.05135053329474232
-0.04037317826617479
-0.01276673689261425
-0.04604704941783239
-0.05388686943896041
-0.00990224948038643
-0.036257322154707
-0.03813816301405142
-0.0458999480444395
-0.02405800773977788
-0.03875655783807627
-0.02474504614433324
-0.04649415527152198
-0.004168926289193313
-0.05244754020443373
-0.02716038184602016
-0.04296051921825194
-0.06124499347287946
-0.02267950349271012
-0.04978894530505679
-0.01422148378282193
-0.03143637203787464
-0.05777418475851627
-0.05129573501782363
-0.002039714852990394
-0.01342677646133711
-0.01142786924821114
-0.04829182150471422
-0.01435367407112592
-0.03043211442022184
-0.03363065269525109
-0.03110146774282719
-0.02285383253210359
-0.04289562694624008
-0.03002525549235475
-0.04225814231980188
-0.02041544454616463
-0.05252452688320526
-0.03544280270450467
-0.03718856074085873
-0.03729803777127171
-0.02524032891359268
-0.01984716641562997
-0.05425104213130412
-0.03759954097415509
-0.01320259512367391
-0.01304505163516117
-0.005517236028747833
-0.02771056154837071
-0.009500230724283255
-0.03364709612278256
-0.01530263918016724
-0.03624674984154828
-0.05379163196146147
-0.03076041498918856
-0.05872842544990292
-0.04504127371932262
-0.05325806302897023
-0.02706693915086516
-0.04539436200298139
-0.05691919150812808
-0.05041990925996039
-0.0325106790526338
-0.00533386845502224
-0.02589430832374749
-0.03544637983411686
-0.04892009159714923
-0.05106924544226365
-0.03104270132474499
-0.03622857963975654
-0.01558659823273121
-0.04796716668448067
-0.05735620732502111
-0.04761205090517379
-0.01195434028859725
-0.0271914544603174
-0.04996071820786613
-0.0335101840579744
-0.04688456232601575
-0.03816882169523221
-0.03212424327093653
-0.04887002599639393
-0.03146061767962218
-0.04424905853733494
-0.03066488149762044
-0.009043689877794605
-0.0486539021873365
-0.03232304456264288
-0.02576670881115777
-0.04798159625267125
-0.02851841358639403
-0.04066581550962429
-0.009219002751385808
-0.02484961797170717
-0.02689088755826185
-0.04684917512797546
-0.04246664332210869
-0.03723384990808889
-0.03390899046169601
-0.05041782892072554
-0.03760551549628617
-0.02662877223511797
-0.05254496817318159
-0.02843538581376161
-0.05664520693716555
-0.008338808760402537
-0.04656389836024152
-0.02060232424186138
-0.04195478532232468
-0.04398069728454711
-0.03284694414122456
-0.0439788475226027
-0.03997487223489059
-0.04257403638948402
-0.01670535798807326
-0.03514408113544733
-0.01946536589035833
-0.04232236700723906
-0.05194476239235035
-0.004745692413709297
-0.04470358408488141
-0.03736327576441698
-0.04443662732627345
-0.04860782407598387
-0.04841736559847078
-0.02157290968052228
-0.0252085511022463
-0.04198579643121622
-0.05600034387927655
-0.02540141906933619
-0.03903242319196999
-0.05237193789834536
-0.03695834676057424
-0.04353600211586005
-0.03664632480197894
-0.03075793915100269
-0.04026859112971225
-0.03943381641230635
-0.03550908770783391
-0.00916592936348181
-0.02028846582864145
-0.03614460048582444
-0.04512342507831389
-0.02635962108208992
-0.008019221680489541
-0.03131305474752174
-0.04532506097815063
-0.03800734800834807
-0.03901076557901693
-0.04602913426831944
-0.01350287920022214
-0.05550858847451739
-0.0274206114731911
-0.03363830013389463
-0.04599849982281053
-0.03729927803525816
-0.02499641149955718
-0.01461487031233735
-0.01751528646382414
-0.02556678662070333
-0.0415720278201966
-0.04458400307295371
-0.04729981072339567
-0.03752637691649047
-0.04993255624768844
-0.0520487068016598
-0.008909112993058341
-0.03307230690887726
-0.04355774722354443
-0.03603056146013767
-0.03093368945979857
-0.02233933129908929
-0.04883912331095798
-0.03370817883008266
-0.04631021185258671
-0.01823338365767397
-0.06033193574229374
-0.06074961390404731
-0.01850113845078121
-0.04554248790973116
-0.03381152161969964
-0.04112640473752847
-0.04078137237834829
-0.04594304347077344
-0.04985133472325681
-0.03856461900958243
-0.04138604827912593
-0.04207295567155455
-0.0525336866823685
-0.05375488662132359
-0.04237776141321768
-0.03802646977196852
-0.04793315918077962
-0.0499810122612656
-0.05840944389308969
-0.05229969487509165
-0.03552213279428341
-0.04893360356223448
-0.008172526688584085
-0.05022535451178754
-0.01896154351684514
-0.03793962792351852
-0.01937512951456178
-0.01430892498347862
-0.04583010358601064
-0.02209332984574928
-0.02893479921752336
-0.02667680878423379
-0.03761452079097032
-0.04661709290518266
-0.04958502174727705
-0.05186183845945173
-0.05530066881532825
-0.05223054103587459
-0.04968125745915638
-0.05095540549050623
-0.0363225591108811
-0.02583618648285302
-0.05629559034885857
-0.05192353338415216
-0.05464003736644626
-0.05283236852131953
-0.05675045577246979
-0.04725667526648273
-0.05265403154221518
-0.04573001887520541
-0.04239936106067537
-0.0573983138485453
-0.04863610112288098
-0.05206033116749514
-0.0505007628885135
-0.01419620031633655
-0.04746649986749319
-0.05662217939245633
-0.05580535009479025
-0.02627080557746295
-0.04129277155567691
-0.02600697026367885
-0.04672981938197116
-0.04373260014624383
-0.0517407980259865
-0.04952761306934514
-0.05047346555132121
-0.03474206991932188
-0.04750828839421083
-0.0485682274086285
-0.02288336673823285
-0.007553909754515577
-0.02102771980844256
-0.05283311755168141
-0.04660321347254606
-0.04320811296094838
-0.02099626616003237
-0.04020159719086871
-0.0507218304188725
-0.01159670550159736
-0.03703453346143865
-0.02603491957202576
-0.0220127242027753
-0.04739369576673805
-0.03410291271110897
-0.02096920228767261
-0.05897927720505749
-0.04487864802660436
-0.05953112953059399
-0.05132975412019013
-0.06041637932481079
-0.0399692075492618
-0.04729186776104183
-0.05338085669253956
-0.04774890122735903
-0.0385993818020576
-0.04491004645769645
-0.02491859862563629
-0.05590680595663571
-0.05681484534122558
-0.03163528796716854
-0.04610066849985772
-0.04488875848198631
-0.0215954406503432
-0.02771383306596453
-0.04355654286963635
-0.05427978646132398
-0.05128632663547871
-0.03206045343246058
-0.03078137935192542
-0.03287896127845927
-0.05164593777517706
-0.05299339781048816
-0.04296247100844363
-0.04737691788873605
-0.04770171330075971
-0.04855453699065715
-0.04045115181039811
-0.05165213820125498
-0.05252922412276398
-0.05339057212301024
-0.04129876549458888
-0.05855619981677225
-0.04909278924101746
-0.05730906439273765
-0.03638510921083309
-0.04820783349170492
-0.05319578244325139
-0.01582907638576767
-0.02880575570965252
-0.009838574838361406
-0.03361603027880353
-0.006802921655383104
-0.01102229935273937
-0.03222634975392122
-0.04930086432945566
-0.05317244561736641
-0.01427733712816161
-0.05093120153904415
-0.05379804830938954
-0.04723052182770317
-0.01777987788221971
-0.02515350511129743
-0.04940777948279906
-0.003398432690270986
-0.03210995181380143
-0.04852372998552258
-0.05809597686465981
-0.01480317120636715
-0.03985078343655137
-0.05081245045862669
-0.003875283805715218
-0.0330629357982087
-0.007076837153757409
-0.03808204113724733
-0.01944931592510474
-0.04606807674143371
-0.04831953996291209
-0.0491217700221201
-0.04698861098730702
-0.05732076524762143
-0.05256133653674645
-0.02980075761499407
-0.05963693843197767
-0.05119863757900204
-0.04484693435672572
-0.04921774344457026
-0.007807097602515641
-0.0558947553819702
-0.05148222685439607
-0.05234739373423671
-0.05249930271514423
-0.05205142953873521
-0.03676741882295717
-0.04460119130583009
-0.04173255390458724
-0.04447071369152712
-0.04486706765050354
-0.0426202870244463
-0.0495352266961713
-0.04886122128174559
-0.04418425661071868
-0.04865508913542747
-0.05026999680698823
-0.0375253367018668
-0.05696275669688803
-0.04452648855894902
-0.05183049791196961
-0.04611520172561544
-0.03896610740037968
-0.04171803151781822
-0.0467604509384415
-0.03677696753311203
-0.04363753507661921
-0.01262636014809944
-0.04868769209105266
-0.04461332522473219
-0.002349126826404882
-0.03359735634686193
-0.05249671377556625
-0.05359290145149219
-0.03967724281327126
-0.04901517213045956
-0.04396498874288851
-0.04668467947834325
-0.04781087599582783
-0.05476455813391643
-0.04096329998126615
-0.04633861910911752
-0.04576608691099152
-0.03973339834064364
-0.03855124662435625
-0.05513244424841354
-0.05188562526374379
-0.04131659302526693
-0.05840745486182105
-0.05647030485704366
-0.03525711739820008
-0.03981600616700399
-0.04128950582093485
-0.05402709791587681
-0.05431604498746605
-0.04659473559864864
-0.04449412893015494
-0.05509245237889999
-0.05385086586015415
-0.0557325586675434
-0.03340268552164
-0.03447480772111478
-0.05247699715004091
-0.02025541905249446
-0.03990706536813562
-0.04079863681495217
-0.036969446522569
-0.05761002270415769
-0.05985203752141091
-0.03758351223773149
-0.04733394708787025
-0.04637581886929971
-0.05696566384750822
-0.03776528992843464
-0.06220034667414179
-0.04366779520329576
-0.0311765041722399
-0.05004904626913495
-0.05095267650588281
-0.05520142859797728
-0.06192855610337161
-0.04058577645861101
-0.02152617682453627
-0.05074531471366614
-0.04022483295484644
-0.05202104815660447
-0.05155257203564116
-0.0348334367208652
-0.05225355491696972
-0.01263682605918183
-0.05927972244289659
-0.0413368728814798
-0.006794939843596763
-0.01662424308710978
-0.04080458774208832
-0.04010735427920147
-0.005364375228906358
-0.04755722533109598
-0.04719328692220059
-0.0149796465847626
-0.0456981200307115
-0.005495635135584951
-0.04147743922540834
-0.02425698380205892
-0.04193009158915926
-0.05548973032624848
-0.03812288846476106
-0.0435366163177789
-0.04339512602410522
-0.04649767949583613
-0.05208134394842311
-0.04662291843174451
-0.04387594581192635
-0.03886353416110021
-0.008656399943538373
-0.02628065147046806
-0.02773682245084969
-0.017865797493505
-0.04850829394778902
-0.06316555694641073
-0.06088323188853002
-0.04839497424812766
-0.04864512085318753
-0.05720286156575
-0.05457921508420614
-0.0472504745568722
-0.05053037820365483
-0.05605550885484405
-0.02538347671887266
-0.05125523438901666
-0.04851053460983627
-0.03290604825847474
-0.02719597476773232
-0.005140481006283499
-0.04972067150392274
-0.04055468562379844
-0.05791434051531245
-0.03883323086215289
-0.034104286161105
-0.02099990500220432
-0.0233769294153564
-0.02542261518426567
-0.04761049573318749
-0.04083355642536337
-0.04791686742743138
-0.03517842260643442
-0.03892746948255441
-0.04604479858640409
-0.04682814222740708
-0.04975173506737647
-0.04588815721433628
-0.04339238812371378
-0.05935864928006632
-0.0386202848050089
-0.03568691601046351
-0.04495173236342176
-0.03265853012783747
-0.05295725050527334
-0.02121885812889904
-0.05378427886579144
-0.02982248541857555
-0.04652078875272276
-0.03051002419446106
-0.01087746912291924
-0.02611166493580161
-0.04696128286525063
-0.0269934634263449
-0.04280784778613769
-0.0597147653371185
-0.03787777802776936
-0.05460134660979225
-0.05147312353237041
-0.04708707894283353
-0.02574455538315674
-0.0555048601282004
-0.04083406623832854
-0.06049800928650748
-0.04872700738595093
-0.04756230357147208
-0.0517161056235181
-0.05574718810421261
-0.04738856389845392
-0.05526224878321281
-0.04104445776667447
-0.03215299342348488
-0.0533308704155052
-0.05651913533153113
-0.05203899779822736
-0.03500044759138959
-0.05138071072814296
-0.0113496701309543
-0.04904516916361242
-0.0489852621238806
-0.04728516845148965
-0.05421305465175005
-0.0576411917531479
-0.0491669241655386
-0.05225685831332277
-0.04982609704508566
-0.05724348779304899
-0.01032645736529848
-0.06002047694881683
-0.04472464299400269
-0.04022536649242924
-0.02841758661636006
-0.01884555347645214
-0.0513557255573981
-0.0482950229775233
-0.05113171016567807
-0.06211009759160283
-0.05918974689371084
-0.02837202917169587
-0.03863315370141802
-0.04468313024261622
-0.03015112688643863
-0.05125087586578336
-0.04291907021404048
-0.04922895115931644
-0.04865706905075545
-0.05212289095500564
-0.04670952504444035
-0.01708605627830849
-0.04938142062487572
-0.05866925549570945
-0.04357279631583369
-0.06205737494806215
-0.04075005046039176
-0.04843364659268831
-0.0426105912448299
-0.04189430346235724
-0.04563794432195946
-0.02247145172654167
-0.04850562085341055
-0.002493720029102481
-0.04818570389811622
-0.03387544147687959
-0.03633632815010404
-0.0261266224685881
-0.01252646138404774
-0.0057753557842051
-0.0454877565168185
-0.05229380868326051
-0.027463544091026
-0.05358651846754246
-0.05132287949800936
-0.03240512977978503
-0.002365489487752937
-0.0509261317559664
-0.0530993115625927
-0.05528671618002052
-0.05781773358422368
-0.05058812403216576
-0.04042361781419761
-0.03922726014991892
-0.05045685186359943
-0.01800436597575192
-0.03746609480393957
-0.05953364619277481
-0.04636441252532948
-0.02992777659705806
-0.04755192644121083
-0.05651555297927353
-0.04957115947083628
-0.01119189775193189
-0.04410187491474229
-0.05036013707457287
-0.04728793253208637
-0.03395278313044244
-0.05418263987331671
-0.05488015856571855
-0.05726071799303897
-0.04170203353888103
-0.05701817162698671
-0.06344234276451234
-0.04400775554188165
-0.05659922910642771
-0.05287100855688607
-0.04348527390861789
-0.04906827929460557
-0.0535225737954822
-0.04956299273628109
-0.04752173448822398
-0.04738946362610941
-0.04711793683433957
-0.002150751421020387
-0.0490141219857279
-0.04755656820974087
-0.0466827592027337
-0.0519442022453462
-0.03430769101522244
-0.05370486452707247
-0.05780412370428756
-0.0532448404721381
-0.05268998252071498
-0.0500803518217053
-0.05411258444262966
-0.05519557073479463
-0.05605604694044937
-0.04110196829746441
-0.0440682947870266
-0.05394310177032537
-0.05476525685441284
-0.05872912429741688
-0.04960106940072816
-0.05469651128252045
-0.05235040767609478
-0.05553414644936922
-0.01892663269105888
-0.05671474700234824
-0.0427961870821419
-0.03892817963315794
-0.01077854566396799
-0.0461039043180737
-0.04251548061246275
-0.05451413852918004
-0.05255343633508804
-0.05097047181398993
-0.05888349489852816
-0.04879793027243275
-0.05188185934777288
-0.05212476792676429
-0.04464533563780266
-0.04028439561085875
-0.052757811496218
-0.05789304239506002
-0.03098686066112246
-0.04654777327449091
-0.04980164486147061
-0.03737247296590877
-0.04154846654809633
-0.01521940059839061
-0.007140428868540898
-0.05688922859374157
-0.059963272508227
-0.06055019592802987
-0.04461042059480368
-0.04270492512284037
-0.03130337450861007
-0.05052019229883387
-0.05500591293872706
-0.05558721884723999
-0.05848446347302534
-0.03596076181044389
-0.05133152446904998
-0.05897259539788732
-0.05169573877016703
-0.05815667956163566
-0.04828192405460446
-0.05265041758451165
-0.05196336143002862
-0.04630315669644489
-0.04807074675988149
-0.05731116222836167
-0.06187405181368728
-0.04324864404760385
-0.04799971849173434
-0.05326751948300749
-0.05585163044345645
-0.05619121215607479
-0.05093350089217833
-0.05075641494120944
-0.04756222373319353
-0.04751467197124568
-0.06082899248748298
-0.04842949448715422
-0.0604306222489472
-0.05630266529739088
-0.05176573214705255
-0.01926573543692666
-0.04914896602126392
-0.04813779787890438
-0.0269945503524362
-0.05615047411244892
-0.04551831095505945
-0.04049010743112653
-0.05375102261081281
-0.04900628531222189
-0.04515245193349104
-0.05495983212888263
-0.05011277179703906
-0.04169849465770226
-0.05869944335983118
-0.05961231507155094
-0.03424317136951479
-0.04498204644004515
-0.05765008431237038
-0.03057820142526347
-0.04916617252819038
-0.02353178436726826
-0.0513574056755986
-0.02864964775261173
-0.04506019676515759
-0.05393952870879882
-0.05250774990395311
-0.05812316031921333
-0.05836643369648102
-0.04185245895624722
-0.0463048734408547
-0.04912764356771279
-0.05267430835839996
-0.02844621763165772
-0.0490298165365983
-0.0506095988824421
-0.05225314525737238
-0.0543164273134741
-0.05308863562015605
-0.05332446001316351
-0.05588792336601208
-0.05209219926857941
-0.05183527323929967
-0.04976217992948739
-0.05806857564327206
-0.05470627725435767
-0.05759320747032821
-0.05566512604550296
-0.0472843003816464
-0.04866971751487148
-0.04931400239070016
-0.04682133401898673
-0.05111760036605814
-0.06232273557052222
-0.05416205957912753
-0.05448294846816449
-0.05266087105371267
-0.06166419396869181
-0.05039332315908271
-0.05267742679411639
-0.04081573170037541
-0.05094343565218861
-0.05154862887138138
-0.05654940440525598
-0.04625119045042818
-0.02458963116490448
-0.0203438604314803
-0.05377772365309825
-0.03921556016074434
-0.04418437960849978
-0.05470450029312721
-0.05386688762160022
-0.03564239776257001
-0.05156716348560906
-0.05622799327455219
-0.04373547889145112
-0.05394148652586408
-0.06148846317431845
-0.04148865580695755
-0.06043195810579605
-0.04158335569504771
-0.0446417876669762
-0.04667816569441473
-0.03546166555787538
-0.03354267892893673
-0.04814333840110919
-0.05371236452192214
-0.03309745647947158
-0.03164924822827273
-0.04990757230860469
-0.04329135305719489
-0.05746316445363382
-0.03743709104167552
-0.03938095322598285
-0.05087926374624304
-0.04930126783830411
-0.0470818316404228
-0.05996731163984086
-0.03920962471587447
-0.05366836041387454
-0.04057096424044408
-0.04144684840382631
-0.03886414127164952
-0.04443319414976851
-0.03476902016153915
-0.04391074703589937
-0.054590707415015
-0.04358234607942477
-0.04528836136430675
-0.05984127352289204
-0.04878358302954569
-0.04999859395446282
-0.04287949692785657
-0.05121279497783118
-0.05791918294162327
-0.05118122589081509
-0.05575609652518158
-0.05802583922821605
-0.05171695145335072
-0.05840959762699045
-0.05684154342795704
-0.05821550063642705
-0.04735917325926645
-0.05440161708529949
-0.04944696807729814
-0.03881987026882331
-0.04955734217139036
-0.04991844201745339
-0.0532377562279408
-0.05064745607235771
-0.05621759552311088
-0.05460945393132518
-0.05013915229476992
-0.04939248742324645
-0.05479911959357917
-0.04278960240461165
-0.05642091442554668
-0.05287676572969835
-0.06237422820665158
-0.05277042951865405
-0.05336363661743785
-0.0535417986347561
-0.05509230955314427
-0.05441987990994852
-0.0239376626589613
-0.05332048746310984
-0.05419175269333483
-0.05238700105777599
-0.05393655518295314
-0.05257000495638355
-0.0613285787413223
-0.05236091978777479
-0.0605178919259443
-0.06044894523614752
-0.04524296635247644
-0.05566918373966357
-0.06189930650676038
-0.04876691824259346
-0.0001094493013220069
-0.05179153116051127
-0.008037219199980732
-0.007848613218351189
-0.003825023275863126
-0.04700295249172406
-0.05760508494000192
-0.05234894812766564
-0.05156277808888829
-0.0437413714183849
-0.04392915791780693
-0.04482839153839509
-0.05364400179984833
-0.04483392881546541
-0.06071550660423846
-0.05943147757674979
-0.04670284392662208
-0.0352421168204609
-0.04365794461093388
-0.04842928950063834
-0.05503972363914165
-0.04180924314590152
-0.05028104253468768
-0.0469825600780958
-0.04678300920815139
-0.02153712828944686
-0.008931422856694687
-0.008615932749498369
-0.0619423694813744
-0.0524052940291926
-0.05546046706811503
-0.05306669747962679
-0.05200208728762413
-0.05124500303349259
-0.04869726711536567
-0.04846647150083864
-0.04855347297658743
-0.05219508394920959
-0.05318671270632776
-0.05426434880116367
-0.04456985880748121
-0.06027419240060171
-0.04611084891951563
-0.007539634967067475
-0.01993800780460817
-0.003859583399156693
-0.01663108616087569
-0.05782469926439551
-0.007227551562472781
-0.005246608699545166
-0.05163102169779772
-0.05037978535645217
-0.04649145929526927
-0.04684107119914483
-0.05523887479802337
-0.05655243647998501
-0.05286544317578333
-0.04543120147934828
-0.04889083964873216
-0.04612042323371639
-0.04797722412282469
-0.04853552260533746
-0.03062780907596507
-0.05042008397627412
-0.03050013667514682
-0.05662562127542431
-0.06313475494284908
-0.05342239742775403
-0.04696887122665423
-0.04937117346212788
-0.04664163742209997
-0.05181986429669621
-0.04318705655270616
-0.04559327505617494
-0.04623412009490542
-0.05009763623531339
-0.05267162566893833
-0.04950681570366567
-0.05024397025291163
-0.05559676293533441
-0.04764596440746525
-0.0543805853031927
-0.05041747953579349
-0.05341624089549431
-0.05298486825605465
-0.05614090477817216
-0.05584378478988234
-0.05063647514716381
-0.05623680159374645
-0.05168118146639122
-0.04924437549857118
-0.04605876454875606
-0.04742279501883234
-0.0511153114184237
-0.04897696947312429
-0.05070654306621999
-0.04621378881487993
-0.05345205630725774
-0.05126536644273694
-0.05815984168974626
-0.05959512409821849
-0.05497587429177658
-0.05140597500054868
-0.04601405925829282
-0.05655200187143974
-0.05683578259226998
-0.04609147685145713
-0.052702991712429
-0.0535711176695193
-0.04762225798744004
-0.05803626817372275
-0.05474562310748841
-0.05106216685448017
-0.04031367922378123
-0.05078469088808939
-0.04342548152856013
-0.05874103634500374
-0.05499286706134692
-0.05274459825821486
-0.05494925223143739
-0.04571383563165741
-0.01732698118762883
-0.05384094958570165
-0.004783931854164354
-0.007297994092812525
-0.01077125160215956
-0.004972617069129258
-0.01383224378778862
-0.03092131882305766
-0.03635641018389756
-0.04627043613380492
-0.0143749575619756
-0.05945419707021316
-0.0445987001752347
-0.04355620001316066
-0.03234555391778934
-0.02298870302272891
-0.04671240799578146
-0.05052722324172372
-0.05390983219762032
-0.004722273370793568
-0.006865976486970017
-0.0007669646703901455
-0.04235563400365139
-0.005728072306480174
-0.01723408314637657
-0.005108917458124162
-0.01636263168040222
-0.02262505959456696
-0.0309803861689024
-0.03771360816780538
-0.01595885557910549
-0.05146482711857334
-0.0213517515822258
-0.01805956538669443
-0.02049910916058231
-0.007862792584759587
-0.008600413119785839
-0.002375060771259609
-0.04813627945266136
-0.005947075887652396
-0.01424803884318687
-0.01672979205744218
-0.03950433429304985
-0.03704329430725923
-0.02154296146148087
-0.05959587683810026
-0.02003530579963405
-0.05152924238626256
-0.01501469980950521
-0.05002114232700296
-0.06144949668146468
-0.001786017523594108
-0.01375251287729709
-0.01263225030153307
-0.0178914730899587
-0.01788066543411775
-0.02715097537594582
-0.008061010318511525
-0.02971562920787703
-0.005109664879803843
-0.05089061938229966
-0.03369276765889025
-0.05453360837538179
-0.03314191275995106
-0.03297709887004803
-0.04749210050872233
-0.05578188893211775
-0.0428581685473415
-0.05285265319878997
-0.04649750933970786
-0.0512763908683024
-0.05204700032734676
-0.01685261233262367
-0.04032161154308916
-0.03188775785955326
-0.02583074280421918
-0.05228200402789122
-0.05771639874409991
-0.04988075877839607
-0.05713901004849007
-0.004002031302700207
-0.02957649253953261
-0.02735357202834517
-0.04745729302363835
-0.05641276716154506
-0.03842337365670479
-0.03218986716857324
-0.001269782258326788
-0.02149449056980944
-0.05516775123765021
-0.05076504214852166
-0.05603600026563463
-0.04990883217602903
-0.03291961639121919
-0.01984325783066311
-0.048585973672462
-0.05711296817737529
-0.006722420557994487
-0.03988494496453487
-0.06020571195134801
-0.04988938153667158
-0.05970331604731565
-0.01600450202886054
-0.005227566014264416
-0.05818353801704882
-0.009950198899492623
-0.05171248331506625
-0.05306280013383459
-0.05347707102775022
-0.05323091150017619
-0.05359860450666287
-0.01747037361351896
-0.001759958684000143
-0.06068113077375094
-0.008262414505225886
-0.04848794406066646
-0.0185341937796552
-0.04832372279487483
-0.03673345169324162
-0.004400848763659097
-0.05675473568850482
-0.0530164740566521
-0.05261297126556087
-0.05426069226061669
-0.03780589597205517
-0.04174300962539564
-0.05296393087120864
-0.03314551487101255
-0.04798641134738487
-0.01196713037890073
-0.05879762637406371
-0.03895669013708861
-0.04446927409126713
-0.05350371476544116
-0.04783036691247752
-0.05340721000507905
-0.04734531091138879
-0.02844340129136104
-0.03933692181525362
-0.03438737058952075
-0.05905171550826477
-0.05575262595959592
-0.02105535214811598
-0.03580421449246257
-0.0135211381690432
-0.00975603131385349
-0.04637201324255767
-0.03550059332763636
-0.05369596207691668
-0.02421688248187168
-0.0113537127575762
-0.02770353642571307
-0.04547495987394522
-0.04091964502332552
-0.04115495451317035
-0.0352816980393555
-0.02884700519539113
-0.009998101065912699
-0.044247780723886
-0.04434293951965564
-0.01891625984921358
-0.0434647985799629
-0.0502443169435592
-0.04413404773800749
-0.05891170000392256
-0.04855952991092057
-0.0557458797993634
-0.05817583929763648
-0.0433276635553149
-0.05288406488234596
-0.0603337226293297
-0.05443486900187961
-0.03330872989013293
-0.02418059821026503
-0.04529111501112301
-0.02221166510148589
-0.01424639714055758
-0.05366692258553823
-0.03121030195374105
-0.04016480226390548
-0.05398105351294094
-0.05300056044432083
-0.0532616408192114
-0.05188256668642178
-0.03184701647233701
-0.04822558309397186
-0.04600908379371915
-0.04542883858344654
-0.03605278078980177
-0.05064842406106815
-0.02254814487282331
-0.04754698902025351
-0.05317228521149203
-0.04472030283045919
-0.05278365052694324
-0.04131666199402988
-0.03422002625659214
-0.03060110835121893
-0.01932442708770575
-0.06106222246030885
-0.05074654502563768
-0.0140572477876013
-0.01051298947820968
-0.009207875713775378
-0.04968846103628373
-0.03137537361113779
-0.01929947029798261
-0.01727564270911972
-0.01782614863959566
-0.04101209571918731
-0.02684159729522248
-0.04941954213478366
-0.04863172854608681
-0.04131928013927863
-0.05284755328456742
-0.04768319308728156
-0.04220378421359231
-0.05172481453437013
-0.02760494998868499
-0.03431074043881216
-0.0355493054989447
-0.04015957701068551
-0.05324294329865262
-0.04348443387145731
-0.009129573725832438
-0.03422882679285738
-0.02699277694535641
-0.04525299018696612
-0.004476017675282698
-0.02750374922580284
-0.03286980984458837
-0.04536366884161987
-0.03816624023288939
-0.05583942730753982
-0.04268877637244827
-0.05074356091607991
-0.04045311654342888
-0.05156848842851524
-0.04383636183440928
-0.01108816537608201
-0.0296017727904164
-0.02364720983511549
-0.02874968055125589
-0.03646054475880463
-0.03536971048674901
-0.03608759957750013
-0.01445971411380479
-0.05440991038516886
-0.05763167291462722
-0.04614365208952441
-0.04537834440318281
-0.05220477325183834
-0.04615299166240615
-0.03230260334605156
-0.05147047247310951
-0.04885049379297144
-0.05588649675901605
-0.04293941186743022
-0.03346189765173996
-0.04401067425217917
-0.03488373199439546
-0.04148350991998759
-0.03969557078657377
-0.04650047202018048
-0.04041994180960232
-0.04672725512936401
-0.06119445354393312
-0.04423363971276632
-0.04252079432985025
-0.03992525771674173
-0.01460975793879007
-0.05636466887381837
-0.05176761974353373
-0.04424886180028511
-0.05097219749835567
-0.04727232829322089
-0.03063304538901121
-0.05575145380151146
-0.0435169613088229
-0.04434481677408456
-0.03775991061063485
-0.041140500393688
-0.0490820732179925
-0.027280395325323
-0.04451063175169007
-0.04574231282171186
-0.05026853256023796
-0.05057382442911536
-0.05627655956127946
-0.05138143951565811
-0.04655212431099322
-0.04576684712745576
-0.05091327792061425
-0.02512114887584636
-0.05300837273343534
-0.05131630748842151
-0.03884786741316193
-0.04546178083455266