/*--------------------------------*- C++ -*----------------------------------*\
| =========                 |                                                 |
| \\      /  F ield         | OpenFOAM: The Open Source CFD Toolbox           |
|  \\    /   O peration     | Version:  v1906                                 |
|   \\  /    A nd           | Web:      www.OpenFOAM.com                      |
|    \\/     M anipulation  |                                                 |
\*---------------------------------------------------------------------------*/
FoamFile
{
    version     2.0;
    format      ascii;
    class       surfaceScalarField;
    location    "0.1";
    object      phi;
}
// * * * * * * * * * * * * * * * * * * * * * * * * * * * * * * * * * * * * * //

dimensions      [0 3 -1 0 0 0 0];
oriented        oriented;


internalField   nonuniform List<scalar> 
16322
(
45.46920763040195
-25.29163221360883
-17.23943810356262
-2.938137313230373
31.52602897821223
-83.05441640104043
257.8649582026188
-206.3365707797907
239.4518579636163
-280.6014860069233
122.7672647887676
-81.61763674546062
0.05814315762199667
-0.2119829596466059
0.1471162307250529
0.00672357129960627
30.82150002933754
2.349883882974303
6.54561108990475
-39.71699500221648
-0.1163869034924468
0.386314814993946
0.04796860360790583
-0.3178965151093298
-0.6910732184685221
-0.008637847837656944
0.1394022055443609
0.5603088607618951
-0.2624943791711188
0.09511973042702758
-0.01168780457966932
0.1790624533237786
-36.82091205531971
67.05589500642333
-68.06132828356415
37.82634533246043
63.14146620036252
-37.85054981328724
-12.32322337675339
-12.96769301032206
65.03746090052725
-13.9317788605446
12.03578416037972
0.4947588851730001
-0.3956104381988605
-0.1275473881497808
0.02839894117582534
0.2516186367905568
-1.343280965283832
3.240157396530728
-2.148495068037259
-170.8527244870074
79.93115396879496
90.92163746797833
-0.03963128113821244
0.1054093193386161
-0.09627304232730202
0.03049500412693987
3.971122951789441
3.933453690537467
-0.855266219058782
-7.049310423267991
1.858568772035745
-2.132754165053905
4.24530834480778
0.257454486946455
-0.2639220075738511
-0.08926921690114005
0.09573673752859363
-22.0774748356146
119.3384393286099
60.99882455710715
-158.2597890501026
-0.7078350889352847
1.507604238070767
-0.9991069816193322
0.1456784938728701
-0.08935883813696312
-0.02325148919043359
-0.03306816654545217
-65.16844147892718
-26.21211993743208
-74.52659169846288
165.9071531148221
7.213065287248456
-6.875746728068203
-1.509635191320073
1.172316632140143
28.32179784911162
-14.14552693184372
-8.708536013313964
-5.467734903953923
1.224952135439806
1.253651829487658
1.122114032371144
-3.600717997298748
-1.076186019346805
0.3232381136066838
-2.103977770074834
2.85692567581531
-11.28492815309291
4.436952426903486
6.478625276399001
0.3693504497905459
-0.142597343368635
0.6457341046173527
-0.7048526315976374
0.2017158703491281
0.1384395530616127
0.0679281412064108
0.07967605218457541
-0.2860437464525029
0.8746305464574257
-1.099931382933334
-60.48770335038709
28.63586333612287
63.51884970628616
-31.66700969202204
105.0376436938973
146.2645248141515
-127.1702809053584
-124.1318876026904
0.08172713090512963
0.1433720632030797
-0.4348535127162342
0.2097543186081159
-217.9120201252584
-87.41001222774273
305.3220493544003
-46.46956013064421
-172.6448044658287
-8.029628145991174
-23.48843883555564
24.48090263778805
7.037164343759029
-2.611677378379004
1.709552275173915
0.7098945677675704
0.1922305354375904
142.29131589351
71.45294932008142
-213.7442511255654
25.59072480951265
144.4659471338653
-38.2289036860422
-13.53083636577623
165.4123477190676
-35.0026832347727
151.5633204336727
-11.52299350500265
0.4106936571545692
-0.4289393225058928
-0.07821813593428252
0.09646380128565706
0.692633359857922
-0.7860993150222706
0.07450081847946785
0.01896513668492726
1.191263785736779
0.9582585934844503
287.3400888789096
53.36014115300132
-64.29408585971242
114.5720695790663
-313.7321074413045
60.78745333802546
138.3725845242129
-11.89617257412568
-26.29844835522359
-53.80533233854587
91.99995326789517
1.378576604964032
-1.5549999865943
0.005809929006057395
0.1706134526244183
-128.6874100145541
-60.74791022153241
-49.36165184911342
0.1230331737349041
0.3556453384703261
-0.1014797965957492
-0.3771987156093885
29.41759934867355
-2.151856681606148
-1.383467861649857
-149.3809942706577
-217.2755797031798
-12.91961419114685
379.5761881649843
-0.1541052987219022
-2.552358140861866
1.537534592629658
1.168928846954206
-0.1249507618481061
0.08183645305279351
-0.06806917606083832
0.1111834848562136
-1.49576164293227
0.8308384913631001
4.598376842106842
0.08832826979337116
-0.04887662150196717
-0.08425648428289018
0.04480483599154126
25.68976255150762
-42.71921521586347
-34.6653992739422
51.69485193829809
-8.057295564602512
10.492162144862
2.601368283583803
-5.03623486384265
-0.07710591213787585
-0.1340248553108605
0.09227516529534791
0.1188556021534342
-0.1255201658467276
-0.1444512045702681
0.2617548311079677
0.00821653930907743
-7.414321101756387
3.790937190137846
0.8165893492402316
2.806794562378243
-0.4423332987225777
0.7531092888657357
-0.1988893572459554
-0.1118866328970865
-9.691007593047274
-80.85319848398797
-0.8009237365259841
91.34512981356136
0.2870282202233772
-0.1176737900571466
0.2411828947306094
-0.4105373248967894
31.47484833970346
9.758388271676969
-3.289743959933111
-37.94349265144742
-0.00782529303578342
-0.05020676413924945
0.1953758690049094
-0.1373438118298151
1.465147552278628
-0.4266499291342418
-0.03527785952718197
-1.003219763617075
-2.128054206496617
-4.64517773234472
12.23310653775611
-5.459874598914326
0.2989105630343313
-0.3118042064706751
-0.001644051026589729
0.01453769446300106
-0.1133045630912564
0.1170633792393065
-0.02070765107883839
0.01694883493083202
10.62717775058358
-123.1341771279221
163.0423747617972
-50.53537538445865
0.3130435485597449
0.03362517450438604
-0.1264647395541335
-0.2202039835099263
0.2558439493331905
0.3269463070361298
-0.6476918966766019
0.06490164030744412
0.05033956126106023
-0.1028166596637347
0.1337706797365136
-0.08129358133379636
0.5147028726858595
0.08483582195066666
0.002248852982833102
-0.6017875476192697
155.6801729969847
38.66381509986633
-66.8416253349688
-127.5023627618828
-9.450768227092441
2.77126889758939
7.042518464395869
-0.3630191348925921
-2.226726806408895
-0.836244552668307
3.870595993911813
-0.8076246348344286
-0.0504313341144649
0.1608321852680265
0.396786498747086
-0.507187349900537
-3.935852470599268
1.752190878696999
2.16954449802196
0.6308497567269429
-2.550890790864103
-0.2495034638844359
0.2075311084039377
0.01078942824425214
-0.2288501560299878
0.01052961938188179
0.2725155394588988
10.97277045868732
2.66477233543749
8.814772303333203
-8.569681480938089
-2.909863157832452
-0.1035873978752242
-0.06507646521708589
0.1059543835357004
0.06270947955662295
-0.0758794828517312
0.1923278365110557
-0.13620622436058
0.01975787070135483
0.04038759699670256
0.08484564075633158
-0.1230996197001623
-0.002133618052822519
0.09316491019227074
-0.01969092697513935
-0.2804964587877185
0.2070224755706507
1.29157334313758
0.5042707141956564
0.6841498953080007
-2.47999395264121
-99.26646838903081
51.4911714134925
143.5145118433283
-95.73921486778998
-39.70759445513187
-136.0653006229018
-34.24453616762307
-0.2262932398650735
-2.813315470416932
0.480826998222231
2.558781712059899
82.60921604945767
-72.43899085765864
91.98969364283973
-102.1599188346387
-1.125923820751839
12.19439650200281
239.573961921509
-37.50057606674788
-168.770215755381
8.068241990314732
-0.06545460881605684
-0.204152344527597
-0.04466141246252834
0.3142683658061716
171.4727284804488
150.5280032327493
-207.4286621341318
14.23356568964008
-5.996086423889044
-4.064111035283262
-4.17336823046749
51.21379855135361
-255.7118619382804
245.6722716979912
-41.17420831106437
-1.024636939948068
1.544917826115841
-1.207020741363007
0.6867398551954267
-169.9304280497606
79.74540213097406
-83.98255583342352
107.5016980249752
-50.29023680746943
103.4793891460734
-160.6908503635792
-1.838208001200425
0.9413387265503336
-0.9177557871626516
1.814625061812747
0.1486260935172639
-0.116060890887202
-0.06562271832027804
0.03305751569028206
0.2399806655406318
-0.02733816566213101
0.2286630706220545
-0.4413055705003793
7.196669375621734
6.238493623716086
-18.40348142310188
-29.18941030188223
45.99073487429305
1.602156850691364
-1.106095404926608
2.036031872192135
0.4802929108239143
-1.410229378089141
-57.23713992430388
22.22291212958372
29.63892127553206
5.375306519187921
-164.6208169009622
85.06055320705727
143.9522621066569
-64.39199841275199
0.815357780318744
0.1173718910167085
0.4458469336286941
0.1086031446713917
-0.2704155237626277
0.05282214279669665
0.1089902362946093
0.07737873368062623
1.569692780902316
1.623214855308257
-1.455125094551622
-0.2962008593733457
0.1281110986166909
-3.020719794210331
-2.582370238103137
0.8144352601226404
4.78865477219076
-0.2612504084133332
-0.09247965997527517
0.07511858712451104
0.2786114812641525
226.6634485332176
-163.3048473944454
-31.83257216055997
0.2825782009358609
-0.3177275320639595
0.4126494253646511
-0.3775000942364863
-1.831770310568906
1.969092954666678
-0.1722594137848588
0.03493676968734838
2.964919542452168
0.4558082554202327
-2.263366812441048
-1.157360985431183
-0.6069096868376431
0.5598675147461905
0.3737364597906963
-0.3266942876991205
-5.009464316084607
1.34984998714418
-1.918843434048471
5.57845776298919
0.3962566643322023
-0.5827364286186398
0.1069870940323348
0.07949267025428854
12.84387566112602
2.5895244741015
-2.921141263453376
1.25344682384105
-0.9218300344889896
-0.2697893006977706
0.2488003345895978
0.001355798082518142
0.01963316802575625
-0.2233807062151423
0.04499259830408552
3.566969918469902e-06
0.1783845409411865
-7.292630725732664
249.6748683903771
44.95785121426506
-1.63361082485967
70.15186585212616
1.724406046794256
-70.24266107406085
13.58524457025847
6.813223182866705
-0.6710762168021488
0.8283871554212128
0.4424573085502049
-0.5997682471691562
-94.90110979572492
27.07331019166273
20.44883260074536
47.3789670033167
-1.942638766701732
-0.213044707445892
0.7658920300247205
1.389791444122981
0.1439890682197647
4.857648983212027
-1.297416705528379
-3.704221345903254
-1.917717138498701
-0.2509581868015837
1.064758210041022
1.103917115259425
-6.940653548284138
-2.438940073613703
6.3588738276874
-0.3890694334996251
-0.09074343844913406
0.2104857467993364
0.2693271251495076
-2.568760854484135
-1.84543205226882
11.6272581940016
0.8543319098134657
2.641089823359141
-1.696303192160552
-1.799118541011765
1.705530255159908
10.41267674148156
0.02787252552479124
-0.1134827094366151
0.115373914489652
-3.219006539261293
-10.74040814870139
2.477254412896009
11.48216027506663
0.2796596597841982
0.2829097814435217
1.068327748881284
-1.630897190108871
-10.55875606574612
9.398674118019139
-2.058924591534323
0.6503758861910531
-0.6702826948387158
-2.461538144862941
2.481444953510591
12.77835058384257
-9.555117686241173
8.73789646776866
-11.96112936537003
0.2908496676239542
0.1291929598361736
0.06660408116497986
-0.4866467086250271
0.5116019252859653
-11.40142257771177
0.3310645866795948
20.20766768740485
-17.53910674431341
-4.09923283091087
1.430671887819507
35.38668379445394
-36.09012411643423
1.076121653987105
-0.3726813320066963
13.0632257261048
213.6002352103373
-2.87106867902116
0.7416406500287083
-1.5678295667778
3.697257595770437
188.824138163518
-265.9244000139402
124.602810245994
-47.50254839557189
-0.05586618223110087
0.1191758899741461
-0.9261072519459977
0.8627975442029375
-36.36992044864837
-60.80020984010595
9.889314186254241
87.28081610250001
0.6420931336186053
-10.87089935703411
0.7802864573269959
0.2772734017606229
-0.3483849469741702
-0.7091749121132637
0.09264147225900854
0.7301026850239066
-0.3686208116913987
-0.1461163991861009
-0.6353743629681833
1.150111573845842
-0.2509311646318454
0.02105662657200808
0.2773612129801958
0.1001941775079153
-0.131717528670155
0.1284879153286745
-0.09696456416637783
0.9590202921603517
-0.06395202273998592
0.1132138018451584
0.01899241434548713
-0.0682541934505799
0.07141837463199766
0.1650607324401079
0.2784132925360502
-0.5148923996080512
-0.07900428951745272
0.1124529299286804
0.2466894619035058
-0.2801381023146688
1.805766951598187
-0.1316286074312423
-0.2916579923834328
-1.382480351783378
237.3642543217474
127.9637736161094
-100.8729579412816
-264.4550699965752
1.538852851008262
-0.1250568469704561
0.07667065933163281
0.3360726937298794
1.280271267013475
-1.693014620074822
0.5216023179649282
-0.1108445798248905
0.07693591456652207
-0.4876936527064596
-0.07626356102170663
0.07486563771348728
-0.03264826944739939
0.03404619275566902
2.297422075798332
-2.869661278146664
0.2286587557994331
0.3435804465491537
8.643194806919487
-5.279337310960066
-5.491911702455816
6.404865237335441
-7.52991205421536
-6.664311660267641
7.78935847714739
0.1441842676855443
-0.002281760701940085
0.01512765341313185
-0.1570301603967125
-0.8939646220229001
1.320493373712306
-0.4040408664548154
0.01128745966879486
-0.152815807275146
0.04334587305086107
0.09818247455553723
8.37939543699216
-77.43790762557221
5.655201833419105
5.034848520820413
-3.082108520440217
-7.607941833799289
-0.07051625073664367
-0.1148298864992442
0.131632468777978
0.05371366845796117
2.334173828524279
-0.08183752735059717
-2.103622410282623
-0.1487138908908138
-0.02277452027834704
0.14236884406719
-0.02536215181741396
-0.09423217197137866
12.47357222896395
36.14469579763606
0.8671642375681353
-49.48543226416805
1.293371279059751
138.9377727467252
-192.2060812664776
0.05561342478742912
-0.09314234577353105
-0.1596982607439759
0.1972271817300742
-0.1293605702929043
-0.6594162416815337
2.584587527929915
-1.795810715955436
-2.581344472716224
0.722035040656471
2.659582732987226
-0.8002733009272867
-1.016175288598973
1.321401008314201
-1.300216125538017
0.9949904058228746
-153.1613396971068
-119.5027831809233
85.1413867037331
-2.912194883065712
8.962944377200996
1.931955613600939
96.52225030054917
4.981647196709019
-103.4358531108593
-2.604851619547813
0.01613801498385566
-12.51356312321634
15.10227672778045
12.20511765312321
0.6188102036800609
-4.962275471028473
-24.51982175965042
-7.113124787001761
14.90301282529233
16.72993372136035
3.237944892351692
-1.625019795835438
-1.111626434485458
-0.5012986620307199
29.11449262218224
-7.206621292348694
-13.60522435461122
-8.302646975222203
-30.36970192589548
2.592738303376595
3.257141862868637
1.663458726405483
-1.572873092628238
-3.825241734071255
3.734656100294152
-0.1872278712388399
0.6753207224021571
-0.3884881667285874
-0.09960468443463044
0.1767696078927374
0.1722582892151769
-0.1325177922019766
-0.2165101049058269
0.1144176438430295
0.7584849971841271
0.2047593327259493
-1.077661973753074
-0.1877102732674908
1.533819434487531
-0.559702817050319
-0.786406344169697
0.3149076808348196
-0.003588087892325077
-0.5900275555213197
0.2787079625788721
-0.1378248433721271
-0.4547347162919343
-0.1078258154125036
0.7003853750767025
-4.180345713705173
3.230552929109178
0.2074180391168229
0.7423747454794766
5.580740307644942e-07
-0.0004450167988704871
-0.08147779563144993
0.08192225435633334
-7.105702381906703
3.119144391783153
-3.320571523502068
7.307129513625828
0.09218925733009241
-9.963179896625239e-05
-53.34938168967755
38.54733841814356
22.76750702130589
-7.965463749771697
0.8417904619004092
-0.689766530066055
-0.1079807632245345
-0.04404316860978986
2.13301699214619
0.5236147050746752
-3.871283732040131
1.214652034819366
9.366770701787138
6.852725187769141
-14.05192550132135
-2.167570388234856
0.07987678503703399
-0.1824572595913548
1.498627607932695
-4.443811780333365
0.6773101142226642
2.2678740581782
-0.04094027253237617
-0.3213860938763541
0.01668779938919887
0.3456385670195755
-1.111395345483871
0.3032891679389427
1.200060739383391
-0.3919545618383924
-6.367851476752056
-1.588403899013797
4.583759562698454
3.372495813067605
-49.93208468458232
40.13454584058033
16.45075035914475
-6.653211515142726
0.4780004746179121
0.1125663362506146
-0.1221056438087107
-4.968949963095368
3.535326772443649
1.555728834460413
-3.84553396672918
8.392680983558916
2.327325571725793
-6.874472588555805
-0.04296927641919662
0.3402611957638771
-0.3107313772166371
0.01343945787200426
74.28475077944628
-29.81839494453509
46.92643320505206
0.3957490807868772
-0.05790295513059957
-0.1642777535345937
-0.1735683721216161
1.042328659899777
4.04715972640404
-4.131671636756709
-0.9578167495470392
0.143827148656871
0.06965932956079286
-0.2100086518764981
-0.003477826341160882
0.0114611554758465
-0.09293437935366741
-0.01094360638554793
0.09241683026343539
0.08513628018175361
-0.0292976356533695
-0.04773094520017218
-0.008107699328182127
1.866656429288738
-3.456122680467288
-5.351187297105667
-0.3846661585714025
-3.64171110563999
-0.1215017436820428
4.147879007893438
1.078773398828865
0.06517471291795486
-1.022520131742434
-0.1214279800043073
-0.3302264800697984
0.1396466805242738
-0.01706154881011853
0.2076413483557183
1.079221701952614
-2.357986322024409
0.8228384250627306
0.4559261950092127
-0.1787846745600309
0.1243458787137721
0.5324392704640392
0.7365678551904954
-0.3412792435015337
-1.654180902488368
1.258892290799508
1.370346165678784
-0.4783086345285651
-2.261451890476688
1.369414359326596
-0.02282954086386735
-0.1398115044533599
-0.2195306810604434
0.3821717263777921
0.2726895708637965
0.7699645526833249
-0.08171043876845155
-2.128158095782261
3.337736292839412
1.077078525913234
-2.2866567229702
-0.3250077420496446
0.4495557051700793
-0.05701040065438527
-0.06753756246596375
2.727892864212142
0.2928206163077474
-2.032423137496342
-0.9882903430234093
0.5410828838901425
-1.555373782898507
0.2186727999459576
0.7956180990625257
-5.562817717366388
-25.53974328012389
17.48848972923084
13.61407126825968
248.6014469816674
21.91349212219014
-222.3161955703307
-48.19874353352684
83.47305358018579
-59.53481108320142
-10.07518393828188
-13.86305855870257
0.1335209145090482
0.2638019178043165
-0.4324095250229372
0.03508669270963358
-0.6165639309613832
1.754018753390799
-4.419331332210125
3.281876509780773
20.90955296906459
57.92025828538588
-56.0990149861446
-22.73079626830595
2.791517299937371
-2.291088444954853
1.050063079710124
-1.550491934692505
-0.003878759240200824
-0.01859005502337717
-0.1125137995641809
0.1349826138278357
0.3958658747010276
-0.5829955260704283
1.367226910563906
-1.180097259194402
-0.1682973655371656
0.03965078182723505
0.3775229430034949
-0.2488763592934335
-0.05775237528619196
-0.02568871375017369
-0.008939715750102918
0.09238080478650985
10.0724744223134
-0.2291817624097823
-11.05720127977687
1.213908619873221
-0.4127941130063778
0.6765399266566612
-0.4666175458421326
0.2028717321919369
9.664076033856787
-0.8216252361094827
14.55409487422063
-23.39654567196745
11.17961691324679
-4.150159422285815
-6.510109910597936
-0.5193475803627867
10.06604549046579
-8.611617394321236
4.707245582365791
-6.161673678509718
-8.775993298351191
30.83689618155772
-14.26999454523188
-7.790908337974493
15.47941519794553
-44.56417951023364
52.75495563742903
-23.67019132514102
-63.2774864213841
-7.520216764360129
-86.42341036835519
161.41902636559
-29.41740381338768
53.86886264177894
-185.8704851939812
5.263404756085522
-0.7487994483190359
-6.268950190725446
1.754344882959047
0.5792070229236034
-0.7918303963798855
0.2979494793602238
-0.08532610590376802
0.2418428058478664
-0.07699495809569497
-0.0398358417995071
-0.1250120059525559
-0.2799829163814758
0.2884049440531952
-0.1965209562304834
0.1880989285588524
-1.260127393204365
0.8142629974660394
0.852658129210529
-0.4067937334721025
2.063306609460083
0.3085202697026982
-0.2948091467301872
-2.077017732432572
-0.170002082875779
0.2448576575403066
-0.1283228392541473
0.05346726458968559
-193.7911068307747
-44.04327436889377
-1.986993259346435
3.39226543026819
-3.531632181979296
2.126360011057808
-0.04453788474550702
-0.4210933710597065
0.3244776907508861
0.1411535650543934
0.7392768709046184
-0.3924380858884199
-0.6003809675251045
0.2535421825090618
-10.01594171452026
-4.38253080884876
24.48524094042799
-10.08676841705892
1.230101112821157
0.5890616446736632
0.03653876052881518
-0.05987309909950948
0.04246265383093907
-0.01912831526019586
1.08633113188147
-0.5836419660286879
-1.145793822692703
0.6431046568400023
0.2446026409417185
-0.1207161339659551
0.06031830690277319
-0.1842048138784441
20.04842820255901
-9.924422942401689
-23.3288745973505
13.20486933719326
0.1327652148460733
-0.01130324480858165
-0.1033210592818192
-0.01814091075560236
-0.1095854623711704
0.3774197943442131
-116.0995471828205
-89.19529164586993
140.8416607243944
64.4531781042961
-12.46552552052482
77.19590096821985
90.94979754928931
1.702787122873904
-0.4122407680073434
-2.098753860671375
0.8082075058047843
-0.2279197960596549
0.1797817248860341
-0.09108884295608413
0.1392269141296865
-1.157274134101608
0.2314879528768377
0.4876407374348932
0.4381454437899451
0.02872381056555409
0.1560392148722153
-0.1659841314995884
-0.01877889393820038
-0.008890513958019939
-0.1220466258340794
0.1358282838076502
-0.004891144015501455
0.5698304973766244
0.3637779479679181
-0.1943315744398739
-0.06030098447869533
0.7559061699401718
-0.9826709156208911
0.2870657301594184
-0.6323356588960768
0.9489703525136679
0.2257664178857062
-0.5424011115031869
0.03433868982177461
2.374209696795803e-06
0.05237823255371828
-0.08671929658514652
-0.08405245078390688
0.07433522765268454
-0.02977525644394132
0.03949247957521921
-0.4384689705199754
0.3043996216629822
0.2991559994282849
-0.1650866505711972
1.863429602168576
-0.6052061688229917
-1.565941716515904
0.3077182831703099
0.09687801837590819
-0.1199870446422023
-0.09019553682494068
0.002268181127225639
0.04140602472798689
0.2208347456825218
-0.2645089515376559
-0.05157288180333477
0.1001946820825592
0.145476498228294
-0.132349353717322
0.03783430470724274
-0.5542922123444379
-0.6372827857716267
1.678373041351199
-0.4867980432351546
0.01387548491579636
-0.02607613897681538
-0.1652181344983503
0.1774187885593649
-25.23674090882696
-139.6492396318151
12.98390014386406
-9.463808599086796
-3.904687777581156
-18.47086801291151
37.75797447775856
1.330336348913895
-20.61744281376058
6.02829102427682
-2.759236080411476
-5.786816310224807
2.517761366359468
-0.2756596817351084
7.9526407375741
-1.272115818503649
-0.2084677060935859
4.190928821545082
6.090013306861869
0.9842581150175593
0.2025065881334905
-0.3449742412507482
4.596726228834424
-4.761365020243966
1.543707507865778
-1.379068716456079
-0.3222802315114902
1.209703253618507
-2.461840430225843
1.574417408118826
2.007880642425645
-0.957919964420437
1.575885707637704
-2.625846385642693
-0.9138599418208481
-0.2370937812293109
1.009629436185318
0.1413242868648839
-0.2903787689205926
0.158615536895065
0.2629233999886957
-0.1311601679631405
0.04682589223340189
-0.08094991531598342
0.04833265919281469
-0.0142086361101948
-0.1049311862949045
0.06077505567998399
0.04415813396590166
-2.003350946878244e-06
0.008566966039785223
3.182074107225031e-07
0.1117312965104853
-0.1202985807576339
-0.0916944164897866
0.09169514961501174
-0.06295517090873928
0.06295443778355873
0.06360111505576924
-0.1136735567179856
-0.06359976466859107
0.1136722063308438
0.1415925374946993
-0.07567420540412657
-0.06591697126064959
-1.360829878137381e-06
0.8210724316440916
-1.476011418809041
1.852137965720809
-1.197198978555892
0.4185551469387986
-0.6860350767133483
1.45874371551133
-0.07099613337269554
-3.354361991415647e-06
-0.05243733316015437
0.1234368208948893
0.1119706286566673
-0.05341663487352128
0.05341532945941872
-0.1119693232425128
0.08926470569904139
-0.08970380667910294
0.03138045548060713
-0.07035345110204549
0.1846514894943429
-0.07100050008150556
0.04573805431163235
-0.04573368760278478
-0.1103943171945737
0.05157820426052379
-0.03014719810427308
0.08896331103834566
0.1033305361802648
-0.02697646957883986
0.02697301938222605
-0.1033270859836033
-0.0195722552331751
-1.254519901649907
1.049471430259829
0.2246207266232711
-0.2038104690640666
-0.03619715576153247
0.3064036535800834
-0.06639602875441317
-0.1186460695441803
-0.05198466343654145
0.1706334110572018
-2.678076420448927e-06
-0.1922574204997953
0.1521271714390861
-0.003849458885039125
0.04397970794581856
-0.0469388885736804
0.112301015245919
-0.06925926931639784
-0.2530700423656465
0.3367240972361266
-0.2438817586612874
0.1602277037908156
6.999779721723034
1.190665494566853
-10.41117128028708
2.220726063997498
0.07748511479459641
0.0562927853939664
-0.02832037870064359
-0.1054575214878435
-0.0703833063639145
0.1239568680460955
0.1753075305668329
0.3640829177662875
0.431494416857954
-0.9708848651908998
-2.352947339762423
2.679126466938019
0.3241967590153582
-0.5024884434030306
-0.321612506690923
-0.03129809896000319
0.8553990490540389
0.3112863673363827
0.01014254280485098
1.564010616820712
0.203272662345937
0.1007369867457116
-0.2671951040470974
-0.03681454504446452
-0.397859814349346
0.08091119369836725
0.1384833434633551
0.1784652771877145
-0.1007265620308439
1.611377077718828
-0.5613152870716093
-0.9493352286161404
-0.09358895582016719
-4.790092218680667e-08
-0.1388421955132648
0.2324311992344247
0.1666157231497668
3.717985788757607e-07
-0.07192385148313103
-0.09469224346517781
-5.753987373169726
5.478930353810764
0.5329917864262931
-0.2579347670672904
1.725402738685915
6.029469968673089
11.35011518312243
-19.10498789048081
-0.2132442174341461
0.5292613350105669
0.6972178565380125
-1.013234974114229
-12.55617103169186
16.85206814305847
4.663595602062341
-8.959492713428949
-203.7860566123049
129.3532006867293
74.43288071057481
-13.47803331131485
-165.7812517174386
22.4952654017371
156.7640196270164
-0.1615852006312274
0.1168735891735049
-0.1010468154779057
0.1457584269357028
0.6863416320124019
-1.608065005342944
0.7084791558965098
-0.6466331991384059
0.4164094713893126
0.2471087794659128
-0.0168850517166148
-2.890771993268063
0.8660261476259592
-1.65877174658178
3.683517592224252
0.2005417680371019
-8.95217854125068
6.72542728022831
2.026209492985623
0.0472497485702664
-0.1106845321749811
-2.552162446177972e-07
0.06343503882100186
6.248936666806522
-5.083576327067885
-3.337214145983841
2.171853806245342
-0.7148948956833188
0.340230259897226
0.4705012580720768
-0.09583662228584044
-0.7778526652743591
5.485088572174761
-5.472127765785603
0.7648918588855007
-3.677752104055356
-4.359775902081797
16.73103303254021
-8.693505026402796
0.05202086883497122
-0.02161518585816062
-0.140800000171367
1.630289018837471
-0.1173760280825285
-1.413271432525312
-0.09964155822955238
2.72867422576114
-2.472800199392691
0.4461490036324158
-0.702023030000831
-0.2164396295479525
0.1205381793624365
0.09589999012708311
1.460058510903775e-06
0.2235571536504347
-0.2254982591785248
-0.0957089498969512
0.09765005542501613
-0.1218515628656933
0.03545083269224838
0.08640113851380961
-4.083403220173629e-07
-0.0216720339827301
-0.01257260069452295
-0.1957399515805267
0.2299845862578472
-5.998742710001177e-06
0.03640237289107049
0.1988370992129894
-0.2352334733612485
0.4852908183504211
0.03373327123448763
-0.5792628952720449
0.06023880568728666
5.890769144588204e-07
0.1076890652358374
-0.08803663945390296
-0.01965301485881071
-0.164827166439272
-0.01989923700095572
0.1815903385794016
0.003136064860865669
0.2741587536514782
-0.7558092489496984
-0.3648802654406916
0.8465307607390593
0.3818645765554172
-0.04509192728318673
-0.07598483501218588
-0.2607878142598496
-0.9777386709078094
-1.442758416916714
0.1229081676763201
2.297588920148212
4.243714638672071
9.730374049421236
1.397707107769659
-15.37179579586292
0.05121730481513477
0.1342790961615507
-0.1854975951255981
1.194148985927638e-06
-0.5102308544471673
0.7092089278478909
-1.011596787269246
22.11522080801967
-17.24115791710983
-2.396808478013823
-9.038134667453537
27.35971721215017
-4.202183638876209
-14.11939890582028
0.2877225017798902
-0.0370105017126131
-0.2667893778124888
0.01607737774526591
-81.06218290530599
88.38084790787936
74.49276794556314
-81.81143294813658
0.04647722481221969
1.763210450038861
2.422531874333286
-4.232219549184392
-1.440704293036745
-0.1908314917264022
2.485867694576915
-0.003264372199840466
0.161321889746971
-0.1298556559447343
-0.02820186160233614
0.003150291401859115
-0.002755708161892674
-0.08665981152540132
0.08626522828548061
3.496175922279656
1.531564096326997
-2.858195520584427
-0.5148067664972678
-0.05007938242600096
-1.83424286466027
2.399129013583701
-1.130678476674343
-0.881475783371502
1.832725427258651
0.1794288327871289
-0.02941067813028064
-0.2460487590785673
0.05197274747136815
0.2234866897375231
0.8393221438678582
-0.9575341105568662
1.029998802878783
-0.9117868361896464
0.01064094434780467
0.09763941404473801
-0.131169968485611
0.02288961009311511
-0.02101680574140493
-0.217464454766788
0.09059048451570993
0.1478907759925385
-0.0931519075546126
0.1733385349204701
-0.1852852681024701
0.1050986407366601
-0.04303479524824536
0.1929871220174047
0.05126361645544799
-0.201215943224526
-0.1625461407287451
-0.07642542054987116
0.5086735600259379
-0.2697019987471634
0.03031012089273845
-0.01300813505885749
-0.08490006033570335
0.0675980745018402
-0.006056476935598943
-0.203635217221697
0.1678726401509034
0.02804369782477541
0.1747368617295604
-0.1649082173900885
-0.1423211284688154
-0.3792276213345404
0.2785494116859192
0.2429993381174479
0.7725606259309894
0.01480194148841341
-0.3010620876496074
0.09145478140402667
-0.04850853798325163
-0.235203663920523
-0.2420736318085332
0.03657437065620897
-0.001060902824190559
-0.6949315861776828
1.514343974464613
-0.9698483711964133
0.1504359829095312
0.1676528413924398
-0.1799382235837835
0.03591946927949859
-0.02363408708811856
0.1070803492514835
2.63210274934947e-06
-0.06747770167249857
-0.03960527968171736
-44.61752538149515
-31.6138053586453
135.1751407089331
-58.94380996879286
143.8333112831808
53.35515078777575
-195.8950907918968
-29.69496160921165
-82.08698015413027