/*--------------------------------*- C++ -*----------------------------------*\
| =========                 |                                                 |
| \\      /  F ield         | OpenFOAM: The Open Source CFD Toolbox           |
|  \\    /   O peration     | Version:  v1906                                 |
|   \\  /    A nd           | Web:      www.OpenFOAM.com                      |
|    \\/     M anipulation  |                                                 |
\*---------------------------------------------------------------------------*/
FoamFile
{
    version     2.0;
    format      ascii;
    class       volVectorField;
    location    "0.1";
    object      vorticity;
}
// * * * * * * * * * * * * * * * * * * * * * * * * * * * * * * * * * * * * * //

dimensions      [0 0 -1 0 0 0 0];


internalField   nonuniform List<vector> 
8465
(
(3.004518080078029e-07 1.400466927406364e-06 1.247606289753805e-05)
(-2.753047859739711e-06 -1.36827890446687e-06 1.225677487883988e-07)
(-2.611125521113282e-06 -2.715669078182616e-06 -3.419534903094942e-06)
(0.002141277792923133 -0.0007288309925688953 0.0003685407346759213)
(4.245705711239047e-06 -1.375306920149718e-05 -9.969240578934458e-06)
(-0.0001485322977950022 -0.0007940685293215985 1.697111594499031e-05)
(-0.0004817774281796225 -0.0002148456379031282 5.285339445432465e-05)
(-2.99491664966107e-05 0.0005558274434413586 9.588377964594207e-05)
(3.548731282290486e-06 -1.874892828888382e-05 2.673434213226091e-05)
(2.025534648686524e-06 3.376908001281821e-05 -1.086519914024599e-05)
(8.758719408484685e-07 -2.440710702778653e-05 -2.090798091928113e-05)
(0.0009179939458223267 -0.0003447085057223881 -0.0002953767205577801)
(-9.166770434933689e-05 -0.0001180357425329576 6.502023420959873e-05)
(-4.652530719386979e-05 -4.12236868498423e-05 -1.532568607354689e-05)
(-0.003129411098763011 -0.002081328276675412 0.0004876986075458479)
(6.187827032178865e-05 8.781368835440983e-05 -0.000183729043701724)
(-0.0001326708858510801 -5.637743146733462e-05 -0.0004054096025358534)
(0.0009473005616183545 -0.000589251306359446 0.0006305130439290993)
(0.0001610802672299066 -0.0001600272376527803 -4.945183653752545e-05)
(0.0004247920679939892 0.000126896933252529 0.0007343271461649246)
(-0.002244357164629748 0.0004297130006147444 -0.0003532202771142865)
(5.270102944474798e-06 -9.439176280307748e-07 9.128173185846516e-06)
(-0.0001791685032380408 9.577167897661099e-05 0.0001638672583094512)
(3.664813240655e-07 3.497423943668128e-05 1.559416612844086e-05)
(-0.000261630875249834 4.405910867730277e-05 -2.723671649676033e-05)
(0.0001945209454662349 0.0001784613980574016 -0.0001673748892247571)
(8.389967858014466e-05 -2.597033280775633e-05 -2.245415543786736e-07)
(0.000858652519002759 0.0008083305450591085 -0.001954281460833842)
(0.0003823165863429117 -0.0008291921052577414 -0.0005457355125538549)
(0.000321644081199068 0.0004897977631471489 -0.0006186408195393764)
(-5.2803423474594e-05 0.0002268712721563972 -0.000186841038618616)
(-3.643332946126035e-06 1.841449665323103e-05 -6.728372131381148e-06)
(0.0001679364006944707 -0.0004053029557768569 0.0001772868580454099)
(6.422101823427916e-06 -4.869390434155485e-06 -1.128029787471667e-05)
(1.674673471802825e-05 -1.136862793388735e-05 -2.95146758323186e-05)
(1.556344550478429e-05 3.078899653559375e-05 -2.075400713590744e-05)
(0.0001053065984464322 -1.183842650648777e-05 9.111995879117153e-05)
(-1.477886077990757e-05 3.062261147925538e-06 -1.351841914609854e-06)
(-4.307502824057113e-07 -1.93017150295158e-06 2.485400058837518e-06)
(1.439712085540134e-05 5.12080566865703e-05 -3.806517930129845e-05)
(1.023143086674536e-05 -4.801346557503893e-07 2.274380485654833e-05)
(0.0001745864758534798 -3.837613128446437e-05 -6.091544077213267e-05)
(-0.002351498042596613 0.0005034563040968047 -0.0004488064054746244)
(-0.0009110787824286454 0.0005525955104722917 -0.0003587190428905748)
(-1.366852852209924e-07 -6.971234114719863e-06 -8.894380022142935e-06)
(-3.17044886018421e-07 -2.347474270131452e-06 3.53532944774605e-08)
(-4.405050089524726e-06 -7.744052218930112e-06 1.012955104482014e-05)
(-1.090318519415024e-05 -0.0005040331048143208 -0.0003565462828147329)
(-7.682513099533807e-06 -0.0003332600227989906 -0.0002041561548826718)
(0.0003086105464567137 0.0004202287380164677 0.0005492937850665595)
(-3.296793872659021e-05 -3.399689088611414e-05 3.314922653002975e-05)
(9.492992612425572e-07 -4.470158873588752e-08 -1.553125496236505e-06)
(0.0001818205194930248 -0.0004514155596189051 -0.0003463670492426748)
(-0.0006699398267886557 -4.657129837873808e-05 -0.000313873109372308)
(0.0001392544285709183 1.011201103827168e-05 -7.739786792453323e-05)
(-0.0007193385110004352 -0.0004126961599706725 -0.0003198656877480915)
(9.912104034692412e-06 -8.648940046358132e-06 -3.68755086434738e-05)
(-0.0002180068372702398 1.994355258008639e-05 0.0002445243393454583)
(-0.0004340167555917119 0.0003780424113336018 3.606314123266968e-05)
(-1.319708738272259e-05 -0.0005810034092495007 -5.960811216181277e-05)
(5.754908741124236e-05 -0.0001331122235925073 -1.849708211431318e-06)
(0.0005050479457849136 -0.0005649082179980283 -0.0007868748156759299)
(7.305051275061728e-06 1.467147596164633e-05 1.968842389208038e-05)
(0.0006328303151859174 -0.0001346675241051271 -0.0001789063303813091)
(1.870246679583398e-06 1.779363722101166e-06 1.741447271997841e-06)
(-0.0008355414086707723 0.0002746651404234513 -0.001114894439586546)
(4.150367473753407e-05 -5.651591550224073e-05 -5.771767315601508e-05)
(0.0002035818548762488 -0.0001572128300505966 -2.84143605279775e-06)
(0.0004397858253827305 0.0007962189465517818 -0.000966513116448752)
(0.001244635495670524 -0.0006092176291144929 0.0004118854817548857)
(5.761272400903982e-06 -2.91679291580002e-06 1.286148613404073e-05)
(-0.001868088603650013 0.001510518375646501 -0.00176645690085565)
(-0.0001683985930048921 0.0007644858115624642 -0.000237126790286275)
(-0.001655265074207082 -0.0002909385954982718 -0.0005379566604501708)
(-0.000555458358497294 0.0008008101267611555 0.0002259278962728451)
(-5.88732795929094e-05 5.614519213006214e-05 4.678834003224098e-05)
(-2.93939324374605e-05 0.0001320704986484152 2.668258585747214e-05)
(5.4846718455678e-05 -0.0002614543463189816 -0.0001740110683950422)
(0.0008921814374026462 0.0002144602561483986 2.428708823979818e-05)
(-2.557982890676871e-06 -0.0003342716018884254 0.0001498110322695767)
(-5.952700720288865e-05 9.037437247045934e-05 -8.23462580435822e-05)
(0.0004095270055427369 -3.633336492295827e-05 3.091175014723815e-05)
(0.0002952914305314799 6.976144414635175e-05 0.000337581083515887)
(0.0001205238057197503 -0.0001228762748776415 -7.950038517959867e-05)
(0.000289165763354765 -0.0006526604175113443 -3.477609917175418e-05)
(-0.000976768115521125 -0.0002697439429078217 -0.0004174234116904856)
(-0.001048615553980912 0.0002754452803569452 -0.0009742391134695225)
(0.0002216680290840152 -0.0004744489881622687 -0.0010559259681627)
(-0.00040895822525081 0.0004874769631828222 0.0003486988510395273)
(-1.514838165850159e-07 2.554079227197088e-05 8.419866045745961e-08)
(-6.256842886785407e-06 0.0002648745446816968 0.0001096753160397526)
(0.0007885799664792644 -0.0001966846113394674 2.805295138588557e-05)
(5.032882175643555e-05 9.408635854181525e-06 -6.282291596635489e-05)
(-0.0002315641253061014 -8.276288758293004e-05 0.0001902230704929368)
(1.867322763480596e-05 5.356924293549813e-05 7.240273041329962e-07)
(3.458161356939785e-05 2.888611020817143e-05 5.088554021696808e-06)
(0.001400752315126625 -0.0001812079282186264 0.0002877292560516413)
(-5.058907782909818e-07 -4.759694944790847e-06 1.864846681947443e-06)
(7.207063346853162e-05 -2.297402319157811e-05 9.179035917752853e-05)
(3.089187058500769e-06 -1.574883622838918e-06 3.238638881154479e-06)
(-0.0006714087878779219 0.0002845970059526592 -0.0004082438770643609)
(-3.807642138277966e-05 7.199578232475549e-05 -0.0001188056387242317)
(1.152658826408814e-05 1.795492212558792e-05 -1.533726801763116e-06)
(-0.0002325672818656572 -2.058845336668907e-05 -0.0003703051338698115)
(0.0006195887761854648 0.001168884470678764 0.0004640645152890912)
(-0.0001507266335290329 0.0004788755380053568 0.0002457855228990537)
(-6.50068754703461e-05 -3.655593665334778e-06 -4.929183659608836e-05)
(1.50739492128392e-05 4.553913819785001e-05 -3.857674729505435e-06)
(2.175609308416261e-07 -5.939213921480832e-05 6.325164013641699e-05)
(-4.914801714633873e-06 2.431076603078498e-05 1.604759474106588e-05)
(3.882589869227362e-06 -2.367380127584398e-05 -2.754867036389026e-06)
(0.0003014255774879179 -3.343402232107472e-05 0.0003428236255405071)
(-0.0006095087571885777 -0.000209071658479076 -0.0007014076211144125)
(-0.0005944853469587361 -0.0003853373952717487 0.0006452160319544549)
(-0.0001959427980792104 0.0002919126795465252 3.633558548206426e-05)
(4.009333969486474e-06 0.0001071473096953771 -0.0002144818500263397)
(0.001309252939425368 0.00099941961747914 -0.001140472045673189)
(1.082159806573837e-07 1.117131261485969e-06 -2.112244684865398e-06)
(0.0002589601655878093 -0.0004244050179822059 0.0008411719813636467)
(-0.0001705595254716775 -0.0001348096680783 2.383856431948417e-05)
(-3.923768268274775e-05 0.0001838089683182765 0.0002894675525667507)
(0.0002803983639661503 -1.67629743598945e-05 0.00163729759144709)
(2.685795626666533e-05 8.556359936400819e-05 -2.738955777079382e-05)
(0.001383460522070632 -0.0009196951187350302 0.0004693910306653083)
(3.612372047819267e-05 0.0001405212369172712 -9.671044924019592e-05)
(-0.0001258351870502686 0.0001226820381089461 0.0001910134261524712)
(-0.001734464770789529 0.0003693483494168907 0.0003941348546027234)
(0.001401835380869074 -0.0003051770972623748 0.0001585364054543979)
(2.830061681367111e-06 -4.016319311848226e-07 -2.39582426526708e-06)
(2.450696287556549e-05 -1.993153092232716e-05 -5.965341075904256e-06)
(-1.893503742384101e-05 0.0002697073770540339 3.199795100577924e-05)
(-0.0003760594934784464 -0.0002209893797796994 -0.0001179414188310232)
(-6.875787655983262e-06 -1.708177043102822e-05 -4.866032071218416e-05)
(0.0002019099164910621 -0.001225223783929247 0.0004650689583239111)
(-1.597327603863558e-05 1.451978684794361e-05 2.395273790233707e-05)
(-0.0006221047547371357 -5.483886442388278e-06 -0.0001162548459731194)
(1.476426466204815e-05 -3.008610893125002e-05 0.0001045188633085344)
(0.0009993311200032313 7.597906802707787e-05 0.0009799155980982652)
(-0.0001076475021801351 -0.0002112201374983012 -0.000114059177944938)
(0.0006851730991611327 5.59634114785154e-05 0.000243279054017614)
(0.0001767040388580536 0.0002441664840540345 4.658772468192657e-05)
(0.0001983764775041716 -0.0006472350176838985 -0.001104597677565104)
(1.465112757365583e-05 -1.562975497702329e-05 2.243196639657594e-05)
(-0.0005787759960407073 -1.21287616217008e-06 -5.491983186201713e-05)
(1.525157042442312e-05 -7.667056436373377e-05 0.0001154089286632538)
(-0.0002875898096291463 0.0001976847329148498 -0.0002591683667580172)
(0.0001327096942961623 -4.852065082036036e-05 -0.000254275566789275)
(-0.001487911059551416 0.0001839998116714364 0.0005410403223252222)
(-9.439290135492394e-05 5.363292767640575e-05 -5.979250360871672e-05)
(-3.228530640170004e-05 4.868391841663424e-06 3.071195208311024e-06)
(8.185074973644776e-07 -6.979223550075223e-06 7.107660936337666e-06)
(1.719112687483889e-05 -1.150108155507708e-06 -9.826286184313745e-06)
(5.771161098197139e-05 -4.431896951845218e-05 -5.216311637531385e-05)
(-2.233485846409199e-06 1.303543240877396e-05 -1.69442662916491e-05)
(0.001080545890379402 0.000133890502447182 -1.099213104244789e-05)
(-5.385762033816413e-07 1.485606437365315e-05 -3.393549977495159e-06)
(4.80054130917482e-06 9.33531830016253e-05 -7.723773510686577e-06)
(-0.0001272180361392874 0.0001272608609105018 0.0003488097727517161)
(-0.001956078259761005 -0.001840736315686733 -0.0005329668424787542)
(0.0001338699616125767 -0.0003115731527616817 -5.32636927508885e-05)
(0.001667679453571564 0.002189502118376692 4.796710832132413e-05)
(0.001378904509859995 -0.0001541003192984207 0.0003839727001302177)
(0.0006547134131101547 0.0004104839431814903 3.349538396060921e-05)
(-0.0001167602214366542 8.741711214636149e-05 0.0004465266855418618)
(0.0007182770478386787 -0.0008940825207299531 0.0001915491082667893)
(-0.001049954203169027 0.0001022895011062999 -0.0001692886483792256)
(9.223559122458719e-05 -0.0001311621939983528 -0.0001438255788801051)
(-1.380475299549121e-06 1.66853262421494e-06 2.497480071028101e-06)
(-0.0001211710527379865 -0.0001741561402963638 6.44173895345973e-06)
(-0.0001546422149784005 2.567477406069935e-07 0.00010239064145714)
(-0.001236105218120449 0.0001498090308153735 0.000168615834222967)
(0.0003407856589078553 -0.0005392480375452226 0.0008319218032891541)
(8.327027699994095e-05 0.0001968924391743405 -0.0001892433200025322)
(-8.485402341621524e-06 -8.814936428978096e-05 -7.549218601787665e-05)
(-0.0002250668523032439 1.78432104016479e-05 -6.945058442707413e-05)
(-0.001104119921533388 0.001177985389578073 -0.0008002747969309817)
(-0.0001380506982069043 5.798796331044876e-05 0.0003316936471526501)
(-0.0005075829847429581 0.0005226104453915478 0.0001620118752413557)
(4.651997477005283e-06 2.660553512842718e-05 -5.534247484686016e-05)
(-7.092898375169017e-05 -6.370308981631967e-05 -0.0001188335442292401)
(-0.001523724414732152 -0.0002922296592180127 0.0002835491118343177)
(-8.436184914661035e-05 -5.661926276864909e-05 1.52865960895046e-05)
(0.0007890243089435494 -0.0001256772107762493 -0.0003967949725450422)
(4.978261726816811e-06 1.261525786189772e-05 -3.032118717505708e-05)
(3.725516826889286e-05 2.778452122310144e-05 4.122434652705123e-06)
(-4.870379856542897e-05 -4.615129712519378e-05 0.0001565827649550197)
(0.000138743585238152 -2.535787831862239e-05 0.0001896188735782586)
(0.0002477484933985141 -7.163441823997524e-05 0.0007293081501242438)
(0.0003810358963466864 -0.0001593157720677175 -0.0005937486277124558)
(9.719113120749977e-07 4.19523928434835e-05 -6.733839250168148e-06)
(0.0001697486370566886 -8.237362197288923e-05 4.132242731204496e-05)
(9.236001370783452e-06 4.467658894154552e-06 2.289837304819192e-05)
(-1.466887081307525e-05 -0.0001162047038869959 9.871931216253484e-05)
(4.048774727069284e-05 -7.594658431459161e-05 -4.736634458453549e-05)
(3.943689331009018e-05 -2.560132613425031e-05 7.068453830305838e-05)
(0.0002989465531879736 0.0002294569198157388 -1.594726400303939e-05)
(2.113738537877025e-05 4.054412924145758e-05 -1.596743477878001e-05)
(2.184683347715364e-05 -3.709229820720427e-05 4.455374618920623e-05)
(1.97269754201227e-07 -0.0002026809967254303 4.080990535923599e-05)
(-0.0001239548981431655 7.352448404306036e-05 -0.0001949773007074215)
(-0.0001364004326525782 0.0003945065082470745 -0.0003501382294895287)
(-0.0002206138802897883 -0.0004399601174199598 0.0001626529103619174)
(-1.90368973250322e-05 0.0002476718765851081 4.061866156078251e-05)
(-0.001659958813445459 -0.0009311582375809405 5.411236268714647e-05)
(-0.0001185321977136111 -0.0003543043703351505 0.0004215015412360506)
(5.876492378474128e-05 4.858007974063992e-05 -0.0001272978787078299)
(-0.0009810014580995201 0.0005769687360554054 -0.0002107948353010248)
(2.324542597551717e-05 -0.0001176392420459316 -0.0001299927850556943)
(-0.0009068737176881499 0.0004337097105691554 0.001022533144136259)
(5.778636897514426e-06 1.989383763313356e-05 6.295941102462225e-05)
(0.00072919134565475 -0.0007795840382092141 0.0006647049434448861)
(-7.90112064516558e-05 -0.0001671717810554295 0.0002975187238699313)
(-7.069421958803258e-06 2.367155326724316e-05 -5.911711364108251e-06)
(0.0006097437707619847 -0.001514639793522629 0.001634643355257799)
(-0.0002099623027360903 0.0002893770439833457 0.0002087238618249819)
(-0.0001747012409821123 -0.0006661704841419621 0.002016221234324338)
(-0.0005320982039464625 -0.000295906147028607 -4.182947817071136e-05)
(0.0002014456841305461 -0.0002356794173123529 1.20899781114555e-05)
(-0.000113798265815617 0.0001293210483690593 -9.900275228879154e-07)
(0.001695396030451169 0.0002268730986379572 -2.625074175016716e-05)
(0.0002660806026445974 3.611543663984676e-05 0.0001250697310263364)
(8.853630287570372e-05 6.420336757110442e-05 -0.0001175307327970537)
(-0.000488738607218384 0.0008678593559626639 -2.149264066760874e-05)
(2.117979577671756e-05 -1.050234783726598e-05 -6.011404322741148e-06)
(-0.0005340959620434726 -0.0002579881991832691 7.277378632661958e-07)
(-6.078637711868414e-05 -4.110138216214392e-05 -9.391985338614519e-06)
(0.0003693044700268561 0.0004277446110415019 -0.0007802571575685649)
(2.703493892325913e-06 -1.179124928386878e-05 -0.001317761960516571)
(0.0002394312761665786 0.0005130917904705457 -0.001077711262013566)
(9.939963676359281e-05 0.0002796480274647483 -0.0001514261152682088)
(-0.000120332900146862 -5.586819511260363e-05 -0.000155940789750424)
(6.805386105831774e-05 -0.0001039166332180077 0.0004559516611944993)
(-0.0004551590767370693 0.0002967462367313449 -0.0004596827499498919)
(0.0002863615989740315 -0.0001564079780686445 -7.505720537148583e-05)
(-0.0008798441815883562 0.001420640789606326 -0.0006391834545492884)
(-0.0002227083564885719 -6.937072033029072e-05 -0.0001745850245520614)
(-3.448715519080192e-05 1.376191044451551e-05 0.0002140568472917182)
(-0.000555884647191944 0.0004416348240444247 0.0002887119515189527)
(7.466164065977459e-05 -0.0006425785016088688 0.0001596613250676428)
(0.0003213062104345496 5.95368063326656e-05 6.517676632068513e-05)
(-0.0004438266964110233 0.000692647917200444 0.0008018083389978664)
(-0.0003773442335725394 0.000225128571361702 6.729646760634405e-05)
(0.0002652292416205674 0.0002448910253546264 1.217584754560817e-05)
(-3.98901122482621e-05 -8.259319747344314e-05 -2.409916617747111e-05)
(4.324230423837091e-06 -2.468224671408841e-06 -3.436768309866335e-07)
(6.144156985890471e-06 1.006446415903313e-05 -1.980824332206312e-05)
(0.0007304335544193942 0.0006437549401153147 0.0003755448407793535)
(3.641651741847999e-05 7.645194459808728e-05 -7.106611217164862e-08)
(-5.295370917410418e-06 -1.981918009279289e-05 -3.128013926018253e-05)
(-7.357985684122725e-05 -0.0001626591568878573 4.003442314518262e-05)
(-0.000513061639581359 0.0007189044372259329 0.0002859954071650006)
(0.0001363770448122416 -0.0001254167043067236 9.166485550298983e-05)
(0.001427825983139645 0.0003522690527386598 0.0004391784346451086)
(0.001060694323988651 -0.0006368658089245854 -7.812859410412598e-06)
(0.0001519264077165855 -0.0001246369037940735 8.186679568295256e-05)
(0.0001536634299410516 0.0001489021191865913 0.0002319369348420344)
(7.7905976464879e-07 1.745024585257797e-05 -1.566964851992488e-05)
(-5.158542312215091e-06 -9.513658683579402e-05 -2.943136319279783e-05)
(0.0001457501439107366 -0.0002343271357939041 -7.310568677039682e-05)
(6.589237445437994e-06 -1.017335577580519e-05 1.721199902982856e-05)
(2.159497450224611e-06 -4.656032428736289e-08 -4.228852947550499e-05)
(1.358540205700499e-07 0.0001167979640449105 -3.217574583750951e-05)
(-4.50395310298452e-06 -3.8873585028328e-06 4.811881347214481e-07)
(-4.92044519878701e-05 3.184831956193834e-05 0.0001089396480280963)
(0.0004577353140591179 -0.0004040839046994234 0.0007821443556880858)
(-3.151210633537289e-05 0.0004211605850938699 0.0002217581834924922)
(-0.001680056454861853 -0.0001509427029522468 0.0005523130841967874)
(0.0002291898937527243 -7.677690274979457e-05 0.0005199469354806569)
(0.0004264244292889206 0.0007950263302548794 -0.000295834998366221)
(0.0002790716453324123 -0.0005373848176400346 0.0002380926376774273)
(-9.606140182616523e-06 -1.147118382860306e-06 5.70586434208566e-05)
(-0.0002304450934923224 -0.0002455082086049177 0.001198732705673334)
(-0.0004593886261615011 0.0003175798214897614 0.002159668716953935)
(-0.00166994450976169 -0.0001824659835126171 3.804807589965716e-05)
(1.475091739425353e-05 4.682484887962463e-05 -6.744153726765546e-05)
(0.0002282932665099032 -1.074313573400911e-05 0.0001140550673205491)
(-0.0005947608619472198 -0.0005470322039356451 0.0001789603090434174)
(0.0001210590518203297 -6.681061622335134e-05 -0.0006298815982999684)
(0.0007927173123652056 -0.0002630632298695299 -6.234423049436398e-05)
(1.096714260516781e-05 -0.000237321606286294 6.739215254237187e-06)
(-0.001163922589535604 -0.0005673895237395817 -0.0003114075741468693)
(0.0005110831832013853 0.001512121434280664 -0.0005603767629393228)
(3.629049800447778e-06 -9.534634233160851e-05 -0.0001190597078208351)
(-4.441424632622709e-05 -2.009412096988528e-05 2.931591064670304e-05)
(0.0002052265423886211 0.0002254960775143664 0.0003316838060554675)
(0.0005086396012190492 0.0002055136722390032 -2.88000505494054e-05)
(1.658540139776703e-05 -0.0001028024573744802 0.0003813621063564198)
(8.965233781798871e-05 -0.0009607867576857772 0.0003586810226011171)
(0.002304508695815474 0.0001775678420160377 -0.000160254767998269)
(0.001481208675618021 0.00196586081123051 0.001547769735008597)
(0.0004501205654200172 -0.0001491287587012137 -0.0002754617494430978)
(-0.001798022003825163 0.001754641653192511 -0.003341213741405636)
(-0.0001226550045296555 0.001196170207464193 -0.0001757652276615739)
(-0.001170771299648528 -0.0001538780314032705 -0.0008134442496099038)
(-0.00102364552349259 -1.502124050581545e-05 -4.149048758470532e-05)
(-0.000417883344618643 0.0001391186107821714 -0.0002156333734008215)
(-0.0004090124467379819 -0.001007022975287325 -0.0001062150602531273)
(-0.0003136450451527689 0.0003130555247316354 -8.415636644217952e-05)
(-0.0001003691163264852 -6.287183584065056e-05 -0.0002808096066595607)
(1.27695599844417e-05 -0.0006285541147338493 -0.0008327502721558238)
(0.0002002554010843528 0.000120090607020149 0.0004096692896433838)
(0.001126713575967575 1.285467747745019e-05 -0.0006696779858699148)
(2.500500729060389e-05 1.588223526071472e-05 1.061910180108758e-05)
(-7.973350785679868e-05 0.0003620564099859241 -0.000176949362463889)
(1.006292254668031e-05 -6.674325141846052e-05 -2.607012658515276e-05)
(-6.831753236240775e-05 -0.0001077332081139182 8.458160516045947e-05)
(-4.323832410767295e-05 3.346125953271339e-05 -0.0001234330924962886)
(5.777789506605845e-05 2.958496892047502e-05 4.448246930892537e-05)
(-0.0003322186876056851 -9.188305238514895e-05 -0.0004431754973418677)
(-0.0001795920668860407 0.0001790018640015188 0.0002609167921794856)
(-1.364791325303877e-05 -0.0003614960516413459 -0.0001430302048400086)
(6.916980157055411e-05 4.622461475844812e-05 -1.618802940969438e-05)
(-6.748779460268435e-06 -0.000353388598138083 0.0002149727608845057)
(0.0001279731907677988 -0.0002320279837661833 0.0004478639588571631)
(-0.001603292439470054 0.0006226021929704536 -0.0002450082431961865)
(-0.001601773302742207 0.0001100395168355161 0.0003609844276926514)
(-0.0003167594782703261 0.0001404454933545746 -0.0004884072502733261)
(-0.001487559867591364 -0.0001953527711721479 0.001435177058291713)
(-4.014968506402885e-05 -0.0004920472566009962 -0.0003206878309229483)
(0.0009179581776669064 0.0008920413948478724 0.0002640141026617456)
(-0.0001557315813501565 0.0004559429632750344 -0.0002081863774210901)
(-0.0001568974641011234 0.0002286082684979155 -0.0008661855145178415)
(-0.0004055621288197301 4.731911912296636e-05 0.0005099262854345317)
(-0.001131139372131721 -0.00061007678636029 -0.000201282876384618)
(0.003025661105676111 0.0006109115524784323 -0.0008429726683994979)
(-0.0004829022589414992 0.000983147643943219 0.0002042295896908134)
(0.0009625980385817518 -0.0002520923024415073 -0.001554248102370137)
(7.682472009289468e-06 0.000449477632919582 -0.0001499978879281617)
(-0.001812780293047578 -0.0006792501549270096 -0.0005636795102225531)
(0.0001017092243301218 -0.0002554395680473243 -0.0002601407374685882)
(0.0001028859638163662 0.000350904160552039 0.000198495934852497)
(0.001550016937978808 0.0007431312612147756 0.0002753445372072282)
(0.0008413030479082526 0.0004901163559004364 0.0004022997890915994)
(-0.001067856753429232 0.001346102415612456 -0.001217364181716421)
(-0.0002057774661893999 1.993209945843342e-05 -0.0005025583103467191)
(-7.861889489445114e-05 -0.0001245101374619523 -0.0002962676512709096)
(0.001816414303256437 -0.0002778475444942356 -0.0002065280953396711)
(-0.000988686900904037 -0.0002399691626855836 -0.001247507081321124)
(-0.0004200146748607361 0.0001222978322230516 0.000334283894088487)
(-2.558552212764299e-05 -1.427178237791446e-05 0.0001959442866961563)
(0.0001464048037638491 0.000362996733077915 8.79813492910742e-05)
(-0.0004134072256333631 -0.0003487167291052609 -0.0003815215274220755)
(0.00144418718956495 0.001059939046571116 0.001480060763482286)
(-0.000332250830093843 -3.310162866566984e-05 -0.0001894559730867759)
(-0.0003967191659300128 -0.0003323591095856826 0.0002105093879950465)
(-4.250761517963968e-05 -0.0003259414840085236 0.0009574681205973758)
(0.0005032269988832748 -0.0003691149623792211 0.0004351389777584835)
(6.127073628998313e-05 -0.0001689981036477093 -0.0001415534105170901)
(-3.370232822180782e-06 -2.690943002078376e-05 -2.016038820294667e-05)
(-0.0001842982969146399 -0.0002261383705920828 -0.0003672754800733602)
(2.997844563580263e-05 8.170034220433909e-05 0.0001412430192309349)
(3.846538625120683e-05 1.818096907679238e-05 2.883771560799683e-06)
(-4.704409803953036e-06 5.748217142379548e-06 -9.416184887242121e-06)
(-0.0002592717833952016 -0.0003908448618128944 0.0001435022721665137)
(9.220514766746738e-05 -0.0005723756600114434 0.0001093310707850653)
(-0.0003163890939894137 -0.0005291899555189058 -0.0005926531720931134)
(-2.428093924551905e-05 7.6040354045032e-05 6.303201692464802e-05)
(-9.757991584092507e-05 -4.396064631902349e-05 0.0001095055032333125)
(-0.0005533589120644538 -0.0002778963945292793 -0.0001825950054795154)
(2.833905175490967e-05 0.0001471837302649701 3.095681683748176e-06)
(0.000129279654269741 0.000285933438754411 2.715983427674251e-05)
(-8.260167193984187e-05 8.900500355756907e-05 -2.645763370755026e-05)
(-0.0001310602074367641 3.714897456766094e-05 7.81480822661767e-05)
(0.0003416978761262093 2.193853220328317e-06 -0.0005392261105436813)
(0.0004868875829138575 0.0001906472072923797 0.0004963274260235565)
(-0.0002980484004363954 0.0003630479200160637 -0.0002039144453395902)
(-0.001135222119862905 0.0001126378848231482 0.0009304877412897056)
(0.0008454433297884632 -0.0001576434386013984 0.0004383931199817614)
(-0.0002302260306886105 -0.001139621005759425 0.0005943224399303465)
(-0.0008679186187866153 0.002146008349198404 -0.0002102427371883117)
(-0.00148303213237493 -0.001639575017992252 0.0005085675689602543)
(-0.0004726831245398399 0.0001972885894689276 0.001120853781488652)
(-0.00106680802166016 0.0005016831778426173 0.0004431635197105685)
(0.0003254445426567561 0.0003413865019219393 -0.0004025865563457909)
(-0.001539382647639616 0.0007067340871696616 -8.847559375287447e-05)
(-0.0003031792309521494 0.000236442426928238 -0.0003100923264217928)
(-0.0002539000866373348 -0.0003852736348543271 0.0001482928749226421)
(0.0001301178333310835 -2.649334927880734e-05 4.400141403592807e-05)
(-0.0004075640715009082 0.0009465732575536367 0.0003148773063494564)
(0.0002677266663553296 -0.0002373330731696068 0.0004136278052601722)
(3.819351827230478e-05 -1.575002288254874e-05 -5.516879663602509e-05)
(-4.166883640309599e-05 2.261915824973944e-05 0.0001275157261954458)
(-0.0005070461721079838 -0.0002288608748738438 0.0007270962717903824)
(4.901574449334912e-06 -1.529078055839159e-05 1.492606823352838e-05)
(-8.770656518423913e-05 9.794531511045962e-05 1.369340929440434e-06)
(-0.0002621517964261344 -7.489635772139525e-05 -0.0001626294788381326)
(-0.0003251887582453399 -5.178852371334427e-05 2.90305423350081e-05)
(-0.001021996633919266 -0.0008654396410277098 -0.00163374006089588)
(0.0001413168333842333 0.0002569685274554312 0.0001715996794921939)
(-0.0005001850779351264 -4.314807585487443e-06 -0.0002344640880415017)
(-7.638323321602247e-05 -7.545660049828703e-05 0.0002649353720142691)
(0.0005926391629874362 -0.001200136469237663 0.0001544124551260237)
(-0.0004565076312845418 -0.0004595898464158657 2.844367556122454e-05)
(0.0003416959201461617 -0.0003347935702590491 -0.0003743062939081419)
(-0.001112252001036298 -0.000426146712748515 -0.0004052168011797553)
(-0.001269875407044881 0.002011475730629443 0.000778681372294436)
(-0.002021425110306998 -0.000237486051620517 0.001028457068780634)
(0.0004214619375343401 -0.0002852159671348543 -0.0003747969411271141)
(-0.0006193936339783784 0.0001701757964548682 -0.0001237120199870835)
(-0.001601364573353928 -0.00172824678070457 -0.0002926980593691748)
(0.001211965100433966 -0.0001367595591533972 0.0003995494015998829)
(-0.0001919977724590691 0.0003530603799371252 0.0009670559378338434)
(-0.0001490822662584435 0.0009256752261268493 0.0001358803878627698)
(0.001011728791537256 9.720102763813732e-05 0.002229171205869027)
(0.004554918097731514 0.002385553518163868 -0.0004127359296686997)
(0.0002904391550119512 0.0002920212307002856 2.567028216427005e-05)
(0.000401282423936085 -0.0002003001332107663 0.0002539678775829112)
(-0.0001626327590758599 0.0004221192823405308 -8.947686331787721e-05)
(-9.778716578156351e-07 6.056723585142486e-06 -7.477884988519834e-06)
(-1.662519386212558e-06 3.229947991641834e-07 1.238175359155594e-05)
(-1.249509575240269e-05 -1.642896871063193e-05 -8.718481997762456e-06)
(6.351372230046716e-05 2.908339243268028e-05 -5.525168219750568e-05)
(4.084033354531563e-06 4.910780560595118e-06 -3.352032928309422e-06)
(7.469057870131769e-06 -2.687509446148068e-08 2.601238124901154e-06)
(4.796163318436736e-05 7.73810198170864e-06 5.269555160968223e-05)
(-0.0001595144072815386 4.76588506464783e-05 -9.233801739576225e-05)
(0.000876232252531243 0.0005577981612941624 -8.92223645665357e-05)
(7.513997058067088e-06 1.739653546079209e-05 2.100627191119879e-06)
(0.0003245801484783386 -0.0004914212929363823 0.0002381603736025025)
(-0.0003852619202459767 0.0007216723566614069 -9.991468839615344e-05)
(0.001103929946988271 -2.463108138039056e-05 4.499664975980163e-06)
(2.170750347183251e-06 -1.578613849252554e-05 9.128908692359114e-06)