/*--------------------------------*- C++ -*----------------------------------*\
| =========                 |                                                 |
| \\      /  F ield         | OpenFOAM: The Open Source CFD Toolbox           |
|  \\    /   O peration     | Version:  v1906                                 |
|   \\  /    A nd           | Web:      www.OpenFOAM.com                      |
|    \\/     M anipulation  |                                                 |
\*---------------------------------------------------------------------------*/
FoamFile
{
    version     2.0;
    format      ascii;
    class       surfaceScalarField;
    location    "1";
    object      phi;
}
// * * * * * * * * * * * * * * * * * * * * * * * * * * * * * * * * * * * * * //

dimensions      [0 3 -1 0 0 0 0];
oriented        oriented;


internalField   nonuniform List<scalar> 
37503
(
-7.332139503147012
-11.01450977035549
26.11385581762261
-7.767206544245119
-10.57836905234938
4.550878827606532
16.57996524019793
0.02600045461043534
-0.6790679330239286
0.8499517889549975
-0.1968843105365916
-0.1037748624281927
0.1280610404105933
0.003514063367107605
-0.02780024134036072
12.38673648300504
7.193835478174561
0.6042075283858702
-0.02179801782380481
-0.08549208376557478
-0.4969174267838415
0.08348969697142607
-1.612626593770192
1.577543331525351
-0.04840643468831207
-0.6604832302426691
14.52352754216218
-13.86304431194689
-7.713436166390922
-5.780450609544838
-7.834980393326749
21.32886716916786
1.793320327817251
-3.127745142493307
1.48624143422867
-0.1518166195219294
1.474098530238524
0.1890257934011062
0.4046945220568669
-2.067818845714879
1.717054765162176
2.115318853772712
-2.715660610611309
-1.116713008394051
-0.02762081706050444
0.004553709744968603
-0.02985143661998112
0.05291854394701576
1.095307024640196
-3.564510518129917
-1.022142274512779
3.491345767875567
-0.8882358529921466
1.968452593949086
-2.778247423591504
1.698030682558513
4.259900031405899
10.58597487874293
4.5430045033351
-0.01262752468800769
-0.1632777731409557
0.1448842440756067
0.03102105377405983
2.091761051482099
-4.642951529083767
-1.985805651290504
4.536996128785066
-0.4233841690850569
-1.288801232333581
-16.75991691415258
13.07750829541213
17.98374439405964
-6.633244164719579
14.15630386433452
-8.118117082589968
6.94852857113665
-8.126339256530295
9.295927767940661
20.0381625792327
-25.70989766530253
12.02741227833357
-0.06219605731795767
0.4618611356920356
0.02765639200861709
-0.4273214703728782
-0.4503870428509007
-2.183897508338814
3.729591575759291
1.396395249153197
-2.670088704919295
0.3854576027202806
-1.440040857129868
1.914333330407724
2.211480399550493
-2.6857728729237
-9.675841411400679
-9.556994801792733
0.2530043044734362
-0.2796546727802433
-0.04304265569088598
0.06969302402781455
-2.307222989463646
0.4597672364581496
13.10083205898193
-16.18841700931828
-23.76775699862143
26.85534194905907
-0.149444601131737
0.1274583544355856
0.0765794580272839
-0.05459321131666835
4.217747620603747
2.621791157349282
-19.58550185896787
-1.549260671201245
-0.9994716354710264
2.098345263725701
0.2271140869698985
-0.02362926243746688
0.2063581484866552
-0.4098429729953907
1.32781659456737
-1.177136825179567
0.5137714879992789
-2.057337206967756
2.720702544068793
21.43337280659413
5.089654201179334
-4.451718904898189
-22.0713081029854
0.05439500815152679
-0.3130470199894517
0.1171002297599104
0.1415517821026734
0.3121856252438092
-0.6088090392509752
-2.163509459495669
2.460132873548556
-0.03391342244491752
-0.2318462973055533
0.3751074292316351
-0.109347709460511
-0.05739035246563693
-0.05116626031878393
-0.003444209101093239
0.1120008218965443
-0.4979107838668497
0.4493223713481582
0.2982409932776842
-0.2496525807380794
-0.07603294447169924
-0.355616853478728
0.5884350296736415
-0.156785231683558
3.898730780546609
-2.527526260414365
2.317111755388947
-3.688316275521062
-0.136523933208253
0.03151628319991102
0.02213647069556323
0.08287117932445748
-0.03568244492877717
-0.08672589392537934
0.02926199253523146
0.09314634633544212
-0.02963821142547132
0.1160865812806824
-0.1361839249885979
0.04973555514470805
1.960188530406451
-0.983576651511775
-0.246123172420873
-0.7304887064593811
-0.6627771008719656
0.1828854027091906
0.3251323978109032
0.1547593004120289
8.793362640167548
21.06417586004522
-27.30107959868857
-2.556458901534196
-1.25001114731897
-0.08077120578860193
-1.384878257535691
0.4547616457758515
-0.123600956351164
0.09611730656102067
-0.4272779959750515
0.8158918409432673
-2.172732891651598
-0.950381938806896
-0.2136921047861292
1.51606676936583
-2.094276941969169
0.7919022774355585
-0.1569103190397781
0.2162186976392631
0.001445815984276259
-0.06075419456627686
-0.2352494123588358
0.123657294368913
0.1762551666547821
-0.0646630486479134
-0.8995914833032458
-0.5297961267680684
3.164417674409927
-0.05137248816924723
0.3260528505073688
-0.3175127448435097
0.04283238253374219
-0.002959241791548464
-0.1124833968281934
-0.02236030180077044
0.1378029404403764
-0.002438900851977959
0.05368708412947391
-0.0847552627597464
0.03350707949298509
0.005991082377635086
-0.1344084268567541
0.1198614525548038
0.008555891941468117
-0.07495970847670995
0.07219781246377266
-0.03024926910747354
0.0330111651275909
-0.2408737771874152
-0.2299599583206642
0.4583662208557393
0.0124675146852905
-0.1530889244287455
0.1190621217412456
0.04971164207359115
-0.01568483937282295
-0.1053439552964726
-0.006918766302848565
0.09836776942257369
0.01389495219011579
-1.937236166726774
-1.152616706070299
0.05492374858632002
3.034929124092705
-20.00664603091373
19.50725358986443
0.4993924410327434
-0.1601321432994705
0.05201583352894529
0.08154027110546894
0.02657603868292898
17.85514122258698
-14.69422439034421
-15.20666268505654
12.04574585270346
0.08987674915340679
0.02645321356941905
-0.08365059057411928
-0.03267937212798421
-0.153184020143912
-0.4890214145218078
0.4378512429224323
0.2043541917669365
0.1235857009240468
-0.58230935345041
0.486321268164472
-0.02759761557953262
0.1412191049275519
-0.07845180869120824
-0.09525180161207358
0.03248450539655728
0.195619632139174
-0.2227469788413394
-0.1515520017080847
0.1786793484372993
-0.08068367671681899
0.1670009292806166
0.1862011631435326
-0.2725184156894359
0.8421259897937287
0.6126175567512258
-2.188205843889396
0.7334622973711058
-0.01295639283423225
0.1210230619024327
-0.04968277869690445
-0.05838389035522264
0.06546385635767253
0.007083765625069558
-0.04219167196357541
-0.0303559500035797
0.8112397619576935
0.8515854111708354
-0.05620170984831859
0.01966319795932432
0.03653851189486569
2.796806550868682
-1.726783228162951
1.083249756439346
-2.153273079122494
0.2277019066366787
-0.09588072871828447
-0.1079082675323246
-0.02391291036514671
0.1107536905941557
-0.02939741039343591
-0.05413605611841568
-0.02722022406793661
-0.07862245844914219
0.4585233014008692
0.3969349640463106
-0.7768358069498364
0.2583985240879393
-0.185800978420129
0.1557580287513873
-0.2283555744093753
0.1153851818056565
-0.1678172805079781
-0.2483741832866758
0.300806282015151
0.06317578006166498
-0.1333307143941996
-0.02095200092481462
0.09110693526846704
-0.1007864841986724
-0.02123047988553458
0.01824210166213765
-0.08076027677550995
-0.1108968553551851
0.08755000068851454
0.1041071314588708
0.1916574554043237
-0.1114489150972222
0.02036227824637487
-0.1005708185476707
0.9665443222262042
-0.613120786366142
-0.3866355200127695
0.0332119842135515
0.06995759763306914
-0.2740081472271825
0.2957057501191591
-0.09165520049573096
0.2527122028808296
-0.03825342221259554
0.02212759406951125
-0.2365863747193324
-0.06540222705077256
-0.2320037537216494
-0.1909172612126921
0.4883232419933363
-0.02970373899028201
-0.1961564870705974
0.4090116728601773
-0.1831514467849987
-0.1017309621275433
-0.2640892999148402
0.08344338190653694
0.2823768801502085
0.03002772291141421
0.1444682847374648
-0.196338638313694
0.02184263068458091
-0.1005459077145755
-0.0781130692142713
-0.2596261646965076
0.4382851416414126
-0.2027140452953025
-0.2829426803506263
0.3419074538244317
0.1437492718285088
4.797214285039088
-1.500945096553219
0.05314567776842818
-0.04725253982912972
-0.005893137930047143
0.9854891460109415
-2.213936186094095
-1.441641664881963
0.03788586139383973
-0.02767055377289915
-0.01021530761521227
-0.1915142307003333
0.04999851657876212
0.02491091260624647
0.1166048015287934
0.001223164829131494
-0.06440086296869424
0.1579215636368333
-0.09474386547864963
-2.334512178512201
-0.8055087218004657
2.608097619662855
0.5319232805639066
-0.03956073981122443
-0.08828026279862154
0.1379553777632979
-0.0101143751408776
-0.429462600170763
-1.181709961390958
-0.8646075967770288
2.47578015832268
21.08093116497821
0.03387379886738277
-0.3132113995202078
2.936389173070157
-3.800314598758605
0.06201043996779756
-0.1004264848848835
-0.02947380040632845
0.06788984533270635
-3.045537523899982
4.864460011347379
-0.1542104874588503
-1.664711999891431
0.1194430969329226
-0.05806795510932385
-0.3028640363060605
-0.2705818524256812
0.393824564921357
0.1796213238300999
0.1874857395798497
-0.09692543683871734
-0.02207783270539239
-0.06848247002333085
-0.07211329271571051
0.2505698822336463
-0.2350013403698872
0.05654475088339329
0.1843889629797005
-0.2902361876258687
0.301310205333279
-0.1954629806629915
0.03521999292000597
-0.01744203087067736
-0.04723964872267097
0.02946168668024714
20.20294281814347
-18.6309903083016
-0.4906738940945155
26.73971386872526
-26.9095232049232
-3.345221393838057
0.2639288128753511
3.847108166039368
-0.7658155851542382
-2.043258005272321
0.3437942706271503
0.9148586138955056
0.7846051207458731
-8.041454942301403
-4.922551294413841
6.973710049415459
5.99029618751482
-14.0209905143565
-20.75365719461704
34.78669415422316
0.7579569853881958
1.588883837410663
1.382750752898568
19.02374996244837
-10.93554834413534
-8.0882016183032
1.196228863933661
-2.360031932449793
-0.06069608044161447
-1.732062197139892
1.132624700491766
2.322020682133489
-30.37002789067247
-0.9598022280767702
1.278247945325631
30.05158217331219
0.1032264169658982
0.00566788554045273
-0.1264002878244604
0.0175059853361548
-0.1714029075364481
0.02757166615005384
0.1438312413980486
-0.0975404235557024
0.04148151086621575
0.112688125326301
-0.05662921262173679
0.5431543522578341
1.426208256586584
0.5321918801930104
-2.501554489146027
-0.6194683996980167
0.1992895515964631
-1.776629934416414
3.106293263292137
1.986056771098679
0.7886717974937034
-3.570881725842991
0.7961531572930518
-1.891881419293487
1.90644420218375
-3.143703944144853
3.129141161122214
-0.3706582566643905
0.174730063171423
-1.979473891051461
1.703923714473351
-9.203805120259561
-9.572167218815965
-0.0559228097852441
-0.1515515469434309
0.115499275470045
0.09197508127478887
0.118076255183089
-0.3427834058701515
-0.3545678051690509
0.5792749558950752
-0.5224678187170998
0.3576101951507225
0.1213510874376217
0.04350653618325244
0.4583263866475487
0.2120609939640885
-0.8252056333557507
0.1548182527720761
-0.3555969325058183
0.4838955698113698
2.209949876580712
-0.1469717512159817
0.05255114995380104
0.01159414348986864
0.08282645777778139
0.008031094714108851
0.02402898531089771
-0.121296514395811
0.08923643437861697
3.121410097878244
-1.08309113961103
-2.571158627755274
-1.16208269139748
0.5858737749922426
4.751695254253741
5.585808628573827
-10.92337765786053
0.1922695694590432
-0.8383362150539506
0.4223300566403996
0.4160061584205114
0.07132629348360359
-0.2730574703118731
-0.2172383534984959
0.418969530351261
-0.6377011106257078
0.2489007698490114
0.5430454628112529
-0.1542451220080387
1.800895553620958
-26.14699946197897
1.837130710363879
2.877120542669696
21.43274820890613
-13.89270869971438
7.781875483741334
6.696706990861665
0.192707832171952
-0.07201699182224111
-0.1247933004836659
0.004102460146023853
4.929867681283097
6.566374084878873
-28.88352621657768
17.38728445026628
1.658813988085525
-0.7784349708482499
0.2823635557554594
2.678676516341967
-1.764811208225962
4.072155289785528
-1.731340946107903
-2.97230666345116
27.61096626543038
-13.60029078254996
-14.01067548296276
-0.08717312773186395
0.0002127065331448173
0.1041254963910398
-0.01716507517914883
2.42221877445034
-3.685812112781136
2.047306277259355
-1.92125909016782
2.81034198590479
2.349795605063941
2.318660158104609
-2.246236988778249
-18.91207982737924
8.574233698992453
-8.661820433049416
4.403505903840309
-1.593943062368174
4.365966435330741
12.54177384113607
-7.703196818165058
-4.262750059604531
-0.5758269632865132
-0.01428567412401797
0.07854155179502548
0.01863513267252726
-0.08289101032807522
-1.278853510476026
-0.7437500740695713
-0.4619996668293465
2.484603251437199
0.3954464836569129
-0.2227545299518081
0.1271703300418411
-0.2998622837238371
0.03954047163666084
-0.06453835760616958
-0.210251526377126
-8.104386539154881
9.070117705561369
5.256345820162667
-6.222076986592816
2.677716513270914
-2.050310098583596
0.7320680941353891
-1.359474508743345
-0.05674998053743841
-9.089507738741917
-1.763161860389286
10.90941957991782
0.2463687562787903
-0.1594149963347013
-0.08695375993739032
0.02468739707406189
-0.1863834222643201
0.1616960252034231
-0.05793877282236806
0.3060351865264749
-0.05635493004814687
-0.1917414836399326
3.715132160732037
-21.77027745290225
-4.070582923708339
22.12572821579894
-0.1454821717143178
0.1484888362668801
0.1634883286873472
-0.1664949932113937
2.628563830186301
-1.258098881291796
-1.799927549085066
0.2191242745124048
-0.1944368774292741
-0.1466957523790779
-0.05463096633986377
0.2320284502802161
-0.0307017315373648
3.018482921123667
-3.589012229511614
0.0148362832347232
0.5556930252507272
0.3643304603547325
-0.02415908653450359
-0.02121389937695763
-0.3189574743816263
-0.01813714076861968
0.01544011547634851
0.09268151018832946
-0.08998448488157597
-0.4304994627291581
-0.1111023047990815
0.2680646952443735
0.2735370723282688
-2.303627949726291
-2.121283118050054
-1.449546557181796
5.874457624928837
-0.09167800540793702
-0.1641428684354928
0.1097602338553988
0.1460606399976695
0.04872945915983901
-0.1659092148863409
0.1171797557400114
0.06895771172477921
-0.0219880461974472
-0.08510187581716637
0.03813221030684555
-8.059482428340004
-0.1250559504922353
0.004002320301904318
-0.03417440255413107
0.1552280327633508
0.02162043762363283
0.03909426904320891
-0.06071470665130208
0.02842114273434896
0.0582233511656163
-0.1075905637501747
0.02094606986510435
5.869464568574506
-4.03480609979398
-5.31398667783463
3.479328209175961
1.988930082524668
6.082844965283798
-2.417447711911112
-5.654327335853091
10.29448029861013
-6.62430348524796
-20.8344473858506
17.16427057239732
-0.07959531752368065
0.06181278382499358
-0.09438446478007137
0.1121669984996047
-27.6728914829128
15.23113455233034
-4.31815998358443
0.7162374244305184
-0.3581363338488969
0.7041923693639093
-1.062293459965688
0.728199373825847
0.1476939243220334
-0.7188881911252818
-0.157005106999568
7.531769749472858
-0.9411356328094658
1.992099120540069
-8.582733237165584
0.1130751336198521
-0.1330341339017561
-0.3425960138698935
0.3625550141713194
17.00114654162075
-13.25263115046838
15.27523457130047
-0.6369895477426945
0.1893960481693428
-0.05845848691066984
0.09506507188241718
-0.0366065849636833
0.06511585422054113
0.1260235368146201
-0.174545784866365
-0.01659360615935184
0.1161396959128295
0.0292564397975559
0.01960451110393178
-0.1650006467870366
-27.12857965410199
14.94983068120068
1.204195237147874
10.97455373559997
0.3246423911370171
0.4498633207850318
-0.380530835649352
-0.393974876254555
-12.73024779828414
16.41538710598326
0.09700731948418077
-0.3851855351838556
-0.1252490634727646
0.413427279205538
-31.56740382109596
9.046722853490156
7.183971313438067
15.33670965410808
-0.1654372557377777
0.03942406826439389
0.05517237055813237
0.07084081693297836
14.53482388592368
0.02335524068322891
-0.06896028580591262
-0.006755761146856576
0.05236080628042708
0.4444810018143681
0.06633924956964141
-0.5502054666195643
0.03938521523907956
1.431008092207765
0.1555737666451305
-1.015792529743116
-0.5707893290510486
0.008609077622267782
0.4016493756060909
-0.1245488769899514
0.07022822330667247
0.2071257239377147
-0.1528050702330173
-0.08279420524644079
-0.1299730095753418
0.0153703870219825
0.197396827808185
-0.2201861599691899
0.02555513922526147
-0.001193545359053681
0.195824566123896
0.1642915767553449
-0.03996458096511851
-0.124326995773209
0.0202821826480132
0.04727399820010821
-0.06755618083746601
9.741048247276153
-14.19102526324086
4.449977015997804
-0.05984702761676777
0.08168739242522226
0.1798878101208242
0.2126295794261725
-0.1378848109763403
-0.001878447176598701
-0.07286632124624434
-0.1054751538499326
-0.3029917266823089
0.8332450943081248
-0.4247782137600313
-0.1663858519780528
-0.3593156323370635
0.2049689616224742
0.320732522731672
0.2064147696061772
-0.3909304715734605
-0.3689028915769009
0.5534185935558653
13.57180190179222
-26.17219511735846
-14.52818643865776
0.8999199268533988
0.4265109626673311
1.766751836190447
-3.09318272568775
26.95277641563903
-23.84257887795112
6.851506032531563
-9.961703570271498
-13.19681492043419
-16.12652773814923
10.16313776220608
19.16020489626594
0.1366416372376699
-0.04691666386146257
-0.08972497335712522
-0.02123371315697837
0.001258855805867397
-0.1233616686614422
0.1433365260388522
-1.281741775778784
-4.793617790013688
-1.00826417735491
7.083623743158991
0.4080312409470645
0.08844726441535319
-0.5763015615436222
0.07982305618697626
-0.04632727939748368
0.1449177986093087
-0.01678214780807554
-0.08180837138736682
0.05122133205957053
-0.01323292171741068
-0.08104155843670585
-0.02783488290628934
0.0631699161402928
0.09626071067919972
-0.1315957438856268
-0.05085305992185723
0.1109675983206354
-0.06011453838895889
-0.04317664315534014
0.04627354979010147
-0.1300814655308909
-0.05725273003090367
0.1981047960224472
-0.01077060043739986
-0.05510321748507545
-0.04098972070528226
0.09609293820761958
-0.4211333175242484
-0.07918413838487712
0.4120649945679013
0.08825246136361449
0.1998768440501753
0.1811635776715345
-0.3266454135525327
-0.1445960432341909
0.08882843889899271
0.07542724892711468
-0.01965964457265767
-26.39203265834924
25.39322350758247
-3.703244104086192
4.702053254727105
-0.4964507961502099
0.09983250069146313
0.3296499858275114
0.06696830966476611
-0.44389059418166
0.1730075048050937
0.578043761959759
-0.307160672562289
-0.1656705372568193
-0.01978134772878581
0.1077383755378887
0.07771350946568466
-0.06698813319701852
0.2784172663154174
-0.2435929953661676
0.03216386227042423
0.07109325458752458
-0.2194154590215077
0.0543773735116507
0.09394483094276795
11.42554381795084
3.07561206664251
-1.176484424633956
-13.32467146000157
0.1334113927569578
0.0278784171078179
-0.1167297399453681
-0.04456006990103002
-0.08211305659196205
0.2159399291958928
-0.04185255726778352
-0.09197431531398804
0.1675500649343
-0.1382438252541064
-0.2156896619301333
-0.04667871298674831
0.0393411698026214
-0.04203864188520962
0.04937618508049017
-0.06647850328873238
0.4379406814298314
-0.3135671083622012
-0.05789506976171181
-0.02493943582267097
-0.2239532226458484
0.2207343664016979
0.02815829209146803
0.1685201446618122
0.007351851555379359
-2.374988594825075
2.199116598692259
0.1335664167014251
0.02298205887198346
0.0271534514943456
-0.183701927053696
-1.382207969180834
2.066219357635341
-0.2265947318585619
-0.4574166565919153
-26.54674601297189
1.355323664075412
26.85358670633254
-1.662164357493898
0.07229935210992425
-0.3184357936518079
0.334179477500908
-0.08804303591781873
0.113775328131208
0.01967719968204103
0.085746683698964
-0.2191992114944546
-0.08714678635842869
-0.01369469245070214
0.08140891876055403
0.01943256006033312
-0.5278459472018078
-0.6051804620063747
0.5915396857522524
0.5414867234655807
0.05802489866057177
-0.2603460987285557
0.2053969567074283
-0.003075756614613278
-0.1735212579975836
0.04075996482491678
0.1973393640394892
-0.06457807085117936
0.02848144108724198
-0.110748107910658
-0.01589612375366162
0.09816279058537615
-0.372014684100823
0.360791594916812
-0.6635709780392607
0.6747940672627282
0.2572604675877522
-0.004877687361995747
-0.6509991620821608
0.3986163819450146
-0.07225733125287018
0.1498056702565108
-0.05403003737365338
-0.02351830161797316
0.1356203391583636
0.2833788912052934
0.01117244009439321
-0.4301716704422905
39.27198662005262
-25.20903347105574
-18.13914888939797
4.076195740364167
0.3492848545988332
0.101133719659612
-0.1613809115380158
-0.2890376626969389
0.002677365449142907
0.007837001880012217
0.2214714448426658
-0.2319858121481967
-0.6568564606295092
0.1275601535880483
-0.09556372992426936
0.6248600369924719
0.09169636515900842
0.04185121869797651
0.05004127298708937
-0.1835888568273673
-0.05164586397910805
-0.05628836521903944
0.01901255612961207
0.08892167307807267
0.04614935365743618
-0.4103340016376942
1.71780083394038
-0.8466398949974708
1.274449182982623
-2.145610121857898
15.52526615128184
-10.95358458846119
-0.0318599950124971
-0.1198138344213826
0.1297833898746772
0.02189043957720289
-0.004263792859236001
-0.132889367564873
0.0247558435443568
0.1123973168904329
-0.1431580923110923
0.1388667781749865
0.03935160884081778
-0.03506029468854856
-0.2464166759519408
0.1070420038809242
0.3307234927275565
-0.1913488206341477
-0.08755692402513748
0.03485833007980563
0.0229459183619785
0.02975267559563709
0.09065035953292858
0.03263597712247578
-0.008736644196416548
-0.1145496924389917
-0.07348369413296252
0.05801892581593372
0.09684621667445424
-0.08138144834009697
0.4874961960410589
0.7214911641311728
-15.2094767620304
14.00048940167921
0.1608285521706198
-0.1714601979319159
0.008263302322548726
0.002368343454774775
-0.1701867240549829
0.0459554891243403
0.03986400324143992
0.08436723171084526
-0.1895191233097832
0.3417072718387283
0.1321642993206008
-0.2843524478148635
-0.05884952262855631
0.05195939651619964
0.006890126122717719
27.7006235488283
-28.499934257994
-8.449812704098683
9.249123413311207
21.42906971397006
-2.715542720607309
-21.82801095188115
3.114483958522609
1.951419094692693
-2.184808438194825
0.2999488130843259
-0.06655946952018012
1.804938332698789
13.05083345987631
-8.349421687505682
-6.506350105056081
0.1696866809295031
-0.0417984070480295
-0.1278882738632723
-0.008048094565333289
0.01534273549138085
0.084361139869313
-0.09165578078881163
0.2784361041017374
-0.117177390006212
0.4385809567912605
-0.5998396708638294
1.827270131254111
-0.1425561193393654
0.2890973901381831
1.20242209340727
-0.4590865893014581
-2.033297355883245
1.289961851804765
-7.316953828443661
-0.259014957787477
-2.452222812393554
10.02819159845203
7.652273700593861
0.8946722620333688
-8.222477050285979
-0.3244689122781321
-0.2802569304831319
0.07662092347129366
0.1229523303094729
-28.75340158330872
22.24268051926452
4.512580199018701
-0.1121232550268216
-0.1563948308372018
0.2388143468825628
-0.0001093646212254988
-0.02707429439832884
0.02718365902497305
0.09675982882202903
-0.04951931700776973
-0.1493012866017083
0.102060774799025
2.705522509365284
-1.816837567906355
-20.11704317206575
19.22835823048927
0.5975663494943629
0.09644027725860013
-0.8072023538928977
0.1131957271680852
0.06809357570419636
-0.05242196298624196
0.1513293165720957
0.3537664559077891
-0.04229740869289158
-0.5018823833262883
0.190413336123307
0.139235916371687
0.04485299507332995
-0.08573227136679344
-0.09835664006764641
-0.09022687976792534
-0.4159348535652978
0.1968717301059126
0.3092900032394404
0.2725745000310402
0.01915630872504818
-0.2642061066365246
-0.02752470209417796
0.03352257623891655
-0.1972211481621694
0.03019851656619135
0.1335000553956859
-0.03630219222479453
0.4706500343930759
0.2603530278976981
-0.6947008700409769
0.2015908668321222
-0.2512614343493962
-0.2710691601449521
0.3207397276941862
-0.06474038773456421
-0.2872105216132064
0.3054921001651655
0.0464588092342027
-0.04151610497917219
-0.1456529487725631
0.1871690537669457
-16.87811339165205
15.59151034858684
-2.621875820787066
3.908478863992953
0.08139140917868433
-0.1229075141516281
0.1129400257331071
0.09403195906249442
-0.07618210125790613
-0.1307898835241197
-6.851500389571506
19.99562734066814
8.289245855410627
0.7164161254282246
0.0215400541663418
-0.4595200754827536
-0.7989996014368225
-0.3170420411375811
0.6577881557340839
0.4582534868910044
-0.03550062183977262
0.1187215510938556
-0.08217135088236868
-0.001049578357583554
-1.061069436708751
-0.4017221873016311
1.35442153577753
0.1083700883230242
0.0006663179580879087
-0.01193632646828835
0.04649000143633145
0.1132757013032309
0.05014646005438916
-0.2056937770843283
0.04227161574001335
0.05970514636876041
0.1349619641195735
39.1860262550282
12.13212918194952
-37.21696700489146
-14.10118843218664
0.0446649005211275
-0.08609575605235466
-0.001896390733688925
0.2841781347491629
-0.4849957892998197
-0.3447549438899977
0.04495129874087345
0.3584362787960686
-0.05863263361568086
-0.2697328768427049
-0.2683951719520138
-0.1749573185192991
0.7130853673592427
-0.1360396660779435
0.1796319837151635
-0.08590420438043103
0.04231188675561529
-0.626890003845132
0.4856969068980173
0.007521386693887767
0.1336717102699821
0.08198271784005939
0.0009296840614991089
-0.01746873368129323
-0.0654436681992709
-0.6535606989489795
-0.1034577198809713
-0.1535740117022832
0.9105924305271029
0.1272537640631133
-0.008680959320553351
-0.0395727367928712
-0.07900006793370247
-0.3611108181314723
-0.1146658930477045
-0.04669110750680235
0.2628181271007963
-0.1747983159265144
-0.08801981116074133
-0.03878088146111772
0.012955802575529
-0.1124682628427913
0.1382933417475185
0.03431408108407597
-0.1140676246485302
0.1062720850773206
-0.0265185414980567
0.5359481806867744
-0.7378358611463419
-0.1204082010683105
0.3222958815600758
-0.08076467237825938
0.1047400460972085
-0.07079779888274601
0.04682242518954122
0.1364746791009635
0.06990686560768575
0.001311780847813533
-0.207693325541198
0.5859557206361372
-0.3668992939034911
0.04078017542178815
-0.1450524047274165
0.1182552537884846
-0.01398302446270537
0.04220751259787291
-0.0006095291011481638
0.3382592340864707
-0.3798572175545689
-0.1020898521985431
0.01286538631213323
0.002077679534806812
-13.72459741542772
-2.23068780661385
-3.451864194147234
19.40714941615895
0.4635843086356934
0.07800601650063341
0.001472280555490888
-0.5430626056862143
-0.04849233636760288
-0.1893555446177465
0.1741467228431378
0.06370115816720358
-13.28064093798429
5.318852749454234
12.93094305544144
3.373648701417494
-29.58523269485299
-0.1328587311105641
-0.03894418778409452
0.02510716653195676
-0.05123832311340949
-0.09412879748553424
0.1866551638757791
-0.04128804325460711
-0.347135735760199
2.237799554522715
-4.327469403266383
2.436805584457461
-5.638747158341329
15.82774380908064
-8.384058318061944
6.801944083734815
-9.021860029983047
14.86221091478411
-12.64229496856359
3.234452958147885
0.04285900026710737
-0.6763869002460329
0.769851175739202
-0.1363232757331548
0.1167748168717708
11.02518440593234
-4.67113969805974
-6.470819524755682
-0.107195749528353
0.005531788084384583
-0.0854289766946707
0.1870929381704601
-0.6286695124225106
4.047417447691512
-5.150088881332993
-7.718544226408559
3.317067974934604
-1.175745292554483
5.577221544035938
-6.651855957552844
3.919916533739122
-6.839099937626087
9.571039361528552
0.004526971065123521
-0.1617382624179776
0.04158955380323361
0.1156217375640278
-0.04584712893728442
-0.3413563963940391
0.3659579033946821
0.02124562196005913
16.80241214903423
16.38775945181578
-12.46823606381191
-20.72193553709013
6.517875527443232
10.28453662155461
25.86312325967549
-6.60974771768245
-2.865616090220455
-0.0479198679078855
0.173175110735773
-0.0562555781038084
-0.06899966470660074
0.1457198386576086
-0.09343939764122929
-0.1002003089071056
29.81624221274313
-40.47066165911683
2.958849189755951
7.695570256587021
-0.06374923598920026
0.06084979385441095
-0.002121598523687159
0.005021040682848669
-0.03234945042061908
0.08309644636166288
-0.05074699592925073
0.143140774011517
-0.178796519998205
0.3324285422937225
-0.296772796274956
25.7975024032851
25.94131433037189
-0.09806168568064541
-0.01621571520762761
0.1349119286118415
-0.02063452770792267
-14.38345704931111
14.409945665673
0.1259692283872645
0.02237945343245892
0.02258883730444369
-0.1709375191006638
-0.03491670920923833
0.01253556957864388
0.02238113964161749
0.165589651166594
-0.01216883744727918
-0.17893707477421
0.02551626106624541
-4.680692838574691
4.744664744717808
4.811705673119148
-4.87567757929799
-0.01974076685096989
-0.05910311827890563
0.02136251456477663
0.05748137058019474
-0.05648882719568823
-0.04153039952053034
-0.04522707585061165
0.02548630900425258
0.01953834950457069
0.0631331659904471
0.01278034454739987
-0.09545186002986447
0.0595475424566895
0.1098736713525732
-0.0176205140742681
-0.0276065617709298
0.06744128487984165
-0.1161728700265308
-0.09968512860977956
0.1484167137700587
0.05141803805782836
-0.02370734390556204
-0.02771069414326973
0.01423140921216899
-0.08554282711155187
-0.09146268788270902
0.1627741058035676
-0.3058397034426472
0.123426878149542
0.3220471525099871
-0.1396343271550397
-0.7452561239802011
0.08474540794985042
0.4949102056526819
0.1656005103986555
-0.1067468056728393
-0.202776186550246
0.4241671335368594
-0.1146441412774221
0.304496067365301
-0.03202629830946224
-0.5049021444382759
0.2324323753862472
0.08397842995778708
0.02194919015228276
-0.02388317063967475
-0.1376036245354737
0.3270443860027386
0.09596525595609291
-0.2854060173854926
0.07542627401101816
0.04960802296116517
-0.1250342969633234
0.09556382069981542
-0.1212652192194102
0.07155650838976305
-0.04585510985743638
0.7898794923901566
0.01278235182647286
-0.4634565536777099
-1.266344288264311
-1.294753890738423
0.9337645443947574
1.627333634616841
-0.1045579178744373
0.0292523198138377
0.116085773492552
0.07083590026037027
-0.03513578989140086
-0.1392703640791834
0.1022054696099861
-0.01912471703478767
0.05618961153259795
-1.170500677515926
0.7449875229037723
0.1922957743971409
0.2332173802658492
-0.3432813797504515