/*--------------------------------*- C++ -*----------------------------------*\
| =========                 |                                                 |
| \\      /  F ield         | OpenFOAM: The Open Source CFD Toolbox           |
|  \\    /   O peration     | Version:  v1906                                 |
|   \\  /    A nd           | Web:      www.OpenFOAM.com                      |
|    \\/     M anipulation  |                                                 |
\*---------------------------------------------------------------------------*/
FoamFile
{
    version     2.0;
    format      ascii;
    class       volVectorField;
    location    "1";
    object      vorticity;
}
// * * * * * * * * * * * * * * * * * * * * * * * * * * * * * * * * * * * * * //

dimensions      [0 0 -1 0 0 0 0];


internalField   nonuniform List<vector> 
19631
(
(0.004065996255290998 -0.0002045887699774965 -0.0001884264402491134)
(-0.1016021193285028 0.04165816885078336 -0.100049048566177)
(2.177398543432734 -2.682205214921826 -1.09883248996677)
(-2.051136402417956 -6.993296977983566 0.4874205376393674)
(0.00317067835194325 0.002310583787527612 -0.005715781629922524)
(0.01208721635852329 0.02433887389234352 -0.004918649635672659)
(0.005658087049331888 0.004071728105198304 0.002856979588591274)
(-0.1009052133834778 -0.1444058709586049 -5.634280799673611)
(0.0004978861661879992 -0.005698674045951672 -0.01995735524628896)
(0.005910572332368821 -0.007328717622110578 -0.01171945859631957)
(-0.0154078420082949 -0.0248183552911763 -0.01062768227727008)
(-0.03947617430476719 0.02890782458476631 -0.02311292930870698)
(7.044965483293836 17.67818266501347 6.192951089849762)
(-0.0263178620849187 -0.02127700678220016 0.06365749552906909)
(0.008141446312150667 -0.00154602964791036 -0.01270319450774275)
(0.05948395675003573 -0.03700196042929503 -0.06955799434520371)
(0.6806702580259578 1.727328016840843 -0.8356846654930372)
(-0.007726977615640557 0.002795653958503285 -0.005787433578948417)
(0.01733580382844337 -0.001925141830382746 -0.004089633896120024)
(-0.08234135559571271 -0.3996203334432704 -0.227534214504356)
(0.004536715428417326 0.00206792184511021 0.003145950835096671)
(0.0263211735006886 0.1521649130422173 -0.05382987130126214)
(0.01325190284287455 -0.01214447993858034 0.04526561827915633)
(1.215044823587943 0.1334702742390632 -0.3622835682580652)
(0.02288704735910864 0.01046849618757923 -0.02152910454087456)
(-0.008142429443447532 0.01398801444147324 0.002768848036457941)
(0.02970322892297796 0.0502491558685095 -0.003721298320647996)
(0.01969235093995554 0.04804430496559808 -5.900979178185268)
(-8.056557021093138 6.141536927453344 -4.735294815949655)
(0.04111970714196682 0.04438931992893931 -0.02121705698068253)
(0.0006380881262273378 7.801661345426637e-05 -0.003300562076578053)
(0.08230166366106273 -0.3582430988175671 -0.2537657455512839)
(0.6724069714207859 0.0020132192151604 -0.6574559367695137)
(0.003000904724113783 -0.01413202444822659 -0.008576970149795781)
(0.6690760394466555 -2.048773454369343 0.4433428174974717)
(-0.007799010910479302 0.01641348840536415 -0.005215851813065529)
(-0.0007173001116272948 0.04108892755897099 0.01105891678112042)
(0.006254143878820319 -0.0006975825658355499 0.001604676840167288)
(0.3605379691923824 -0.03753267372394137 -0.1452950610450056)
(0.02725489775917805 -0.03589021736615965 -0.1497129525021991)
(1.090194297848694 0.4985488064469947 0.4054143205108891)
(-0.3036663599723148 4.481140861527622 4.298559951419128)
(-0.09475469679805151 -0.1299139833113775 0.01206263814423216)
(-0.5798131873279391 1.948507372600401 -4.820136140129932)
(0.4506283985250411 0.01912168953784813 -0.8785982951879124)
(-0.7015609047860435 -0.009963189534624273 2.573763768799599)
(-5.046144314410162 -3.632234870851595 2.12334268182703)
(-7.146475671659182 -2.072584841678891 2.040907272343721)
(0.03592821269553303 -0.01723206089718251 0.004107649313538117)
(0.01444101333047232 -0.05940074333283131 -0.04706084100716227)
(-0.008613359206137074 0.002425609183693037 -0.01140526228745638)
(-0.01664095653306174 -0.03102852196174051 0.02910551726784575)
(0.893203131103639 1.639871517373193 0.2555279781054535)
(-0.02717907421164352 -0.02647055755503946 0.02761692116578972)
(0.006181484151811517 -0.05752139640891844 0.007493155867023352)
(0.2772230639108151 0.5618052878369812 -0.1982275785986825)
(0.0573014455996138 1.287308840586657 -0.2407791502234118)
(-0.005552593784770644 0.01131307421587924 0.004907331443328051)
(0.08844517941596687 -0.03833909450098602 -0.05729741419355532)
(0.2970902113788557 -2.95305635563167 1.112681567615472)
(-0.270976958991453 -3.980116758427558 -2.688221108917729)
(-0.1540329791781567 0.3870722763277069 0.2097155191390186)
(-0.9243441351601773 -3.427462043533214 -0.07910420005066218)
(0.0479563674943987 0.1313424578543637 -0.1983963829013157)
(-0.1851029926931005 -0.1416633247742309 2.170287857755995)
(-2.519748661591718 2.09918039391188 -0.4981315533761841)
(0.03467531903200018 0.005058236396115258 0.001879224529408504)
(-0.01714193125595637 0.07108048872118983 -4.748521867416608)
(-0.8341348671725047 -4.807846743926389 0.7413690526180106)
(0.001794476048562062 0.007390724644407466 -0.08437585493670782)
(-0.8256595831143043 6.304298404966515 0.2191152986167024)
(-0.00923398630187576 -0.02211204695044279 -0.005801778867329766)
(0.02083463231389112 0.02476456627551591 0.05870977263422388)
(0.1860151150220401 5.16618081780801 1.306967588165347)
(-0.2106388920520019 0.06927071682929559 0.1435056081360479)
(-1.534571488410633 -0.5851795768985302 -0.354702483364094)
(0.0280277454643175 -0.001361864874004221 0.004294977181621955)
(3.009121554906427 -0.374254323269852 -0.9190174069911268)
(-5.036467183184349 -10.14451508119505 -1.947564031702328)
(-0.0376385219405898 0.01148760323096099 -0.008204494270545157)
(-3.893128221928092 -40.68214313300086 -0.4625576799475737)
(-0.103382058078767 -0.9798034062586202 -1.546516399535184)
(-1.760316373304124 10.95042698401277 -3.263710965394441)
(3.907097614223284 -0.03106580142705895 2.259383089613551)
(-0.08774270290611857 0.109816437028924 -0.2846432578940939)
(-0.1689908759778964 -0.05945541939927754 0.1041731148610742)
(0.001323420706053624 0.173934475044656 0.07374860676451342)
(-1.235761958698649 -2.037468662468898 3.676601948727853)
(-0.6674501054696553 -4.186145978032923 2.221535632082572)
(1.851696189771318 -2.853811665056261 -3.467253444334147)
(0.005458932548682488 0.1156148612507909 -0.01590112989549901)
(0.2016635411385234 2.4724148095986 0.05950662763469691)
(-0.2396442201470599 -0.01280196499245273 -0.06204962273374016)
(0.3591121904277451 -0.2582639106482586 -0.3995908936473858)
(0.01499747045148449 0.1286825106303782 0.2389681352263678)
(-0.2412146910409916 0.2524980744612773 0.02557731647666033)
(3.449355254216032 -2.184876053951666 0.2962106944027845)
(-0.1087767084403295 0.2667062124841054 -0.03096215144481455)
(-0.09887225350565169 -0.03216249442586246 0.08615646500472973)
(-0.05807886866098493 0.03543213917253389 -0.07793272095736345)
(0.01380720311817589 -0.008460211280674645 -6.989163023802657e-05)
(-5.124144635367065 64.987775237373 11.82652232843073)
(-0.01321469342070989 0.01842627864055516 0.004947923896468704)
(2.873235479132277 47.85067734338605 -10.0539579052247)
(-0.2301361771610917 -0.3817891650620525 0.7366341545155998)
(-0.1184472579322102 0.05442662557156203 0.01358436440147315)
(0.08314206106792868 -0.002955064636680479 0.05607105837268471)
(-2.033780515529533 -5.002652071946461 2.17005387834802)
(0.01185601870932265 0.01086695964111339 0.008613578324963162)
(-0.008820799387183373 -0.0204302877709809 -4.580353268428115)
(0.1116408037258095 0.1401555351963192 -0.140436592160154)
(-3.470931056234232 9.662910362914387 3.912028489325053)
(-0.01355547297011017 -0.001523960639578539 -0.01260380825710778)
(0.06829446312243381 34.8505982672665 3.246075377032532)
(0.7508663664618733 2.222664927823887 -1.569013163803062)
(1.174062467441895 0.1654571649096972 -0.718874655951928)
(-0.5364054108909468 2.906171150912722 -1.640615895088192)
(0.1348165648001544 -0.04343438227793255 -0.008751881672220789)
(0.8456566627537356 12.80939138374288 6.255469670491954)
(-0.002057909303487969 -0.0003089053812661708 -0.001441931897809243)
(0.1414340414519634 0.06738236165558012 -0.05367405040029535)
(0.07682911989158989 0.01862892501298336 0.03476955858909743)
(0.01174597998162638 0.0149626358156508 0.002188974877775859)
(-0.07111643788322355 0.1633511975577134 -0.1533425123853549)
(-0.004666509303567941 0.09230221185009377 -0.1141760464098964)
(-0.00173452280626837 -0.01378803552393673 -0.003127858677638823)
(0.04336853135828597 -0.006216393752824869 -5.524044078058227)
(0.003460742151647309 -0.002351648950022175 0.0122014038290419)
(-0.0005400424626836329 0.00224289053025149 0.004760484482545516)
(-0.04292766274048777 -0.006562072901094288 0.008683287200382153)
(0.1788645374884056 0.05666867757135272 -0.01365512130290996)
(-1.289722037081847 1.527582520140419 2.157711337318173)
(-2.864793604728687 -34.38189079534465 6.296842764035289)
(-0.555812522230666 -0.8082389631848432 1.773297087145756)
(0.007508688347060553 0.01241543584305337 -0.008268433184995752)
(-0.004054046080617124 0.003471932173542741 -0.0006117207968900432)
(-0.02490048170070974 -0.05339452349671289 -0.009328507825131397)
(-0.2379295197701782 -0.1984205641892798 0.1052536989974427)
(-0.03350401198445484 0.03397454978054008 0.09986989356020491)
(0.04593723344527186 0.02209916222303717 0.02001626123097959)
(0.03594328738674277 -0.0588685287395848 -0.06630295764497068)
(-0.04397584658897849 0.238175417774719 -6.397028630845425)
(-0.1139984099460226 -0.9359631193926813 -0.2605951883078039)
(-0.01890085060677798 0.01253827740153441 0.02291507956862216)
(-0.3216006092767265 0.08112646226758395 -0.1126724181882219)
(0.05411883819956168 -0.6108937875080984 0.1329786264883427)
(-0.09658805559080841 0.00143329847475754 0.02629933597985053)
(0.0347160079718847 0.03120161419552383 0.009594611351303284)
(-0.4780669543449938 -5.701419298959816 -0.4133617578600899)
(2.745408501293265 -5.235751931647097 -0.2696296351488786)
(0.00640231662897 0.0006959149049116253 -0.002809861508285935)
(-0.01888306760509618 -0.000182656933673594 0.03224699916466985)
(-0.00838237877864011 0.005570977846862201 0.01227528589824686)
(0.06121661982023969 -0.02543383153190153 -0.0681289551589879)
(0.01430899665907477 0.005112482679054913 0.0003988132677863734)
(-0.02145371478462789 0.0005538412372807708 0.01604781818396985)
(2.535344041346893 -2.891286632675816 -26.61119255631584)
(-0.3371822387651598 0.1162550589231439 0.1285731752188413)
(0.1322148157157167 0.003257366886811261 -0.1952652095890894)
(-0.05507893392056065 -0.005810656313344185 0.02488414828349395)
(0.003654106925941788 -0.03032610284594702 -0.0153073418530387)
(0.002857717835402358 -0.05771956679459712 -0.05825302677062134)
(-1.325807896494335 10.2360643469074 -0.2642716690338064)
(-0.03974498142556394 -0.04498413106724783 -0.02633427655083251)
(0.01916091837511301 -0.008569477037010819 -0.0119993357496826)
(0.01001393656125081 -0.002820394062573881 -0.0006099892602507129)
(-0.001314189513285187 0.002889978019756861 0.004137699295248017)
(0.03306396123350784 -0.004907462911286156 0.01724391926104041)
(-0.002618081581945214 0.01482917407792552 -4.208363850069956)
(0.393022672252087 -2.072748096532815 2.303293949631037)
(-0.01947247710001991 0.1333500675644998 -0.1419851412124808)
(0.4591592555339106 0.5843055723741069 -0.8047291297856547)
(0.2702244019697054 -0.04873272979171692 -0.4573636211870597)
(-0.1193911653068697 0.2738239020231318 -0.1987982234907254)
(-0.05592602544106383 -0.01318445352609837 -0.03418492186676014)
(-0.3317157304855433 0.01546764678957078 -12.99908925406582)
(-0.02269986261699622 0.009061683510429401 0.007369520657031041)
(-6.586793545534045 -0.7369737152768749 -11.64853231915418)
(0.0267418950568521 -0.009554912894111187 0.02521942385477636)
(-0.347099214752018 1.470045753014697 0.3372701995605077)
(-0.2184892655639451 0.02199819933000124 -1.476389891534807)
(0.001169436698570091 -0.0072151882387107 0.0009510159503266834)
(0.001676525416232499 -0.02530421905119298 -0.005111996945987149)
(0.03004331252238512 -0.05024258598290998 0.04048203378717271)
(-0.6089587365683118 -33.65900860043419 0.2977961535601749)
(-11.10808150057308 -24.33950794836514 -1.563126119066735)
(-0.316483772670163 2.422962523251802 -0.4519048534092844)
(0.004080520899166639 -0.005274047560528908 0.0003455062500345562)
(1.022258719117657 -0.08777311634099516 0.1637941252445104)
(0.01160273663022908 -0.004401396972965906 -0.006099964305110493)
(-14.29100752088875 -29.69789834249972 -3.646407989659975)
(0.07690229003692249 -0.1598682424316566 -0.02600517054108627)
(0.108191570095725 -0.372904584152673 -0.00267223812494434)
(0.0413305769014371 0.03222312059825941 -0.04222508664403676)
(-0.7968481737803235 -10.48417030752539 -4.371876648697484)
(-0.1764202117053002 -0.2093492157177667 -0.3123321266976986)
(0.01405072003446314 -0.001611500520418068 -0.001391714911342518)
(0.442896568050231 -0.3876588845075536 -0.1925996073671464)
(0.8336808929202988 32.79682820629916 4.289927662220461)
(1.067381714201529 5.227765915789357 -3.450300700123121)
(0.01889783650077932 -0.00805870795113528 0.05284643463574971)
(-1.95536395877696 -3.159386058757219 2.748015132699418)
(0.08654665048780887 41.74089604900808 3.018450850646127)
(-4.051213895120645 8.212153601822235 -0.3249715687636445)
(-0.006292971600090316 0.003747522387801902 -0.02358497738410665)
(0.0109959797893575 0.003724586146547298 -0.01427858489855929)
(-0.01015512874384122 -0.03421072165167707 -0.01524445522776057)
(1.235572850358802 9.787749514804991 0.3514022677305249)
(-0.007201595248699719 0.03771375110807086 0.01981624871625351)
(-0.004436116949608 0.002048325739495124 -0.007444272958457615)
(-0.03320238265964615 -0.08051018408166674 0.01560476902962922)
(-0.0768346632258676 -0.1792023748944012 0.07874227060303826)
(-0.9105036513510045 -2.148822212623865 0.9061301214722304)
(-0.003771416497260056 0.03907572670420213 -0.02100264223616435)
(0.005221042023965429 0.1056135216232506 -0.2023646417041558)
(2.073089448741388 -63.83094265844061 -4.024921918782818)
(0.0430852445134661 0.6004154207577536 0.5533513703012257)
(-0.3269826444179202 -1.258353226876613 -0.6577856537760085)
(0.01860872348997891 0.01592064403854655 -0.006389619890882861)
(0.2210748097101836 -0.630525821670832 -0.05043075263503409)
(-0.002362290024800353 -0.0009514203969596875 0.001380259456297187)
(0.7889267850773971 -0.6446714945286989 2.061078663867959)
(0.01765373802330274 0.01193368088159166 -0.0931139516668692)
(-2.260467523313959 0.1238887014631846 0.1497686144529038)
(-0.2194760651371396 0.2250507282867163 -5.668862331224092)
(-3.876167708457308 7.191868606376745 16.31581726993931)
(-0.01862624311583445 0.03635243945131264 0.07909128866083427)
(0.01824751262948721 0.01356535891837275 -0.01539593262348687)
(0.4970456261045625 2.819065725430758 -0.3730958776831657)
(2.10300994146691 1.102038939830365 0.8278889781045881)
(-0.6624694071195045 -2.110211262856696 0.3809805516428289)
(0.1668160736146545 -0.7054035044602376 0.3985679679587619)
(-2.819385032349377 -33.74353413388308 -1.013396785955822)
(2.701231875508356 56.35424723547442 -0.08601974342008512)
(-0.004443114802326589 0.08217433495328687 -5.936870252571381)
(-0.1781118791508453 -0.3158689915856767 0.4739310789250858)
(0.2798373732358805 -0.1996518234392888 0.0412971234399752)
(0.2344213143718332 -0.4450652690950786 0.04414783520760691)
(0.4115217137985185 1.100053134311985 -1.133488276701775)
(-0.1565384093663111 0.003330413769371685 -0.01528136864960171)
(-0.0008756307146377011 0.007080408237300911 -0.01244591169123499)
(0.003598403240120576 -0.002676524412570003 -0.01107030348517772)
(0.101255190917291 0.005209051904975875 -0.03437943369230394)
(0.003381155854365145 -5.155625117952371e-06 -0.005551189513155495)
(-2.018268226986064 38.46635173951363 2.197529703444657)
(-2.655085577673697 5.923778102923539 2.047657799378569)
(-0.02240722692067488 -0.0007871679039414613 0.004931825403484836)
(-0.1958357631650682 -0.1462846438723847 -0.02967980896125762)
(-0.229881685020206 -8.152708559656544 -0.9760162485526376)
(9.648581541875593 12.34537573019415 -6.183271552522198)
(2.212865606197796 14.06576344210419 -4.123228012279975)
(1.003732853955121 -36.14635401311265 -3.567534962177643)
(0.4405237323763822 0.8534416275324783 0.25859810675406)
(-0.7524860353742332 -1.268619487468366 -0.1414387582071724)
(1.163729612205335 28.15745259671442 2.196544892252906)
(3.903818310697326 3.235893998510715 1.205814517397989)
(0.09336836553983671 0.183500002811276 -0.03450149891082974)
(-0.556068080990871 -8.76792106491704 -1.54992349128571)
(-0.01526148796766163 0.008165305205777865 0.01159091146742408)
(-1.238925575833979 -0.1492930878061216 -1.595006626853487)
(0.1632803396745066 1.125994688485416 0.2500039661641588)
(0.5639656401345156 0.1117539053327881 0.1206126515145527)
(-0.1591204351114454 -0.05635579293189195 0.1151933809685464)
(0.3228242407172351 -0.2528596257207277 -0.2694735791261738)
(0.06087304958326422 0.0482128274137467 -0.01814241183826563)
(-4.239399681607989 -5.158987920836777 -1.70680489345351)
(1.374486948604049 -3.319963686044215 0.2330261164891723)
(4.110401823934162 -6.613272670529039 -10.37620589122782)
(0.1587364330742259 15.06216155294802 -9.08961144293974)
(0.1751426313499279 0.1412152760032555 -0.1454803418868539)
(-2.055541018974848 6.839580013102934 -1.744254015174719)
(-0.06994882120670222 -0.2137642077527527 -0.1236348267243614)
(-21.07710756045739 -13.78579192419737 -0.7631206401800386)
(0.02437273016046585 -0.01133224113725859 0.008749911096252134)
(-0.01024310711161808 -0.007097676487748287 -0.014491228591761)
(0.1118101443438022 0.1235251309305971 0.1514507717168476)
(0.5561767873012746 -1.411440644864446 -1.865612989594211)
(1.089550289657791 -14.34019376263998 2.105456397123939)
(0.004299507311746692 0.12702503667141 -0.02786706341163496)
(0.07602790111056806 -0.03581108736938524 -0.08170576476828183)
(2.209738896513248 -5.816447451294747 -4.968384706507257)
(0.8616836230805841 -4.475442029056558 8.066655783275879)
(0.04997613232977786 -0.08037327665276037 -0.5300854672753647)
(-0.1294954400800229 -0.2296573659829337 0.129879787066555)
(-0.4991717402608822 -3.672895446980814 1.402591399038571)
(0.0943950190791337 -0.01009912584067429 -0.1346749822546501)
(0.001004705372556173 0.006635065966555857 -0.008697466458790708)
(0.1065522752914616 0.1318400778268016 -0.02258651034053274)
(0.5813607827573748 0.02235871179843835 -1.543795386673108)
(-0.002465566806698734 -0.008434953004122316 0.01632558863750481)
(0.1787111218802952 0.3975761171697877 -1.403059697604786)
(0.06141672165090156 6.310672551545286 -3.993588323351931)
(-0.1809689107676498 0.06995202939584677 0.1665868576381002)
(0.0009731039776779346 -0.002253678544215074 0.003507152592783299)
(0.0004824387321294875 -0.002486570343868638 0.0029232566316368)
(0.8257343492206424 3.182441335711209 -7.144955351050471)
(-0.05653287019198644 -0.5662966759204746 0.3141980248648523)
(2.34982525877288 -1.208400377892217 -1.879569836226681)
(0.8023976816239773 -0.1144403173242251 -1.239022719413346)
(4.533141439463261 4.69732059200728 8.093441653342385)
(2.441403578318676 6.239813996298075 0.3377139394187559)
(-2.645072104163673 0.4911734739995621 -0.3561679145772891)
(0.01442835201942784 0.0539765552125325 -0.06957460972688698)
(0.2322110480639099 -0.5871126362772638 0.2457464650389357)
(-0.1910590668371741 2.937658238846184 -0.06499874004850555)
(0.123017208574796 0.009033254821428791 0.005098460951604065)
(4.880113733286598 50.14780215485134 -2.745313804459548)
(0.01967931564580552 -0.0369850682595127 -0.04046373524197887)
(0.002393388001025303 -0.004304394683608351 -0.04004308827614074)
(-0.006282233438928964 0.05330583032030473 0.0703595760461483)
(0.01150139590477995 -0.04744363965068447 -0.002982842839741789)
(1.030518190388303 35.04800921282301 -0.4168454509796142)
(-0.1923349362815653 -2.125881597365089 -0.1923964643441765)
(0.01739730000497397 -0.00476590203895368 0.0005116311558834808)
(-0.01589983051721494 0.007026699874885886 0.00209583747270198)
(0.008029281120379837 0.009290718598630851 -0.02392582242532466)
(-0.0002750923080877172 -0.0007742209359952821 -0.003982254672190854)
(-0.002480371345455839 0.0003219666833671842 0.002315640862441693)
(-3.426301285410259 -0.2457031374522697 -1.73620449577181)
(-0.001673994875381997 -0.0003631694670890545 -0.001021802293826318)
(-0.7680553618012875 0.5756448787559657 0.0116497798294945)
(5.318338739552821 45.18810745903208 -0.5875654114790102)
(0.2786945133857432 0.3553367805039597 -0.04177354369099698)
(-0.0002923306754507062 0.02821598790307233 0.1516792479173007)
(1.568662282076474 1.392360741396186 -6.214389166690045)
(-3.828535220885217 -1.064812464262594 2.177994585442481)
(0.08245089012292571 0.2167997441161579 -0.04268990970817524)
(-0.02939723085296925 -13.10559373629949 -0.9899343134631873)
(0.1418852287088565 -0.006819829471640333 -0.06954883395648669)
(-0.3866658413313766 0.7191438361531959 0.3788573813266263)
(0.1297153722493221 0.2254647568102138 0.1084974713411791)
(-0.05591378393689105 0.05764814910694337 0.002028187387239715)
(-0.04518280815862318 0.0219081830436937 -0.01927681098058001)
(0.1597547514556997 -0.2128022948624294 -0.1695351258670613)
(-1.036835947365738 -47.21199116682828 5.545952444405183)
(-0.04369038803098463 -0.0008643334266196104 0.01488142155739506)
(2.458081147014358 -44.37369267535552 3.046866297240291)
(0.499764924938391 2.193963334782913 0.8821742544780776)
(0.004489725760222232 0.001576691205212102 -0.0004010659915247398)
(-0.06641922005078274 0.06091201047094993 -0.01717741481448271)
(0.04024414191805573 -0.02684243048996742 0.04174389779150037)
(-0.2026056548588141 1.8624145150834 -0.05186145089494872)
(0.006461714913359697 -0.02477032534064233 0.02540988412113641)
(6.004184697116687 16.32997112357856 8.083049955760636)
(-8.24284944644214 -5.34080787019521 1.141633193079123)
(-0.4297167763259138 -4.345193664983102 -6.077841883457854)
(0.03528933942382314 0.03978198583597206 -0.02648754461439093)
(0.05522883066310014 -0.6814126680578875 0.5152894241151319)
(0.02450586193608692 0.02742717640526905 0.01997699997656622)
(0.08074003865820018 -0.02550251067764672 -0.2636498063233732)
(0.06223757876788686 0.01408698303483406 0.02037891069796025)
(0.3354761113673368 -0.05815897964460967 0.5020035605265296)
(0.5579048281149241 -0.9260831050095625 -4.773080442896634)
(0.5089627298457878 6.755033107878615 -2.282544725545542)
(-0.1087963966004773 -0.03471171939388665 0.00853817968225936)
(0.5124067463512342 6.938381837158344 -0.9114254218573422)
(0.3163991965318296 0.03210568480466513 -0.1830567093623141)
(0.7967967450073592 33.31038929854071 1.686467764631948)
(-0.720677069436248 1.283012235500792 2.28698503081378)
(-0.9237053119821109 0.4266557249561106 -0.483395203793626)
(-0.03131321829380774 -0.006326606173684919 0.03218496250851807)
(2.25839941709817 8.943960523161929 -0.2688821546502185)
(-0.6021353734290168 -0.1202393396709978 0.4044801087300522)
(0.09107740639883848 -0.009264149294978761 0.06388001028464864)
(-2.763685595453499 -0.6526126867249032 -0.03057683906584607)
(-0.04277853152731627 0.02165093659205265 -0.02481777599797957)
(6.539800393191466 -9.851097263914513 -3.799653889938246)
(-0.03981447345830914 0.008383284930562052 0.06560964805260702)
(-0.011510111794161 0.009937690793492843 0.02924929859864686)
(2.449238026905567 -0.4033987672170863 -1.717843667183009)
(-0.004584397095839293 -0.001414937983056531 -0.00121869950943546)
(0.004539506347949572 -0.003551074869668529 -0.003975109653714283)
(0.2748384670842385 -0.6173829251778579 0.02639636498201939)
(0.07286680064112994 0.1085158981251069 -0.1050138784921759)
(0.1483831432076676 -0.02115929064389275 -0.03945736144899936)
(-9.696537856386609e-06 0.001702804574343688 -0.01091648404985322)
(-0.03908212296325154 0.3071687525328921 -0.2914083123022836)
(-0.009625386322845051 -0.000338051056958172 0.004421063499982817)
(0.06604176536496209 -0.001895694743042549 -0.002246983728177124)
(0.001419799921317477 0.01745419202718936 0.01084470224960707)
(2.389701094108479 10.32080271749285 -0.6762411267207444)
(-0.03142363401022159 0.001336533178612985 0.008060500860817556)
(-0.004170423149723278 -0.004308431059663789 -0.002634958124211235)
(-0.01095285525033455 0.003194694982325902 -0.007996617136236769)
(-0.8671184330986065 0.04761531515226669 1.483765572759307)
(0.2657276172154218 0.4714873486833854 0.001246564438312531)
(0.0179866594673051 -0.02670055508961253 -0.008554979968583308)
(-0.01152266468437648 0.1071079269480514 -6.617987098744936)
(0.02772475159717928 0.02598554434241758 -0.00534403686136949)
(-4.461602731974334 -5.472066182239102 2.191672455056208)
(-0.9795593383134961 -0.2329030631640809 1.623058732149341)
(0.007001336472651876 0.002228048026465869 0.003595526263055478)
(-2.432627513160706 -3.813695223034816 -6.855260181174632)
(-3.210857559638496 -40.98527007736345 -1.397863291058239)
(-0.6725802519114495 0.3313470883607622 0.1665094200762939)
(-0.0009679046479294296 -0.001167509710470446 -0.0004176653840869748)
(-0.001458182401978669 0.0005714520052946995 -0.003237247319220676)
(1.814546732021543 -0.4034924082108913 1.541928877424237)
(-0.323054151075013 0.1289357774292855 -5.62854725644971)
(-4.573328774677007 -1.44406969077099 -0.966229618815843)
(0.4971513904387459 -52.41562789337752 -9.759205446013274)
(0.09752707472721057 0.5071836817156303 -0.4246792257750399)
(-0.1541377966546456 -0.216224833839451 -0.05664015837708103)
(0.6652606500266447 -17.45011996551602 1.358357112520021)
(-1.179485759021291 -3.34938401168476 -10.24189746461141)
(-5.058964505370257 -53.0898405977821 1.772102687089854)
(-0.4354307532777062 -1.818389158453681 -1.831956804270064)
(1.552891172409682 0.2209543890431794 -2.363217215452968)
(-1.510470306193658 -57.61769690681592 -7.739890215343014)
(0.006521929870733523 -1.65458278779392 0.9672655007127523)
(-1.536086290007631 -41.0075533974188 3.102802651447103)
(-1.781758512592746 -0.6660771953460656 0.7408998795155652)
(-0.3042368957074689 0.07820853647746048 0.03504136571413591)
(-0.04465052361012815 -0.07408220437731564 -0.2174046493683193)
(0.01793287149503864 0.06720125538726483 0.02786098489385199)
(-0.3751037510193906 -0.02918039150788292 -0.1705754119479821)
(-0.3573311381545407 4.251325079246462 4.757997918136512)
(0.1664687014840718 -0.1781410805332742 0.1440041882829569)
(-1.358588283872099 -51.05631537101637 0.8295338443147231)
(-6.206524326901139 3.88002369537592 2.60432377124745)
(0.05594836759870343 0.06866650321686535 0.05439183827633601)
(-0.008137015637144243 0.0003260669438005814 -0.007623468967729022)
(-7.610603153579243 -1.02562665316484 1.040097274237576)
(5.286129356612014 93.62997613403994 -6.280597739793264)
(-0.270355150323808 -0.05916143410583197 -0.400664401614173)
(-0.0181186377040223 -0.0009204883467457256 -0.01531172744529768)
(-0.3639626717788295 -0.06431332770907305 0.06455105087947682)
(1.082853819866605 0.8291344446826011 0.1205040903476675)
(0.03595279599710991 0.01236144291354137 0.01632065170844092)
(-0.006692699104471239 -0.008282798958352884 -0.01184402246283636)
(-0.02936320208320611 -0.06714312140876798 0.01323927990762703)
(3.345712324754849 81.79143904751106 -4.121924758348511)
(-1.52338375433552 -1.915199326126991 -1.587305893705735)
(-0.0280045382467734 0.025097863907293 0.06341493969099189)
(-3.559780949877482 -2.618996613524624 0.269010158352312)
(3.858415427360137 10.70609998506225 -0.5731967134608955)
(0.001064545137219719 -0.0009495755807503463 0.001816574585315239)
(-9.368221092592497 -16.52799616949917 -1.459094934663519)
(-0.7356435706622233 -5.81484544339668 -2.112338866113236)
(-2.570169413993572 0.1008680435773204 -5.876261947740249)
(0.001944868096934207 0.001649569416309774 -0.00163748366767021)
(0.20236303526109 0.1033141994313733 -0.06013423071800583)
(-3.883785244047813 -7.660948743028642 -2.70401654990907)
(1.141896406749339 1.874971317839837 -3.637909113465852)
(-0.001359739040484278 -0.0001752335973060468 -0.01143229195098029)
(-1.633186237834602 -5.840038088744543 0.01280732593533918)
(-0.002713140708053987 -0.001564483464020029 0.001771711661168107)
(5.738726117953966 2.743723924777692 3.419932122573841)
(0.3322416599964983 1.681046475364016 -40.80633613072118)
(-0.01250289001379834 0.01838355628938846 0.06253093577258681)
(0.345526544804581 -1.374556257618011 -1.135621330127215)
(0.1011606509552848 0.342785922432594 -0.5635898849946588)
(3.765162401969615 11.32290958588667 3.50386439709751)
(0.4404787779846975 -5.940964062622518 0.2625477456141704)
(0.001541509067701704 -0.001751413852387428 -0.002269860704901162)
(0.002570908148787273 0.0006020211941910448 -0.0003855298974723284)
(-0.005833208474822766 -0.01032781134623413 0.0002428340310455575)
(-0.3792675863138847 0.5650128105334051 0.3576469409248642)
(0.1945465301842564 0.1904396741574751 0.116762638650308)
(0.07470526363397889 -0.007891376546849717 -0.1386121807060344)
(-0.04338144200301624 -0.2141146138648199 -0.01418960998829246)
(0.0008592964071792958 0.008475930772125866 -0.01839428637629616)
(-0.04066981186187778 0.1343133791383917 -0.05035493010885453)
(0.00242382354804701 0.002497022069839159 -0.0007863888762148497)
(0.7673835419466121 3.300579536972218 1.393128322705611)
(0.004514152275592917 0.01296533686596298 -0.01655268088788804)
(0.8962344530358379 0.5207801691950537 -2.398151610147555)
(0.3061760111880942 -3.877094535470745 0.967601142361183)
(-0.005484139966923768 -0.02714501733469806 -5.972477424660283)
(-0.4890262599772059 -1.547096124608037 -0.3136683197527859)
(0.2941757553173376 56.01459711425698 3.631544315612989)
(0.1896130932448397 0.8280193029285839 -0.1558901131027251)
(-0.01142324483001761 -0.004526834078197864 -0.00216359147090366)