/*--------------------------------*- C++ -*----------------------------------*\
| =========                 |                                                 |
| \\      /  F ield         | OpenFOAM: The Open Source CFD Toolbox           |
|  \\    /   O peration     | Version:  v1906                                 |
|   \\  /    A nd           | Web:      www.OpenFOAM.com                      |
|    \\/     M anipulation  |                                                 |
\*---------------------------------------------------------------------------*/
FoamFile
{
    version     2.0;
    format      ascii;
    class       volVectorField;
    location    "0.8";
    object      U;
}
// * * * * * * * * * * * * * * * * * * * * * * * * * * * * * * * * * * * * * //

dimensions      [0 1 -1 0 0 0 0];


internalField   nonuniform List<vector> 
19632
(
(5.015373346744849 0.008268756658265481 -0.00948984496812676)
(5.00018624692912 -0.004972554937909631 0.0001349944214193177)
(5.000592733106137 -0.0004794720316317671 -0.000293973954292291)
(5.048785016041015 0.2394859787822294 -0.06287722399568882)
(5.00062843015338 -0.0006117991902445957 -0.003454341163929916)
(5.000657110464438 8.217244121026999e-05 0.00247190830223205)
(5.001739597279151 -0.00251286095241868 0.002384625463066148)
(5.000217000987383 0.0004109839877431136 0.0002295282587159184)
(4.999885669604174 -0.00144052107467211 0.01510022285745139)
(5.025998285261926 0.03141326120493915 -0.0193209028499673)
(5.051171189305474 -0.01575102487986605 0.01582310312550621)
(5.001804990957889 0.0007621263494090153 -0.00057493893952615)
(5.000341471447147 -0.0008788510841565676 0.000373644991288639)
(5.001282940983181 -0.0008987734238875386 0.0001857224778520603)
(5.012721016283663 -0.007464801243281688 0.01931091912279746)
(4.991550980040344 -8.538511649967098e-06 -0.0007480916177392227)
(5.00024151872502 -0.0009630094155569725 0.0006007466448396784)
(5.002572347573598 -0.0008866054589188372 -0.01835576793541824)
(5.000145537989162 -0.0001540502268418787 8.67018448325995e-05)
(5.000619914475583 -0.004569703790583129 -0.000138805585841946)
(5.024895871162171 -0.02159059675564059 -0.003892595037098838)
(5.282320457948483 0.1275478604055564 -0.1301857694774331)
(5.008248868683466 0.004298900959003892 -0.01442289837482325)
(5.000640221289602 -0.001760373753512442 3.00351184725001e-06)
(5.000144010895708 -0.002703016602299847 5.961462953856968e-05)
(5.00008404019805 0.0003584059038782976 0.0002045308171476936)
(5.000395028282067 0.0002391011726565845 5.544630798856421e-05)
(5.037009756902243 0.2915605886192539 -0.5657264498005279)
(5.002866812956572 -0.005193523391970252 -0.001745787791767125)
(5.000353206388901 -0.001098271374217831 4.070824367622988e-05)
(5.000098142909057 -0.0002703496420449333 -0.0001150239949179082)
(4.999668659697879 -0.004352003067767848 -0.004087471983155893)
(5.056279315173434 -0.02001813235295133 -0.04649179741790776)
(5.126741450055332 -0.1439618762538638 -0.3475637809976219)
(5.001921429104676 -0.0004306302489460136 -0.001777158935699005)
(5.000339145686207 -0.0006082469195358576 0.000102072603018272)
(5.000694892518409 0.001018418200567007 -0.001040380315292357)
(5.000367832717423 0.0006060603418411245 -6.787497425857327e-05)
(4.999938938734529 -0.0003942349677455538 2.20890904691158e-07)
(5.018179404225599 -0.01629581022222832 0.005045425887231857)
(5.000047816811988 -0.0001723510792528141 0.0005042687252806736)
(5.000788556889882 -0.002396521499476809 0.002806142724719994)
(5.000209840823099 -0.0005202286173564079 0.0004563621190312559)
(4.983979386176588 -0.03862076715566033 -0.004610764407789243)
(4.999286078364038 -0.0003933484373238693 -0.0004444224632606981)
(5.00028336703552 1.638691563069913e-05 -0.00010190997003013)
(5.000303611329932 -0.000253730224482702 -5.994448150433553e-05)
(5.000431624994205 -0.0003044898218217003 -7.933471608796967e-05)
(4.99906891075631 -0.001266290305510579 0.0009439371414125933)
(5.001820349213037 -0.003099359039241345 0.001469801695839668)
(5.000303113467925 -0.001784481242238752 -0.002488981228054215)
(5.001494701901936 -0.01264776581852958 0.001770767300274033)
(4.99954715316748 -0.0004750235912226031 5.973316380885983e-05)
(5.002795393748236 0.0009088161752642569 -0.0009477717760601114)
(4.999561294214513 -0.00215916003584325 -3.177884713791812e-05)
(4.999504541912771 -0.01377197263001745 -0.0002693471775959028)
(5.001643376933077 -0.001796231868002695 -0.003279895213543225)
(5.001009782324549 -0.00602071929993816 -0.0005103879415245495)
(5.000470257099906 -0.0005881900972176748 0.0003192336236202834)
(5.027350183231614 -0.03947074788602038 -0.0166305916010043)
(5.000137259760698 -0.0059162739276159 -1.692247392261574e-05)
(5.000092120077231 -0.0003327424537559953 0.0002102921042961242)
(4.86752580409901 0.1861679174847527 0.07406368352775387)
(4.460904843852621 0.2857388598203727 0.3881404785125346)
(5.000526266889486 -0.0001480505060353643 -7.049127894743022e-06)
(5.08061999570508 -0.2195584118596761 -0.5983383385277439)
(5.269272510445208 -0.0003709908836358015 -0.04001782689402744)
(5.000750875187927 -0.003170664125659913 0.0003473440988832117)
(5.000816829813425 -0.0005269073567691929 -0.0004959090244774457)
(5.001508982747664 -0.002945735335734338 0.001943511626207114)
(5.012621975367365 -0.003180385947556417 -0.000630551562481118)
(5.000521009988923 -0.0004687508331201551 -3.412701195264172e-05)
(5.000476518113484 -0.0001712464159435121 -2.693920028330726e-05)
(5.000550085079537 -0.0002900467442036057 -0.001149659765874062)
(5.000239563067913 -0.0001882139387169794 -8.545323578046435e-05)
(5.0000008638582 -0.0003965593769032248 0.0001483390404191295)
(5.000252084053662 -0.0001278974794118389 -0.0001140820696390923)
(4.803865738092486 0.04127396116170235 -0.004794300673109085)
(5.028657875364432 -0.002745192367401537 -0.01824005925216729)
(5.03666488782089 -0.007061555060853088 0.01265641830142831)
(5.021467367498428 0.02380826852543736 0.038024993425611)
(4.9545321822567 0.3666758258760762 0.3034281200740635)
(5.001606847750621 -0.0003528686670034828 -2.124862590826243e-05)
(5.000358705283285 -0.0008195301636300148 0.0003359071050228464)
(4.999581084688589 0.0001637087666406679 0.0002046464061851069)
(5.000678352542664 -0.001029967893246872 -0.0007126454324975489)
(5.000584865881521 0.001240211372197541 7.550939904902345e-05)
(5.00034924534367 0.001613041392421178 2.794726436035801e-05)
(5.001792316729884 -0.0005498391445035273 -0.001471803874029359)
(5.003185971680103 -0.0007444491686618456 0.002320125010767746)
(5.033010821946462 0.001932667462275241 -0.02507367182673111)
(4.999888758637364 -0.006314196048142926 0.0003202309602104258)
(4.998830234590321 -0.003392069468894656 -0.0004036837284831396)
(5.025025709944031 0.003407622881455916 0.02768573382996775)
(5.000425029907514 -0.006167064700061639 -0.0002512266615719172)
(5.003778996913326 -0.0005858817701017223 -0.003219345790109554)
(5.001102563014999 0.0003841239403550511 0.00180742011316654)
(5.000780165071364 -0.0006165469924784494 0.0001425542612653386)
(5.000142734918879 0.0008306843442401161 -0.0008204176414774436)
(5.000075412661047 -0.006613610704827591 0.0008283137647619159)
(4.554663540762957 0.2821266901526032 0.512388086106881)
(4.999933694940863 -0.0001888253102554921 -7.045056875517659e-05)
(5.010904883003706 -0.007100453086716555 -0.003154457153296963)
(5.000209340357212 0.0002532854428385133 -0.0003765053285721866)
(5.065808502662396 0.04068860844191153 0.2152496089885561)
(5.032358041804114 -0.0001113817390017037 -0.01048263782519481)
(5.068551674435828 -0.005559497351309945 -0.06496554106053813)
(5.026331787450333 -0.01468638700950819 -0.0008544118754122974)
(4.999986111874847 -0.001935719428044596 0.0002829456722640562)
(5.001026980359036 -0.00322974403071782 -0.001884495872789105)
(4.933767257378375 0.2369070425052286 0.3951567197579311)
(4.998874601227693 0.001129932379513306 0.0001884959306479534)
(5.002063221891042 -0.0004914274770488673 -0.0009906699114940439)
(5.17776826474477 0.04752593700881552 0.09734017367873835)
(5.000161554055126 -0.006446914142142055 0.0002066535751986687)
(5.017482721615164 -0.03855307648349791 -0.04431419383073446)
(5.080558377723895 -0.1189606283100708 -0.7312605388469452)
(5.102311895571821 0.1485920529011855 0.01869953537184726)
(5.000258420963405 -0.001783059072368119 0.000695328534375437)
(5.000045164459506 0.001716625804100791 -0.0004376228069785535)
(4.999912707673394 -0.004014518395896834 2.406770274424911e-05)
(5.003078654632106 -0.0004676974065438716 5.414158450592867e-05)
(5.000210902430624 -0.0009330134611028894 0.0005217871733671013)
(5.000366568191228 -0.0004283925455632105 -5.94267100947104e-05)
(5.196071486669675 -0.05833439116798022 0.05166218588585962)
(5.048799304189267 -0.005882645132669749 -0.03131423875393496)
(5.000390047768579 -6.251817773826965e-05 -0.0002887589560329608)
(5.006097201871061 -0.00121720850503381 0.000178096722842663)
(5.001476309426717 -0.0009864119924388921 -0.0001100378387562147)
(5.000084420910912 0.0003438166774941499 0.0003894338370592933)
(5.00019828200837 -0.0009779046522973263 0.000252276414035363)
(5.000042478656852 -0.0004981299153842168 0.0002810182812369232)
(5.040198492819498 -0.03334077884501197 -0.01420956176266528)
(5.00037489191209 -7.932188532740909e-05 -7.67356244663167e-05)
(5.007113533721664 -0.001027940058876987 0.0005053280547771955)
(5.017466302381492 -0.01263515266865774 0.005043380178103834)
(5.005460267052487 -0.002638377791889886 -0.002312394484089599)
(5.002689771766953 0.001348397419042306 -0.0009720924833457913)
(5.000334316841136 -0.0006140717506466554 1.256299335896274e-05)
(5.002371240921303 -0.007542472237472716 -0.00431920247095704)
(4.499659327350845 -0.03119038221963946 0.3386563502925075)
(4.954457399707609 0.4793813414011097 -0.01566044063708313)
(5.272859360732087 0.4310619928936602 -0.01318367401763323)
(4.120440385631676 0.284779689982678 0.1124629252851991)
(2.938063838613964 -0.9287059913574247 -0.7116507155928213)
(5.00031629740965 -0.0001382330024166227 1.69925684150178e-05)
(4.994932331305603 -0.0009202545336332914 -0.000974019136216208)
(5.005241659621365 -0.003488279672640384 0.0009688746063553146)
(5.014462590006564 -0.000409012878368181 -0.0004250507592133324)
(4.999981828742381 -8.293019341643136e-05 4.852510362563699e-05)
(5.001770870619295 -0.001258076154803745 0.001189289707003509)
(5.001701967417359 -0.001620155605345407 0.001777049977523141)
(5.001675410412484 -0.001029146679105825 0.001186477711079448)
(5.000394642680074 -0.001137467550998142 -0.0003544726390310507)
(4.964249313883857 -0.004102993779147329 0.003924833087610218)
(5.001808356603767 -0.001127452955863907 0.001433164090923785)
(5.000350302783505 -0.0001923712253292209 -0.0002245162385197607)
(5.000455408021412 -0.003897507704759856 0.0001376246242634424)
(5.002258697014339 -0.004744389753559525 -7.256558599017189e-05)
(5.064642585147375 -0.1596048692202297 -0.06539105386652558)
(5.072741494598079 0.1135136286977245 0.5232367612303457)
(5.108896528421467 0.06911849943057513 -0.07488027619124635)
(4.553590159048507 1.005020942811828 0.127189313148736)
(5.241758661706273 0.2213953774056793 -0.08496499546317726)
(5.001215129565588 -0.0005569011680374973 0.002493664354656941)
(5.000572737304431 -0.0006630638776589769 0.001160125505652095)
(4.999769092302009 -0.001061285797373657 -0.0005825966948222003)
(5.003259306471067 0.002609686153434966 0.001704875138281993)
(5.13065508774165 0.3448786036656343 -0.1889703204532504)
(5.002243394247381 -0.0001079372599505143 -0.001075564529696343)
(4.999723024146058 -0.0003730517041192707 -0.00229405844040753)
(5.010466658871637 -0.001973469205417413 -0.003282411316217586)
(5.000918723423033 0.001248266839216863 0.0008036528634911633)
(5.000130578078516 -0.0006953714611978414 -1.049204392593285e-05)
(4.999828134704846 -0.0001489249820200257 -0.0002508428425858112)
(4.958066615192304 -0.008076152415176127 -0.0005213049675677116)
(5.000723227728554 -0.0001652033338204441 -0.0001232266524483041)
(5.012750442485109 -0.002617069763471877 -0.0001247096351679187)
(5.000662368201444 -0.0001726364882018754 3.000489006390476e-05)
(5.000466506719293 -0.000353977585935481 -6.434485044582317e-05)
(5.000013462772697 -0.0001902059240366245 0.0002101741744956115)
(5.000533695297918 -0.0001928739364801243 -3.271267344097393e-05)
(5.000504858762951 -0.0002911990785270778 -0.000107197821130766)
(5.000261451498454 -3.507174620234281e-05 -0.001867834740905781)
(5.000523216726161 -0.003589219450998592 1.658153051036211e-05)
(5.000253552325937 -0.0002642958845574992 -0.0001657642612216451)
(4.99559965662928 -0.001550987398403274 0.000197903916454053)
(5.000235077061336 -0.0003442274873664561 3.998785091928994e-06)
(4.99985007724644 -0.0003832216944608576 7.514740581859802e-05)
(5.000605994335737 -0.0001337919129859153 1.392806499307895e-05)
(4.99977723211465 -0.0002405646727335956 -0.0002509837377063218)
(5.017285987357648 0.001346765247058073 0.001174221109238495)
(5.026548961129802 -0.02489434571170628 0.006318662470829442)
(5.001060598553467 -0.001472473226196255 0.02418874827583643)
(5.00038601594355 0.0005204366760464478 0.0001812864680463009)
(5.000740829692552 -0.000407544003991127 -7.100856717530898e-05)
(5.007962816422579 -0.001087670196563701 -0.0001081618018201668)
(5.00845348173987 -0.1341900005561135 0.1413665804446805)
(5.001575110764414 -0.0007782696508085611 0.0004239113150376198)
(5.001130494115722 -0.00052108898494996 -0.01118649955590471)
(5.000495425240604 -0.007983581718754861 0.0002315618565670165)
(5.011261087355634 -0.006942464164337649 0.001100222004538135)
(5.000185973768835 -0.0002592316925472919 5.961028420076377e-05)
(5.000819875236453 -0.0005465944239188783 -0.001066129358672456)
(5.000392499504732 -0.002055764730986226 -0.0007892390072045708)
(5.001644788013932 -0.003313602896598473 0.01600457580143417)
(5.00004420844727 -0.0004001692388242693 0.00026832367294486)
(5.001275843582142 -0.001801398759487035 -0.001955160028856366)
(4.999917888530948 -0.0002653215964970468 -6.169255660942667e-06)
(5.000506085767816 -0.0003951654764645052 0.0001143087432998214)
(4.99706742154312 -0.006184300966211742 -0.00139506262872062)
(5.000514442251958 -0.0001283633482311013 -8.857794235504282e-06)
(5.000120290662217 -0.0002918370961390013 -0.0001317507359841654)
(5.002427258442844 0.0002117339687127004 -0.002139170403301673)
(5.000286203799386 0.000406703515543467 0.007148208022728347)
(4.999327721007974 -0.0001378938152746699 0.0009680290962300737)
(5.003237863825703 -0.002738397821568054 -0.002628949388697785)
(4.999862228895746 0.003251658398537799 7.327879694435907e-05)
(4.999797059926627 -0.0002325639503781986 -7.345522083414869e-06)
(5.000479673211892 -0.003470762324078763 -0.001771587702837094)
(4.9957616485792 0.002300755229140427 -0.002297226481960666)
(4.999825388288393 0.0006665734257073571 0.000436328352805263)
(5.000268634095296 -0.0006437121511726358 0.0002945439122131787)
(5.000237122585212 -0.0001912558706424782 -7.318223025035087e-05)
(4.987256995178582 -0.001401830045838283 -0.001685505144961363)
(4.999608985323312 0.0008125053169273538 0.0002750889595727763)
(5.000237016307697 -0.001278588976412734 -0.0007786393426396952)
(4.999442010341778 -0.001207809108790553 -0.0004400828686169939)
(5.001882280578251 -0.001257846121850222 -0.0006427271686730521)
(5.00139563026727 -0.0005419274895024064 0.0001720907293433119)
(4.999688808924705 -0.001044134967061222 -9.679082961060755e-05)
(5.001698741837671 -0.0003540553094421367 -0.0002054343581562796)
(4.999679098328454 -0.0002612989388140254 -0.0003281681838451338)
(5.001434517586247 -0.0002393358986577098 -4.633578419371833e-05)
(4.99913877848061 -0.005131887623462603 0.002266512402859623)
(4.999342871519161 -0.0003499562371678279 0.0003373537806210168)
(5.000230658982275 -0.0005232833112915558 -7.273519675959862e-05)
(4.980883676934103 -0.003231564590762203 0.002509225879047403)
(5.013327055512473 -0.004012590862680025 0.00182993264810308)
(5.000389793490079 -0.0006227347069096926 -0.001325178579083991)
(5.000239135610273 -0.0002401056689386218 0.0006084023562910535)
(4.963244364455335 -0.01962648733915696 0.002533998364653284)
(5.01587043057823 -0.01229486424324687 -0.008527644675465101)
(5.000470907020993 -0.0002307763439672745 0.0002366628065427461)
(5.000686093882839 -0.0006115003427334876 7.573147264364192e-06)
(5.000248537837101 -0.001327988082823949 0.001557893497258573)
(5.000372439717448 -0.006943233190527566 -0.0003236061000511699)
(5.019297882785723 -0.005689372621125602 0.002226426512346425)
(5.00030918009196 -0.0001150793464500028 -0.0001220419590202623)
(4.999858296598428 -0.0004299832968168658 -0.000184961819441895)
(5.000452967188101 -0.0001507103820593686 -2.802028890335431e-05)
(5.000068342509308 -0.000424351925048103 -3.544324807012336e-05)
(4.999649722118084 -0.0004672985129023406 -0.000459573493621986)
(5.009357579257672 -0.005279788886105627 0.002375483545667468)
(4.999746501559365 -0.003805691152550615 4.64262483525174e-05)
(4.982934974607774 -0.005445139906028824 0.001989226243868419)
(5.000208706051006 -0.0005571351749280184 1.375058058629307e-05)
(5.01299977538817 0.02784796351071254 0.02043326990414418)
(5.026428352956038 -0.02066210350736395 0.004250280520719061)
(4.998969421564176 -0.002284340281965708 0.0002703378564178767)
(4.991628806074325 -0.006523722479537705 -0.003203163843970182)
(5.000963010333844 -0.002908190637464334 -0.001747345693180059)
(5.00080558666349 -0.0003515902118474273 -0.0003743752879502448)
(5.000922526387431 -0.0005323024181224202 0.0001828127571241256)
(4.999797747313808 -0.0009074933726207542 0.02403695731743023)
(5.000864329836094 -0.0004461756076758724 8.314684507130245e-05)
(5.000950517294214 -0.0005939177616287277 0.0001028345779712453)
(5.000800205027006 -0.001043268736330507 -0.0008420305899733648)
(5.000706751106908 -0.0005474396153515864 0.0001804780876595341)
(5.000151661115695 -0.000240964998479284 4.507264857579959e-05)
(5.001113574115008 -0.0003938059463526942 0.0001197185084422112)
(5.000130396003334 4.235583931663613e-07 0.0002239284777868133)
(4.999572124659386 -0.0005848039011030832 -0.002604988095654728)
(5.000241913722431 3.587083559278729e-05 -0.0001309241181689194)
(5.000809138922782 -0.000915391136365338 -0.0009846190842643257)
(4.999546739825065 -0.001911209905971994 0.0001878346874973758)
(5.003142516268786 -0.003900863528848526 -0.002185786046511643)
(5.002801281279524 0.001085855524638635 -0.002253292155532766)
(5.000351956164155 -0.0002742193596740096 -9.901226769396038e-05)
(5.001315286507253 -0.001493256341445602 -0.001575990734572839)
(5.000396136679472 0.000792047468789916 0.0004390066254883159)
(5.001587980976495 0.0008938421106208059 -0.008666913489827789)
(5.000378100528009 -0.002463726583030624 0.001448900981252969)
(5.000580107789239 -0.0008145698700302045 -0.0001130356703078033)
(4.920365985084241 -0.1094579978142935 0.7120920880151957)
(5.002128352663196 -0.001339598470882949 -0.01248906515732948)
(5.000920927676402 -0.003336460209340246 -0.001929034251574191)
(5.000495817445921 -0.003829958802957079 0.02893106244384374)
(5.001966208738929 -0.0004318387428339136 0.002592995775541987)
(5.000344844301484 -0.003493313330145859 0.0009288750507180585)
(5.000762844467516 -0.0003598123305055777 -5.321153516666633e-05)
(5.000541983245992 -0.0006210239266061068 0.001745001657073682)
(5.000227114998659 -0.000338840201135947 0.0001410401025966365)
(4.999725475271199 -0.000346812343513971 0.0001374818151568161)
(5.00046883501658 -0.0002577383191227081 0.0003651571947775522)
(5.000247238321702 -0.0001036909914690775 0.005660084492774825)
(5.000042874943093 -0.0006903838334837131 0.0006183652564680938)
(4.979418490138412 -0.004639034528077048 -0.001639242336114231)
(4.999801216132449 -0.0008348345008458689 0.0001084980297791816)
(4.999433784030581 -0.0006873861750988995 5.35180053093168e-05)
(5.024265000677097 -0.02781537402324699 0.006335235541727607)
(5.000454809843942 -0.0008377717089255475 0.0004893918969870631)
(4.999831146513677 -0.0008459305150481624 0.0003167257492821457)
(5.000226936607261 -0.0003273796815903429 3.801723933461559e-06)
(5.031820958006631 0.3293991923767228 -0.244414844461687)
(5.001070507833701 -0.002825121851673522 0.002769919742198773)
(5.000686264862516 -0.0004860838207459202 -0.0002951066547891038)
(5.000361633223401 6.516476281961946e-05 -8.629019960821278e-07)
(4.999903125091578 -0.0002726997091614541 -7.981047222456724e-05)
(5.000409682599984 -0.000110539900715344 -8.141162281712666e-05)
(4.448358568446382 0.2134637129999231 -0.2413292720008779)
(4.062291532937813 0.05500570336823946 -0.1250209827783917)
(5.110037297283719 0.138490635484621 0.02074877363286763)
(4.998225631324786 -0.006879804411828161 -0.003427722859393523)
(5.120460818596243 0.2115197215729895 -0.03495006097679308)
(4.146441561323041 -0.3331062339149598 -0.09474738325742287)
(4.106950397379773 0.03609453152978036 0.0814842870101305)
(5.00016574367506 -0.0001343236187103907 0.0001604339708266408)
(5.218538904517174 -0.09038867671674124 0.6672371896441743)
(4.930446479341215 0.0230377164672653 0.4718489933550705)
(5.000194923114241 0.003252683533131608 0.0006139481806644771)
(5.000063774322819 7.417728126377313e-05 0.001421237464038992)
(4.903221412888509 0.008746735374481167 -0.04236178568078824)
(3.081251719969047 1.01569906368353 -0.2732601849973885)
(5.000273462073813 -0.0005161398540468745 0.0001025098478930866)
(5.000973354531535 -0.006199919633525991 -0.0007329137826303475)
(5.00044289959989 -0.0003356544874059695 0.001287712622082621)
(4.842586995608367 0.5303987419627488 -0.1700007224543776)
(4.795613310863957 0.2875641755720186 0.1042658052226884)
(4.976306644368328 -0.004855847830250693 -0.0007751766275711608)
(5.001418543041927 -9.419994344547662e-05 -7.472147598830548e-05)
(5.000146198420196 -0.0001651608002964823 -7.129120073784119e-05)
(4.999944718794563 -0.0005991227625879248 -0.0002890864007352829)
(4.999576794274726 -0.004285793133735669 -0.004994656520940359)
(5.000557912108714 -0.0004662776922501067 -0.003985981737073755)
(5.001443196256133 -0.001495034019618959 0.001540326701089185)
(4.998994500170776 -0.001665907904477657 0.001285512671569695)
(5.171445964601739 -0.0563619119925889 -0.3308748528371147)
(4.986520945018794 -0.001597229490597666 -7.127860366580689e-06)
(4.045029413749553 0.692834347799098 -0.2522065467097714)
(5.000338900105117 -0.001613124374099225 0.0008159106863277944)
(2.864217141202682 0.6574338836976281 0.0751096354009992)
(4.027540860427817 0.1188964817099159 0.6991449127908046)
(5.005089477827516 -0.002687524744398598 -0.0008910193809878512)
(4.380004171533112 0.118421116543196 0.04076433762036641)
(5.004085549999165 -0.001916602435258911 0.0006264608231227219)
(4.912216769576117 -0.001527885803733623 -0.01577925191483577)
(5.001502804435667 -0.00787717996384632 0.005156533587411915)
(5.025042615826474 0.0008794701645243971 -0.001876137796007165)
(3.311276342535759 0.2084474068903019 -0.1891321258320975)
(5.000148255824543 -0.002630534824345704 -0.0002824700935370754)
(5.000131510259968 -0.0007343016096051076 0.0002156484180893555)
(5.003484801765952 -0.001563966833350017 -0.01259128173523907)
(4.234936059070961 -0.5648341073051822 0.07004045257027235)
(4.999432368590476 -0.002390183838122514 -0.000179421056236848)
(5.000246447618641 6.203690906038342e-05 9.835154211406681e-05)
(5.000270530328963 -0.0003686605355263496 0.0001186294514624796)
(5.000077080761693 -0.001064211344031057 -0.0001616902271513293)
(5.001112827802198 -0.000254708032319831 1.113082396357033e-05)
(5.00014572978753 -0.002326329792657623 0.00898352900834609)
(5.021304488608521 0.02619132266883663 -0.004398599564443387)
(5.000207780745011 -1.442751864729962e-05 0.0002014342782051983)
(5.021158409619336 -0.01643483123841902 0.009815706671275721)
(5.001831856641328 -0.001607603520282717 -0.0006237606367385675)
(5.011028709127798 0.002193555499204473 0.001038091332815167)
(4.903777814956003 0.00445313808328772 -0.001747101358076797)
(5.000544901195781 -0.001002220931967097 0.0003225668769503247)
(5.018662451836031 -0.01278637380259042 -0.00144084475421838)
(4.999780350127998 -0.0002898388434857281 -0.0003325094452469928)
(5.014164639810494 -0.007174563425747963 -6.403368288660856e-05)
(5.013690792747153 -0.0143366189459318 0.007678192314840937)
(5.000288691388289 -0.001140994880074893 0.007652863025934099)
(4.929758389389954 -0.0005734601357634776 0.001106696438943861)
(5.000753596136429 -0.00141833482387375 0.0004395682502780438)
(5.000642381194293 -0.001830301931382221 0.0005420054560059177)
(5.005805545412758 -0.00189034987262488 -0.0006132397217719586)
(4.195404213767409 0.02570905547902395 0.3379862846175321)
(5.000289141448111 -0.0001702283322420779 -8.67432430812036e-05)
(5.000333696468227 -7.187858161164936e-05 4.98253416171899e-05)
(5.000586724468562 -0.001651351877167999 0.000681903116056969)
(4.998950559716929 0.05463497339077612 -0.03502382318762606)
(5.00055731507428 -0.0005358670020989877 0.0001524448253851943)
(5.000683028794487 -0.001780693917450491 -0.0006818103636484282)
(5.000264443141663 -0.0002499670545417119 6.255206199249898e-05)
(5.026512830310914 -0.01219029861296998 -0.007402605355949143)
(5.000542353419525 -0.0005863579120100173 1.979371684047827e-05)
(5.000214049761004 -0.0003258524430793961 0.0001899929964843348)
(5.000612160912063 -0.001544525583884118 0.001201777020178176)
(5.026178827246807 -0.01469298688216523 -0.007091654868240367)
(5.000557346935413 -0.0005454851837737666 1.409753249750616e-05)
(5.000639727221469 -0.0005475161466209187 1.196340326959332e-05)
(5.00073927626977 -0.002224766037722075 5.509687566202909e-05)
(5.000744194472027 -0.00205909400417808 0.000358900152065305)
(4.999965568796164 -0.0004575557410510706 0.0002674926984736967)
(5.000466274172013 -0.001248714313291417 0.0003554219870862571)
(5.000661301649943 -0.00121416617344612 0.0003178129367529645)
(5.000605111587891 -0.001190148861388676 0.0003201753830051105)
(5.000474064897738 -0.001461778839708891 0.0001452479762624634)
(5.000254734931874 -8.055948662456128e-05 -3.317842956438957e-05)
(5.000101864980117 -0.0007241461523995994 0.0002345627145671887)
(5.000866443864805 -0.001584849908327284 -0.000841557220260813)
(5.00073852117333 -0.001583357599184642 -1.958613181997657e-05)
(4.992283834442831 0.001500624865492861 0.001817060201181622)
(5.000770026554003 -0.001238435842608545 -0.001282852214066659)
(5.007307241852248 -0.001226264766266121 -0.0004177306452128866)
(5.002444743555202 0.0003039804394072136 -0.0002802352001607344)
(5.000591749549297 -0.0003515138890483934 -6.312604690543661e-05)
(4.999746131080695 -0.001036464885363008 -0.01103686334155967)
(4.750004283465669 -0.01874653014745068 0.05238278083737904)
(5.000438701844544 -4.128960784274116e-05 0.004374657633418697)
(5.024539068067222 0.01356562159483713 -0.01411364671816573)
(5.000500766114231 -0.0007671604095597029 -0.0002812852628689658)
(5.054228424083175 -0.03140042111723126 -0.001833823478950939)
(5.000661988756711 -0.0008998301156381412 -0.0002484383398612979)
(4.998862626295137 -0.003107363009688148 0.004546154855614477)
(5.000101523753825 -0.001827989504821296 -9.703975694467581e-05)
(5.00048011694597 -0.001916229017242169 -0.0005195441658235497)
(5.005274831532606 0.04762418271690115 -0.02980740743510532)
(5.000414946192209 -0.001997945406840977 -0.0002150489811879016)
(5.000253694425064 -0.0002121171935056903 0.001261927781051768)
(5.000618527419656 -0.001861822149535552 -0.0004861871714182467)
(5.000615915341459 -0.0007929759434318833 0.0005430534293055239)
(5.000345297613221 -0.0002520242799047009 -0.0002438844010618006)
(4.999444649431063 -0.0008830756021751757 -0.0006142749444975704)
(5.000036724740447 -0.000886781418809388 0.0005153359592473016)
(5.000218218691413 0.0002132438793269713 -0.0005921276615989964)
(5.000221041564032 -0.0005863745472772023 0.0001182261270261786)
(4.999897825242948 -0.0004586114974551076 6.60972205551652e-05)
(4.998985218492785 0.0008083967326729103 -0.0001757878112221627)
(5.072897602559934 -0.07572443292047526 0.04871196211996713)
(5.000291793157799 -0.0005477493566165268 5.079780122901957e-05)
(5.000238012611576 -0.0005500766447051597 0.0001677802510089012)
(5.000251957475894 -0.0007956621136708532 0.0003494188432770912)
(5.000217547644604 -0.0006297365753368056 0.0002043511241948249)
(5.000464134837083 -0.0004883878221781523 -0.0001239169702091471)
(5.000500890598572 -0.0005577925245774361 -3.043808527541609e-05)
(5.000192952402959 -0.0006631392595108245 0.000101834338625358)
(5.000361439048221 -0.0007723981370889954 0.000385035222450754)
(5.000445214600504 -0.0008542760767879191 0.0005387433908115669)
(5.000331249571969 -0.0008547380356042914 0.0003623089839457423)
(4.999821099304033 -0.0004792176374749452 -0.003923331087088462)
(5.001437690929675 0.001583587419872927 -0.007822065910010417)
(5.000400713782133 -0.0009763579297596934 -0.0003075867632089894)
(4.998517995576197 -0.0009835566256450681 0.003406474030500678)
(5.001317885643437 -0.0008447099477334582 -0.0009698707972665554)
(5.000269760809404 -0.0009816674366301683 0.0003827840713539337)
(5.000331395359083 -0.0002824495184367472 -3.751320036213324e-05)
(5.000607094268678 -0.001156262293177659 0.000863480990706461)
(5.000655752719454 -0.0008776081942974745 0.0002702845548179222)
(5.000640430450649 -0.001006238601506581 0.0005530341599292603)
(5.000597487692684 -0.001216125473367971 0.0009142494118459521)
(5.000338694679128 -0.001021682983379131 0.0005373353996920061)
(5.000514628936406 -0.0003593708471343818 -0.0001099639081513647)
(5.000569762019849 -0.001240582647691867 0.00035716533537749)
(5.000788613341984 -0.0006841287622383121 0.000418246074616436)
(5.001894867779812 -0.003212914944063924 -0.000531881308678136)
(5.000301217211987 -0.0002018043780211138 -0.0001417848980516902)
(5.001168314222661 -9.517376012895249e-05 -0.0003227268956340152)