/*--------------------------------*- C++ -*----------------------------------*\
| =========                 |                                                 |
| \\      /  F ield         | OpenFOAM: The Open Source CFD Toolbox           |
|  \\    /   O peration     | Version:  v1906                                 |
|   \\  /    A nd           | Web:      www.OpenFOAM.com                      |
|    \\/     M anipulation  |                                                 |
\*---------------------------------------------------------------------------*/
FoamFile
{
    version     2.0;
    format      ascii;
    class       volVectorField;
    location    "0.8";
    object      vorticity;
}
// * * * * * * * * * * * * * * * * * * * * * * * * * * * * * * * * * * * * * //

dimensions      [0 0 -1 0 0 0 0];


internalField   nonuniform List<vector> 
19632
(
(0.01284160848273424 -0.002542540893928559 0.006222124997087261)
(-0.002165794760615036 0.000966377920057469 -0.0003163160075861287)
(7.125257154721879e-05 3.668279988355862e-05 8.883052969138451e-05)
(-2.808052149574038 0.5939755092921641 -1.69990098581313)
(0.0003085312894887048 0.002735421981076649 0.0005374932332535988)
(-0.0007848157564737217 -0.001102603783986698 -0.0006501195267886688)
(-0.002719455171316186 -8.36955919525993e-05 0.001685848103620253)
(-0.001572260796531762 -0.0002549247441034014 -0.0001261623232942284)
(-0.002340951369460081 0.001409983574509506 -5.454639792478057e-05)
(0.1079612216509314 -0.07047520914728672 -0.1997156731051078)
(0.07160067613889907 -0.08908607007954847 -0.05538746378673281)
(-0.001244724452272684 -0.0007670064049157021 -0.0001436263764853639)
(-7.861454763724385e-05 -7.387142584579742e-05 -5.440563660284525e-05)
(0.0001108015057626765 -1.794586143928588e-05 -3.127726593831026e-05)
(-0.009975348807318356 -0.006609096408957403 0.01077468981311441)
(-0.0003533052056421841 0.0008465876728466809 0.001198780033462871)
(-0.0002168252105929109 4.217808655365722e-05 -5.232965118042471e-05)
(0.0006110961527404734 0.000371272435260004 0.002255642215358927)
(-7.041943362606434e-05 -4.879273875519438e-05 0.000133517814309258)
(0.0006980289752859907 -0.0001200032280240122 0.0015791882282609)
(0.01785960898158518 -0.000382203194256343 -0.0325853893180222)
(1.166141473147818 -4.197188358618291 -1.974566611667638)
(-0.01985701941852971 -0.01435764918881553 -0.01802123402465634)
(-0.002373505553690556 -0.0004289362911951984 0.002531659262099401)
(0.0009794951123671843 0.0002027019572036166 0.0003853740264101916)
(0.00117279280904324 0.0005704156632028488 -0.001535871704077329)
(-8.525761496944593e-05 7.315992564770403e-05 -3.053855795872505e-05)
(-0.5123324421448174 -2.368346453314476 -4.452174022974267)
(0.003037350079578408 -0.01440221690814674 0.02189637390657078)
(-0.0001106308492216353 0.0001068305396201599 0.0001028922785790102)
(2.593696621762886e-07 -0.0001393128223353724 -3.589390225974451e-05)
(-1.881333153861152e-05 -0.0001016761982855735 0.0001312325675155183)
(0.1952318256099894 -0.08801310440081352 0.04457922465164544)
(-5.915513548508504 1.641733228187326 -4.336678365287155)
(-0.000469708795661183 -0.0002466140018971362 -4.74490175772981e-05)
(-4.434817654956996e-05 3.548426878831528e-05 -9.14128502683624e-05)
(-8.690915303927779e-05 -0.0008151050640712033 -0.001359297353484975)
(0.0003395834735011572 -2.957385568228557e-05 -0.00154389388412312)
(0.0003332562613957374 -9.887501987307213e-06 0.0002041997245665051)
(0.001685027017658085 -0.0004887467479447747 -0.01134108438337445)
(0.001077590557339437 -9.169223050310456e-05 0.0006383867186933413)
(0.0006835388039585521 -0.000249968910727374 0.0001322178740356096)
(0.0008528083049965555 -0.0004226996252011694 -0.0003800555791610385)
(-0.03715177628034308 0.00075759869732131 -0.1168394390472849)
(-0.0005095413224223619 -6.279179704600063e-06 0.0009353647976685542)
(0.0008094640476200347 6.075952239008013e-05 8.89284860772026e-05)
(-0.0001378750043619241 2.686422831437063e-05 -2.809434764289358e-05)
(1.290550028621609e-05 -2.535800944658439e-05 4.417460812482895e-05)
(-0.0003216277884644751 -0.001786410134215749 -0.001944559108364243)
(-8.332522899751326e-05 -4.925684929371166e-05 0.000334976080728642)
(-0.003386846186081606 -0.001438678365367227 -0.001129867100364384)
(0.005050685268632041 -0.001274033068208532 -0.004472166212191205)
(-0.0001618530833182446 -4.696000148233378e-06 0.0003420864474727318)
(-0.0002505392047343492 0.0001209401452234709 0.0003390414025495501)
(0.0005990789224767387 -0.001974152661299258 1.513708935166591e-05)
(-0.004863279579176064 -4.708806648035923e-05 0.002266633759004572)
(6.345745859928544e-05 -0.0005981590953247141 0.0002687056129380674)
(-0.0005063425926761542 -0.0006389864309234619 -0.001054921868022831)
(-0.0003806583617568474 -0.009306692317490704 -0.00539679215698001)
(-0.01770018967889116 -0.006356277162637987 -0.04429448059538915)
(0.003851474703044869 -9.931423386047079e-05 0.0006084837224640385)
(8.410359521538024e-06 8.78219407068345e-05 -7.02864166424809e-05)
(-0.6103236466555009 6.810918033851465 -8.044382607207073)
(-3.554078848746692 -2.559284084181682 -12.57393107351279)
(-5.445053978220791e-05 -5.83765794890008e-06 -2.911511594021657e-05)
(2.037986698823618 4.204519407451104 -0.2245086833468515)
(-0.3211071632930843 -1.357007167998046 -0.6972162965875465)
(0.001529591663810771 -0.0004796967376258199 -0.001759740060836268)
(2.578171536060891e-05 -0.0001800812724101117 7.393938146046961e-05)
(-0.0003534305686947665 -0.000114616659522905 -0.0003331312326311457)
(0.0005261023767376193 -0.001815653208784231 0.001103927061876447)
(-4.017358209914478e-05 7.06302188610636e-05 5.213919389196982e-06)
(-9.466650090158816e-05 -3.324093733085916e-05 0.0001071517305144719)
(-0.001078619019379873 -0.0003448388127394201 -0.0008827701321969651)
(-5.535684958109271e-05 6.490534141086975e-05 4.364721558607094e-05)
(6.566515163957945e-05 2.740456579781556e-05 1.973857950009452e-05)
(1.262176982188427e-05 1.01855110762379e-05 -1.439211350040749e-05)
(-0.02617366429124441 -0.01458808919255522 0.1119729086192178)
(-0.02707194016210195 0.1037219465355858 -0.09753437675168208)
(0.08742113632264581 -0.0165443855130071 0.008832456911108306)
(-0.04973132880176591 0.0131876868747719 0.05959136086515952)
(-0.8685510954941471 0.0329160737440658 0.2046893378946991)
(-0.0002281679934402079 4.319256687662615e-05 9.168194813558567e-05)
(1.434674819430702e-05 0.0001348701833821454 -2.292291155687417e-05)
(0.001310710292440603 0.0002660332605513481 -0.0003315521978513535)
(-0.000169599955457514 0.0004817724583030378 1.92425074409651e-05)
(-0.0002140313412684295 4.03614586789393e-05 -0.001135882510102934)
(-0.000264366792390991 6.206769492081271e-05 0.0006034765563539602)
(7.293493340769671e-06 0.0003315969967319957 9.635452396167048e-05)
(0.0005028364029718544 -0.001198308841247939 0.00253772123075568)
(-0.004888124154442294 8.820125889739266e-06 0.003424966345055245)
(0.002737311534700383 0.0006032702178387623 -0.0004951666990226888)
(-4.799376292125932e-05 -0.0001236471171918827 0.0002081705903919692)
(0.0166843439096092 0.006396450304210963 -0.006556715641095542)
(-0.004082844623878002 0.0002084618641700175 -0.0007543522512479704)
(0.001021860597199545 -0.0009896894023643757 -0.0002092871099722233)
(0.0001595449261939804 0.000190654131166023 -0.001232505070738322)
(2.851041659414068e-06 3.12900330586597e-05 4.644829255481411e-05)
(0.0007203067539903998 -0.0006286011541326645 0.0009438504327554463)
(0.001851209678146357 -0.0004962066470359123 -0.00157649801931107)
(4.667094780870288 11.58546307125454 -0.4314928883254681)
(-7.412624311079082e-05 1.55308183710771e-05 0.0002160357957765778)
(-0.0009636017666668291 -0.003945655225761069 0.003521707949859544)
(-0.0008140695326700345 -0.0001005289527740595 -0.0008027522192078923)
(-0.5187732155284484 -0.3851779685132402 -0.3588069040133064)
(0.05164225237210524 0.3054622228069334 0.3654144953417136)
(-0.1401858519216796 0.4123196787905919 -1.569808490390402)
(0.01325108264431614 -0.004113528365232325 -0.01165518860395512)
(0.002569348194543122 0.0001012925462281319 0.001211987077930346)
(-0.001719466905573091 -0.0006777366436482581 -0.004160285918900868)
(-1.336867027950771 0.1225705592791717 -1.129313524072241)
(-0.001134197067084693 0.0009334917036616019 -0.0009056726928081511)
(-0.0001673574092599827 0.0004702108153420454 -0.0001765555876544825)
(1.119802969664203 -1.354813207462245 0.1631364721798631)
(0.001203122246977296 0.0006056297686349497 -0.004016718948248681)
(-0.2989302412867995 0.02321724111572664 -0.01785062711560076)
(-11.73570717803169 14.67261210791181 -5.129306382741653)
(0.6213403821492898 -0.0939034800746807 -0.764382527530291)
(0.0001347138203006974 -0.0001546110062237598 -0.00026499824153992)
(0.0003410727522661779 -0.0006167735162115782 -0.001289341181618051)
(-0.0008748999342434501 0.0008583807637512814 -0.0004030953069474182)
(0.0001923005879532107 -0.0002012579089441766 -0.0002352100831350472)
(-3.018346701071786e-06 -2.914073679859759e-06 4.223445096697876e-05)
(6.796481515834152e-05 6.142807171931622e-05 1.587665502449266e-05)
(-0.0944275637021416 0.6602062871945313 -0.4400824580413937)
(-0.045544525173862 0.05775797828312593 0.06122421277232982)
(0.0008929144984227966 -0.0002511215687448085 9.689503033753966e-05)
(0.000718606661121436 -0.0004694708025582709 0.0006796219988511559)
(-0.0006643707661123845 0.003348589270537437 -0.00613493608959465)
(0.0007907331823991539 -0.0002186528584319394 -5.448202205805726e-05)
(-0.0001565113448423423 -0.0001006486054405999 -1.77840946328734e-05)
(-0.0001422843717865658 -0.0001320598890209294 0.0002078211167099491)
(0.03792610246511283 0.009226782888421672 -0.005356701621733)
(-8.018900053510523e-05 -4.316781154857507e-05 -3.516451060245739e-05)
(0.0004689024444357373 -0.007362159833340446 -0.01536652138839012)
(-0.016651527488289 0.002405649368084328 -0.009796409491240912)
(-0.000529552863908358 -0.0005634070447833721 -0.0002452819830193697)
(8.443797229588967e-05 6.856997048354979e-05 2.539876957161801e-05)
(-0.0001191178083044794 -0.0001956905473789322 -0.0001250611788919973)
(0.001129273095816724 0.0001708874678409908 -0.0005923065182048536)
(10.31085213438003 -16.28024170896239 -49.27917798541792)
(-1.649451953013022 0.3412443575558612 -8.956495403257634)
(-2.775561129399214 -4.306357002722145 -1.074578420096715)
(3.130581904021808 12.58384490189544 -3.637515049978277)
(-3.550081354549164 8.002453067944108 -41.53956453576907)
(1.781347461901092e-05 5.645207391177436e-06 1.416027881169628e-05)
(-0.0001052422826803395 0.003308487008971493 0.001728891020718125)
(-0.0163506654537585 0.02125554690408081 -0.0388157228200037)
(0.002379465254596411 0.001982723857499897 0.001891377066911333)
(0.0001479818954585644 5.743773361570838e-05 -2.581111776050273e-05)
(-0.0003114812259484599 -0.0001767620208109926 -0.0002631869764697602)
(-0.0006218740303090651 0.0003305557053612625 0.0001871974838569335)
(-0.0009711507131855937 0.0001215921399665838 -0.0001061463510421352)
(0.0009234148856427777 -0.0001271677114037849 -4.61795360496511e-05)
(0.0001817515254773461 -0.02338572920310376 0.0004438295447820482)
(7.566898888777453e-05 0.000181776340602914 -6.22563360220071e-06)
(4.553464270564494e-05 -6.895857291789657e-05 1.820291405159352e-05)
(0.0001075145690700751 0.0003783729159157979 -0.00163607380069247)
(0.0001742680668615995 -0.0005512669904699883 0.0008925663890853474)
(-0.8423198626691251 9.207345920537874 -3.284491115854423)
(-0.4103025016471581 -5.750388708532208 -2.155160745867989)
(-3.630811850718604 -4.730548204062419 -3.355558445070871)
(3.67415551945743 -0.5189079790197711 -14.09325987762371)
(-0.1874212516255993 -1.768731792318317 -2.000811014775616)
(-0.000386059724221752 -0.0003831355811073314 -2.174024381908531e-05)
(-0.002124294955296727 -0.002470524432005589 -0.001896619520476463)
(-0.001045567222945794 -0.0001644178366707272 0.0004272261375746072)
(-0.002200599075858351 -6.894941955633705e-05 0.001336738605956499)
(-0.3641251366770217 0.5363148018768882 -1.670500830346808)
(-5.354668760672066e-05 -0.0001246344907040623 0.0003788650348571932)
(0.0002825979902809762 4.582872869046114e-05 -7.411647359547804e-05)
(0.002648251216424894 -0.001318147077595471 -0.0003994496644125984)
(0.004747161084269685 -0.003111025411831202 0.0005671641405417117)
(-0.000203674971857098 2.956437756942933e-05 -0.0001094363904770301)
(-0.0001083878839699398 -7.149282972338823e-05 0.0003371836138504704)
(-0.0008446593607942105 0.001042163515190459 -0.002109552026113301)
(-0.001552252068446679 0.000198471325062878 -9.253835297496593e-05)
(0.002430267094796963 0.001511900741355111 -0.002543868789930191)
(3.995164039862998e-05 -8.39272195093409e-06 -2.449593818599339e-06)
(-0.0002013999847466524 -0.0001854126481962253 6.551092698373841e-05)
(-0.0002175450426622398 -0.0001326938614850982 -0.0001851660344149443)
(-5.719099123501574e-05 1.493139066514822e-05 3.195545163143741e-05)
(0.0001011174648903427 -7.850759035577385e-05 2.316092235328566e-06)
(-0.000927462168422511 0.003505961592103343 0.0002781743421210892)
(-0.001238745560689563 0.0001069352256051484 -0.00147046167117236)
(-2.148415852206083e-05 -3.515116331662357e-05 2.13140015324957e-05)
(0.001151150754322044 -0.007875366134579148 -0.004423634122853104)
(-0.000482719389641783 -0.0007361333317158618 0.0001244530334923866)
(0.0001272997187234721 3.450076863929224e-05 0.0003909126729362497)
(-3.283655701065395e-05 -3.920695229681197e-05 -2.70913053073492e-05)
(0.0003370984091596715 1.106537951584859e-05 6.784568383594724e-05)
(-0.02815343688252304 0.003415330656343146 -0.009573141769958141)
(-0.007238009613858676 -0.01299296742679543 0.02231350782883311)
(0.008951234443890418 0.003077674222520345 0.0006459937186001368)
(0.0001842042992791315 3.180369290101763e-05 -0.000822910591109059)
(7.126827483155017e-05 -6.198867684702696e-05 2.458451680326765e-05)
(0.001525483422410347 -0.0009769084534839182 -0.0007496331822970654)
(-0.09236612141065387 -0.009326985252656794 -0.6076594081630324)
(-0.0003482422643467455 0.0001713252360446846 -0.0003929706381750111)
(-0.001855931396184579 -0.001705029797774354 -0.000520204587306076)
(0.002764174742274597 -0.000418608771620057 0.001552680423593524)
(0.001910725861124063 0.002195058746304993 -0.002962110232760275)
(-0.0004314589458189984 9.636999934759815e-05 0.0003869900414573038)
(0.003440388203662829 0.000588587152444768 9.089346306673051e-05)
(-0.005114555829975019 0.0006371598424025717 -0.00562231281101686)
(-0.008843309934413063 -0.002297757301586473 -0.0002503680611127364)
(0.0002625754321599885 -0.0002243574896658541 -1.63447172654111e-05)
(-0.002931054054212678 -0.000691243206444316 0.0001555145118497728)
(-0.0001961802908270143 6.821350020079968e-05 0.0002350826160365426)
(-2.508789501102605e-05 -8.301564517914447e-06 -6.653944509366942e-06)
(-0.0004003355175937049 -0.001120969435523054 0.0008929957791395358)
(-6.629498497551411e-05 7.599049703764896e-05 -1.197823590791146e-05)
(5.569602050816618e-06 4.271398088126192e-05 -3.246074120844672e-05)
(-0.0002128084480082483 -0.000422684081006418 -0.0004619218321423225)
(0.002473171237354437 0.001275559017057722 -0.0003395734739890605)
(0.0001519209575085027 0.003990408102532132 -0.0006211372434519691)
(-0.0003422970587816264 3.62065323995087e-06 7.922016119981865e-05)
(-0.004015110294086677 0.0007692814675284894 0.0001680502458521391)
(-0.0002774493178518165 0.0006472615144248917 0.0002722149210965114)
(-0.00160694462029503 -0.002429616613758652 -0.007304488540380876)
(-0.007595824285190328 0.007703993467911627 -0.0007581313095931116)
(0.004691231250091741 0.002079621088972944 0.0001842744785898833)
(-0.0001917758590266911 -0.0001193005220372722 -4.891773018486658e-05)
(9.828425750456492e-05 -7.436645066885925e-06 6.753660056808365e-05)
(0.0008357648177491413 0.000483235531083844 0.005991465157025927)
(-0.001149550301272976 0.0007531493862529727 0.0003401367534415594)
(-0.0002981753015900177 0.00245088749948552 -0.00212916419250778)
(-0.0002717981926178342 -0.0007462971640947258 0.0004454129563811424)
(6.356733746867697e-05 -1.080447137647125e-05 -0.000118478335968642)
(-1.608559399637209e-05 4.950668907288638e-05 5.011988414322188e-07)
(0.0001406435966623393 0.001048306023196309 -0.001434588870770721)
(-0.0003458324597127646 2.267893343731729e-05 -9.485721383113723e-05)
(-0.0003061224160375623 0.0002958131496175166 0.0008089994092885044)
(7.175095517694327e-05 -6.843351124844691e-05 -4.573772642647423e-05)
(-8.549769208009942e-05 -5.859941919535106e-05 6.400574206048067e-05)
(0.0008746902002094868 -6.234342986091987e-05 0.000859179661052738)
(-3.632089931253839e-05 -1.659173121106385e-05 1.535870070773553e-05)
(-2.539874475681442e-05 -0.003653601851000911 0.00106197361028063)
(-0.002810712793534946 -0.001043022783426845 0.0002069417140066693)
(0.0007671408038084504 -0.0009952504067362892 -0.0004503287014774265)
(0.0003544633327979844 0.0001411854829588306 -2.317747560604016e-05)
(0.04855466647369927 -0.002248001995571059 -0.03551479009121851)
(-0.004083589765431694 -0.005508193270212883 -0.000735173508776847)
(0.0005843970285268026 0.0008069304032545746 0.000940177471998045)
(0.0001280343578178055 0.0001129538291318222 -0.0001082123801549289)
(0.005738677950750197 0.00296680259312816 -0.0006274504767895178)
(-0.0006750354633308258 -2.947260604119258e-05 0.0009670892298084301)
(0.0009432883209156955 -0.002971246470402585 -0.0007949431981627192)
(7.970588614358886e-05 6.7864142007791e-05 7.683094918796675e-06)
(-0.0002097461311858277 -2.013232841675258e-05 -1.614919665700989e-05)
(4.531947746429831e-05 3.618132968186162e-05 -3.653881329358133e-05)
(-5.368571398024083e-05 5.098236418975493e-05 3.10165957274812e-06)
(0.000187022691388091 0.0008024187041313037 -2.684242984190302e-05)
(0.00299524267151739 -0.001742089676296384 -6.3446661423341e-05)
(-0.0004795220059767298 0.0003391132827473103 0.0003429075419963521)
(-0.007213365827198333 -0.0002713070899290771 0.005317633805555039)
(-0.0003770673232392919 6.235850742660242e-06 0.0005279051650469377)
(0.06196161164316505 -0.01189973821395759 -0.007692642052727631)
(-0.007581024405434737 -0.01070955785904533 -0.01401482153372027)
(-0.0004070762716413375 -8.347171483252586e-05 -0.001346840121520818)
(-0.0005314449673730229 0.002304037844373522 -0.001695158570187168)
(0.0008405281946299155 5.949237540216955e-05 7.5027609065643e-05)
(-0.0003255544036486267 0.0005839366200605368 -0.0003113089618626304)
(0.0001254139947051249 -7.489078723710211e-06 -5.821007962026208e-05)
(0.002357591062522993 -0.003539938781196848 0.0003216105329021838)
(6.715084811318417e-05 -6.53270473387995e-05 -0.0001210692828970049)
(4.973511320612646e-05 1.537316846623268e-05 2.534806137352028e-05)
(-5.536341354574606e-05 0.0001461779112333024 -0.0001151063005772186)
(6.868345825314228e-05 4.985553778818461e-05 -1.101991034837586e-05)
(-6.623846364012397e-05 -4.872887388448631e-05 0.0001144551108777967)
(-0.0001865548607946218 6.786155480049092e-07 -3.118842427415018e-05)
(0.0005378734195938481 0.000162886072445339 6.948962804458934e-05)
(0.001144110999574093 0.0003953038833422234 0.001529223212812791)
(5.345583409351505e-05 -4.707830916349413e-05 8.518673885605471e-05)
(-0.0007320592728464165 0.006432088895347452 -0.0007046971713268095)
(0.003956082248888852 0.001259621081720586 -0.005462385092601454)
(-0.0004016842249244683 0.0001041608020865621 -0.0001844299999357472)
(0.0004470319230543634 -3.220214110983291e-05 0.0007752580238915306)
(-2.027562586811357e-05 1.256108266731986e-05 2.212113776226417e-05)
(2.040192285311459e-05 -2.442298054586441e-05 -0.0009018705313728144)
(-0.0001255642277592867 0.0003738318653669335 -0.0007798044909801441)
(0.001877114061749627 0.00140338907670584 -3.684811388541078e-05)
(0.0003819761492884161 0.0002022921346331197 0.0002530473906872465)
(3.490488345116485e-05 2.011392304784565e-05 -7.609758999652263e-05)
(0.2907819095457832 3.810135614175378 -11.13888087597355)
(-0.004685683800493425 0.0002381990444357642 -0.0003036321758481813)
(0.0003799576507663052 -0.0001384292631405952 -0.0003313764803039042)
(-0.009200578055217229 0.00376422051506207 0.0002560622957717193)
(0.00156325795254803 -0.000671361541277968 -0.0001089117267916406)
(0.0002239574770432651 -8.726906482891663e-05 9.279619083068301e-05)
(-0.0001988202448303624 2.299935193272735e-05 -7.350533983362531e-05)
(-0.0005994657712393569 0.0004915716395154753 -0.0002939798517302202)
(0.0001637720153531842 -9.971849206183671e-05 -0.0001741188607007017)
(7.938001426001339e-05 -5.90812169025907e-05 -1.079189194509063e-05)
(-0.001773362798390959 -0.002698493752406791 -8.18767306635031e-05)
(0.002315581194320071 0.001512395824126952 8.697210136156226e-05)
(0.0006845039490556201 0.0006590445624984232 0.001499139545208637)
(-0.008697990827988548 0.01901837897630667 -0.009595810809103477)
(-3.111825564862995e-05 -5.748637239161394e-05 -1.594859274163094e-05)
(9.118106818541285e-05 0.0007451347769114491 -0.0004251258704604963)
(-0.04548169982666328 -0.01129158862411092 0.002903420969358871)
(-0.001245095934187158 -0.004160871305625873 0.002393185593659964)
(-0.0001276053248113057 7.78291954714747e-05 0.0001087673473360437)
(1.615160959714754e-05 -4.873599133370469e-05 1.258021339030542e-06)
(-0.416236832050201 -0.9837242273923938 -0.02808145725421957)
(-0.0003780644728913172 -0.0001228118873483302 4.676845024477211e-06)
(0.0004239245243086688 -0.0001394886938325901 -0.0002555571688895646)
(-0.0001465521230699979 3.474845661386953e-06 -8.429592801130846e-05)
(0.0006754916784541559 -0.0004389613562029853 8.528245918410232e-05)
(4.949366864913702e-07 1.658790104756085e-05 0.0001276180264581009)
(1.499364142491414 -62.61610687530252 -5.32325854799215)
(1.065625631506947 -56.6338479950553 -4.158735990787465)
(0.416424590248098 -0.005606737518840832 0.1098014657082286)
(0.001213950540664791 0.0001780789744954574 -0.001108291852332783)
(1.396517242687296 -4.246196861537584 -5.780619316433238)
(1.164556303427794 0.1946073371488848 -7.672256355699655)
(3.074077362237548 -57.09850335182447 -6.370572915721666)
(0.0004250589811975858 0.0001170606759907218 0.0002609794280541236)
(2.7396256585978 -7.686920300354477 -4.810824560521594)
(1.652483952967372 -7.389585919843011 -67.76403974934343)
(-0.0006758923621924681 0.0003540340197760724 -0.000709856385298531)
(0.0006421706466560234 -0.0009460566076353331 0.001479603501140415)
(0.02247652086948659 0.08730964375056632 0.07244492825253214)
(-3.831826029806318 -1.2395409473519 -50.67582725844336)
(-0.0001045315772469778 3.68454141558112e-05 3.725824046976065e-05)
(0.0004600369119223912 -0.0002522646812211643 -0.0009426682138139484)
(0.0005173960253725551 0.001613548415582673 -0.0005945876524432957)
(-3.227036054946054 -12.22023921681223 -8.93929366489308)
(-7.851024593272246 5.733906298673864 -7.985683269885588)
(0.0003295296641243165 -0.00237657920944712 -0.003155793988787461)
(1.061594750556602e-05 -1.507480114963514e-05 -1.573896904808705e-05)
(2.911106430813924e-05 -5.917492611841703e-05 -1.198707149314071e-05)
(-4.223066124519947e-05 -8.532787720081835e-05 0.0001910148399894727)
(0.0009824425033750075 0.0008542615717446217 -0.0009660348271472159)
(-0.001699278255663257 0.002454485845046436 0.0003714590335686115)
(-0.001679183329638551 0.0008467384154165557 0.0004679669022489231)
(-0.0003725105257327772 -0.002357761285370292 0.001430193471891698)
(2.755207160041564 6.796874967781673 -5.81962913759892)
(-0.000419715508492844 0.00325729227083758 0.00164151459065343)
(-0.5210616466251273 5.127851555718084 -60.09975244452987)
(0.0001134590565288438 4.70444313910418e-05 -1.323906649031676e-05)
(-3.18021250981378 61.4494645786094 2.9673268659462)
(-2.025689541899571 75.37803710837461 -10.54106785387683)
(0.0009286320486826774 -0.0001736078443105569 0.0003766121467934768)
(0.9220493958559132 6.199516459541481 -3.665166987050056)
(0.0007426133817137226 -0.0003144797955897621 -0.0002557538277732152)
(-0.005896781297660244 -0.01214487097312077 0.008840699800389385)
(-0.002348742422267788 0.0009021085365832964 0.0002342302827718084)
(-0.002703297243269544 -0.01958796354148686 0.04049422042540149)
(1.568728333212865 44.76087981641935 -1.695731623976849)
(-0.0001224662518375675 0.000231760780779289 0.0003898860806875278)
(3.928647438112735e-05 3.682149441495218e-05 2.62619866335226e-05)
(0.0032165731796577 0.003262685896720918 -0.0008642567701432351)
(4.152701347897043 -5.170186497984201 -3.41902669658334)
(4.433912174999139e-06 -0.0006669643444178656 -0.0001363362221979646)
(-0.0002221847452407555 -1.078498964902622e-05 -5.466463061627052e-06)
(-9.18945335195394e-05 8.063628545852094e-06 4.044365280731233e-05)
(0.000344869477520749 -0.0004382549728434605 0.00070700878782226)
(-0.0004200791031474797 3.158559954261986e-05 0.0001027998974440954)
(-0.005604683733419216 0.0003034523726505312 0.000534409312367536)
(-0.02020782692594246 -0.0077240425825856 -0.05081710801250975)
(-9.611908630605516e-07 9.995279563245446e-05 -1.346382285292761e-05)
(0.01419606478612979 0.001986378734659937 0.004163770014509556)
(9.774397799777123e-05 -0.0002047858961996098 -8.05864838245771e-05)
(0.008611134687404673 0.003790948165889665 0.05758330584680868)
(0.004624092870728368 0.02540208960925466 0.02148127032125287)
(-5.526605368384252e-05 8.366733375655372e-05 -0.0001225118508792239)
(-0.009753286928277819 -0.02073226319881374 -0.02684741748285606)
(-0.0006830466284192274 -0.0004188169428368076 -0.0006800140862466218)
(0.01304241941421995 0.02189549291338741 -0.04213753694926309)
(-0.0001672136153612464 -0.00663652110552421 -0.01476275209527319)
(-0.001148640946550028 0.001777205932175666 0.0002042437533746184)
(0.006209350093141946 -0.0004068759358468273 0.03823568501698935)
(-0.0001983115996546942 1.695718145994839e-05 -0.0002245178095091638)
(-8.587629239255302e-05 -5.553033149234846e-05 -3.164215501303521e-05)
(-0.0003744539464334373 -0.0003082581441901819 0.0001958152322991501)
(-1.237464323037931 17.39827719462748 8.483610362396607)
(-2.741102208593936e-05 2.409733814722505e-05 2.209224687944782e-06)
(0.0002902170547780668 8.971801022330274e-05 -8.026118093613688e-05)
(4.664068254101554e-05 -0.0002081592413116342 4.410823114808008e-05)
(0.08748633749581042 -0.05472210771292254 0.05531615161075389)
(-6.861108171292152e-05 6.663191191866766e-05 -1.944259915097952e-05)
(-0.0001711863750716191 4.335525475465365e-07 -0.0002358207919945705)
(5.595244312480853e-06 -1.657248265343927e-05 6.743736166694699e-05)
(0.01456480519888232 -0.007381765950041278 0.02813439231702994)
(0.000135851502965211 4.058714232241283e-05 6.606781795608695e-05)
(-0.0001342129729159002 0.0001230875843168714 0.0001328227313630856)
(0.0001921902738017798 0.0002645633137299201 -0.0001359185167034907)
(-0.137027614864518 -0.01571941431999019 -0.008907831005024795)
(-7.588325219455034e-05 -4.036598321334366e-05 1.338528107793042e-05)
(5.807876220145336e-05 -2.894810857245956e-05 4.05594281283676e-05)
(0.000410497563135974 0.000775705050463699 -0.0001993308635273401)
(9.25832973483005e-05 -8.468395300061773e-05 -7.761544784761851e-05)
(-6.325205650205947e-05 9.873477654243827e-05 3.535158555036905e-05)
(8.233163752233758e-06 -8.041900170535686e-05 6.646635559220412e-06)
(5.949818404011452e-05 -5.020023666135117e-05 0.000137904509436547)
(0.0001505352479699664 7.125460738064152e-05 -0.0002397822949666306)
(-0.0001285260606145722 -9.583488879495215e-05 4.033480878763335e-05)
(1.135661995465206e-05 5.288306101818938e-05 -2.756922775501353e-05)
(0.0002810814114425843 8.001697670821339e-05 9.382525290633442e-06)
(0.0001758768701886515 -8.346217677130687e-05 -0.0001528014278252093)
(-0.0001744460356072678 -3.076062977811496e-05 -5.641181473536569e-06)
(0.00274300856184097 -0.005528421849084217 0.02317914089190402)
(-0.0004551203876838802 0.0001118843299298276 -1.564906575584663e-05)
(-0.0009797685421585689 8.288033572371708e-05 -0.0002464604711335434)
(6.904064665768949e-05 -4.211952869219226e-05 -0.0001420620167024911)
(-4.789513779920126e-05 5.3609528974734e-06 -4.504051664190735e-05)
(0.001098395123198698 -0.00137298154267428 -0.001044896997433387)
(0.003513407677350587 0.0003935954989806936 -0.00634839265954926)
(0.003461653112232231 0.001163194326147039 5.163377179034562e-05)
(0.05777097635895154 -0.005232658043391387 0.01102262280154445)
(0.0001056637005423479 4.586961190556786e-05 3.069924640617531e-05)
(0.07492924121133525 0.0002184333926936455 0.009911224828592517)
(0.0001645619396410597 -0.000299572914424579 -5.962715231418079e-05)
(-0.01411005897903774 0.005920933496081013 -0.0001137766609722987)
(6.521368798981913e-05 8.599945351790265e-05 -1.829569169087251e-05)
(9.007029600620052e-05 -0.0001620684644586042 3.904030302484814e-06)
(0.1320567499943796 0.02485256162484714 0.01855413028024852)
(-0.000116206007882899 9.958235271292779e-05 0.0001167257462168159)
(-0.0007832445807467967 -0.000324882325818093 -0.0003000278506008233)
(-2.734092658574421e-05 -7.628564338211952e-05 8.695600530552703e-05)
(2.031689763313492e-05 0.0001150666755160903 -3.985438629236824e-06)
(-0.0001263341193692189 3.526401376204181e-05 -3.631233966499078e-05)
(-0.004202336476861152 0.008729711176791723 0.004623031180743102)
(0.00012420845815041 0.0003792290192459046 5.771422832686689e-05)
(0.001726310229368257 0.0002572946353628957 0.0005144763048727411)
(0.0001010030261107476 2.234508578798451e-05 4.04403485812501e-05)
(0.000250673087150141 0.0004567481407215704 0.0004593082897758573)
(0.001110667741083134 -0.001214139243376482 0.0005213430074720715)
(0.02123489125144909 0.1015397943996894 -0.2788083466798276)
(3.60921265287217e-05 -6.48052725593811e-05 -3.497080881168536e-05)
(8.020711348743538e-05 -4.780584439772098e-05 -1.618990386408531e-05)
(2.415129825755465e-05 7.158549054023133e-05 6.984005461507157e-06)
(-8.318102924645912e-06 -4.958174718613334e-06 -4.417842857417286e-05)
(9.671806288825492e-05 8.724243474273498e-06 6.071615010986294e-06)