/*--------------------------------*- C++ -*----------------------------------*\
| =========                 |                                                 |
| \\      /  F ield         | OpenFOAM: The Open Source CFD Toolbox           |
|  \\    /   O peration     | Version:  v1906                                 |
|   \\  /    A nd           | Web:      www.OpenFOAM.com                      |
|    \\/     M anipulation  |                                                 |
\*---------------------------------------------------------------------------*/
FoamFile
{
    version     2.0;
    format      ascii;
    class       surfaceScalarField;
    location    "1.9";
    object      phi;
}
// * * * * * * * * * * * * * * * * * * * * * * * * * * * * * * * * * * * * * //

dimensions      [0 3 -1 0 0 0 0];
oriented        oriented;


internalField   nonuniform List<scalar> 
37423
(
-0.1070219093051535
0.420063161955297
-0.4553240517344181
0.1422827990115857
11.13106291666813
4.36629628079774
-15.49735919736057
1.573385983958047
2.852758211179484
-1.491298056967399
-2.934846138409221
0.6042008018135098
-0.9656794370456868
0.3614786349627497
0.1128577414969993
-0.1662948799547581
0.03327649846443403
0.02016063996949757
0.03258735251702918
0.1525656293548741
0.30779204862003
-0.492945030556826
9.145017137015836
-4.558326381101221
-10.87996824102101
6.293277484925051
-0.03703414059062734
0.03898810040074015
-0.003349115877370887
0.001395156011454376
-0.168157507394128
-0.00923617208330612
0.3453686457449788
-0.1679749663829347
8.65104798353474
0.5725880909389693
-0.4826669362754084
-1.392312583452445
0.448775506764619
1.426204012877342
0.2830541146667105
-0.5477246199664315
0.7591369691781867
-0.4944664641623709
-1.138939578281884
1.333232751482859
-0.1942931732897768
-0.4449487418217991
0.4779032913851401
0.5996386060229524
-0.6325931558369706
-16.14446473361775
8.621857895226038
-0.06485778346571866
0.008584030346910814
-0.1189839853034628
0.1752577383666503
-0.4174298545144235
0.785161211140076
-0.08467724213498379
0.1803347960541136
0.04151494164542983
-0.1936334319894202
-0.0282163057656669
0.09714589497690015
0.02786786334906748
0.003529528810824912
-0.1285432872028232
-0.01557935993207989
0.05184901724206036
0.02511804251848775
-0.06138769988759962
-0.2233130113749096
0.3784476195536922
-0.4222372097799035
0.26710260151378
0.396129028817781
0.6901440749444168
-0.2718665686230478
-0.8144065353403293
-0.1128951359940325
0.1250468379730956
-0.1064645664608863
0.09431286442060836
14.60058294904678
-17.47065065434278
-6.228074037104287
9.098141743156194
0.6057593210024885
-0.08906952295142967
0.08857971630164863
-0.6052695144738511
-20.30322830899345
9.17401449344572
11.12921381559439
-0.1314980642542227
0.165517449499873
-0.4514492399128174
0.07002316977250239
-0.07102944535567114
-0.1552564295057086
0.156262704964552
0.1690991590772307
0.008904236226418547
-0.1787487217528344
0.0007453263732372113
-4.280970231938488
-22.25004050422342
2.623003558071671
23.90800717928454
0.2204791014616905
0.3972901971262514
-0.1597450355328281
-0.4580242632047984
-0.08750884838788213
0.7041169786074918
-0.01501697269205095
0.1087536427288605
-0.1063961122490615
0.01265944214803496
0.06079951737379422
-0.6368960971495484
0.3296965187220744
0.2464000608951136
-0.01765273888424251
0.04894573981320863
0.09301740665340261
-0.1243104076556825
-0.04079737831147192
0.007098006695396101
0.127629141092383
-0.09392976951555466
0.4656508810995312
21.22221686119862
-19.25742064295667
-2.430447099374077
1.695225241649343
-10.55541034946741
8.337017651283755
0.523167456783013
-0.02445687139176252
-0.0516248343966955
-0.09597775265152776
0.1720594583730051
1.238527948905316
-5.915851774906755
2.652657635086722
2.024666190535178
-0.144575774059532
0.01713721042968746
0.142332633560994
-0.01489406998221627
0.558931651685763
-0.7018689622009417
0.1912795705470651
-0.04834226010996437
-20.99835085971274
3.737159229130048
7.123981849841948
10.13720978112606
-0.2185467870320245
-0.9202912971490899
0.999048118972325
0.1397899648762272
0.3438742612029544
-0.006530506322119252
-0.3827463934446871
0.04540263846808591
0.0497712503883602
0.6416421013088353
-0.08946327678154849
-0.6019500750900673
-3.555596660860342
-21.56396448642911
22.48912946782132
2.630431679528723
-0.9769043053844942
-0.683841186336767
0.1745610594146908
1.486184432252311
0.5166384655812902
0.2480925546994468
-0.5247930751577987
-0.239937945280157
0.4048314798387863
-0.158607391339357
0.3918115419898753
-0.6380356306371036
-1.560991760988772
-9.243538836622196
10.80453059801284
-0.7403476838820897
-2.761889224258687
1.09587871650381
2.406358190524613
-0.274762254957138
0.5920848863436798
0.03273620124626624
0.1882068966351474
0.01471372605177572
-0.2356568239620802
-0.1319642511565993
0.04590165088616478
0.1072178803728984
-0.02115528013940285
-0.493411533178184
-0.1143131793123589
0.09292974111529616
0.5147949712038765
-0.06046630711387925
0.5615780313805662
-0.8623363443112673
0.3612246198661461
0.2797461621566428
-0.06990581272787227
-0.02620989847558083
0.01719950637334211
0.07891620480815464
-3.189631428095399
-0.5817677057413881
-3.114457775401187
7.376903901135888
0.03194936596872835
0.03103947296725306
-0.02553097240648624
-0.03745786658504825
-0.01615242251442385
-0.07063405276900968
0.0015067922495545
0.08527968299794036
0.4042424692234665
-0.3806652585457178
-0.1394496260353389
0.1158724153007339
-0.3163612111641257
-0.1434344941722807
1.149939780092117
0.03785240964083075
-0.09847472250096234
0.006953312794717394
0.05366900003720738
0.1092183204827104
-0.2962425051134756
-0.154085009267124
0.3411091937936548
0.3587591199153017
-0.7892330799865791
0.2167079253624175
0.3487045636128316
-1.143492749194042
0.5780802601070768
-8.53566839311247
3.902915780688863
-4.808649852824762
0.08188379546189747
-0.04697135647180439
0.01171643138475965
-0.0466288704253149
-2.382556945999023
1.016583777969957
1.116194758104339
0.2497784096678592
-0.5349744144062943
0.5301331715531359
0.09536299520279681
-0.09052175252880518
0.0225841620377795
-0.2853048676888227
-0.3621282355789512
0.6248489411607965
0.1136181837877751
0.07459112848410906
-0.1558613949196939
-0.03234791744313122
1.643782671732733
2.974796011988618
-0.9141856486418433
-3.704393035778604
-0.02714733676073589
-0.3685372712136861
0.6865824847234409
-0.2908978769921596
0.5516399611692545
-1.901307700333518
0.4854247346932427
0.8642430042767699
-0.01227018561144433
0.006404017112516739
0.005866168470958041
13.8924534857937
-1.237220753725938
4.80335599197262
-17.45858872378996
0.7744221717017529
0.05724641269895576
-0.01307471677799202
-0.8185938677459768
-0.1860059589657127
-0.5238436179707703
0.03475026138567873
0.6750993154226023
0.2838928904910218
-0.1309078147065705
0.116711518775381
-0.2696965946756347
-0.001857440969263366
0.05637839222888521
-0.05296752412285324
-0.00155342711455692
0.03907991061537135
0.03009715323001376
-0.06917706386952865
-0.09092269857086635
-0.5315254704150091
0.3476859139517059
0.06512449703493174
-0.04101422666658563
-0.1113101888386651
0.08719991844180958
-0.04344120041452929
0.04482712425460391
-0.001385923948767625
0.06266658607969824
0.431336813187
-0.06055499270412931
-0.4334484067242215
0.03809338138972358
-0.02151215842272067
0.07169640653482709
-0.0882776295318325
-0.1126383894330474
-0.2356969275762639
0.4575536374295735
0.2982199750011632
-0.01356816739577237
-0.032084578171294
-0.4618162901212379
0.5354393286834244
-0.04153846048777476
0.161764840816283
-0.0260072829258202
-0.1669624708668713
0.03120491289065809
0.01367003986394219
0.04529758215065772
-0.02014672359061525
-0.03882089850552226
-0.1245074659065774
0.5300424291862776
-2.063660014204471
1.658125050509479
-0.5967177191031946
0.7664693339112425
-0.1355667711492189
-0.1529992715650206
0.1337966573121867
0.4492360706273175
-1.165214134349048
0.5821814061889156
0.4673625391741985
0.008796810850951563
0.05581119378964359
-0.05152408873816592
-0.01308391596891614
0.04172780666600189
0.05101183323913579
-0.1889992434547554
0.09625960347456808
-0.6164726227267899
0.5901436828457965
0.2288175870824178
-0.2024886474066427
0.08495283255322093
-0.03980310772431797
-0.1092099391845798
0.06406021436066597
0.08739471254036874
-0.04662784347366777
0.4724477232114964
-0.5132145923508034
0.03723765130325656
-0.06257642094601699
0.1062781141850448
-0.08093934456775805
-0.1041431460857054
-0.1460676374388274
0.3796282149195389
-0.12941743143638
-0.3213641742356869
0.4754202786992692
-0.2581992505755569
-0.02355831867211141
-0.04132160225320111
0.1237357680892265
-0.05885584723414757
0.1208813370949311
-0.04584984090184908
0.08640332097146733
-0.1614348172156709
0.09871899663461109
-0.006548896707074328
0.00633750712481534
-0.09850760709060491
-0.03546010229763458
0.05085148738747029
0.1204755961196809
-0.1358669812626851
0.4013087269097375
-0.5545457067446394
0.1217288205486556
0.03150815923426272
-0.398276137274739
0.6379534521494403
-0.1996817784716118
-0.0399955364932621
0.06749686576237024
-0.2170412113619392
-0.2017998669585547
0.3513442124551361
0.03344141331714569
-0.02006835913384834
0.05740021434858391
-0.07077326859919839
0.6112364695254017
-0.3525903179663784
0.2860788561172269
-0.5447250078843758
0.093640962194318
-0.07844891191695971
-0.02464758113154732
0.00945553079967662
0.1184128544949432
0.3136027537500274
0.0353469307999805
0.4554652447403941
0.1930807812396514
0.6936184882336957
-0.1144665970030962
0.21156114826288
0.7808143621815435
-0.2987570223123182
-0.2079563053106149
0.1108932360236888
0.1860173120756338
-0.08895424289220112
-0.5053267112772274
1.310292811834991
-0.5568637209372668
-0.8968635852185234
-0.03121553342465785
0.08690678978341534
-0.02117558115385958
-0.03451567531853542
-0.1439236803839922
-0.5158503518552457
0.3532780926231571
0.3064959392147674
-3.158139788839415
-3.017394429787059
3.79854568459751
2.376988534391085
0.3029212793285
-0.2733988296842966
-0.5607184687270232
0.5311960189265741
1.825691077628485
-0.4055808941608022
0.4821196983444543
-1.902229881916267
0.3496281819078524
-0.5304556097265282
0.2416269450987399
-0.05829798344337192
0.3306445751591952
-0.5375255063752168
0.2651789145968453
0.1209260012752339
-0.1252600887853959
0.06235085924567799
-0.05801677181985589
-0.1241588464562684
0.03911646599478417
0.3166821225495943
-0.2316397421491082
-0.07404274792889756
0.02113209652470525
0.05767750754130503
-0.004766856157315193
-0.1987089692695126
0.0006119842839572888
-0.008028961337528367
0.2061259462974227
-0.08964296437765043
-0.493604217661462
-0.01255143202370337
0.595798614027874
-0.1442537693316178
0.1049270700228071
0.03932669923960926
0.2230958695355007
0.0239116451641231
-0.167249731019289
-0.07975778381701615
-0.01907571156317776
-0.08281923216135978
0.125410160865448
-0.02351521724137577
0.1969968747301798
0.06807481751237125
-0.1088217615654555
-0.1562499307129122
0.3095382190882391
0.207078248292477
-0.6754164207173923
0.1587999532003034
13.66563742274093
-9.138880167144778
-22.50292609467076
17.97616883945786
-0.5900932136726789
0.02013618348784408
0.6172884912175886
-0.04733146110920014
0.1190323821813182
0.02679321725206218
-0.002536327165610671
-0.1432892723812466
-0.07047578851236747
-0.5348257149020837
0.6101613802436209
-0.00485987704154788
-6.845743194288516
-5.452978317330285
-17.28217721675571
29.58089872916954
-7.743751937178801
10.98881034588879
4.234295484072919
-7.479353893176271
0.08649062168517595
-0.07658435075621485
0.04440173226209755
-0.05430800325858862
-0.4775825380757739
0.2269148039354831
0.07667843213783039
0.5349745111960009
-0.0946286984268135
-0.5170242450680015
0.2353492312052804
-0.1213703656177627
-0.2600465031072999
-0.2978833456735089
0.4970181822385265
0.4408258613218551
-0.6399606981791631
0.01578515821184429
-0.1520419185139374
-0.450606197653263
0.7588054943526223
-0.156157378321415
-13.67450212393492
6.121462949328123
1.142823539094843
6.410215635754307
0.08055217299465857
-0.005373570401162217
0.1709442273211442
-0.2461228299572107
0.07579031960134427
-0.06820571133205
-0.007584608329401945
-0.2452961023330373
-6.835299492435824
7.080595595182097
0.389772363035701
-0.3673213345331045
0.4790401954833036
-0.5014912240890183
-11.20532160008487
10.55083154919203
10.68998668780043
-0.04184668294198152
0.5269820411535934
-0.09447090842716029
0.08811986300635895
17.88709065160849
-17.82357749042959
-0.06351316095521298
11.71063400333496
-22.77264217353569
11.06200817020707
0.8883016346895162
-0.1413011577889358
-1.555536387389653
-0.0445079484866531
0.09077150706687995
0.004498439733273755
-0.05076199831207377
-0.1143357004645026
0.1767696819590268
0.2304310471707515
-0.2928650287264187
0.4624420443949009
-0.4447942245875777
-0.1896871784500313
0.1720393585414109
-0.1267083638782278
0.5405873796940768
0.4189540085378356
0.1033486613311918
0.0392753614044949
0.4872109977939434
-0.5973670105577228
0.01963426011352917
-0.3072827462349599
0.1001563674236443
0.08575601313126473
-0.5552020444819231
1.01393220658787
20.78109244250438
4.68252705558664
-26.47755170495003
-0.5856318919282328
-0.2133148204503417
0.4930629424480325
-0.4126653621905998
-0.1302536535343028
0.04985607316943083
-0.04634740334970425
0.1821198352814762
0.02129526445667005
-0.1570676964766282
0.3290065616762986
-2.56707934330031
-9.57670012846228
8.95414804402958
-10.45608561760066
6.404413829768038
1.484592444706699
19.22732723601796
-8.936654262190002
-10.29067297374955
1.05696957822891
12.43847665164144
-12.9228581387388
-13.77387624302897
6.015182288822688
21.12167448493629
-13.36298053079092
12.51331562065447
-11.76610005389564
8.416796109365036
-9.164011676334566
1.155508084903372
-0.6101254030491033
-0.2593038259900913
-0.4798747404473256
0.5832233637404386
-0.1451953063033226
-26.61087066364499
9.40682441137227
17.21030737616596
-0.01724553596700164
-0.1366424308282297
0.1884618170686682
-0.03457385039623719
15.86893752911353
6.670481821588483
-38.22344078653422
15.68402143570115
-0.08422641325026857
-0.6093872191699988
0.05557800170452759
0.02875207389217395
-0.1434381882583667
0.04269772463504582
0.07198838968159096
-0.009992562678852642
-1.640972630815438
-1.964246230861776
3.92761938197164
-0.3224005206043452
1.847275779129136
-1.197639448217852
-0.09419042387425229
-0.5554459072085431
1.372892318954967
0.1297887253997005
0.4722527477472752
-1.97493379233567
-1.134732272950517
0.1303284357728861
0.1713979613003956
0.8330058754849639
-0.09369078512505849
-4.690988904692641
-5.276403327654474
7.345649259567503
2.621742972475654
0.7309141899584565
0.1802286078991528
19.41293015002094
-20.88078628096119
-12.30602011247508
-0.184542496232516
0.4504972331381596
-0.5160172019232032
-0.2740753308035502
0.2742421806357296
-0.3894733886228189
-10.15131269222807
21.39576390370653
-11.24445121130583
0.7341117275400989
-0.5283216635967066
-0.7111167753966305
3.899856613016429
-0.03623127479092535
-8.554614243110022
0.1081471990758381
-0.04301174468482709
0.03931293053699288
-0.03277878548915678
0.03647759961443027
-13.77604156711038
14.76925215267609
-0.1925362972663712
-0.01790236495724074
-0.03908283528172972
0.2495214973361519
-0.2220466556604719
0.02172073652337614
0.2669942628936628
-0.06666834381037907
-2.796573314185836
3.541349306130948
7.166217574163894
-8.721145130925301
-3.253722296192378
3.893420761618746
-10.08753398888806
3.397539913290396
-0.03288942435114794
0.03306813794485512
-0.05894320720733246
-26.16854747050374
-0.3381003060721893
1.91065201229429
24.59599576477873
1.921004874513607
-7.942939750149816
1.962971476471468
4.058963398180777
1.901905504112279
-0.4244016527457727
-2.936304372929051
1.458800521295228
-8.736671978345694
3.95986679042509
36.2529679252303
-2.941514887241206
-8.493554747894125
8.154082371518541
-0.7787357154301651
0.04288886758292478
-0.04946230018660037
0.7853091478250291
-0.06165724029634845
-0.2713220526444702
-0.1394862101963706
0.4724655030445474
-0.3549570498944307
0.1684850301922078
0.05620049739815901
0.1302715220589319
0.01686738024580131
-0.01872482121958106
0.04096918817954143
-0.03792527011627476
0.1556987535060056
-0.1587426716198203
-6.547919879729038
6.575953595740118
-2.950840750675553
2.922807034149674
0.0001310875370904405
3.870702569415716e-06
-0.0001349582318767637
0.0001310875390868837
0.007558696446737646
-0.01155511265676686
-0.1147352363403834
0.07323386122989554
-0.006675085901727879
0.05905108341017154
-0.125609858824487
-0.1859770945056972
-0.2803513293237032
0.4118949204813132
0.05443350327623105
0.4056183829920538
-0.5615048512444071
-0.02663146827343042
0.1825179364770806
0.1689447527477424
-0.2533120055038745
-0.08711641262820864
0.1714836652835089
-18.93783938159558
-7.658132620806756
-0.05178172241748874
0.1112967500101543
0.02619351983007311
-0.0857085474645464
13.03176244540556
3.780311104423673
3.278733327791541
0.02771163761221605
-0.3594675777523437
0.04159048763433687
0.2901654524159005
15.22806477018058
-13.99268835999535
-9.498811201397697
8.263434791233596
38.12289917456
-19.82270146022845
7.755988345927429
-26.05618606019274
5.171628675787239
14.85424018349615
-1.406338545616654
-18.61953031350849
18.97615380193767
3.468313474651564
10.84922568810146
-22.86402183904123
12.01479615079304
34.91926860487349
4.807772869223201
0.9819419492986315
-40.70898342266948
-0.07864435012776202
0.1309761890964172
-0.2314188054382242
0.1790869664222013
0.1901696576733932
-0.1397999827539224
-0.6213960334262449
0.5710263584761447
-0.1411197099904502
0.2706137930863167
0.07243037848577762
-0.2019244616813361
-0.06619849097754781
0.009627108701756733
0.08548709161354791
-0.02891570937707619
-0.1251999087592402
2.008979740377451
-0.3968841151121323
-1.486895716671881
0.2766482277447273
-0.5242410110492837
0.2234171789794402
0.02417560426180917
12.05439676980187
-5.671603641697024
-6.382793127973683
-0.2328494300207944
0.1228089790684209
-0.04470650689994439
0.1547469578097314
-0.3464855545735516
0.4895818125938287
-0.2051732279202224
0.06207696984789367
0.1235121109194331
-0.08254292275868087
-0.05860521234096117
0.01179538643290768
0.04680982588482033
0.6491650677432681
0.4859940299729082
-0.5220164336583819
-0.6131426642772588
1.925517016942451
0.370258139745357
-1.05908052848214
-1.236694628487176
-0.1372436383530203
0.105521168081188
-0.09433474176816378
0.1260572119698524
-0.05138105073345196
-0.1079435350276878
0.06226014522618396
0.09706444050872413
-0.9202923566026721
-0.6375825179312721
1.729282841511795
-0.1714079672265634
0.2939182099860346
-3.924138395436402
3.382356547131893
0.2478636377955031
-0.8506399067266934
3.433561371754776
-2.598407883285006
0.01548641794516772
-0.4770649416309188
0.2380311773404227
0.2998866756057745
-0.06085291146210412
0.1906019590708458
-0.3155033120950849
0.4989451681685784
-0.3740438153562247
-0.05919195865518759
0.07005167307953972
-0.01085971445762086
0.1124893813175382
0.1356974292718015
-0.2481868106702052
-0.06260509169238526
-0.0007504114411959791
0.07224041250444889
-0.008884909366708904
-0.06043791791905544
-0.10103864412014
-0.09472229860369294
0.2561988604253672
-0.06065388978945841
0.09242524166405017
0.1509370067358072
-0.1827083587743569
21.20205360913762
-13.65593223294696
-13.99765106853062
6.451529692697434
-0.01761240551945258
-0.04201451977694264
-0.0009057635837789517
0.06053268883362219
-0.02482257247644996
0.03343371473068164
-0.008611142262620696
1.970553030532707
-2.589630938312137
13.54847434371657
-6.405981330035631
-7.142493013562438
0.03434512258246303
-0.09240508678332912
0.01841428812367048
0.03964567596725316
-0.0494400966517529
-30.15092638445008
-0.1839869536063143
30.38435343502112
0.1109368469004315
-0.06576917957745181
0.2104431167054407
-0.2556107841284869
-0.04929250899052238
-0.02590723375610495
0.06828138394088566
0.006918358773333847
0.06481538083085993
0.5948002114809803
-0.2567465930620129
-0.4028689993835205
-0.05957816460232658
0.0005571163163213279
0.05902104824599606
0.01991033653153466
-0.01784899734374263
0.07440081632567166
-0.07646215556572708
-0.006545815896956425
0.01907068733643254
-0.01131843257876249
-0.001206438899750317
0.03224937567644089
-0.01927109797866058
-0.01297827771285445
-0.006967433619572201
0.06207907867387071
-0.05511164512093723
-0.152814259439368
0.5670628495377127
-0.3975201348855686
-0.01672845534807037
-0.005036464076233805
0.0763989949097489
-0.08495545615534904
0.01359292526357214
0.03081005901661133
-0.4429720146882238
0.4101499395916442
0.002012015941763296
1.186125692123491
0.5536074773730297
4.198042955857649
-5.937776125595819
-0.2852358879855508
0.1427014147425965
0.04151389426651433
0.1010205788473556
0.08820780134221491
0.007550331239056244
-0.09575813261400062
-0.0351892974428208
0.1324525668970973
-0.6116423104632607
0.514379040902486
16.48770862753378
-21.13075850521408
-0.07248104999288496
0.1466973090997333
-0.002843792227878525
-0.07137246694174869
-0.4887734033088583
0.006104248852937391
0.4826691542851728
1.559798300234669
0.5836631295495471
-2.248520306485196
0.1050588766154132
0.7982345400511682
-0.05152855556814939
-0.668561655939667
-0.07814432863148511
-0.2219704303615725
0.3021490463492808
0.06193997026854704
-0.1421185863989642
-0.03628697089507675
0.3534411112978489
-0.3556213384538932
0.03846719795499225
0.134146731745838
-0.2858679885206247
0.1554723455236742
-0.003751088788056031
9.443229577186285
10.318285395855
0.02289547409579352
-0.4767831065567976
0.1024564094187989
0.351431222922463
-0.2245022177713792
-0.4371348187888097
0.5894218851108519
0.072215151366225
0.006839416056598229
-0.1462424829267417
-0.007345557654470917
0.1467486244923887
-0.2656541749710044
0.006374655781280401
-0.009112535370004704
0.2683920545005014
1.431414825999646
-0.5730848926578619
-1.667582980922132
0.8092530472537717
-0.02962068738455882
0.1241538993429837
-0.104359194872182
0.009825982866791042
-0.01802363219850943
0.02743785321151282
-0.100950240608289
0.09153601956064848
16.10654989281534
-23.65134552758215
-3.124900376852193
6.22440106414197
22.83692514897251
-1.35864468070551
-0.17810835847301
2.158508533815907
-0.6217554948033617
0.1581551588130447
-0.2612224745030154
-0.2442265002122107
0.3472938158643442
-0.08974723543203147
0.01023783406564159
0.03698935001885074
0.04252005132307997
-0.09805202570414505
-0.0006897175210707054
0.09425938482311971
0.004482358404222006
-0.1327077815184399
0.1743993938094766
-0.06614848374603743
0.4424389496851422
-0.1825446793019284
-0.3558191231358068
0.09592485262530343
3.211146675369667
24.60536324419813
0.07971471960339821
-0.02525860340207744
-0.2537455367072358
0.1992894203873068
0.006575781889156041
0.3880257373436672
0.06638872936316975
-0.4609902488030531
-0.4706728636272412
0.1013960756826469
0.04379406055204199
0.3254827273186283
-0.5192772556595887
0.05058340654439274
0.2568705976605308
-0.6069685821727725
-0.05312555442668863
0.705574263920797
-0.04548012766931928
-0.01856349031825903
-0.2478040176213598
0.7451927421461504
-0.4788252343685674
-1.692070860153588
0.2563365680636143
1.435734292007411
18.58209928402527
-7.374399905209152
1.824063066516184
0.1618600731222493
-0.2716515483004169
0.04601739393992097
0.06377408109997948
9.000226217328283
-32.53118495302483
32.24229136116952
0.03439054847651038
0.06851022886062774
-0.06117297072223098
-0.03902241072439954
0.1535858714719358
-0.00157454558512101
-0.1129889151854658
0.06416375444287155
0.02766782885513322
0.04963397990945731
-0.1414655632397327
0.03664477549943782
0.2631173903152624
-0.07772988761803605
-0.2220322782530239
0.4299102845126869
-0.3042902739275071
-0.5050622807760775
0.3794422700727161
0.07200129822563794
-0.0208679316378781
-0.07446208941780041
0.0233287227960421
0.4744440689118287
-1.090752817526519
0.2482753834285114
0.3680333649348715
-0.1012997737415318
0.06044301172887687
-0.0316242880076793
-0.0687473312471063
0.06223379777680341
-0.1148677845813058
0.121381318039271
24.26742824374066
-13.04682568468965
-20.72234104174753
9.501738482787257
0.2001679556089544
-0.1902320380606966
-0.009935917577713029
-0.3146622686440442
-0.03214328279679698
0.4559800172457332
-0.1091744660398653
-11.58257985524926
14.87577157692165
-2.140797685614479
-1.152394036521255
-0.01965016148785474
0.1134844784840567
0.01790470815837445
-0.1117390251758674
0.05492550761221247
-0.1667612981044172
0.0973588417261468
0.01447694871828585
-1.284315815076428
0.952864381323223
0.4440639311767192
-0.1126124975192229
-0.01896209820034787
-0.1921388688359965
0.1932317847357869
0.01786918226486588
-0.8504431463186701
-0.6226772740525085
0.8629950171845764
-0.9879982475542995
0.2112231840466623
2.547817715146675
-1.771042651774525
6.768536564706393
-17.50853773448409
12.45592301680573
-1.715921846345163
-0.1131343988157932
-0.5338137876698064
0.7504311833160924
-0.1034829968873151
1.612321199424487
18.28966637359109
-23.45758423402872
-0.03837859642210919
0.08022411263957459
-0.02674991262764245
-0.01509560366331583
-0.5072004750378994
0.3013057590476387
0.231043235291102
-0.02514851936416342
0.4787686842507986
-2.138145422215528
0.697139649455622
0.1679584154595615
0.05918952453407224
-0.1567935024788277
-0.07035443763425042
0.4937165801628419
-0.04450512121956488
-0.4842385837856615
0.03502712476896309
-0.1031032642467739
-0.3914265822844064
0.3181806930549598
0.1763491533632905
-1.900219563000448
1.870506277557884
0.02971328536980155
0.1107482321803516
-0.1287300515858491
0.02268100083542202
-0.004699181520283241
0.00415864616053684
0.09580889060649894
-0.08152202952173601
-0.01844550732517602
0.01431800627900209
0.01817635646742542
0.1141741281433689
-0.146668490933916
-0.003011563863308655
-0.06863533345696611
-0.04298556793963197
0.03313450848011959
-0.2709154757073824
0.04859890437236365
0.1891820627818917
-0.1443651297077257
0.07411230823622739
0.1117548962976033
-0.04150207489294638
-0.1166226038157209
0.05241436230071713
0.1131242790908656
-0.048916037825158
-0.5998868810068229
0.7176628315184349
-0.04805872418331195
-0.06971722665407834
-0.005154062941911978
-0.5141923271468528
0.1008750049266034
0.4184713850240737
0.003068663979413138
-0.003873986259226688
0.1595969631260185
-0.1587916408678709
-0.3271386348840741
-0.194763958934534
0.4258600142517582
0.09604257942090268
7.220585751883086e-05
0.1792513492271135
-0.1579506842590827
-0.02137287088820009
0.01080271696746897
-0.1434402353367948
-0.02627463701283701
0.1589121553175818
0.7816757811262215
3.72565916728691
-3.794849059934263
-0.7124858896802092
-4.024464192723784
-41.76255967063629
36.30272061787607
9.484303245535546
0.05543765349625835
-0.1476843631248305
0.08013702354096509
0.01210968606544078
21.80229936505532
0.4650753163660951
-26.13768905346682
3.870314372208288
0.1497456789345865
-0.2002255176935506
0.04363666312655464
0.00684317557792191
8.163504807957999
-9.828001668059702
1.968401320959801
-2.618095995885503
0.869116318679768
1.748979677131613
-0.1088619338419691
-0.05163409712459439
0.03041165700073589
0.1300843738856538
-0.05791222759147069
0.03974189511555465
0.01817033243341533
0.1274653087986218
-0.0688764532307185
-0.2384053125042789
0.1798164567979056
-0.009043987179021822
0.0006583166629346208
-0.0623749930426477
0.0707606635631922
-0.01645063040743854
0.0934745746935297
0.008863321901401719
-0.08588726624928006
-0.0695616156813622
0.007633595720252866
0.1663969295239228
-0.1044689096438852
0.01882466224898994
-0.07604505625715206
0.03469775054951654
0.02252264339276434
-0.05703517279154343
0.005524783546408719
-0.006345893262479661
0.05785628244014122
-0.4764953576951784
0.08799260662743723
0.3885027509317585
0.1106038900232825
0.07723133602001474
-0.155685054385407
-0.03215017170969972
12.47531610533229
0.6634650316360923
-12.5889057173421
-0.5498754193535871
0.1529515241715087
-0.1065735214406549
-2.236046068535409
2.189668065524166
0.3146101445970444
-0.3551389779890514
0.5135461043236667
-0.4730172711029689
0.6462011801457415
-0.4433847417462776
0.06265988578689673
-0.2654763244209995
0.2208065025903662
2.159592368865671
-3.672416410952683
1.292017538989893
12.92401523696421
-13.0549525496297
0.1309373127511222
-13.67304541055978
-10.28810606141161
10.18510990525576
-0.210952382242838
-0.2152933819936203
0.3818121504488085
0.04443361368318565
0.3630312367529505
0.1687271235410562
-0.5317583603880415
13.81217195002475
-19.45972736991221
-0.1831001521279247
-0.02605051603894821
-0.1818917105386751
0.3910423784503857
3.204953711647118
-1.083804605433549
1.767732435013488
-3.888881541075548
0.3887328650159698
-0.9975196693396751
0.4878984444833653
0.1208883596422853
-0.02008009846419715
-0.003612655619620449
-0.06257003114360934
0.0862627851743008
0.3648201294701376
-0.4915076422272336
-0.07058616033948364
0.1972736730035877
-0.2536996645461256
-0.08292685403309924
0.2406571906288255
0.09596932791032345
1.303098638434654
-0.5321578205185084
0.6604740078585581
0.1381718621111741
0.07444093010624615
-0.1105702273805874
-0.1020425648757785
0.2266310012297238
0.3206704816031881
0.01679860942350561
-0.5641000923310613
-0.2475977120075227
0.2220821992848512
-0.004477969729635262
0.02999348229346892
-9.456028933460383
-0.6348678370788694
-2.838933421450287
12.92983019161922
28.16724376122685
-0.63900753001257
-4.093523080812217
-23.4347131505149
-0.001988695619436681
0.1429606095262956
-0.0597420389804349
-0.08122987498652472
8.366448781933638
-2.381318738988538
-1.358453353574798
0.6910121189673681
-0.404452572988749
0.2538302767591816
-0.5403898228829588
-1.226808795894976
-0.2278009771321412
0.08697742958372816
-0.3502612444973158
0.4910847919364034
-0.09676421299723552
0.029680833873709
0.06708337911966518
0.3297694891635847
0.112797674165175
-0.4094326549312296
-31.91357502400598
7.09359170048077
-3.638715200991091
28.45869852450477
4.328567671962904
-0.7130504127402306
-1.782067815952863
-1.83344944325261
0.02050479610542795
0.001240673110988104
-0.0217454692627885
-0.1846131285220683
-0.00708307630098555
0.6126547087775954
23.3753424381378
0.003621535289828804
-0.04738842493638077
-23.33157554790526
0.1844484822300147