/*--------------------------------*- C++ -*----------------------------------*\
| =========                 |                                                 |
| \\      /  F ield         | OpenFOAM: The Open Source CFD Toolbox           |
|  \\    /   O peration     | Version:  v1906                                 |
|   \\  /    A nd           | Web:      www.OpenFOAM.com                      |
|    \\/     M anipulation  |                                                 |
\*---------------------------------------------------------------------------*/
FoamFile
{
    version     2.0;
    format      ascii;
    class       volVectorField;
    location    "1.9";
    object      vorticity;
}
// * * * * * * * * * * * * * * * * * * * * * * * * * * * * * * * * * * * * * //

dimensions      [0 0 -1 0 0 0 0];


internalField   nonuniform List<vector> 
19631
(
(-0.05004253012566289 -0.03994902221874198 -0.03191161154045259)
(0.1459136905734821 -0.1827126475005099 -8.001479088790388)
(0.04126178689137728 0.01093130268413064 0.02536939179128437)
(6.364211810940849 -3.428822929678531 -25.02919871950239)
(-0.03062337613645025 -0.2580351598050339 -0.1929687024230776)
(0.2229251030000738 -0.4256392877322096 -0.1541127068156662)
(0.1435087474377793 -0.1063086382801611 0.08546077534178231)
(1.943560717297139 7.704211975605905 -4.590876782310596)
(-0.6510956722471553 -0.9027380949930608 -4.343927031680542)
(-0.09154519536705726 -0.01609103599986307 0.009669153921496493)
(-0.4304527533129922 -0.2207313887259028 -0.1029668689845895)
(-0.8129668970716499 0.7336021648124406 -0.03637560291138855)
(-1.08493339672216 -1.495735057364153 -18.38559171832853)
(-0.4571018233127089 0.3355393602606281 0.2239575023820663)
(0.003144501128568112 0.003548483526600412 -0.01253478605527365)
(-0.1875690658525742 1.839312423606368 -0.126291013622761)
(-1.084341555392062 1.028489376734363 -0.3272525993358568)
(3.289313703402139 12.58118483458754 6.157519854290781)
(1.207430951456944 7.244565190401107 0.9890072240024881)
(5.436555150636011 5.419735200156184 0.09352745276147623)
(-0.07120474232118341 -0.02499422859887127 -0.01483072136690718)
(-0.2817296478965031 0.1150679823137077 -0.1008484077870527)
(-1.019293621864066 -1.241597448893295 -0.3753134358925708)
(-0.04158754430358622 -0.01221446267177608 -0.02456563101773442)
(-0.5438979884139299 0.3889224789614425 0.01805937932328283)
(-0.06458225869902517 -0.02186984211738885 -5.505592248200284)
(0.7501619247498711 1.040568374453972 -1.228915995746787)
(0.4075195926630262 2.349175001794928 -6.974938076128486)
(-0.3122334057298936 0.1180264743133149 -0.4414280381469891)
(0.007203046541211495 0.002621457667674816 -0.01571494255708508)
(-0.151800838190298 -0.03860279596636276 -0.06719619158630644)
(-0.307402028821153 0.04565434088468721 0.09268970844477507)
(-0.1540667425580456 -6.366984580069185 1.13632818397135)
(-0.008030276999682819 -0.05446082874641671 -0.01700044953399046)
(3.304302419346135 -0.4379474464737778 -2.213895726161279)
(3.070977931161746 -0.01291573614571595 -4.770545540537812)
(0.02038990929683309 -0.01818793921361924 -0.1038431210810891)
(-0.2356397617691235 -0.2354634189970842 -0.4396092014555629)
(-0.4688263708896605 0.8214679671034225 -0.293744680983009)
(0.009102754484526687 -0.5602630759479963 0.7480838322233359)
(-0.4535973065869188 -1.113133664444411 -5.92943961301468)
(0.02596250409627657 -0.1335381144255735 0.04643953858713586)
(0.04876554359232619 0.01592541299226071 0.0007567691507961299)
(0.09090359861877036 0.007091516011660387 0.07016799831925846)
(4.274772882625707 -1.77253981726285 -2.290387080274028)
(0.06902720348022282 0.210594703045147 -0.176618937820149)
(-0.005109273972952065 -0.02200309936232346 -0.01354585520188813)
(-0.07970246835225786 0.3170824765794445 0.4208405490004016)
(-0.06491570067211549 -0.03037658289618789 -0.04177379738341981)
(-0.3225054774422458 0.05938613350119119 -0.4578017675567677)
(-0.2004450009335416 0.4062300086114399 -7.124322798214095)
(2.243173698580141 1.081427725866974 -0.7537750601106314)
(-0.4267342292244437 0.1177356382992316 0.01952873596617623)
(-3.797592410689206 6.287974407491236 -4.437751952038775)
(-0.4497677191671787 1.828201462013662 -1.470960351104977)
(0.3932930676155961 0.2669760617772579 -2.720934675098169)
(0.2698173511673709 0.3395037332069158 -0.06440243432222312)
(0.08483373688079363 0.576807295595408 -0.40048511738843)
(2.346270057372969 -7.183446342000145 -1.945373395564636)
(0.02594325310460083 0.01182922969616427 -0.001974686140339495)
(0.007254979057521677 0.007445850659525006 -0.07280351459131701)
(-0.3130216655478448 -7.642711890139111 -2.939380042264316)
(-4.760197437452619 -7.318352678136652 0.439100166850385)
(-0.3083661327040734 0.1100741896333879 0.03806950477369631)
(-0.5614148116163638 0.2989522974982977 -0.1252331768572011)
(3.940721007241246 -5.156159353850041 -2.858664513634443)
(-0.1017173741265973 -0.02880377811877625 -0.05368620426133391)
(-0.3619710666570122 0.0587258039400098 -0.2305981507437821)
(-0.3021152631945224 -0.1963816356344104 0.1487749676612392)
(0.01150299923742549 -0.001563713742333727 0.009035410648906117)
(-0.006607618691901027 -0.01913155551452787 0.01833308170854253)
(5.480981566820509 -7.393624733048469 -14.85465461704293)
(-0.01957432636743064 -0.01040588451118939 0.02215978018967992)
(0.001480916183128922 -0.1131973137065101 0.009556304632322266)
(-0.1958227524389325 -0.1937183084585402 -0.02136028665856737)
(-0.3505655311201555 0.1694310016995777 -0.4557020660773202)
(0.04408608339339101 0.09811094297367765 0.01474660406316201)
(0.3241327318496691 0.514062341690234 -0.5754269400802546)
(0.5326342485227069 1.175693776301026 -2.413114598703654)
(5.268430310241731 -8.17326879289679 -41.59822112689854)
(-0.01321211235727836 0.006822135697747831 -0.05273781056929613)
(-0.00335105024343646 -0.03678829408023324 -0.3161178932084244)
(-0.4641926084295465 0.0327212756206806 -0.08076203264453491)
(-1.286375456361089 0.5936155655661381 -0.911839760794414)
(1.357150942671026 6.544412251893132 0.5268924974162141)
(1.724237709908632 -46.26999850230079 4.797811115218186)
(-0.1377209290868275 0.029604718629991 0.2431796057232662)
(-1.496338187662168 -0.8350029842473201 -0.4971585046790518)
(3.439474642454001 11.20351857641785 18.60606483018957)
(-0.01561194272078807 -0.009470159298161798 -0.007863960573113556)
(-0.6689665697708602 -4.492243756148573 -0.6566349903429307)
(-0.1235048920876925 -0.02540917823907111 -0.122056506249777)
(0.0004629663893121437 -0.05172301398943944 -0.0002859566420427393)
(0.08931038684355927 -0.03722551629685752 -0.09965124217630995)
(-2.012550365395249 0.486326919788203 0.2340551554436814)
(4.265004063614207 23.65944401181847 -0.4213706905843816)
(-0.1768549715721186 0.1118995891531555 -0.2695738122025526)
(-0.8056085083393512 -1.509151853981016 -21.60847033957597)
(-0.2356651785996212 0.3217298998806074 -0.1036770636590353)
(-0.3389106490744722 0.2837741248997394 0.144682510444021)
(-0.06711562018420482 0.06306581044999077 0.1186941795854822)
(-3.873721836453194 9.571770840354858 3.00723621071325)
(-5.230831561867991 9.701564588256604 -5.146053019732925)
(0.05182099463919343 0.01416853475490477 0.01433736446829947)
(-0.1663144343369589 -9.828577114739559 -1.107483860756881)
(1.953710458526486 -4.236273449446966 -4.223985453781362)
(-3.551190277620448 12.12114360079147 -4.817960164418274)
(-0.03591258075340384 -0.1175252323354535 -0.001975178553817146)
(0.06036325096454931 -0.0610178396129285 0.04074305415582317)
(-1.6155208914108 -9.847951274337138 -3.566485528593617)
(-0.03471008433925003 -0.09134693341690339 0.4627792367758066)
(0.5607215763923595 -4.648091751615805 0.5432807225284694)
(-1.690304355028108 -3.374844551053915 -5.731533411738747)
(-2.931130918273287 0.2460770485588799 -2.176109460055587)
(0.4171141387264881 -0.2262104362226757 -0.1568616802543597)
(0.3471600656445872 2.819598262142739 -1.373554146996592)
(-1.937428706516941 5.749744285892405 3.539328240485937)
(0.02124641369772164 0.1273737367420006 -0.0879571122685389)
(0.9489192931644004 -0.2376656318379595 -1.863214772755065)
(-0.5102758730497332 -0.01540027783729657 -0.06753344208439362)
(-0.003425780535561175 -0.003003758459102668 -0.02960340562574005)
(-0.06206485266762759 -0.02023421824298383 -0.07339042641506077)
(-0.0528985749442591 -0.1047064343295183 0.08986530919991635)
(1.926689465371841 4.318827741916072 -7.440450653315173)
(-0.5876779064022581 0.6655674541401805 -0.4963484133636015)
(-0.38791166023586 0.1553224072579969 0.01549103009288471)
(-2.367947254855747 -0.1977979321779774 1.67894428789595)
(0.07335051046704026 0.6147603191521737 -0.2216507622272349)
(-0.04087465002932361 -0.01026653809225039 0.001074152106025237)
(3.371244036786923 -1.951580469593244 -2.950032843852175)
(0.02963813901813589 0.01588921035888646 0.003284458251371924)
(-0.01567171486824782 0.1521116981874358 0.05341348347567491)
(0.2428193655026675 0.08383665474230731 0.1221375990705461)
(-0.2453959514131853 -3.072254483800421 -6.7006408493896)
(-0.3094863988677992 -0.07324454637831926 0.2507784774718574)
(-12.93400612513011 17.79640396663893 8.128578988839298)
(0.1225884428233564 7.203638292153355 -3.878886779042975)
(0.3113047364424829 -0.1653970530911452 -0.230596322833136)
(-3.922745672680324 7.762691337875614 -33.56069218799107)
(1.104583226167501 -0.1124687269152998 0.2794056696045124)
(-0.2279850712211956 3.947451108477888 -0.5927012347924079)
(-1.861562171869595 0.01948829235852934 -7.169308772135109)
(0.913293485360047 1.185273179099783 -3.184994598428275)
(-0.01054838642771206 0.01864514703021853 0.01382008518010095)
(-0.1918363367497788 -0.1151250946964723 -0.09476384936786503)
(-0.9899501822912513 1.879422555880137 -8.169099715860305)
(0.01155976257444821 0.02729372104019402 -0.01058573774379576)
(-0.009389474930202995 -0.01030991069115695 0.004143541311304191)
(0.03114393547202744 0.03500945352441382 0.02866823564039676)
(1.265476151757946 6.134003271088574 -0.2460837961251756)
(-0.1765781915958509 -0.1009198573163722 0.005817539345134012)
(0.2001906606292411 0.1519495522893105 0.06820831419404533)
(0.03153785670891193 -0.05977205064080872 0.03200238747317752)
(-0.04890969119167933 0.1633245467383077 -0.09727921186780689)
(0.1085624980730802 0.002422930182659263 0.09116105120421532)
(0.1912020766431874 -0.143652889990604 -0.0332761402509886)
(0.02215279177008703 -0.01331862014850634 0.02268318239453494)
(-0.3250293337574244 0.374375380313811 -0.1112652221715863)
(-3.376548690796827 35.12966778135421 5.926727999630097)
(0.07399893240016947 0.1253920779583499 -8.35463326186801)
(-0.1689356092812071 -0.009203240969041491 0.1252035152518579)
(0.02146529700817158 -0.01705339863724281 -0.02686875273654208)
(-0.3072659934329793 -0.02557161483771515 -0.07980691905552897)
(-0.07480100104625272 0.04630056539989547 0.004220135716283945)
(-0.05241528539511452 -0.009132907751052077 -5.449575797689233)
(-0.03134377695636946 -0.01439914255814592 -4.94710929599682)
(-0.06237465915040351 -0.1386865069677616 -0.05136996284190391)
(-0.009650126805104506 -0.03594478195766637 0.0485511133384665)
(-1.614276184974212 -6.59377524258689 5.072182640931397)
(0.008452951655824693 -0.01704776925727805 -0.006293510845974709)
(0.06696838089062779 -0.1441223214354121 -0.1272823869797696)
(-0.2152751986257166 0.04731082757270177 -0.1088695171805347)
(-0.08585342692836913 0.2089794112101251 -0.3736075072360908)
(-0.02349737569836228 -0.09418167719015599 0.09465284955885271)
(0.1629309331603144 0.0183100424544956 0.09928427886082838)
(0.08195261705255982 0.3985247870784068 -0.5738023147823916)
(-5.033266585226237e-05 -0.0374110416564019 0.001579180876273853)
(0.01737335367924336 -0.0520246803858785 0.1095321541575389)
(0.01209456396544266 0.05262148448444241 -0.2716752581446364)
(1.388507167177783 0.7809564232075733 -3.194805288169712)
(0.6439380883136391 0.3813420026236132 0.1337252955504688)
(-0.06673879367116793 -0.01249835883206893 0.03540650921352238)
(0.03638134820874553 0.02093220300303091 0.05167316873583151)
(0.03427375091856251 0.01388067231109423 -5.336402277207035)
(-0.03028808120500966 0.003362722356892965 -0.08762576029113646)
(-0.02031500910521787 0.01135694177114381 -0.07569574247444007)
(-0.007894660097826668 -0.1524272705892695 -0.3292446965204537)
(0.1296478529570553 0.06572454318618109 0.002134206829042064)
(0.06462360759747315 -0.09332944606503737 -0.2845212420202571)
(0.05692690591177917 -0.04813601628154689 -0.09053643361540066)
(-0.003563203624124128 0.04633248361268883 0.04432561454307892)
(0.1779815782718945 -0.06477599213240831 -0.05791123804859472)
(0.5548380037640201 0.7744856023382918 -0.4173637881017582)
(-0.02083536100232245 0.001699011688960322 -0.01700744627594334)
(-0.4007106312718655 0.3355375757696822 -0.6910870678654626)
(1.736557209602462 1.494438708429819 -1.695683850203979)
(-0.1280348806349091 0.2931089347742801 0.09139304501626398)
(0.01780538108474252 0.02504997628818136 -0.03639103888751028)
(-0.0697040389526688 -0.1053060977078105 -0.05071272243994915)
(-0.05492095156197281 0.02985986816616602 0.03074410690457698)
(0.05731639155521156 0.03589333077537428 -0.03666315471010421)
(-0.102316138223809 -0.05444408554456292 0.06409534732706258)
(-0.08992955745984652 -0.01980020048496435 0.04875055612688187)
(-0.1797238043217684 -0.01427103796486661 -0.04714663472222969)
(-0.001058396783554378 -0.03305460305062805 -0.03370350896842355)
(-0.1793545983290907 0.2601680484609218 -0.1158189209752247)
(-0.009941583556693501 0.2436726476102113 0.180456037355421)
(-0.2034560081994967 0.2789964411285429 0.0570115714935127)
(-0.06709863963917949 0.07442126497811392 -4.632436634566697)
(-1.051823656674395 0.4893809406245194 -0.4927157757936325)
(-0.05555259158212076 -0.07375842845715372 -0.01064358289074652)
(-0.8642121455646413 0.9529923802928069 -0.3922550267891565)
(33.77489700780588 20.20965886308102 -17.57522099869303)
(0.0688261935709623 0.02334628379897307 0.006931798039723159)
(0.02767662644519404 -0.03421362403518314 -0.07201592431489452)
(0.4376255674950154 0.2214963471408842 -3.053628085879674)
(0.04214713787203633 0.01763753157234345 -0.02771789873376487)
(0.04143049862519067 0.04781449064488438 -0.01358692999914146)
(0.04402198927546118 -0.01910261452526589 -0.02548543844159232)
(1.918263424447737 5.893997578928103 -2.248784497599975)
(0.5643666285440748 -0.02793912712372678 -0.06966194756659003)
(0.2133399705864474 -0.1277969706450436 -0.3647580525003081)
(-0.03273744575901559 -0.1007733801859627 -0.01366631725797697)
(-0.0007532672943384297 0.002983988149423179 -0.005670540379265484)
(-0.01875068902083803 0.01003042710747209 -0.0118424019491439)
(-0.0853613348546715 -0.0252080229405514 -0.01558730969593989)
(-0.01657119061695215 0.05247203663703103 -0.004355578706050574)
(-0.3792010256581186 0.07590520845230471 -0.2708845030733824)
(-1.218760192442754 4.42777971571964 9.856945556437886)
(0.279746185355228 -5.135237065963533 5.546185410274811)
(0.02051982509503993 0.02549751787085115 0.0125939157703629)
(0.04599818400188391 -0.6762543534789275 2.892201460534911)
(-0.3985858742997487 0.2594945083177279 0.7177778645889348)
(3.491071069922753 10.17831140832498 -2.373500633315988)
(-0.5315682044022214 -1.117812180589971 -6.282769427618838)
(-1.353703681694778 -0.918878239691725 -3.355707383487856)
(4.394373814986991 5.052562329930902 2.876634174165473)
(0.5110336864810616 -1.261709944310095 -1.558226322382886)
(-0.6527495551934623 0.02899236751913079 -0.2313070816661469)
(-0.96709829585744 -6.175170328185021 -0.08566836423339791)
(0.06211776646161284 0.01362481311173411 0.05717100706179183)
(0.08094246410176163 0.05440180853939856 -0.06838966321562029)
(-0.1426205046109087 -0.08287245698191359 -0.04390455292281254)
(0.315891847740438 -0.06276710535032234 0.1864184351922177)
(0.04244877005543615 -0.001621235627659921 0.0227126170239231)
(-0.3684891978724358 -0.5411396928694525 -4.979870680439511)
(0.05889006401765635 -0.1139586437412614 -4.799354893561776)
(0.02928858158269114 -0.00562158040446194 -0.0011941459297166)
(1.178705369053406 2.900604115514317 -0.2247879363949407)
(-0.02527356007526365 0.03483212532166359 -0.01961122539527387)
(-0.1308872713410915 -5.090648257952396 0.4391488661092801)
(-6.477720792667966 4.800161159209344 1.652518234938093)
(0.02561910067569741 -0.04165260981161194 -0.009880455411663654)
(-0.4160460928009498 -0.2623893372138544 0.5601387364977282)
(-0.04539740155763497 -0.03679244294238224 -7.793344868372544)
(0.08401869608645343 0.02798621028198089 -0.05329618309699935)
(-0.2308546813138301 -1.330230226675834 -0.5533979656121005)
(-1.868276785787447 -35.49025137255241 -1.33612380703408)
(1.162265490698027 -31.65526087900366 -2.409592216673366)
(-0.8984776904835349 0.054980969547166 -0.7072835860761078)
(-0.06017439467822198 -0.03868608636732894 0.03006179449288434)
(0.6726228419298707 -0.01537968667139271 -0.3926759715975802)
(-2.234516053048448 -1.110811624331205 -2.652739371735539)
(0.096918949495028 -0.443304438818226 0.05224818526580017)
(-0.04679837044610682 -0.2767656333276717 0.08158467191062664)
(-0.008847018070825472 0.01314622672132739 0.01407931536725895)
(-0.03069549303848383 0.009890540807654523 0.0280632076972222)
(-0.2423307787419374 -0.06201671582247076 0.02337986989066547)
(-1.099330286500706 -23.52492495835372 2.674767875980206)
(2.04168421938249 1.090823162416286 -32.84525667868907)
(7.670186344459148 -7.524011839492865 -2.671778513611779)
(0.5624030568581386 -0.1299930606392428 -0.01241697796143789)
(-0.4152467799496767 -4.217205946760314 -3.058747375044059)
(0.005339383753164077 -0.01044856497011874 0.00313266852318536)
(9.801807104972621 5.169758455288598 2.674990736232627)
(-3.525762569715238 -36.3748617000925 -3.075313662022504)
(0.02697356178972533 0.03743867391062723 0.005617539941842362)
(0.2413063120506985 0.1238549907656413 -7.075515007355698)
(6.008662693485695 6.143372859332868 -1.091837687814129)
(-0.01744087520092159 -0.01114119358584631 -0.02110368015698777)
(-1.789981776012243 -5.415487068626019 0.7288184657678203)
(-1.295957541549472 0.4459093466841564 -1.125169111703129)
(0.4269757589942763 0.8743168987376022 -0.5640512305074432)
(0.06988405496694361 4.181589101125582 -44.66516779326513)
(0.4646788272895892 -6.775704948178966 -4.276092828504593)
(0.7618537189880358 -11.83873049628143 -1.109114769137765)
(5.618043871338473 -9.123332361824907 -33.07815397107841)
(4.655263931791496 42.32164735933124 -9.303967200278482)
(0.2340746013332336 -0.05403677790067467 -0.001350415395056751)
(0.9680200110410477 7.436927532868728 0.4874523061282298)
(1.134345403250452 0.1176598851051247 -0.3058040834192182)
(-0.4689388238717075 -0.1105862817808674 0.02383082074066722)
(0.2489671626635138 -0.2087418021262863 0.03718743422631541)
(1.117766507999362 -3.966912134543195 -44.46144973981102)
(-2.003140329788468 -0.1610115277028771 -0.4075713141591604)
(0.003608789855812034 0.001770419385157601 0.0007931128538803906)
(1.114539334682018 0.5903975301788086 0.08134627890809104)
(-2.36616318355218 -0.3686282990943538 -28.07644637330884)
(-0.04701945481833754 0.04193441892219803 -0.02035827074546442)
(-0.2078464204219365 1.790500311378699 -0.3210380778311865)
(0.9134518775179477 2.200214313388737 -1.738837054700677)
(1.891255745283227 -1.799826953379427 -2.903261129163559)
(0.03377484934384783 -2.103974838034452 1.690059306247856)
(0.01044230358003872 -0.2114186685163664 -5.294711102920226)
(8.6515470428506 0.3745658640215639 5.652965052350293)
(0.01828940395105589 -0.03093506652193403 -0.06616630985144351)
(1.718338955804705 -4.890908002987981 -3.169964819103331)
(-0.9162226146983496 -2.628890279735093 -0.6447913613902247)
(0.0354170860070479 -0.03457377345001753 -0.03816289414782841)
(-0.004664233971764908 -0.5537189938259294 0.3372158291476253)
(0.4469226893732972 -0.1192507459908195 0.2342403499841984)
(0.003376579003544935 -0.005189535343801918 -0.0002469650032103316)
(-0.006272486620407696 -0.01159701740851603 -0.01768396995927238)
(0.1137947629498544 0.04155207201670991 -0.1464540609276444)
(-0.2009886351553111 -0.007334396104969387 0.2049076648873423)
(-5.556709734256738 -8.829854797475704 5.194235377300746)
(-3.230279278554536 -13.02551086820025 -4.615490544677217)
(-0.4612799442749649 2.321628140782095 -0.03007519859462088)
(-0.8500789135094606 -2.145233030800802 -2.673895786333393)
(0.008783675144965135 -0.01592503758578886 0.01373354396429116)
(-0.08972889985523624 0.1432878094385872 -0.2558863334490657)
(-0.09234955758375579 1.517264334885306 0.0434716858824552)
(1.590138087572637 1.69921372253363 -6.338077678823518)
(0.01502504203980686 -0.02138932514146049 -0.06680303858537803)
(0.01393108178490107 0.01522137983947956 0.02391139540516418)
(-0.1228922703267146 -0.0339910127693176 -0.06525566868182263)
(0.2550574884472131 -1.282785548480605 -18.61258826919474)
(-0.03447923081363111 0.004251431253023897 0.03064837562814864)
(-0.5598465601729512 -0.006079685973634785 0.1334006124650979)
(0.002010352558274617 0.01185675090955024 -0.00097675739996412)
(-1.277361510605294 4.667020280168574 -6.518951415475036)
(0.6842472757509035 -8.926428694579558 -1.962933516323355)
(-0.8386483087345329 -0.757458959394766 1.684969412088089)
(0.2599107973678255 0.3210549306442433 -0.437800009436797)
(0.2020133531594034 -0.117616626588111 -0.1507416374644708)
(-0.3722899267061915 -5.724292178088231 -3.557485851248884)
(-0.042757688459095 0.1981705480314861 -0.7173464435663106)
(1.50916511658402 1.343302614575205 -0.5642180512571515)
(-2.039457693143396 0.5186614887695465 -4.235731163876243)
(0.004088725970584781 -0.001909719783270521 -0.134313846526558)
(-0.1476612253382612 -2.279247014687634 -44.13420393506286)
(0.09256443770618192 -0.05630207124830401 -0.1424777403661047)
(0.007069818151735625 0.00123690614041786 -0.001818513539361492)
(-1.500273089053349 -4.51814111164847 0.1604149961258698)
(-3.349373333950166 -5.480029773610107 -2.922323097417268)
(0.09619384175849155 0.04283995630069548 -0.09080832029579504)
(0.4211689247528794 3.992159761452388 3.686416026639974)
(-0.03001018887245344 0.06991152916385837 -0.1220297409441598)
(0.0460157410457372 -0.02551543108109476 -0.05999102466009601)
(-0.05214149515896262 0.009667763034266814 7.469001916370413e-05)
(-0.08456838093094239 0.03482925092954688 0.009733006572274907)
(-0.009174581621412891 0.002907469616781876 -0.01216070281925382)
(-7.15962041443783 11.56998719984971 3.50730671438492)
(-0.2710706766236872 -0.05626986743203723 -0.35183414896204)
(0.2135132483900886 0.3638678346584564 0.1849746080991382)
(-0.1173589443253543 6.06391469146272 4.194891062464086)
(0.1278336557903001 0.01447023991229055 0.03194289066575233)
(-0.5863217632698796 -1.180552846017696 1.410834637421519)
(-1.476098161171283 -1.873235334501639 -18.25160986107741)
(1.660351984003724 1.13943689169791 1.365169550429315)
(-8.514728734396719 5.074895777515522 5.673749216907764)
(-1.765724713248702 -4.859447812956563 0.5379630443241629)
(-4.445093463101936 10.79772693241322 2.093517718213472)
(-1.165100813902045 0.6483650176484611 -6.27132531293056)
(0.1978942271723978 -0.07967507534222099 -0.4029526773360635)
(0.5014124531616762 -2.779184269466463 -3.458894299825373)
(-0.03612466600033742 -0.002727526131849087 0.03314914806352059)
(-0.04898416210525278 0.184083265462346 0.05173686167273108)
(1.228447380039131 -7.061919545272049 3.137716373676347)
(0.1414106700329706 -0.01002817766589977 0.1563081086230477)
(0.2075743845967165 0.04897522956298633 -0.2071120608138348)
(0.04020113341798155 -0.6747446643654775 -0.02895214301421305)
(-0.04008286857939977 1.354871314127831 -0.3408230462458647)
(-0.1763588014664254 0.0664174216220999 -0.05008762398173722)
(1.494338167721046 -5.278178254102326 -1.441458127649262)
(-0.8577843467209297 1.145029088466613 0.5629200223416662)
(-0.2117552219231006 -0.04167768724826997 -0.04827313649605097)
(-0.004224210142475112 0.0009139447183563959 -0.01389224944291458)
(-1.075099740177749 -1.358689670969187 -16.38872430748197)
(0.4103254459589214 0.08129079140086665 -0.1331165741984188)
(17.51534849245585 20.9082898319692 2.584105001856099)
(-0.3215193757531317 0.01175051664984331 0.2096972362525589)
(2.374867917683339 -8.468732577366124 -3.112140896070423)
(0.3735492031766945 -0.1165632285239785 -0.05801185533188766)
(0.4100457936743643 0.1172856563627859 0.2945014103892012)
(2.163979572660534 -0.8423516064285672 4.620220579256855)
(-1.110031596833808 6.239343863259489 3.69878165793525)
(-0.5807726740798915 2.199732940400338 -21.15606974048966)
(0.2734914772563588 -3.493234473388941 -0.2423759532006133)
(-0.02089716635537612 0.03661978953636149 -0.01088736552923392)
(0.272438942349993 -0.06498934536545621 0.04581461277840393)
(-0.07400445212525322 0.03221550888953773 0.003899139245018451)
(-0.01110967072306863 0.01121483951246366 -0.02926527188116623)
(0.03358869987936525 0.062086911543258 0.1194580956119454)
(-0.077606513617857 -0.07775647836697544 -5.522682367089031)
(0.009520477923014591 0.01027940823172641 0.0184797600735606)
(-0.8296091110433885 0.08308571955073478 -0.4976020195289478)
(0.613887861954848 -0.3944997665987753 -24.62602162392168)
(-0.02224054167401381 -0.02983205219717832 0.02903483351614222)
(0.1340049896913727 0.7662346194886571 -0.857312178312426)
(0.004118841868926248 -0.3285358787990766 -0.6066042444979354)
(0.2245713658468233 0.01060350080774182 0.06344748983305762)
(-3.232578593996854 8.245714354128935 -8.59593874723749)
(-0.2907819004305537 0.05356664303483037 0.04805780003734975)
(-0.679597560509739 0.2146054763216021 -2.603917553242114)
(-0.05180809501273723 -0.007301812097259406 0.05164283015340532)
(-0.2178241168490151 -0.1969934806155116 -0.2935873974798741)
(0.09996869432026041 0.1757503498364243 -0.1959753608557551)
(-0.9429336942472851 -0.1024094052273534 0.01563666458831764)
(0.03822584561075934 -0.02612041216299332 0.003261407493941253)
(0.07754945783633788 0.01777716787010605 -0.06624069080094611)
(0.5049162702777436 0.1358091520432529 -0.3514821285793287)
(0.01635044804874513 0.02415600402956537 -0.08792548770012767)
(0.1810760882181985 -0.1240791055535103 -0.0672265569515165)
(0.0117961652764654 0.008906448374466046 -0.004752093159101165)
(-0.1237425002471993 0.1534925093312442 -0.07535090964072651)
(-6.27323861782577 61.09438090853935 -11.33152780337887)
(-2.131028928195937 -1.501218652132832 -1.828898644309899)
(-0.02142112698184159 -0.03215682822999438 -0.05279826836765353)
(0.1881116565550797 -0.08518706060506281 -0.04318657074319888)
(15.99755897651801 54.98388278483614 11.86602778797636)
(-0.1408621597472332 0.1074914846642273 0.08859503045787662)
(0.07042507080457401 0.06650387604396221 -0.03782400063639379)
(1.106978112494626 0.6990492748690325 0.9306344983661767)
(-0.02296380058154475 0.01863008012291548 -4.996292194223686)
(0.2165740888390123 -0.2621519487137743 -0.572013281394018)
(4.803491504134365 1.099633424744882 7.444966279159047)
(0.8561294805940483 0.429389067179012 0.6544875805721126)
(-1.421224453461911 -7.009427502856028 0.01697990655934745)
(0.007574085201491538 -0.02843465821403553 -4.768508651386571)
(0.01026108162070549 -0.02780844059358922 -0.0363953772837726)
(-1.160223749795866 53.76014717246074 3.949075463129084)
(3.589749387144403 42.95384709072579 -4.416814338169402)
(-0.05363344996865511 -0.09202605265562099 -4.98702473751042)
(0.5946153275346728 7.005826088601756 3.984730432055138)
(0.008032456364995944 0.004835802420600095 0.04215924729424927)
(0.2635891325924544 1.048470484409378 0.7784967947078643)
(-0.3475624195495821 0.03765605635973577 -0.3301093086341915)
(-0.0006841568518878177 0.003019909244914758 0.001751021519912093)
(-0.2506236223760424 -25.78521994286927 -2.525805924562462)
(0.8333422368476269 0.2354649192561889 -0.1047564849621424)
(-2.757492796314435 -41.17682847893347 -2.966666919843471)
(0.06485969504392569 0.05453206209923064 -0.1855497105136515)
(-1.322869154556954 -1.825406216348279 1.430060147151647)
(-1.675755503869792 0.08866591702716964 0.2814301506972912)
(1.096485943295475 0.2466909133627884 -1.113227329576455)
(0.9070378816559737 28.67823130104368 1.690408633462818)
(0.9290720651684455 -4.134240153872073 -1.057497879888157)
(1.119087047615516 4.369748980552356 0.9876737938605392)
(1.379401514637348 2.174186948693685 -4.072250866989648)
(0.02709995056381476 -0.137763898705693 0.5958002831491737)
(0.2892247852583747 0.5224042206605887 -0.8183091899208718)
(0.2815614493769342 -0.1509360479217263 -0.03891049800095329)
(0.2181441132172521 -1.426073686821834 -23.61141324158045)
(-0.4291433815508659 0.4207057242531383 0.1503987370746122)
(0.05128445345594113 -0.02753998175899384 -0.01274206733302776)
(-0.0002056015010421242 -0.002485505153018111 -0.1352298928076119)
(0.647642862613464 0.09565784403358532 -0.008158769829483548)
(2.322592875077264 -0.9888562587096641 -3.604585513626732)
(0.05627439692504364 0.02718764461661503 -0.09766912486208054)
(0.2609052737543 -0.07873504051674571 0.244026120656664)
(2.560654672878024 13.43125712513722 -7.85595352244691)
(0.06379888058858105 9.575381438957983 0.08143976963297433)
(-0.006936903459163693 0.01292910382278411 -0.05619100471661011)
(0.7475185979211114 1.541392600323701 0.5098375110004942)
(-3.929019082013765 -2.509122600930007 -4.216976361698933)
(0.08162266516376118 -1.587679766743332 0.2883291144541622)
(0.8323795736161983 2.359257870434528 0.08207321621722397)
(-0.80248941577136 -2.96545920368352 1.388524111938372)
(0.008388756951729803 1.234669144904085 -1.490397449106222)
(0.2923634825419302 0.399745994513111 0.1510894171803284)
(-0.764122305368901 1.282424840541025 -0.1920598885231048)
(0.05898579597339221 0.02610096551248456 -0.01949457173135612)
(-9.957674248508717 -10.18627866666329 -26.37702327207165)
(3.886135358840559 33.77509233956221 -2.799229185994247)
(0.2599853073618409 -1.952322168531872 -24.52327099592998)
(0.0007810544263304552 -0.004618187238128907 0.03934577381816056)
(-1.929460908907466 -0.9471682085348188 -1.13300406234863)