/*--------------------------------*- C++ -*----------------------------------*\
| =========                 |                                                 |
| \\      /  F ield         | OpenFOAM: The Open Source CFD Toolbox           |
|  \\    /   O peration     | Version:  v1906                                 |
|   \\  /    A nd           | Web:      www.OpenFOAM.com                      |
|    \\/     M anipulation  |                                                 |
\*---------------------------------------------------------------------------*/
FoamFile
{
    version     2.0;
    format      ascii;
    class       volScalarField;
    location    "0.3";
    object      p;
}
// * * * * * * * * * * * * * * * * * * * * * * * * * * * * * * * * * * * * * //

dimensions      [0 2 -2 0 0 0 0];


internalField   nonuniform List<scalar> 
19631
(
-0.04936037875428744
0.1393462709881239
0.1468851489864295
0.7186464567100781
0.1455757049069458
-0.216214040641072
0.108163697042213
-0.7308638088841835
-0.3593648649442422
-0.009881815487715898
0.5022957979491044
-0.1895114161226785
0.4874652301535036
-0.147647049318601
0.08483472256554062
0.1257597248085438
-0.1760274453180687
-0.6142454533061419
-0.4763792954678931
-0.7096204747758538
0.01610413441407074
-0.1371945320150884
2.257434951874552
0.04093718046824849
-0.1137601360045458
0.1573024280158768
-0.2130381800170781
-0.5886134789273011
-0.004573488620235924
-0.02144976601719744
-0.1241413745568258
-0.1352075466582109
-0.02011262548096759
-0.002610139572141581
1.637685410637091
4.056474420855538
0.06283757914726268
0.05327446792987934
-0.2678054120483734
0.3125252285521872
-1.065358277355983
-0.0005654284789847971
0.07600853195647977
0.1418661267310523
-0.2002229421110119
0.4536668883353432
0.112641059027498
0.08306101079737552
-0.05154348541684866
-0.1300028010373633
-0.03331860527874985
-0.1720732677797021
-0.1264325054349041
-0.02241870385127808
0.1161283187158329
0.1292645218188825
-0.1632458419510648
-0.1717406683699085
-2.289571208264067
0.01131118961904087
-0.01730628920342895
-0.3733669312995248
-0.8498359776517977
0.04757804317835287
-0.1456505683411287
-0.5871952717599072
-0.1382884074898428
-0.1432360333361779
0.5437320907388269
-0.01706806400189154
0.003026987715964556
2.327651639900486
0.1182375449326586
-0.1360583745593833
-0.1958238953640488
0.1755579062328576
0.02980059300034728
0.02658391778191215
0.3289534065237265
-1.668479412187156
0.07851272728296291
0.116239315996426
0.5416995670111283
-0.7876655119708591
-0.7475906894012496
-0.1445925946948137
-0.09369116442376151
0.1385891076253404
0.3860762195815501
-0.004544271328191243
0.01204481872851005
-0.1356613222712944
-0.1412141623304007
-0.1577713714646423
-0.229178284239593
-2.040335019545501
-0.0290286168150508
-0.5566070009263219
-0.15628800848796
-0.1310629851672393
-0.1438140247151659
0.4083208345209955
-0.5762052685939106
-0.02403324487693068
-0.3626902378296599
0.2814990474093063
-0.9727350951345326
-0.1008929413909074
-0.0973841092619645
-0.1433795697995548
0.3522899037391606
-0.6642348361792307
-0.2544423533366455
0.4859860164544867
-0.08828517736927299
-0.3284838231391338
-0.2526865298047582
-0.1588734407632738
-0.3127214719517004
-0.1665104458362994
-0.1564234433165305
-0.1471621654932473
-0.163344035148928
-0.06520619985464572
-0.166152344149718
-0.138047927155046
0.5544557114660074
-0.1451061633923409
-0.02564486057566298
0.2727208537105801
-0.1070569078201861
-0.02314766054509632
-0.3181544281958454
0.1750684273347621
0.03448265896854378
-1.424951515065482
-0.1530411713853624
-0.2646337442873442
-0.01548457126666811
0.001052927698070576
-0.9760914951829446
-0.7325909600861472
0.108138579582506
0.05425340782497787
-0.1760815364047651
0.2135446373372564
-0.1298893719460766
0.02528787225111866
0.08458868696262357
0.6447368535510235
-0.1014037550364852
-0.1134227041851392
-0.09489360118581144
-0.1361220793208906
-0.1062456846203268
-0.009788573119165294
0.09610885477040595
0.04494644329412624
-0.1839057053514417
0.0223157225965099
-0.1168529911012921
0.1004738220440753
-0.1263263690223961
-0.1409921474897114
0.09960197857525105
0.1564251304350554
-0.1815121115649552
-0.1179861015504341
-0.516676082354718
-0.02617349658111027
-0.284457058808231
-0.1468443978538793
-0.1679231258203247
-0.1529934595401852
-0.09764806933005737
-0.1481552547392142
0.058915066739402
-0.1026046874622972
-0.08267326300400726
-0.7036589484389919
-0.1367085471523511
0.01580363677443568
0.02446573888883932
0.355262311767256
-0.00718050769597088
0.05796853674816306
0.03825948319602093
-0.1670267196998123
-0.1624282487386197
-0.1349392467890455
-0.1301001585217194
0.202091692309152
0.1054222733806444
0.1304726696405976
-0.1295243908451323
0.7384837354158564
-0.1090959418247688
0.06287347530936045
0.368467570183493
0.3068690388219074
-0.1969708019783422
-0.1703002870702778
0.1569838371133836
-0.2068684439166346
0.04820545371268992
-0.1649712568493242
-0.1489144465133057
-0.1605610577422248
0.07521856323442443
-0.1708436153328891
0.1499587809995214
-0.2078069036741272
0.07088064184520836
-0.004539351900121038
-0.1396244949414157
-0.5917251351854783
-0.01728411042855508
0.01369626094955695
-0.003065794417622051
-0.131326272546865
0.01939362916272583
0.1383038568336271
0.2582604366150141
0.07060892959979267
-0.05152941820352087
0.147607351941474
-0.01378597399802125
-0.0329576834217792
0.1367125316622707
-0.06849392082217465
0.1374239378982272
-1.787602051171413
-1.88204053701023
-0.4117227025747859
-0.4704710740683696
-0.5360136586011491
-0.2795616046542183
-0.242512511550568
0.175120776637511
0.1285902427940084
0.2120986121360172
-0.2418533657693175
0.08175407234381112
0.1252430847426682
0.153501445750809
0.3682513415277515
0.1578842742375262
0.0201543412492199
-0.260944164935184
-0.08501969371047875
-0.186779271042744
-1.261833492488909
0.2251805731225301
-0.2243536883346603
0.09915848279768073
1.305014134845801
-0.1855022676039858
-0.1617520151343946
-0.3282712129614971
0.05519890994332913
0.1327071443750132
-0.2755799403892197
-0.2928209578317647
0.2458920011652946
0.01686256268647495
0.02628490028091595
0.1806277049215724
-0.1301217888002699
-0.2016369690928282
0.1461284709859178
-0.2038678358063824
0.09276603665609159
-0.3799917359086568
0.03441113148665978
-0.6621642128387374
0.124405608886338
0.1063894370584763
0.1136485699772177
-0.2006812810061312
0.03672188712044595
-0.1789668212274091
0.09630148575136185
-0.09705034809131638
0.9073240230772522
-1.283904123663996
-1.568766856056941
-2.379357908647042
0.168607482481006
-0.1560415505364861
-0.1951018419619618
-0.2354082268563527
0.1980724562513525
0.1446722590229391
1.76900961388034
-0.4023883765129984
0.07595743805832822
-0.2251286190026222
0.08438635995323393
0.2035024373395546
0.6431926830714567
-0.2489871585527108
-0.4240145000610019
-0.1721745008937877
0.4401865922578794
0.7909548494401005
-0.05540582785706915
-0.1822504699282542
-0.2106939500799754
-0.04419835875079104
0.6692618817929021
0.0387086431042335
0.0419828013462971
0.009836362751595058
0.2091358205955897
-0.02511321882962607
-0.2287465863134951
-0.3219646497026581
-0.2570289929256815
-0.1743037449956445
0.01207749798750005
-0.1714530301047295
-0.2230179723136674
0.1767648403629057
-0.2815220712571865
0.1490513758968513
0.06330734005913603
0.2622010589066979
0.1803470042973057
0.07566064822667297
0.05946421195803926
-0.3277812883155072
-0.5017792791593582
-0.3665473331436708
-0.0706707615876196
0.5226319204113516
0.02639594826898762
-0.02847544420246646
-0.2256087284687916
0.3277808701662123
0.1306794913763494
1.130695659893211
-0.2474326118962182
0.08328576671290701
-1.3315347118111
-0.2145740628222043
0.0534722849282254
-0.2497903663274683
-0.1539087344888388
0.02384316447345566
-0.004493169478009991
-0.1303604533178555
0.1052416560493464
0.1365540540208985
-0.008522900116173531
-0.1041641369592842
-0.07358500608577176
-0.0103821230854758
-0.180099632213763
0.1595064521732288
-0.170378353242224
-0.1436504009350614
-0.5132694089605513
-0.6685389082034071
0.04283025138609505
-0.2185957093037794
-0.2355042463835016
0.07823651938545714
-0.1718374883991441
-0.5343002895650173
0.3195978588011396
-0.1114880971602936
0.009690601824724702
-0.02398687936938417
0.05942875740871329
-0.3442036779414969
0.03619574401928421
-0.05060927795920125
-0.02346476346425818
0.1881830355327076
-0.07233472331984811
-1.043299072258758
-0.1015541564719201
-0.1599952815461157
-0.123824361530126
0.1273849703647962
0.3585191172489548
-0.6178512127129352
-0.3009854572002518
-0.3977915674355504
0.07561490413611736
0.1741636745213285
0.152730525906773
-0.0228251281030207
0.1097599316922362
0.06518711486103028
-0.0009298529156633852
0.007665000717039182
-0.2075816724410789
0.1385704213571499
-0.1457275397564988
0.2969011420290817
0.008705715311793828
0.566035945101785
-0.3145326429167583
-0.07518286202253281
-0.04312654196727375
0.07628663423104284
-0.05655661181174754
0.1916282491918477
-0.01597618042080976
0.09466730168449385
0.6918020279045602
0.06594762073673401
0.4027152771770372
-0.01847777948989538
0.006706471548084416
-1.080721383441903
-0.09682978951281884
0.05229403517285496
-0.1040147859780407
9.088918853820328
0.01391217942052354
0.04948837082419687
-0.1841208984188422
0.05582931316934281
-0.1097405060871464
0.7456976041023742
0.3073255668213232
-0.141608073813905
0.03601476376868296
0.02295260402336399
0.3343789452608695
-0.1648094338779501
0.05359072380731388
-0.5999448297335237
0.08541176526839955
-0.2590544339190707
0.2644377090779679
0.07565095921331827
-0.3383341806456643
0.4003489503065484
0.03569064375845669
-0.2156100674347417
-0.1955383203194757
-0.2785049363849718
0.667151690210381
-0.2912272787632312
-0.2736655886451854
-0.385570659613215
-0.1647184999903299
0.1891139196037726
-0.09566747593141105
0.09419885395911157
-0.1080607396155965
0.2079928852691793
0.07829924397990545
0.149502477230771
0.3169373037123583
-0.2833803944939183
-0.03752825821223223
-0.1180149068115979
-0.4121187043640183
-0.0929068610502639
-0.01726716642577747
-0.1981959551125707
-0.236630435337005
-0.2092206599210654
-0.2156465287750344
1.908968375506089
0.9068477131081844
0.01669462679607197
-0.3659337070110931
0.1145089237814585
-1.111589026197278
0.4094651292359843
0.02864816321177201
0.1114920603941228
-0.2322023584212237
0.01948004578128696
-2.006122036704499
0.1385836238086073
0.6333612488726779
-0.0690244666549492
-0.6356982072722401
1.139472702832633
0.06660810097156947
0.215532921199569
-0.2646323696947013
-0.04533315060309592
0.2577092494981305
0.2864189460916438
0.01102165953504856
0.2596406175377838
-0.3773268552129987
-0.200353956479086
-0.08851317522431625
0.105537155213877
-0.2669120666132803
0.2865230334393112
0.6676895643760733
-0.08334994085799301
-0.04191943685068279
0.1684268249602433
0.1284498801434494
0.7163446084775379
0.05156593428415456
0.03477941549068517
-2.534418177133524
-0.06706530939121179
0.001776104191716628
-0.17886870885312
0.03354370870835663
0.02039778663307515
-0.05738694779655488
-0.1329882837974054
-0.2743150394557968
-0.08678815621181765
1.718562222297478
-0.03598837297470981
-0.400301444813343
-0.3719577774233658
0.0365746607973308
-1.27458730762195
0.02252771494303541
0.3902854464889838
-0.3827122971833307
-0.0967241873575323
0.2266416360362638
0.1103434496850577
0.01100534835676308
-0.09634282792231337
1.923132140069059
2.676265807639044
-0.1978350242760644
-0.7722638803752745
-0.06060276190982058
0.02153054248042386
0.2030600518566013
-0.2399830914235578
-0.3260941280835565
0.01186771682262175
0.2947168556986456
-0.4180045382487331
-0.1062582197167766
0.1134079753667874
-0.4672792690907043
-0.01366023139338967
-0.158011104635098
-0.6401542046139664
0.2393517519057815
0.808809026546511
-0.07107756070312513
-0.02579710874428073
0.005269357099429627
-0.04480578507898071
-0.4036902800178064
-0.3539854450059317
-5.845479228528121
0.03703471621718638
-0.1968953483590175
0.5577717024657411
-0.1063499915027221
-0.5262016363916063
-0.1830981180784219
-0.4051079533895056
-1.032614860475288
-0.0009062540750405843
-0.06267150215753443
0.02649123188871675
-0.3018764974871503
0.08420379508912341
-0.2322871520262314
0.1249491346407334
-0.05300972791596643
-0.7045825207212993
-0.02633547559682375
-0.06554062905922045
-0.1725640100040888
0.1423389364851798
1.768170379706288
0.6450181616677375
0.2279175464505584
-0.2915115850797797
0.1363258612111225
-0.1075656877161319
-0.3249757763858932
2.161813936521876
-0.1860564551158323
0.130263819468121
-0.1496222072034911
-0.4409349781751864
-0.141118340926552
0.1374448379634642
-0.1444705483638936
-0.2973538361149509
0.7494195964565175
-1.04312452515866
0.0345860976083574
0.007503032814107617
-0.1211646042175595
-0.1922129988149882
-0.03243574433311581
-0.1177388353279666
0.04638510378059545
1.155120671290003
-0.2876723700108652
-0.2019435509934667
-0.3706556375305958
-0.2855941475011234
-0.2274166799427342
-0.283614912133019
0.9008895182017477
0.4444707203503376
0.003085792700997236
-0.03191669063172919
-0.7558922893753335
-1.28078139400215
-0.02282146640296472
-0.1543579277213712
0.6391436230581936
0.01536760302925197
0.006485951366426445
0.1555178768974739
1.885839272252025
0.05829498729515197
0.03902568254635924
0.1813268364970229
-0.04091072218819519
0.2879297149595885
0.07267134235454029
0.1423768570660604
0.1739549063283191
0.5713601522773072
2.688911735075996
0.01590530642082822
-0.2319062222763593
0.3037605024835483
4.253888816680354
0.03619853611161643
0.0009574253922910697
-0.1153667965488864
0.1223538391068896
0.07776975031450531
-0.2294477959550122
-1.350722832511489
-0.6792649506055116
0.2885705833337367
0.3729935178607336
0.2591613615475089
0.3790772122083052
-0.2863322725628795
-0.106743842573551
0.02489038523662698
0.6998956599331912
-0.4933055065103563
0.05050080863366312
-0.1261924919947013
-0.2326631497668173
-2.386939000511949
-0.2702716128878118
-0.8959197631827178
-0.290146215799126
0.1437615066462699
-0.5765611065379248
-0.09510733956574365
-0.06501924234264207
-0.4089795621751179
0.09781184151301248
-0.07139061384040266
-1.056581024985273
-0.03185924621174134
-0.1672549549182049
-0.6756200321687647
-0.01147184835267149
0.8127344859418857
-0.2222199780338907
-0.2636267614347114
-0.1580642839603232
0.2741472185401175
-0.2820669211725461
0.0976918156232895
-0.4591089964680028
-0.521913310059299
0.9978554587670326
-0.5036697194896256
-0.7181341220734383
0.1300078701118965
0.1156222948363885
0.07536318561420827
0.08205228516659391
0.09122591947479031
0.3008301036683344
0.01973991223767341
-0.07188727498636521
0.1662023879468289
-0.001174084595691614
-0.1468202859572401
-0.05233074292422702
-0.1861564410405256
-0.1879590036715564
-0.1765710676040114
-0.4281182765570383
0.1415955195041389
0.03535424929798854
-0.2110104752628214
-0.05920345230864955
-0.0120137438179275
-0.2482355819150319
-0.2358508153374832
-0.1165341336502634
-0.2071739963119641
-0.267442789470033
-0.2322995017178726
-0.1161223013914563
-0.570545633359607
-0.1938102885367214
-0.6575328258754435
-0.03851030633311372
0.8266911928329415
0.02561597892366117
-0.01277638270451451
0.04330548877976664
-0.1032794753600076
0.01399038795056423
-0.07885284775239504
-0.2511265194492757
-0.218213677631011
-1.669134922960147
-0.5497999949833098
-0.1233237329338249
1.113056956404675
-0.07839798275355703
-1.129760624306721
-0.15612728589342
-0.1422513522336973
-0.1527240563050612
-0.1625001997677944
0.2878952039683106
-0.09190470995823706
-0.007317592119409667
-0.1241822552195688
0.005590081128920885
0.08148933372100621
0.1451149354511043
-0.2556997608743363
-0.2241928924624199
-0.4432072024285107
-0.1930451062279231
-0.1703085065798554
-0.1273469001285151
0.1088332630702606
-0.2806115445715447
-0.2814250356738337
-0.2962064071518618
-0.2310421997926344
0.03267389629691664
-0.1496190906678211
-0.3003479613664055
-0.3703319173636167
-0.07389094482189473
-0.8084531524416408
-0.05494667682453318
-0.2742140857516983
-0.6923023056792755
-0.1065745351692151
-0.4107605286080797
0.08545454055236065
-0.2135149235610982
0.1499669026856207
-1.008232452233052
1.445684173431959
-0.08631727526236749
0.02877152347035252
-0.8788068787238048
0.2091696275052233
-0.3935607993256406
-0.2314995027661557
0.01796060609129387
-0.2743902217008378
0.03257552461941313
0.07795242516401861
-0.6015651476301358
-0.3455097076262428
-0.03492759756510343
-0.1066865394164566
0.271018997466558
-0.1120073665608851
0.08342737440222821
-0.4340616818816811
-0.05477972030268471
-0.977132431100793
-0.1037475390542206
-0.246913258368647
0.02651475466144048
0.8661576041954945
-0.4076429552711525
0.4505749563508369
-0.1782714819204241
-0.39512599612124
-0.5194061803843376
-0.2336834779366477
-0.2330844361697529
0.4424738777898485
-0.3656332443332614
-0.1566643498665413
0.350314067281972
-0.2060279380792815
-0.03094958835650169
-0.159508195737525
0.0238774232935006
-0.3082392893851789
-0.01777510601698155
-0.3333868378481673
0.2989772331431592
-0.0931718571600747
-0.05814217137168986
-0.3806465730464996
-0.7344552598801168
-0.1388126415535774
-0.4219168382189533
0.1245214777925087
-0.6650825111080172
0.525196747798055
0.5699162297788074
-0.429349100901997
-0.2777728671996827
0.02803201247432349
0.1908414470104541
-0.1594143298941439
-0.2319153251080654
0.03087430658255598
-0.1231858752157925
-0.02935311829127047
0.04564441084523212
0.03110145168119779
0.0535307916206793
-0.005072222589514802
0.1180897034102982
-0.5821866650350074
-0.009008253147846108
2.045590134456386
-0.3087862192707898
-0.4536276302103625
-0.3889848259306548
0.02513845538561827
0.01975347091180319
-0.125671143852433
-0.1370318634726135
0.7528870012157789
-0.1670243677314555
-0.2129530651457359
-0.1205312884720889
-0.004941652420275553
-1.444066930636515
-0.1958680609984557
0.09348703263272697
-0.1558790683831929
1.037873726822919
-0.1928143981501691
-0.2910383416339692
-0.09209682903394643
-0.05321178541774432
-0.1127006275654681
-0.5406645971076678
0.02418174387193983
-0.4060955709119042
-0.1317621889136492
0.2293149890342443
0.1897147367500193
0.1657241747738874
-0.4439881181803582
-0.2447817305800992
0.1180107434433802
-0.2475712120510071
-0.5164563806936749
-0.1853095145758871
0.7175621083106141
0.2019738181837239
0.01681086927744635
0.934444217229367
-0.03443378252756407
0.429901194009166
-0.7024331845161512
-0.3958847445431976
-0.130398455647163
0.443754610688583
-0.08627334947086829
-0.5461850254675663
-0.4158544780598985
0.701043931330696
-0.09174636805107954
-0.02292403520163715
-0.1311103413681466
-0.365121838802711
-0.4951171855613929
-0.2970078291486239
-0.1331088306330939
-0.2246225815073145
-0.6176091171591772
0.5165769449694404
-0.2138487335475104
-0.4824852296608096
-0.03382523799610342
-0.169099056555185
-0.0591155378601313
-0.3583011414269298
-0.041492109935124
-0.6292923479636093
0.3744908950603349
-0.2588781820801779
-0.08398370912929655
-0.3323394441537708
-0.4165199858449981
0.1197260274857749
-0.04166828226468295
-0.6377834244305495
0.141170414859536
-0.4674499844001154
-0.8939433376334919
1.026353916161182
-0.3247755102774406
-0.2614611954734081
-0.8425419529277578
-0.01699096847266752
1.589254943955119
-0.8442820264958601
-0.3286963102108126
0.1433701531849128
-0.1517126083593632
-0.3121277783279258
0.113278843203911
-0.3486471290921715
0.04461757439057693
1.103583350997038
0.3880288151358601
-0.3745120755627445
-0.1525378038471026
0.1199961825439289
-0.04510214094638253
-0.06270493138415041
-0.6122157510381169
0.1431837381325826
0.02269897467576576
-0.3676504908194336
-0.08221118061600713
-0.1292423973658716
0.7363439074693509
-0.2921218607239385
0.00121640956732545
0.1201249908175982
-0.0964501619881908
-0.2148590662687269
-0.1527951199928654
0.5010381261154429
-0.1314820612960786
0.5506495595962416
-0.2505229513301191
0.7470221008244854
-0.1619801598670554
-0.2554472612078976
-0.1496681402168232
0.1969306411172094
-0.1084343927313244
0.03702459648108695
0.8492961035646592
-0.3761453199480753
-0.9455973765870482
0.6938907554197954
-0.1493919276242101
0.2321807812465846
0.3333099919030967
0.1283165986075397
-0.1361587092766312
-0.2798476375889453
-0.2520402263393977
-0.2744207045088433
0.4428877112628434
-0.4887477693134708
-0.7457997411538769
-0.260469460084993
-2.445122166392072
0.4026484154132363
-0.3015287690022302
-0.4431590218004699
-1.672507605451145
-1.707353557113272
-2.314038812002191
-0.2257088766331488
-0.1244935295704112
0.3665247896952079
-0.5125446510668512
-0.7600560361932281
-0.1886960891006818
-1.80314552272251
-0.2288839749266062
-0.3080363631075135
-0.1990710859380147
0.1535536911474245
-0.4396634245218005
-0.2688762050581322
-0.02837132160180527
-0.09577192384064304
-0.03296487529900682
-0.5492468092133285
-0.4717112877907101
-0.5847216838772933
0.06943277644004586
-0.4370700094610732
-0.2865985166739135
0.1059955090691457
-0.5206499181989938
0.01630663847523438
-0.1874477274906128
0.07182075318224597
0.01817016480775182
-0.8958853375881611
-1.035741075209199
1.048353490037385
-0.9471834000690075
-2.517999270147265
0.1636139902856753
-0.1042720680382836
0.1738713226546131
0.1620049720032989
-0.4779240193515244
-0.1278201639756758
-0.4932536204011282
-0.4882640695445749
-0.2712562728291454
1.74707732619033
-0.05047236010095103
0.04268933777565361
2.282745650878995
-0.1135930048529816
0.0445846580801657
0.4149180922455947
-0.2874771502451296
-0.04305407857078258
0.1476606597879546
0.9554157638982643
0.1183953567641132
0.1883488629449877
0.1807685391151883
-0.5421413192762269
0.8459092621446275
-0.6755547701088171
-0.0140349978256552
-0.1407468093745473
-0.1436028687764506
-0.1643869481266778
-0.4501924932745609
-0.05837096876571735
-0.02415843639731675
0.1449420657556635
0.1276355351143067
0.3728951758638571
-0.3114336798172598
-0.08341562280946732
0.2742221964410183
-0.05585655354747975
0.2724464875387324
0.2891677913573051
0.6973676859591702
-0.8984467539275114
2.136385369639198
0.3858693900241124
0.7808279644626638
1.574243486166325
-0.02236493827526877
0.06775815807555907
0.143791846773683
3.648511535731745
2.780551873281289
-0.2060446528637776
3.464849029713934
2.54686069546829
2.785839470854304
-0.649472152042731
-0.3343230458208412
-1.777273723562398
-0.4812544909657734
2.414851896898918
-0.02814123516460583
3.061594220369134
-0.06591942975493532
0.05891413216776559
0.054686596641152
0.05954387112701448
0.05894892393066625
0.1179497198228587
0.1198717945514937
0.1296682323956799
0.1242550870645009
0.1290828898650148
0.2821644389596569
0.1087042991900291
3.039593846463938
-0.4392668557615946
2.623333865038294
-0.02924480310254878
3.056901803401163
0.2527570289186666
-0.565248627752568
0.2962193214563855
-0.5846093165019374
-0.1621922849606306
-1.162105592877689
-0.2439991182388412
0.04090749670518764
0.009528244740539739
0.1427067888672484
0.03104149206556789
-0.3798919203741256
0.11563207560718
0.1557801101529403
-6.713393290525539
0.08912017590566587
0.06223980474695211
0.1897176106151598
0.0148874672029044
-1.064271984558249
-0.02309063445645883
-1.882766946377877
-0.2399096854791238
0.05192659248942255
0.06210753616088667
-0.3419994510774558
-0.101926091921159
0.2198361131020916
0.229679157194272
-0.0391109387274972
-0.08926730161013033
0.2080472747004385
-0.03687657617405785
0.1220587091599895
0.1462039587640952
-2.386667613227986
-0.1201668282834903
1.330567062374405
0.1026104700838418
0.09366968681546624
0.7763203342572865
1.137465307000008
0.1969568476720875
0.3719755012117955
-0.1603314770643659
-0.02498043961152672
0.6171072842488909
-1.015323772159255
0.0523367392187186
0.7851219742747767
0.06328910646364687
0.4969229157903095
0.03590716448608327
0.06683171170999463
0.2729110544175084
-0.112248429742893
0.08061006666301773
-0.1656372084927044
0.424728172959307
-0.778656414803394
-1.093212744532002
0.1340332737201964
0.2086921031171781
-0.1094390311769938
-0.08955887268251705
-1.918714258281136
-0.1035927218688618
0.03958715577064015
0.1903988129251069
0.04179866595309494
-0.2160113492994596
-0.02118977895972577
0.08241120872099644
0.0439852697348949
0.3096906880612439
0.0936474045723141
0.520900644099788
-0.4186190389842011
-0.4343873670603282
-0.1538702523491433
-0.318812710319217
-0.750103937103717
-0.8701479580162147
-0.6516561626721028
-0.3901158517545071
0.05330459544333377
-0.3148727887576694
0.093124257594436
-0.4118718577695192
-0.8599636182819206
-0.9652927321408926
-0.1398322320708277
-0.03724447410935905
1.81968588226506
-0.4296864074668428
0.03491199733435416
-0.4911088630932776
-0.09611222806294259
-0.02912722201371886
-0.04568874056376246
-0.20343615407927
-0.1664112136574195
-0.2429385606135256
0.1384533054318677
0.5670162212755905
0.02636604845957366
-0.03299278031185346
-0.06774506868253449
-0.07949247597881985
-0.0293000298854857
-0.01167547786894338
-0.007655176135084769
-0.8445308781622596
0.09222559480726995
0.1768021957349389
0.4612210369309216
-0.1747986977228786
-0.03310023432210493
-0.3884255859325335
-0.3595796193137002
0.03771996102178399
0.2495334863223693
0.7672491632109012
-0.0278666582590244
-0.04727002878035246
-0.08109612165801694
2.332980163889399
-0.0835326226639985
0.004988526815887403
0.1166969396179612
0.546519261714108
0.09414016254821464
-0.1740563688581324
-0.5973084443602462
-0.003151711983430978
-0.2361316498879556
0.2706084935260514
5.4982735967188
0.03066665652663314
0.1530325331707676
1.400266536300674
2.901899688529136
0.1179226267755359
0.2598135325761134
0.5917261666500954
-0.0906166857691305
0.06729699831475495
-0.1029583711244642
-0.1221438283763974
-0.2897153683461944
-0.1014497574499487
-1.122988568629607
-0.08361395044540315
6.480326931251992
0.009406848647585026
0.1544161595991443
-0.1459507582699605
0.07763584882110415
0.2011420106875986
-0.07394859417745983
0.2172434109008385
8.985605919197743
0.7814441010421491
0.1719996189087315
-0.03002850136904843
-0.1055234464949742
0.2738242563144332
0.2089058464070434
0.005798542300825836
0.6667898583415828
-0.1142441806902575
-0.2793944954214924
-0.4002069023910707
3.494800215214512
-0.0208177306742208
0.6877248490065031
0.03655294824362908
0.03409511777091835
-0.8198442358150497
-0.126288699292186
-0.08621287509055653
0.5479324169048
-0.1497928002268983
0.2685720951096678
0.1086001331620065
-0.01515035697340846
0.3508736191114577
-1.495502619100857
-0.1031861408493655
-0.1221503010602379
-0.06152103704638719
-1.070933791867945
0.1042775634233123
0.02169921721449963
-1.096491099651547
-0.9592305648900608
0.3309113416438201
0.3532017014694301
0.2664493731799759
-0.1527741680136253
0.1435787299201299
0.0897958839294847
0.04731307824259931
0.229117498160749
0.4286538937905351
-1.008405179349636
0.2680884855618036
0.7650800149248176
-0.1301227884570962
-0.1551440712832597
-0.4850816368807621
-0.2842155178835968
0.2382111339572764
0.4542160373584221
1.530020263914565
-1.440669706782588
-0.03378765983395433
-0.0649861207343196
-0.1626325383477313
-0.08368977555798691
0.1365561280735409
-0.2244836658120034
0.6411363175233481
-0.03397336866169929
-0.06789266169197271
-0.1453907788468915
0.9092118081236886
0.02288793472413733
-0.009915183855317681
-0.1387512001245812
0.06892898609953176
0.1639141364000291
0.001815418738880102
-0.01963895805895623
0.03890101138745404
0.06453448530148174
0.1348118503483601
-0.002427022931597561
0.009031850007007257
-0.0448098611811405
0.9775232503021082
0.1405995396089022
-0.565029962980204
-0.503004294100081
-0.157389356991605
-0.305297110773753
-0.1559333167921121
-0.1461917173985135
-0.1776052489664531
-0.3727542960222797
-0.1657498275535388
0.06042321687203064
-0.2339962864780691
-0.05876425793142138
-0.003273685773932666
0.05253998008771611
0.356603008425403
-0.07354924502610956
-4.205463669487246
-0.4139922255105251
0.2809118043109216
0.02466754142727622
-0.08474397380586106
-0.1950607555611097
-0.05481235028537523
0.1485409033304532
-0.1093045461483027
-0.2524248505030759
-0.06102959117464785
-0.03462983240982288
-0.03509255071456308
0.1324392405749755
0.1351782257222814
-0.3078439030795319
0.2615806295485493
-0.1253518976326109
0.05158347942390007
0.03428013473501368
-0.03613547585420283
-0.06405614785428547
-0.1651238953692524
-0.0382873487837474
-0.07831391473544158
-0.06044361651753914
-0.1432744156607091
0.06773473303699626
0.1710040769419229
-0.1979529888212488
-0.01243635495426167
-0.2128974890579764
-0.1418385044675854
0.7584126942671852
0.4477013484819797
-0.2729812452801631
0.08084488007277628
0.01988543152442542
-0.0371428881186372
-0.1417560655160494
-0.2671280232333552
-0.1731953631208024
-0.08330975314450352
0.07438942773749843
0.06026685903344057
-0.3543329111300408
-0.2590853716787599
-0.1103138762887104
-0.01411395937954248
0.1554840857530576
-0.07436864463487494
-0.3938045449038431
0.1576871192602262
-0.2916523454831434
0.2763094319895348
0.07250224105752806
-0.1203610441987902
-0.05750142281075417
-0.1788358667774031
0.006582583917853073
0.01672528017328797
0.008147768844126506
-0.08706752820668097
0.1418992607368613
-1.813288558531702
-0.01648642399159219
0.3106363798307835
0.03187322797802045
-2.290471495036754
-0.008114818541404285
0.04397429215389598
0.4806423642498535
-0.002745089472740948
0.00382856678840212
-0.1875485949380323
0.1533488460654246
-0.5304589006948766
0.007466104048444393
0.3220518855727211
-0.1714244563422991
-0.2191172485180782
-0.3002542750829896
-0.2311519441066959
0.5847903406642351
-0.04809857516887251
-0.02817079318665415
0.0113814594572504
0.1016354274711562
0.01177336970382831
-0.1230126646499814
-0.6379914560139109
-0.102871696745914
0.2900420639153496
0.5309933792071412
-0.08546363865690519
-0.1807019997638287
0.07968078545658364
-0.4516433538925416
0.06532098076199687
0.6404360299004088
0.2844767390132814
0.1772886308265826
-0.07978171218005788
-0.3099607151361155
0.1921121150148688
1.890535012407183
0.00629522339432479
0.1161849343257587
-0.1291158863354138
-0.05683707120010296
0.01383649409779289
-0.04116449103298556
-0.07172753220776142
-0.1125938687273189
-0.06480138534757601
-0.2635270668645754
1.361428911204129
-0.2728041293468096