/*--------------------------------*- C++ -*----------------------------------*\
| =========                 |                                                 |
| \\      /  F ield         | OpenFOAM: The Open Source CFD Toolbox           |
|  \\    /   O peration     | Version:  v1906                                 |
|   \\  /    A nd           | Web:      www.OpenFOAM.com                      |
|    \\/     M anipulation  |                                                 |
\*---------------------------------------------------------------------------*/
FoamFile
{
    version     2.0;
    format      ascii;
    class       surfaceScalarField;
    location    "0.3";
    object      phi;
}
// * * * * * * * * * * * * * * * * * * * * * * * * * * * * * * * * * * * * * //

dimensions      [0 3 -1 0 0 0 0];
oriented        oriented;


internalField   nonuniform List<scalar> 
37423
(
-0.1099446596450455
0.4257209956288898
-0.4541177854675134
0.1383414494829229
10.92300257543879
4.835222050464127
-15.75822462592087
1.580872373807353
2.853400668922824
-1.477054084957578
-2.957218957765757
0.6324667918030611
-1.186776985969423
0.5543101941865485
0.118281110176673
-0.1651610389054851
0.02655235334180095
0.02032757539063597
0.04853116663209881
0.1460209765842274
0.2999714560218742
-0.4945235992265958
9.162730756313424
-4.65798745668169
-10.85534065721124
6.350597357580484
-0.07448248749110771
0.08416778176836398
-0.01207082815629371
0.002385533885118084
-0.2026809839875424
-0.02972645331230941
0.4454482814240837
-0.2130408441190611
8.634292345734925
0.6847476019131469
-0.475108139223061
-1.398821213243027
0.4428227616536569
1.431106590817776
0.3002688244061708
-0.5494133419175308
0.7632000565488085
-0.5140555390149874
-1.100556290632007
1.391848977837008
-0.2912926871974704
-0.4546037327547863
0.4889398838482218
0.6023826822758243
-0.6367188333505265
-16.27973541266991
8.934145426681827
-0.06168674364894607
8.858964149484057e-05
-0.1169451282059744
0.1785432822182534
-0.4652535177085225
0.8110688662663722
-0.04554652414109916
0.2113222488347414
0.03393012011192439
-0.1815259489982443
-0.06372641994057106
0.1102899196829095
0.02175996485837717
-0.007951146222603933
-0.1240987383131647
-0.026238134701437
0.07203278449346943
0.03200157019103018
-0.07779621997770207
-0.2172235162987603
0.3818139751127889
-0.4247649806188281
0.2601745218086891
0.4084770232068382
0.6694223668594333
-0.2610621900371617
-0.8168372000130827
-0.1185564699367882
0.1276640802216247
-0.1099417238240999
0.1008341135448924
14.79724368036085
-17.66463010132212
-6.360322101982609
9.227708522899938
0.5839585704680177
-0.06740664939599959
0.09081683614893379
-0.6073687572184951
-20.48690349790987
9.380068449665046
11.10683504824224
-0.1818595980163559
0.1341132060504649
-0.4175071257331912
0.1041039052837422
-0.111741230058857
-0.1980614189084137
0.205698743687953
0.1691565306217821
0.01406497854248545
-0.1813369921079189
-0.001884517048333981
-4.259410135318395
-22.44186455196391
2.755193662446654
23.94608102477214
0.2113123736665817
0.3972171944792479
-0.1517489193592446
-0.4567806487787581
-0.07921961020198037
0.6990090070790266
-0.01533707985088191
0.1085471662699285
-0.1064111426847989
0.01320105627116732
0.06244104190572528
-0.6368891313589624
0.3322213356988495
0.2422267537667629
-0.02258804900727831
0.06701443475590961
0.09401746169543722
-0.1384438474347921
-0.03549169582602562
0.01974167590911098
0.1103563640243792
-0.09460634410329193
0.2718123567309781
21.64497987260855
-19.58186413958755
-2.334928089754895
1.159414163257374
-10.35229390518273
9.327559529197764
-0.1346797873069119
-0.02408848807500793
-0.044506709246939
-0.1025365269875392
0.1711317243149407
1.616157249684188
-5.707626806575836
2.373637375785981
1.717832181133841
-0.1531061126564946
0.01160223186891663
0.1598809858459167
-0.01837710505488679
0.5537068886246821
-0.7034511692509499
0.1946345922704259
-0.04489031163969607
-20.99236131131986
3.666367537095061
7.168302817598987
10.15769095660403
-0.2200191719310906
-0.9232267579255681
0.996950958110649
0.146294971770945
0.3913465013848209
0.004291781667007511
-0.5435418385344125
0.1479035554821243
0.06906058582680812
0.6688140123376648
-0.087739486206298
-0.6501351119436685
-3.601831922429508
-21.70812450214778
22.59258434467199
2.717372079900729
-0.9449396925142431
-0.6802375516849071
0.1785619823887237
1.446615261811251
0.5156066804321293
0.248050322720861
-0.5175543176449411
-0.246102685502834
0.4189945413373921
-0.1845270674181367
0.3686758634266823
-0.6031433373383012
-1.047834860863396
-9.906552944104803
10.95438780492787
-0.6684552185836231
-2.833784432225505
1.163494971092478
2.33874467980156
-0.2456462751265783
0.5854212062640406
0.03302893700016306
0.2038750920775449
0.04539024501455926
-0.2822942740840422
-0.1316828311291988
0.04221326278767507
0.1108929306704951
-0.02142336232446637
-0.5326408306030942
-0.09682005214680356
0.1045174487872753
0.5249434339838825
-0.09190915735392122
0.5872575936108247
-0.8617345682838777
0.3663861320362596
0.2645559761601655
-0.07655365138991162
-0.02673800962344185
0.01114617362877159
0.09214548738776088
-3.216734357560214
-0.5607207325822098
-3.058326622233972
7.24634921333969
0.06088396331917331
0.04925268101148347
-0.03935838806946389
-0.07077825625772263
-0.002206969637557171
-0.09915808451029348
-0.006216462455204042
0.1075815166058229
0.3876747550107234
-0.3769068772439608
-0.1331290666049845
0.1223611888489686
-0.3122135101456148
-0.1597062680553401
1.141342145075677
0.03217743653536766
-0.1246577963920125
0.0130884301022319
0.07939192976045982
0.1154113920827261
-0.2969456271322018
-0.1586111058000353
0.34014534085542
0.3369560576772177
-0.7825453151229819
0.2170806426481503
0.3679810621758204
-1.148380350149208
0.5633186453360983
-8.539185758799398
3.965713279208026
-4.77372056654147
0.07783065216926077
-0.04612722873707751
0.01444036452681896
-0.04614378795192667
-2.395504727091379
1.030715471800443
1.10758374793929
0.2572055073650436
-0.5256331882570472
0.5317455805815506
0.09116681146017803
-0.09727920377153322
0.01308541385944404
-0.275729652462719
-0.3648049190285045
0.627449157633908
0.1148714064754293
0.0800333889494155
-0.1524396995438752
-0.04246509587411288
1.674338412324875
2.981566353136614
-0.9501355313833079
-3.705769234030801
-0.01072403189348996
-0.3984237279541893
0.7131916722360815
-0.3040439123645431
0.6790386900630266
-2.0300941810895
0.3969200293227205
0.954135461719997
-0.04116359495234321
0.02310660368746766
0.01805699126811901
13.83225911355008
-1.124855666981203
4.761287276789159
-17.46869072338311
0.7326080645744816
0.07423308699433388
-0.00774491775184856
-0.7990962338099002
-0.17888818938463
-0.5283962102411009
0.03135643936425352
0.6759279602695518
0.335345115298959
-0.1480629966040922
0.09415451908145811
-0.2814366377662627
0.006730243460222139
0.1475081855977683
-0.1273072595557016
-0.02693116949705501
0.05538835657114761
0.03968812924119004
-0.09507648580931741
-0.08226166456158691
-0.5229821439053695
0.3595975333409898
0.06776472575615194
-0.04491211696866415
-0.1084314240735394
0.08557881529122849
-0.09428428586055325
0.1006338401866494
-0.006349554322044819
0.05856601647897095
0.430970501294874
-0.06048555069021066
-0.4290509670758692
0.07340002555798261
-0.03530704334672723
0.1640764854791541
-0.2021694676863347
-0.1172876105630248
-0.2274832908451785
0.4601822934943917
0.292216125354133
-0.01228654143210635
-0.03332553880128991
-0.4562951333029511
0.5339282116213647
-0.04430753950885737
0.1616629887517879
-0.01566509515447565
-0.16865414267534
0.02265624908624831
0.03038651857734628
0.06412742139958116
-0.03880159258672323
-0.05571234738549591
-0.1051636007788828
0.5088664973245026
-2.065164841440954
1.661461944913094
-0.8249037077023096
0.7688382797372597
-0.1341323145295745
-0.1457660813455005
0.1995367068345547
0.4235263683445478
-1.175771753179019
0.5527086780110433
0.4655919441780057
0.02752853797437306
0.07731687931945119
-0.07333323911425971
-0.0315121781752484
0.06126573742394721
0.06655362105705159
-0.2401241180669215
0.1123047595914354
-0.6215033121955387
0.5871577574661714
0.2347846683596616
-0.2004391136240933
0.1063566608716506
-0.04666998236247571
-0.1347878730855009
0.07510119458119528
0.1210077696267426
-0.09179877860529363
0.5127489698067247
-0.5419579608247032
0.04676842494904381
-0.06958515970296916
0.1226982693796099
-0.09988153462038031
-0.09957258923138548
-0.1495655737925614
0.3757686694780845
-0.1266305064546627
-0.323370702289008
0.4687656262508629
-0.2449675131944525
-0.04066136777281062
-0.04626492917493306
0.1765167714492102
-0.08959047449676516
0.1218367672529565
-0.04860053203749018
0.0862732919692807
-0.1595095271784659
0.09895112688728937
0.004643124753175268
0.000769042018516705
-0.1043632936555501
-0.07086618307597715
0.03126963909529658
0.1340880549751015
-0.09449151098523965
0.4261029585199994
-0.5573497431182871
0.1058656605679937
0.02538112403302431
-0.4289401081229441
0.6556361286130777
-0.2280196257123703
0.001323605230140426
0.07192716728025531
-0.2311566043141575
-0.2071646882904603
0.3663941253297793
0.05507661537668029
-0.04081763221276198
0.1148006496821928
-0.1290596328417393
0.6127760224091644
-0.356276437235394
0.2870010195528908
-0.5435006047106272
0.09822637977623516
-0.08488183474607601
-0.02424241134313971
0.01089786631854465
0.1121972261587205
0.3179093363636497
0.03548538166392431
0.4538225291933272
0.1901202775521882
0.6937942053665792
-0.1143437217486239
0.2159796704115658
0.7806007081170208
-0.3027861731534167
-0.2593301363106624
0.1708855107010521
0.2104789724352312
-0.1220343468202351
-0.5246707943808322
1.297604392372461
-0.5599438505471193
-0.8973668098724475
-0.02946991882751119
0.08612420445159055
-0.0216725669208077
-0.0349817186985138
-0.1385586907347674
-0.5186580940752019
0.3625970550142488
0.2946197298215486
-3.182140244401871
-2.980059397169242
3.796025973239399
2.366173668306201
0.3479131366574487
-0.3205356873171133
-0.6344713261900304
0.6070938768662626
1.81724574644397
-0.3967906373875925
0.4705904581942439
-1.891045567250509
0.3531765865151602
-0.5296197104710946
0.2388841658700488
-0.04874266826810519
0.3389234635954891
-0.5458694300508093
0.2556886347282765
0.2125952866191714
-0.2085518988719185
0.1034380312730499
-0.1074814190128655
-0.1291154633528729
0.03887062002122342
0.3175118751075206
-0.2272670317690904
-0.07792502752851524
0.01355965673498842
0.06791091549851058
-0.00354554470029128
-0.2566673060276283
0.02695216043144453
-0.02227133836016591
0.2519864839629852
-0.07871048731336081
-0.5058365102562097
-0.0130982986494312
0.5976452962291471
-0.2364210770323962
0.1602556209208199
0.07616545611408782
0.2228721881974382
0.02735846538906661
-0.1679329952782042
-0.08229765829725512
-0.02831049885603354
-0.1585783173084697
0.2199208391439467
-0.03303202297433537
0.2107309687782239
0.07267751641973572
-0.09152390182586635
-0.1918845833660231
0.3465594799423443
0.2250228196978127
-0.7724609520525524
0.2008786524225371
13.68678480257638
-9.167160337585724
-22.5477446787851
18.02812021377195
-0.5737511537939282
0.02029987152533831
0.6120464630470814
-0.05859518076679028
0.1204366374535448
0.03975033747424853
0.005193988091376786
-0.1653809630116974
-0.07264715415496725
-0.5292240019394828
0.6080960241345691
-0.006224868035420827
-6.780808945689515
-5.401254664468152
-17.39642527508401
29.578488885185
-7.671544900912327
10.95596406472589
4.230642485975607
-7.515061649769569
0.1178770302185351
-0.1031619532564984
0.06052092061002144
-0.07523599756691303
-0.4667318196196773
0.2327212356984762
0.08057619666869376
0.5339517813887276
-0.09992114569306018
-0.514606832356064
0.2303601884858439
-0.1186686499364628
-0.2612571123390882
-0.2910566993912617
0.5048342677153075
0.4217250969223638
-0.6355026652313771
0.01399075802309639
-0.1408029397994202
-0.4475425074485793
0.7532280274164777
-0.1648825801584447
-13.63489850857336
6.126756362717445
1.084602194691301
6.423539951140302
0.08592719627489316
-0.006801939394748374
0.1643460869404555
-0.2434713438150877
0.1084516038152874
-0.09259752624077898
-0.01585407757091694
0.13499585084005
-7.56410683839085
7.429110987514958
0.388811897882346
-0.3630541341565858
0.475532298861649
-0.5012900625807398
-11.15978551189455
10.56668452999537
10.68859354946751
-0.04317827697534313
0.5231569863190356
-0.08805632455464821
0.0855837204475851
18.0847742611043
-18.00966684261681
-0.07510741850098156
11.89424595796309
-23.05193981951605
11.1576938615525
0.8865682533277167
-0.1366603712915568
-1.543234183812989
-0.09232022575921181
0.1607166694553573
0.01269462713967992
-0.08109107083201925
-0.1129760533434553
0.1824772865952111
0.2262504571655116
-0.2957516904163207
0.4656232819239864
-0.4372603026146032
-0.1937271339613268
0.1653641546573823
-0.1294229461214808
0.5419847886320298
0.4289998116036147
0.09689944661166137
0.06135833540119691
0.4875126416880134
-0.6020260741786564
0.01723422872860162
-0.3064949527091914
0.1056763844537795
0.08214991832074464
-0.5386052289971822
0.8917686593501831
20.84482875610288
4.720472779234013
-26.45707019467365
-0.574412867985571
-0.215689653921611
0.4956966521170544
-0.3990334539340816
-0.1437971211389946
0.0471339229619082
-0.04707757235881153
0.228433750537481
0.02119225740004438
-0.2025484355753798
0.3344010454252663
-2.641501196486302
-9.539172494098525
8.963939332992547
-10.46675263916936
6.267896055884658
1.557355386776555
19.68479464006329
-9.462407551845082
-10.22238708822234
1.090976803341222
12.4045171501687
-12.81074635161725
-13.70162154892827
5.834573203491393
21.18893184084126
-13.32188349540214
12.54093543207251
-11.56079408540877
8.581087661905096
-9.561229008560602
1.150304523614343
-0.6089577159612216
-0.2543457880826835
-0.4831178295073537
0.5766329690430284
-0.1366934165079096
-27.46922188409519
10.19018405379028
17.27498787566239
-0.02032199624229657
-0.1320940962251749
0.1888333807273112
-0.03641728825258291
15.95177140296937
6.711299113495973
-38.28376438013533
15.62069386367644
-0.05595881159591491
-0.5994521067974402
0.05226758105759713
0.03197850434753301
-0.1507487447725963
0.04587497512915614
0.07289526530258333
0.005017614966587912
-1.661907057337503
-1.964268927029117
3.937263902746173
-0.3110879183539235
1.848754858824336
-1.197233590579863
-0.1062563884014765
-0.5452648798295455
1.391110797634282
0.09333201057320731
0.4871941458081367
-1.971636953997528
-1.135008533070933
0.1325566642148556
0.1766771848094321
0.8257746840754007
-0.09904773120049097
-4.703543204277733
-5.203638229685155
7.356231572043774
2.550949861933641
0.7316392162630041
0.181518156076382
19.38440617653923
-20.84431517600246
-12.24171254944684
-0.1682925816431193
0.4515263119050935
-0.5109059986419482
-0.283551878775585
0.2757997833579734
-0.3844247754401378
-10.15493062973762
21.64818082790644
-11.49325019818165
0.7623280903184309
-0.5837352743479453
-0.7032636103378079
3.879955420325676
-0.004401149963960411
-8.579097474629789
0.06641295328996212
-0.03225508456666662
0.04739361974595165
-0.04711195601266057
0.03197342083556855
-13.8080663972027
14.87698370651432
-0.1924368478894713
-0.01488687908333402
-0.0397927360171594
0.2471164629998336
-0.2479246579427317
0.01334302424328154
0.3091428371581382
-0.07456120345314787
-2.760659647681553
3.544232682477794
7.196839097593596
-8.782575667569303
-3.187983996576423
3.921043077197694
-10.11243654572
3.430733820819325
-0.03715881722462055
0.03542045208975352
-0.1058140103376226
-25.2347081382439
0.005531824985652004
-0.009711545211916998
25.2388878584442
1.856724498857161
-7.994993313335557
1.926584521289338
4.211684293256128
1.901168056838676
-0.3984933567012303
-2.943293495237814
1.440618795121543
-8.730124613681589
3.889566586776212
36.31043670491964
-2.955830381662396
-8.453265029682223
8.138006987170444
-0.783559837835584
0.05559833238444375
-0.05732627073829153
0.7852877761973269
-0.05462809192222384
-0.2744006079216685
-0.1395756048134394
0.4686043046708275
-0.3546833358361402
0.1712831113860316
0.04313575025115695
0.1402644742104879
0.05378699330419904
-0.04705674984034672
0.05501019857626856
-0.04982333342717842
0.2214194519346096
-0.2266063170770853
-6.557896280982102
6.560244425143885
-2.939480074276471
2.937131930144172
0.000325075364301249
0.000216343644506549
-0.0005414190082626224
0.0003250753645516939
0.003076052106719316
-0.01613217572098415
-0.1652246683322513
0.1013381516258092
-0.02279275397721508
0.08790094566355433
-0.1664463433063071
-0.1895962990413947
-0.3208681512985486
0.4554176848799465
0.05504676546649283
0.4337008141907154
-0.535393525989269
0.01832230421795107
0.08337040758319225
0.1752683176867677
-0.2661136333654695
-0.09584961904320846
0.1866949347280976
-19.61161337854842
-7.862045238707291
-0.06656968533899467
0.1826274891433104
0.003900427164683756
-0.1199582309633526
12.98157197233867
3.743326276810947
3.371857400349711
0.01981592870566599
-0.3535666286053466
0.04135567261379115
0.2923950272949416
15.44512430560061
-14.02290040001104
-9.721811223828949
8.29958731823824
37.63022338435447
-19.55023798598815
8.115490012555863
-26.19547541092534
5.261948815163676
14.73594926626775
-1.462775411351545
-18.5351226700877
19.61721516202502
2.843053717534465
10.95420969602967
-22.84300253027692
11.88879283425497
35.21196616676745
4.953779497213262
0.5971213647126677
-40.76286702874192
-0.07606981959983529
0.1380435868358496
-0.251256075370332
0.1892823081423796
0.1939781750179535
-0.1447788993443953
-0.617726522757592
0.5685272470836505
-0.1527475955338276
0.3005814313791519
0.07604955449389419
-0.2238833903296434
-0.06625493130699896
-0.002740541113477075
0.09427024642170709
-0.0252747739991897
-0.1297018520159176
2.011318808083736
-0.3790695797399621
-1.50254737631623
0.2849136810417159
-0.5225712128893133
0.2024840235383581
0.03517350831161151
12.28901650738475
-5.712761849002575
-6.576254658394705
-0.2368221863546278
0.1210338650117947
-0.04506408143247958
0.1608524027804704
-0.3527611423327071
0.4969152544307456
-0.2121149354225102
0.06796082333137263
0.1787639282391963
-0.1237537296605734
-0.09373805589088743
0.01891456483416275
0.07482349105907989
0.6655995077722086
0.4979985273876212
-0.5186364517923081
-0.644961583340435
1.932698547259896
0.3811021725441693
-1.083561536469892
-1.230239183309825
-0.1377843731762001
0.10563684733145
-0.1001043627122877
0.1322518885632351
-0.0547737196867492
-0.1400408301951655
0.09047732787350357
0.1043372220139233
-0.8446417407133604
-0.728803458713155
1.72958744778437
-0.156142248345964
0.3630021776329379
-3.858253494714338
3.324830714376974
0.170420602739238
-0.8415189381839039
3.41529520959089
-2.608101049652005
0.03432477826031576
-0.4752851910752609
0.2368659492739287
0.3061128130748364
-0.06769357126513158
0.1753030897180671
-0.3146880573852228
0.5160115091142516
-0.376626541439131
-0.1029427637945369
0.1076061073330947
-0.004663343534479771
0.1278057981504637
0.1772306866788159
-0.3050364848280257
-0.09661375421998054
-0.001871631126195459
0.1121861425600729
-0.01370075720985567
-0.05694466484354593
-0.09664150707518873
-0.1069613826882537
0.2605475546179105
-0.1106868836688204
0.1394852953760052
0.2302288830378819
-0.2590272947392039
21.17904435489679
-13.61990559838839
-13.98519259986307
6.426053843334543
-0.01859326698977755
-0.07904516274321725
0.003876575891242241
0.09376185384617933
-0.05038004241514407
0.0634739630638167
-0.01309392064709845
1.979091997860008
-2.575544243585826
14.59213401086503
-7.01769100325149
-7.574443007628335
0.05203830011978829
-0.1397242862648414
0.01444754171618806
0.0732384444334674
-0.02740550676446939
-30.37531078021363
-0.003372409486734138
30.40608869644812
0.1176021109842873
-0.07425250804295813
0.2222809936255432
-0.2656305965614312
-0.04810317821763741
-0.02669861001728062
0.06739658361506153
0.007405204623140729
0.05800387724171988
0.632453993856018
-0.2532456026089578
-0.4372122684732676
-0.07616300213680968
0.001877247328519071
0.07428575481244942
0.01466457075632531
-0.01082312345495229
0.0787347485747918
-0.08257619587238556
-0.01435030101397279
0.06300090756944661
-0.03113231154968653
-0.01751829500152527
0.07652281382416926
-0.04642930688874822
-0.03009350693208396
-0.004440807874912393
0.09934886588041279
-0.09490805800205114
-0.12906567005924
0.5690651891395212
-0.4173278412546779
-0.02267167781717425
-0.01391699775925213
0.1022120811629627
-0.1059936322903878
0.01769854889261691
0.08665751474677817
-0.4223883893129827
0.4143050369445397
-0.07857416236461987
1.261618116608487
0.5104827113656302
4.220507031609923
-5.992607859568992
-0.2813824454470143
0.1362476121142896
0.04543729865466343
0.0996975346844351
0.1021513497055546
0.002509262036681747
-0.1046606117368757
-0.02008299154259953
0.1498034587141404
-0.6285182192031352
0.4987977520424414
16.49096826718501
-21.12369485521128
-0.07663340846374264
0.1500714903123767
-0.004986011986546976
-0.06845206985801598
-0.5414292578074096
-0.01922605157641911
0.5606553094041226
1.57585406538191
0.6153731909496982
-2.272304360858851
0.08107710452415098
0.8408924013010047
-0.0496004850602735
-0.7014329270611136
-0.08985898917266638
-0.2639925692937695
0.3095050485762668
0.09233865189662359
-0.1378511311717406
-0.03536421661480534
0.4120385165884822
-0.4062000959150756
0.0295257959517808
0.1337326205050082
-0.2908673226542425
0.161927151419991
-0.004792449266026864
9.90202951278858
9.902151472158353
0.05583507545530732
-0.4581720504106628
0.06858855920992553
0.3337484157514652
-0.2223493473161308
-0.4401217708628417
0.588913672870769
0.07355744531009442
0.01829850606687211
-0.201585717042489
-0.02263575163397975
0.2059229626150624
-0.2774623150791105
0.007208662877815197
-0.007164845249000911
0.2774184974573274
1.428995216195708
-0.5631850484409194
-1.673600925324889
0.8077907575895911
-0.02830471209941311
0.1250614454925558
-0.1069134186123501
0.01015668522602993
-0.01477803552425066
0.0239046261908131
-0.1035701243239037
0.094443533661102
16.13343778773353
-23.66592479633283
-3.143337072022992
6.293469830083494
23.03991387446588
-1.383140126706629
-0.1802709703143641
2.173046655459123
-0.6096355584281796
0.1731264558947449
-0.2713670773474747
-0.2442686512260671
0.3425092726836959
-0.1183149873075469
0.01372636639042051
0.05208414017611826
0.05250448074577661
-0.1199514092580822
0.004351628718058016
0.1008317929227684
0.01476798762014219
-0.1362727908133735
0.1791668934614324
-0.06698259071782424
0.4839425116148202
-0.1918722206434172
-0.3933165804038903
0.1012462894402325
3.253007787274886
24.67552081620285
0.08599233395207743
-0.0468903106134396
-0.2381028406435013
0.199000817311649
0.006575632232786757
0.3842549959933644
0.07994952696621442
-0.4707801551846377
-0.5561188595703718
0.07389391495217314
0.07981005903453638
0.402414885591952
-0.5140706071766554
0.05071957989927828
0.2545652287501223
-0.6172040242632657
-0.04286091962827381
0.7022256639480055
-0.04216072002851316
-0.01796929266424641
-0.2528030460492943
0.7427238252445192
-0.4719514865151038
-1.800990374718365
0.1127569120391575
1.688233462680111
18.59460202415572
-7.360436770304528
1.747406718491026
0.1561177605055219
-0.2694888309560635
0.04570487366447352
0.06766619679589597
9.016867756894776
-32.50163059560239
32.21016916332035
0.06414395024365968
0.09779109819213332
-0.100669311008232
-0.04287161524978184
0.1623454385735481
0.001097172390849597
-0.120570995709889
0.06428171227589587
0.03325885867367146
0.04548825827530283
-0.1430288292206072
0.03965285704930897
0.2593405082767145
-0.08331160558120307
-0.2156817597387589
0.4229697217516604
-0.2985862061786267
-0.5124050817708931
0.3880215662070927
0.0875129882031154
-0.03020709212846643
-0.09130982796333294
0.03400393189180938
0.4813206851259651
-1.1055751449035
0.2527657624209918
0.371488697377294
-0.1008561400221741
0.05920824643637432
-0.03498551487552564
-0.07420070508241035
0.06383118583403402
-0.1224223161785098
0.1327918354298286
24.10346617392624
-12.91836768005119
-20.75979737631646
9.574698882436333
0.2216329958029152
-0.2002298048827238
-0.02140319091640298
-0.3170246815955329
-0.03660627817388107
0.4532645253574469
-0.0996335655830652
-11.60686775638743
14.86911913199005
-2.143803089663975
-1.118448285911164
-0.02703862947591164
0.1207717077360068
0.01999208479987474
-0.1137251630559314
0.06208823879645325
-0.1872069436397707
0.1077380548574553
0.01738064999137906
-1.288751484212439
0.9666289574295037
0.4447486552665882
-0.1226261284764479
-0.02466277815176911
-0.2153228826285256
0.2134898826085102
0.02649577817676572
-0.8420730039173903
-0.6224492402822612
0.8555645282465513
-0.9785641680352476
0.2160014431624667
2.54459970873683
-1.782036983868312
6.933818528791608
-17.36104465422469
12.40923649397765
-1.982010368608382
-0.1113759503421709
-0.5248424649924631
0.7449771372373755
-0.1087587219036419
1.574140055058765
18.28826618704245
-23.46423816452167
-0.05340374835812919
0.1131177325559293
-0.04510331725018799
-0.01461066694338592
-0.5153822519971045
0.3197966472690261
0.2302072484486374
-0.03462164371309275
0.4965226418202375
-2.144614834051052
0.686214623640334
0.2275947099622219
0.07367889342284149
-0.1958655857163332
-0.1054080176617913
0.4917512445412607
-0.04268136141378433
-0.4866168031534184
0.0375469200250785
-0.09545599693461519
-0.4055729908823202
0.327243614273779
0.1737853735507056
-1.781482065447619
1.66003970112537
0.1214423643278023
0.1332136731414932
-0.1373251418406896
0.01853436384996679
-0.01442289514448077
0.01181559306029604
0.1131811774492924
-0.1077950627049229
-0.01720170780053909
0.009861677584447795
0.01922376862222757
0.1190895752184394
-0.1481750214203961
-0.02239754114386847
-0.08861874572737209
-0.05401364048208716
-0.00470684645094651
-0.3155915941349883
0.05965294758477162
0.2606454930055364
-0.1461368607454997
0.07946195130029877
0.1118541792718526
-0.04517926982206272
-0.2310882149239065
0.126578869174278
0.2280609808458176
-0.1235516350845977
-0.5960995477844785
0.7176366456142278
-0.04615433396954498
-0.0753827638289255
-0.01196272618505472
-0.514478472719394
0.1079075514959878
0.4185336474109249
0.007120738442510397
-0.001197749538866302
0.1642133213293116
-0.170136310230404
-0.3206916323402687
-0.2044427722550139
0.4328895217053854
0.09224488290162804
0.002676988433767686
0.1778465125582482
-0.1617213903048325
-0.01880211067847925
0.008973120478011477
-0.1426417679659603
-0.02220839986278279
0.1558770473561095
0.8647734363253804
3.887585831922388
-3.923158983784001
-0.8292002843848825
-3.975470356108444
-40.78671561231626
36.55875835433667
8.203427614085106
0.06410581339376899
-0.17349101304992
0.09540810209755429
0.01397709756289486
23.0235323352438
0.316567622968654
-23.16768389616165
-0.1724160620590569
0.1482597294471678
-0.2039880835586016
0.04604759750020813
0.009680756619303751
8.157223282588491
-9.797731888557031
1.906290957070153
-2.819196854239125
0.8137856415001076
2.005411212745093
-0.1058558840122243
-0.05056088064333007
0.02758443854333065
0.1288323261182863
-0.08724447234358565
0.07932024865457846
0.007924223692734132
0.1263826220480599
-0.06127288238751799
-0.2401145115149206
0.1750047718617639
-0.008149254131452767
0.00306056898104441
-0.08906215580716452
0.09415084096018138
-0.01739002927647855
0.0927013501298076
0.01088555336235458
-0.08619687421005172
-0.06822484137545574
0.003707056470028026
0.167257305785326
-0.1027395208732318
0.03036953246426395
-0.09913879731198
0.0520404563246827
0.01672880852812844
-0.09338460792040233
0.002118102262406356
-0.003834473212896309
0.09510097887502574
-0.6703812387726549
0.1552965816092493
0.5150846571676558
0.1275769622777372
0.09485914688966225
-0.1868503846954562
-0.03558572446745816
12.526402350549
0.6971040257123605
-12.72972565742244
-0.4937807188607463
0.182199384588503
-0.1121613136639752
-2.249855990422037
2.179817919513514
0.3263311448834295
-0.3658448018812606
0.5149346705652118
-0.475421013558579
0.6498373719207228
-0.4421443140938303
0.05543703377561728
-0.2631300915942865
0.2352799163757464
2.213133533761057
-3.704417457030192
1.256004006922899
13.3923664734695
-13.44780854340791
0.05544206993328405
-13.6537060990657
-10.39168227153693
10.23732197337088
-0.2305820930178624
-0.2023862312636516
0.3781661343189099
0.0548021899725905
0.4356351890176481
0.2430327471833896
-0.6786679361827046
13.57738309441044
-19.29707953735831
-0.1869320493774843
-0.03268761703057727
-0.1856778757027934
0.4052975421188931
3.385054093999593
-1.204759024582069
1.785509957283413
-3.965805026732514
0.3984247211900483
-1.001131667271105
0.4753251129110156
0.1273818331843386
-0.02146448578775401
-0.009639395048318962
-0.06237450615209648
0.09347838699312293
0.3715492127262281
-0.4944347098654318
-0.06277103300458541
0.185656530148116
-0.2676189925391865
-0.09298392421587082
0.2571991285567499
0.1034037882058495
1.302671065809032
-0.5249885450631306
0.6513126954641898
0.1357802958734629
0.07871653933015534
-0.1148333363105899
-0.09966349888751463
0.224379372205123
0.3227757763201252
0.01431649221220214
-0.5614716407329492
-0.2457517915175307
0.2208627674124242
-0.001924340123597862
0.02681336424019165
-9.559821143770519
-0.6036821775443229
-2.690281245261175
12.85378456658299
28.1136619242077
-0.7464657237199722
-3.720698398315141
-23.64649780216785
-0.004460042447849956
0.1445278778283013
-0.05723524543170461
-0.08283258993962023
8.316267804904898
-2.357604710178208
-1.36112481995568
0.7065934152162104
-0.4116479502280809
0.2503771184463169
-0.5453225834184172
-1.214400264599824
-0.2219074602709236
0.08425090813358226
-0.3523519780296763
0.4900085301779543
-0.095137240010819
0.02630317889252858
0.06883406111914922
0.3686037342559424
0.08031286932076698
-0.4536234500228677
-31.82477951840094
7.023808013003249
-3.656044552904019
28.45701605829748
4.298835422702341
-0.6906674472203348
-1.783683525677626
-1.824484449809013
0.02176820369470584
0.004393946166628007
-0.02616214985807997
-0.1903746991237963
-0.001317510657210029
0.6107339162197425
23.61231239574938
0.04260642940967937
-0.05609169207223245
-23.5988271331203
0.1954399095341208
-0.009379222650971977
0.1507448108495716
-0.3368054977287392