/*--------------------------------*- C++ -*----------------------------------*\
| =========                 |                                                 |
| \\      /  F ield         | OpenFOAM: The Open Source CFD Toolbox           |
|  \\    /   O peration     | Version:  v1906                                 |
|   \\  /    A nd           | Web:      www.OpenFOAM.com                      |
|    \\/     M anipulation  |                                                 |
\*---------------------------------------------------------------------------*/
FoamFile
{
    version     2.0;
    format      ascii;
    class       volScalarField;
    location    "1.5";
    object      p;
}
// * * * * * * * * * * * * * * * * * * * * * * * * * * * * * * * * * * * * * //

dimensions      [0 2 -2 0 0 0 0];


internalField   nonuniform List<scalar> 
19632
(
0.1480429341381115
0.04031266140646343
0.03489883175672312
0.01564675650483448
0.02733565700647135
0.05458248592604171
0.05104728399310175
0.1394592323477329
0.1195107345004483
0.120646704838768
0.04989746991944491
0.0593702906768693
0.1521000454892262
0.02515668838272628
0.02521785735140589
0.05289531788374596
0.02439745841328057
0.02601292854856758
0.03050615537921001
0.07075309733364368
0.1462533251170721
0.1506142373898842
0.08173113754093982
0.0278263109524014
0.07228147642060044
0.1259599443794858
0.1394204668430477
0.01441940977301934
0.02465010019995751
0.0150595836689891
0.01678768091755763
0.01503420256326409
0.03283616242109936
0.03619280365150286
0.02761233771242256
0.02797791824186994
0.08570733868984864
0.04159496904698496
0.1405273178757901
0.03553061791565221
0.0385267097484577
0.1391108858107816
0.07429780153973004
0.03355740991670411
0.02214911618288789
0.0850273541895555
0.03358491412009457
0.07907408205528076
-0.01172220717835807
0.03108331383885695
0.09708014853968928
0.09954908985566538
0.02887781039612176
0.1253326842213019
0.05664261307312455
-0.04636349530593731
0.1358341997012626
0.03447526101488043
0.05067186406666344
0.03460038449128261
0.02152757546275259
0.02644911113973851
0.03377323540070359
0.03999465088392258
0.03081683095926865
0.01412045388811338
0.03235309864868103
0.02414314229731385
0.06833774493912954
0.02856417119430111
0.03075072857372276
0.1128293854714608
0.1574737884418489
0.143098485749282
0.04429879462971455
0.04487483180146791
0.04599417601772463
0.04084319959922807
0.03984656265514037
0.03191179762090066
0.1402945344713822
-0.002692551632225565
0.1171892571173143
0.02520662795596513
0.05104256155296098
0.05522520089785311
0.03112712905339177
0.07188249347279882
0.1360356614000138
0.03317340426154758
0.110877736369451
0.1253919629965483
0.1305152503943292
0.02270460558393601
0.140089971268534
0.1314433595913239
0.04755348481335395
0.03037422643176416
0.1488937982052836
0.05835204398022267
0.02034319013081869
0.005135328983673544
0.01214238001811637
0.01605266091934351
0.1015952870945334
0.04158387080004358
0.0290857162616575
0.1474013418835559
0.06442967655299554
0.04016400087059051
0.09037450942338006
0.1351896630001356
0.02056918923711679
0.1451560042404653
0.1520401003294526
0.152396360542268
0.1370780257415831
0.1289700389729068
0.04402565044942463
0.1343254358591991
0.118883938269667
0.1395075784826532
0.02503382704689263
0.1404750694672315
0.1558148129520143
0.036213883230221
0.1543586384844206
0.05608468115238507
0.01722560764479153
0.1324168533784364
0.1538384624487683
0.02801982488369286
0.03399415018612285
0.05237450842617146
0.06079973724708674
0.00200681082047005
0.1323204535548034
0.05596129763701897
0.04402208149659681
0.0537197487695953
0.00549143258265763
0.1846947671048761
0.02692377459818809
0.007079178374480149
0.01635154914983327
0.1755495215845419
0.02384195230671685
0.06109813741763361
0.02333487803239349
0.05004833828103098
0.04507826141298379
0.02511632242080693
0.04261108285954323
0.02237624565402348
0.1239732673008999
0.138889287585014
0.137199932488331
0.1388887364226399
0.1587932255350448
0.0305306758130408
0.1540168972946701
0.06735457290807684
0.06300521102659486
0.09612482206107498
0.04425243282868168
0.1938952085095918
0.0215364685045992
0.0849729273502137
0.03036729871283868
0.1179170996153679
0.04307524242085913
0.09313077408152542
0.04702717893598508
0.03097141621733878
0.04696279457451718
0.1772797149823859
0.1197541874532556
0.01560557953968765
0.1823034643409733
0.05409353513221893
0.02170523132363404
0.02714732451573016
0.03872414592408528
0.1221463251526416
0.08375440364747774
0.02156240672173315
0.0253415388559634
0.0326522617994817
0.1732988906904805
0.00226649147443628
0.1480315679341117
0.05456602894306166
0.04580901946573402
0.04128687388089725
0.02582635276610005
0.03494136057014016
0.0234042710402813
0.02978425031246875
0.02272273961418428
0.03818653569361685
0.0159537422333161
0.03413949693051953
0.03640985716240783
0.07249573348848087
0.01936655155080457
0.02049849694231163
0.9583495461945279
0.04648540811922486
0.06946905577115055
0.02146670882185293
0.0572148346056699
0.03079379218077116
0.02539105446980349
0.04368560854583375
0.02961439047582767
0.0206721655145397
0.02669047280039328
0.03904960416292688
0.1071985002875804
0.06986447367706222
0.02559242789503878
0.04931487348554902
0.04502067439622459
0.009661579077450702
0.02458615052730775
0.02330360056499678
0.1311211739924906
0.03856622804491396
0.120649726663527
0.03629288644398394
0.03777186733531032
0.05777987616496033
0.03486740025935268
0.0527272514094266
0.02559209991219013
0.04200619869151089
0.08797979755520953
0.06395857363835938
0.02577215561715717
0.02659064398816484
0.06599627406425396
0.05226281833933322
1.355567465698173
0.0396650837121918
0.0293799605765214
0.03064821751357245
0.04211922315844951
0.03740336598199687
0.07753810162899506
0.1006882969309832
0.021422731523641
0.240305927328255
0.03709590478359365
0.03564754337082534
0.05880786689616258
0.03440478904994806
0.03595799486300102
0.04360849674436426
0.08819799894638319
0.04450456703540253
0.04876771664678343
0.2165020529388162
0.08864222566722517
0.1256959561984497
0.0386100756106073
0.06512778568053543
0.033183216112563
0.1087524470112675
0.04621588555225798
0.1240918804992157
0.06976371392516252
0.1088167336572721
0.03968376854443784
0.1286444020542509
0.1351850331507844
0.1566467600243087
0.04200992260108305
0.04398956622521851
0.1436150268164036
0.1383686098922677
0.1333523174448191
0.07416666306221496
0.03787987473966137
0.04423549085381701
0.0201673008444043
0.01126444471722069
0.05927273699031131
0.04231451869444036
0.01188051453035356
0.02801854760148035
0.01521567971645285
0.01852186608811949
0.1262816310823603
0.02225098220051909
0.02116056611114973
0.04959913785118297
0.01301504492129812
0.2405569535735133
0.09875730322573771
0.02044867693854467
0.06715800682325532
0.2079364130389136
0.01586128263995876
0.02901823964826469
0.05440806251595458
0.07487744038334937
0.0232687811620673
0.1690808062505847
0.03592515070178671
0.05178319308748186
0.1433452876338053
0.1778718278067132
0.04661672311921317
0.1468819793429505
0.04460683979041149
0.03536931890682309
0.106440418068101
0.14944036862086
0.07891222107886567
0.1448226158335454
0.1789553440642649
0.1459598839504943
0.1386845042261644
0.1498997768052767
0.04509562640069301
0.05049374506365836
0.06418265779177661
0.03680591726600358
0.03333923132801937
0.05130611726694973
0.02418692783627061
0.06489092550215454
0.07043925710760778
0.06268624957802618
0.01655175505068462
0.07494961005315881
0.0243895296932457
0.1466480746745303
0.02202667150959878
0.02737323739498155
0.0754302828040757
0.02814997030219973
0.01322179659632754
0.07229263604471561
0.07051167485436566
0.1086774829705515
0.02963939638929125
0.0489140571373043
0.03490461483386033
0.02683129754485884
0.052426555585001
0.01938406550742828
0.01573470785869164
0.0197635250016579
0.04620211050308802
0.02791303771754846
0.02240660383901344
0.02278154969146341
0.05372670067610143
0.00296303714516909
0.04794668028343082
0.02232892875343397
0.02795267342007537
0.03834512454090316
0.0006092138807804135
0.04592247998136362
0.03776944706898318
0.03848423507442428
0.05912278134381468
0.03379472446921146
0.0357094042765257
0.02491864652841854
0.03394148785049438
0.02823445522687724
0.02513420649959612
0.03763958858334329
0.0170709027187329
0.03172187716806739
0.02882999063132
0.02141257255769975
0.09232039218803811
0.02769332368453977
0.01528517863219027
0.0472738193916841
0.02888533160714915
0.08946625099916106
0.07170413968300751
-0.005185402178374413
0.2347491505780952
0.08371775223149902
0.02300333310140457
0.02759861967560698
0.07929205244013593
0.03484992160824737
0.03365290933881426
0.07456126152721594
0.02284404988147927
0.1714445611529486
0.0348191365883506
0.04261154009411941
0.03502010083743588
0.02001237282393488
0.02275398720488304
0.02966195200686211
0.005804145996160557
0.02585932683559447
0.02171280789889342
0.02394881921063351
0.02521764056932441
0.06011758727976736
0.07936548091962732
0.01441586874945882
0.02614775900118377
0.04809777946857578
0.0136468427242026
0.05609334821687636
0.06185441023015621
0.02528074465514491
0.009686452359448887
0.01014023255831153
0.009670515083586795
0.05481256594060251
0.01830548512670077
0.06509949773476412
0.08142956479149017
0.02313898381048449
0.1080747772321914
0.05282140579909951
0.0527872602499613
0.02103719302546837
0.02374238309471123
0.0552866998021089
0.02860524801312054
0.05475876181416554
0.1311912974896015
0.09433792064164907
-0.01442094084889997
0.03485251074977183
0.08200465531628434
0.05433538834654351
0.03935300697720952
0.04832046240922903
0.03006942868767768
0.04735766517882035
0.0461704297357204
0.08530303691152395
0.05627588689423447
0.02834998880558161
0.02084444122673061
0.03572375119908354
0.01930675431812478
0.03981919090761092
0.05046006633131413
0.02251841694543078
0.05848552091888642
0.05005096324066054
0.05811354041590205
0.01300678475164404
0.01789085862587479
0.02803615873498772
0.2652979298102774
0.03874201409595518
0.04999930558677068
0.03942889143836549
0.0514500374311079
0.002060307645941089
0.02841426651096034
0.04542411827823044
0.03468141162508975
0.0645775314839222
0.04112314632333851
0.05709229009919709
0.07007872198291977
0.06095439763371909
0.03099050505049895
0.03645890560627556
0.03327912484630785
0.07414884907832985
0.01453896116961292
0.02572484181378765
0.03908613345481651
0.04017389241774504
0.04955156305341658
0.02243396388678241
0.02608066921949115
0.009922424106063176
0.04862620971772449
0.06580067794338178
0.03566521836044637
0.06551370236032329
0.02339364389507232
0.04448222895150555
0.1134925534852398
0.1035969962938761
0.03006470137910509
0.1141440974934924
0.03828667573677667
0.05598803582310326
0.05874000694181017
0.1098051388929852
0.4584959150071977
0.02565242913540885
0.05740357189877381
0.05259277755920844
0.06049340360721017
0.2589203971850462
0.02469951606544575
0.05822537011355204
0.06270570636411457
0.0569144404091977
0.05211275274889756
0.04521040763763172
0.04136084693358427
0.03454969645221592
0.02469928166235885
0.05502960248714883
0.0492504863687547
0.04781942367737721
0.05801577269141609
0.05997575841206877
0.06463239233421855
0.06199796461552691
0.04260124982362149
0.05184816616413709
0.03736987411929647
0.04690490988930829
0.09530609317965111
-0.01624658126679661
0.02788773200841088
0.02906217563596976
0.06877097883441276
0.04224115321547777
0.04008545159640239
0.06705711523654215
0.136622541581333
-0.08009312352905287
0.04582858222326268
0.05265171714237604
0.1386149901583606
0.05294682059313883
0.07091783673505916
-0.001013023376983047
0.01022827675498533
0.1139332740293349
0.03827369006274508
0.06361411308965784
0.06828445882176401
0.04876322990298514
0.04555083502821704
0.06398846768156442
0.06545922526155699
0.02588808784188781
0.03356893436159857
0.03790242955762723
0.04054060605116081
0.04551717943399759
0.03657444356741119
0.04789543442077536
0.05039553322633972
0.04100640506802203
0.04914445951553543
0.1356255114067752
0.04133509806954269
0.05119843901130182
0.03156301512252469
-0.01439600586516022
0.04012997316804733
0.04479276006254258
0.04227733785747108
0.04629921020086612
0.04690315590328274
0.03908654536528356
0.05132922911416788
0.03530018057152542
0.08181619665015834
0.007052592331296087
0.07131575496539061
0.06633128297046174
0.06935168555957147
0.08354946140291335
0.05157803227905502
0.08181610261824421
0.03055806607540697
0.07066880172496766
0.0643553398448241
0.03417434516707718
0.09967250323522886
0.05543404093706963
0.06983230896613835
0.07775161108847818
0.05577661400101534
0.07482187165689388
0.05077857687389363
0.05596128972649343
0.04694270858309402
0.07386886196255138
0.0762086528779508
0.1710984560015713
0.04683467189653485
0.04839791850630228
0.04553059678589048
0.04726369907107452
0.04563006516619707
0.04743650015183267
0.02723609570121336
0.02521786705687104
0.02140429390527464
0.05225545624436535
0.01133722833883885
0.1316321664937753
0.03022563781846856
0.1714804638189996
0.1106769293050219
0.03078642829168911
0.06730315773507289
-0.01192330177684578
0.04528717112048837
0.1470366700323759
0.03495806603786415
0.0953428944644468
0.02550882636934197
0.04626529182014006
0.04705417018082391
0.04963754360891009
0.04834847206417773
0.1028121025957498
0.02844316094980385
0.1420398965211442
0.04573332653302149
0.04125986165363837
0.03766011163025541
0.03438174452826328
0.03836563406470026
0.04898094956193957
0.0417348595665645
0.03111620599236923
0.07034763284124122
0.2896092218074423
0.1435608119464147
0.2428178893097074
0.03018802260492449
0.04223007633476571
0.1212675915757434
0.04411381517286068
0.03893797545242761
0.04397761524018547
0.04020835141393848
0.04149771856266457
0.04638677335293722
0.0459308743526728
0.09910951614022027
0.03153760220820361
0.03156867692851168
0.1650275421594367
0.07951847503964446
0.03366837383764854
0.03387891295642794
0.02880374380505437
0.02857471532099309
0.02891305887632042
0.02813361421218479
0.02765847360623446
0.02995976083496358
0.05527327047978454
0.02545714802799329
0.1349341342905532
0.03146107697158478
0.04151585505826631
0.03973898710152433
0.04944072065172549
0.03831270314759707
0.03895816092639174
0.1066587115431766
0.02781352684468335
0.1133423895019615
0.03215830294090474
0.03104926160561481
0.03141152218142987
0.0202726633618985
0.03445804861193422
0.025700523900202
0.03170795156029919
0.0764696095924555
0.09029719926213307
0.0339049274502128
0.03069079519268312
0.02934280942003791
0.01067535645813104
0.0559376038677301
0.02959886492964061
0.03222462204344203
0.132738253265664
0.02843114628715808
0.02961866661831598
0.02950554118993242
0.04032890796975334
0.03303864944711112
0.07012144539223085
0.04097007782362012
0.04369355131889047
0.05733547421261676
0.07072974709696353
0.04367986103928034
0.03929596892291889
0.04576936692515923
0.04141235928806006
0.03983100536165745
0.1348736041324208
0.1962506708429816
0.1547320381066537
0.04390434000936437
0.04514159201514862
0.03588540031603205
0.02756520790261787
0.03428532618480211
-0.006683904607587886
0.08411807403362921
0.04034163595877768
0.0806800636488603
0.02593052625837563
0.06483975162722203
0.06365136874066141
0.01636617873725776
0.1284461541900876
0.067707808684063
0.05696736976210874
0.04125337875350238
0.1171562973562588
0.06010959758080921
0.1014915714906854
-0.005583247405526069
0.03844234159104302
0.05158156322407077
0.09566283061093341
0.04273081524579192
0.01471455542482764
0.05421660634210961
0.04041296051911701
0.04171567111152706
0.02349233527979965
0.05506370855308236
0.09189544768876158
0.02476207942717873
0.05276919360011507
0.05280943762071028
0.04179593539456836
0.04023362777778624
0.03834602575476097
0.09910890247596225
0.02645610581042331
0.03369706564265781
0.02690797639541732
0.02314741817812924
0.04751088422366691
0.06844040975060961
0.02587843247913988
0.0349781344861877
0.04526621134613713
0.03521191304492895
0.1845048508632276
0.03235036646432083
0.03527262474030386
0.01196009566697585
0.06609395506267618
0.03554450865988332
0.03386199094713617
0.05981887589794989
0.02776754634995155
0.04408446521706995
0.08241341120132611
0.05862028066272708
0.05663622346833493
0.03352590979733247
0.03255408970164542
0.03185309143931522
0.02554253392713981
0.02484738694786714
0.02071624254048334
0.02360178615019425
0.0238307871186911
0.09749121523305961
0.02074752723613965
0.02210198946364989
0.1262692897099792
0.3245936969566972
0.01870479356151928
0.04568421281738889
0.02859453074113195
0.03799291616181963
0.0145472521205999
0.06666162147537505
0.2239948853773594
0.09797950299144133
0.04564627097632502
0.03328670541294433
0.01061733444015788
0.0180351103099258
0.009420776736701329
0.07168262806874716
0.08744412515431239
0.0676638976213621
0.05853305924294425
0.1456597254015432
0.03443399957180519
0.02036552914230714
0.03798992266819758
0.029088339776235
0.03674619689225748
0.0398445299870111
0.02374997740175921
0.04834081498703091
0.02441219239048162
0.297683540246133
0.02635913739264281
0.07622309190941784
0.03514492134883073
0.1287247334372771
0.03247527261233635
0.03038203412917141
0.1033732630995908
0.07194848528815521
0.04475169715416996
-0.02399914417583834
0.01298109555540243
0.01564357406653552
-0.1454601964486326
0.08027510722194887
0.02531364780283677
-0.04576586173075467
0.1468138257828821
0.1324119039824812
0.02473267424054373
0.1279370254183964
0.1616517016189793
0.03651728740525454
0.02853217840743381
0.107265813659908
0.1029325136586318
0.05520942173910609
0.04966123307136533
0.03717629772503166
0.240192487057109
0.1266265025918237
0.1627579801345677
0.02672806797983458
0.02309073198325118
0.04027789547785113
0.02422589149536564
0.02262484329038822
0.2351138600947733
0.02481868648847261
0.01753757471373594
0.01926152683065928
0.01671545596168364
0.01843832473126959
0.04848805000370747
0.0350168666119216
0.03140706138126996
0.0326443145292863
0.08498558028611491
0.04397059377190364
0.2443100265293193
0.09992487727610262
0.09118835812232462
0.1442345319150949
-0.001249717864940351
0.1015924316477985
0.07594146467534353
0.1133536474937473
0.02187004691188973
0.1094561635700723
0.02237593829472395
0.05190170073097643
0.04274205473843987
0.04687480217190612
0.03827059667275846
0.04228097996844906
0.1393962613146265
0.06773429978236438
0.092256232329607
0.07843538542316461
0.04212413994965027
0.1736364705370087
0.05003810968383589
0.04146148250444587
0.1189141841744204
0.08389396831541636
0.07263726951416906
0.009628480413564001
0.0601278207653009
0.05632853657868809
0.02321594804987031
0.2051777551981966
0.06912458258907858
0.04254916819078736
0.01121628214026571
0.02556009900646838
0.0112926608083175
0.01351853828971085
0.02485923183095689
0.02502384741069309
0.02624785577341687
0.02525767604708044
0.0889168750023894
0.1256591196944728
0.1379552714536774
0.05323850800044289
0.1737929637986192
0.2641310266145732
0.1477414701816983
0.07596360850573358
0.03981833755223191
0.09596686948368698
0.05723922767033301
0.02542192534195022
0.1340690432568476
0.03416254064997761
0.03651632569468017
0.09873353017087164
0.04413736134667079
0.04229368933599844
0.04065661725949755
0.1055131339120638
0.03889576077526701
0.128577030797284
0.02908456410020193
0.1647860849229403
0.2342543626259004
0.0162513099813056
0.3769953059140239
0.0991499446259137
0.03314532064057139
0.008671877234825747
0.02698118375585743
0.02737866755635642
0.0246051007027446
0.02573923855424634
0.03261255779145134
0.02619183863869401
0.0247663372401744
0.01929858102469717
0.01200959569835074
0.02047171556677908
0.0171622820026786
0.07828811193514253
0.1560075211359419
0.02242598560781367
0.1388731416304135
0.153255774909114
0.02196566905169267
0.1541136479278207
0.1539156356706175
0.03944664460918162
0.0220655486694837
0.01417267729500678
0.01713541859923017
0.02542379086759023
0.1172672081584728
0.02647621242744264
0.02452176447338868
0.02980765857340985
0.02180928769176734
0.02850691763518409
0.0560782751624708
0.02467981700664615
0.09704424369810694
0.1550220635956322
0.03267670780470817
0.03734647731065188
0.03381491837880471
-0.2457533056584359
0.02188599804099487
0.03436892261712169
0.03278260447435136
0.08041191138961984
0.07420879338333622
0.1482251276789875
0.08551822993653466
0.02774865567148922
0.08366284637101445
0.02809145807347431
0.08518202344736162
0.03548573372899188
0.1022479677754494
0.09853343418776601
0.0889602199872625
0.396613324852159
0.09669538582320079
0.1003944817883529
0.15465800313138
0.08233103747909845
0.0194807990057847
0.01129983437253507
0.02090690968909288
0.01590219929649172
0.0214343111799574
-0.001668801373904629
0.02207927887838235
0.02853567888787392
0.06307258008857278
0.06716780063946654
0.0294036905068888
0.06180042421619257
0.06587686220981362
0.0626635273046756
0.02487480702789545
0.07530587440132634
0.03408228138320261
0.06458047464155324
0.02677744020236866
0.07384149703362237
0.1350579208535268
0.1106342193622564
-0.001374347099866986
0.03912299832158305
0.0707608375687829
0.1599373672455687
0.09482273170037293
0.1568397593127346
0.0376982107604104
0.07931573361168036
0.1246992600318987
0.06167864324178457
0.02794837695069994
0.06323453552689681
0.05750036010593038
0.04407336947651748
-0.01666677838501195
0.1358192700915442
0.1775222016057017
0.09820725408981339
0.02433086078008394
0.02997933721354243
0.03075808002549477
0.1049270548880936
0.1049961618531389
0.09264948119287847
0.1488990242429623
0.0802373412417158
0.1761797220764264
0.1591452633954458
0.1327341832975388
0.1393278451118664
0.03019170807077656
0.02833279840175262
0.02582952628173979
0.03371122438935315
0.1063460635034692
0.02885088866388694
0.04529050417414709
0.09972168317783218
0.09818881660504886
0.09872648689661011
0.0972667090224749
0.1046013932633636
0.09664233751545899
0.1031452506646463
0.08366691812262599
0.08233233997710097
0.06502403851727405
0.0669722620055553
0.1313931401537831
0.09261086902638828
0.08758366827258987
0.1031453046019396
0.09354683464800931
0.04524649192621281
0.02390964227420998
0.1204507334123419
0.154484972975332
0.02079187297007831
0.01947035555638045
0.01987879685950222
-0.003211240984235252
0.1317908598533535
0.02082743078909733
0.088242964548694
0.08282026582650751
0.09041127108990156
0.02050760016165838
0.01376357373245617
0.04415017778823448
0.0424535239084994
0.02186447190849092
0.0212485953412764
0.0575704924896538
0.0374221670545609
0.08187229076138058
0.07197797869569084
0.07636511838996553
0.02495314148695919
0.1327051724800781
0.1354913413371906
0.1304779415538355
0.1362942920966866
0.02510248920673123
0.02453671295869944
0.03677994632996945
0.05292371739045169
0.02492585430684512
0.07979878481246704
0.0489207244581104
0.07831256453008666
0.02448277764757888
0.05305838165654158
0.05231427017040388
0.03809992568939068
0.03956448014353287
0.03838183440918157
0.05336760450800299
0.05417854276764882
0.04776372509279915
0.1390092388925393
0.04504607577624036
0.05654706440299289
0.05596217031534471
0.05051605198497156
0.03652019607207337
0.04058475887005886
0.0384308576374759
0.03869743376577765
0.0428570186931402
0.03745971061141311
0.04177469249387275
0.04025271696250659
0.04054680173286852
0.08722900076383955
0.1299706792911803
0.09041910273314206
0.05379574568111214
0.09067110963799407
0.08682610637878012
0.08892397494579325
0.09154123084445741
0.07687987272044874
0.08262074120697263
0.08207193172288912
0.08513729188796024
0.02473402663453224
0.07346595439556708
0.1406808983381035
0.07330948497306798
0.08381452814538125
0.07590769941912484
0.07334702065944911
0.1207253997850423
0.06985650309597917
0.04089537770490155
0.09533768845461686
0.03793282721183491
0.1304569479338611
0.04942135610965868
0.07037553045761273
0.05258090524925824
0.07057549826635423
0.064987655401069
0.06426548804645991
0.06806672981979188
0.0700632519357743
0.06225988060866467
0.05956433585738041
0.0693421936067995
0.06706684764078076
0.0706909247333888
0.05829227194563131
0.05986853023071977
0.04466884088808264
0.04369620656552397
0.04957057658122365
0.05086905376317608
0.05210051546904637
0.05261980204595423
0.0589382208328737
0.06496723423775567
0.06042518367232822
0.04620462753445938
0.03633926978376409
0.04705558981717225
0.05975476630934991
0.06228942614474441
0.02482662508255332
0.02463929235379721
0.04323346429506072
0.0602410866830569
0.06106534247194891
0.05648094719740033
0.0580936124697048
0.05579212123841959
0.05972344701029151
0.1105558929373474
0.05309223546701366
0.05901837728479159
0.0292144670513481
0.07108828458901675
0.1641537647264618
0.1038125266004067
0.1250941858335856
0.1024106312697794
0.1207287025891104
0.1120239874767541
0.1255698606946392
0.1367521705220983
0.07071509635052127
0.07276643768871716
0.0673018570912461
0.06303007395285419
0.06635468503857098
0.1059665745383123
0.06643545958864785
0.06324779126399856
0.06865563611467917
0.07365151203590414
0.05186012352116087
0.05633533340403786
0.06944654100753662
0.07093261980537324
0.06779944629554661
0.07151819258768549
0.08141186707147048
0.07871648976371205
0.07622112432342684
0.1013644206502818
0.09086963328617353
0.08030561325941785
0.05456384212416007
0.08260601193235184
0.0857238859377224
0.08154021112467728
0.1005382122296117
0.09990493569943384
0.05536546614838863
0.06542647122249588
0.07588181656829274
0.05915124952058421
0.06398100648568328
0.05919612613137912
0.07158449481717034
0.0799607637542339
0.05293127357570545
0.05496744720707721
0.05122354584126472
0.08832385773887895
0.08101766489536887
0.08549020191273589
0.08487905840771154
0.06311604504102369
0.113209508823691
0.03410881871772807
0.0324097770910937
0.02976629695257484
0.03394777415338688
0.03237846498991395
0.1406785316394396
0.1131414476633054
0.03750315559657183
0.1108603085761991
0.03019904397088206
0.1428991824731222
0.1069879713305294
0.332579060391278
0.1482603280131997
0.1141321692510813
0.1074435683461094
0.01876272684223751
0.05428927422211278
0.07199630654420339
0.05298018970398143
0.1298889101765031
0.007805103782554579
0.0600027750396284
0.06456821490270855
0.02042957157540516
0.04692390242884204
0.06200395711875248
0.0605292036759327
0.06031625603993651
0.08351881294151019
0.0834887688617493
0.07856190021058582
0.04255824137015723
0.04422330684143178
0.04336375754927115
0.045614422874811
0.04574266760562246
0.05017876957306176
0.04456297677132422
0.04864097251164467
0.049651630690506
0.04819812941499738
0.04800684380141837
0.05006129246656901
0.04689556054380502
0.04614391066480351
0.03076862499754899
0.03231689926321318
0.02590246214289219
0.0251112624035681
0.1175218550350082
0.02957057461596322
0.02974564717484857
0.03307125815494488
0.04209014697890295
0.04715952144460826
0.04543409915247378
0.05216603385433734
0.0480023287583034
0.05127709442849369
0.08710831895593572
0.07185666544913222
0.06004888305717584
0.06155220824310711
0.05747906659041545
0.05364884636293677
0.04597814783348549
0.05525507961062208
0.05479649019526921
0.05058242905296279
0.05615719331668451
0.03494523326906177
0.05026097860877861
0.05072196128043326
0.04828725427625108
0.05649997155932291
0.05518940303173444
0.05249636950388731
0.03986775266965437
0.05540072612852634
0.1100655617426223
0.04623393743916102
0.05235780323489703
0.05179035026392544
0.05055914155141421
0.05227223274397452
0.05327179698937131
0.0536827071406683
0.008676097084909247
0.04277474251391154
0.03599638876015603
0.05099168164309627
0.07065448101315876
0.06875252648519201
0.09404397605445364
0.04347698700870289
0.07258267650813656
0.1161339401921159
0.06092620587332701
0.05922953114546494
0.05543935832371485
0.05827336045776558
0.04521013116195392
0.05119216010721041
0.04981000325635828
0.05930191471432384
0.05251953818556733
0.0561865657491993
0.05922395793910451
0.06132935849498242
0.06158197088805481
0.05985670721315532
0.05400115338996114
0.0385871961761101
0.056915542333432
0.05916870860287209
0.07917620460571401
0.08122880888627881
0.05897172367493188
0.1343168626548833
0.04152991144717293
0.04147248665895686
0.05165186196626766
0.1362940470659562
0.05155351856561102
0.05731764084450174
0.05261152393096823
0.05678859084041629
0.05935945850586303
0.04599814674053374
0.05464204381198802
0.07790074111579673
0.0491649327912918
0.04565042843191643
0.05398661625698492
0.05327952951816138
0.06941839683534624
0.05416408279756575
0.04039545384018602
0.03599985834404709
0.0424990399934061
0.03731005034048642
0.04776646531610788
0.04407997557941681
0.0673139939845178
0.06867115100450494
0.05669436763200394
0.03966965014597685
0.04627425932618257
0.04460726937936087
0.0450336908816259
0.04967720483042991
0.0401520547646331
0.04589089169192902
0.04011763059690957
0.04413799778192678
0.0420974659800943
0.1421916766535916
0.02714372466882288
0.02626565125983442
0.02945906751037263
0.05029107504895658
0.03652689808712901
0.03414235774869974
0.04903407079543055
0.04566955366372718
0.05095833841372082
0.05513205857139757
0.0519454514196052
0.0530685538437109
0.008844520788575231
0.1766586595300052
0.05533290227679061
0.04346838990139835
0.04289287456771029
0.0434946234518901
0.04818127946005667
0.04143388624221168
0.03925648343996351
0.1155413986146459
0.03723246556981701
0.1097613963832525
0.0398138713015509
0.1390297058118077
0.1136016006508368
0.04846555993160231
0.05008460326855254
0.01512412430009569
0.04949213886994286
0.1780233535781164
0.05474024182841913
0.06608189906122348
0.04614959909109192
0.04094663397272365
0.1489089458776923
0.1401135381148231
0.03724619676879486
0.1383976447189362
0.1245562273226863
0.1351443520049344
0.1109670298762936
0.04381798576085909
0.04530644710485188
0.03555713132270849
0.03413258293307207
0.03453479380518819
0.03441052273486668
0.03547845700561478
0.03150961974257651
0.2472161891872643
0.02972184499860754
0.04761478025492099
0.02023488200117705
0.04500890688832476
0.07301551010988626
0.0306511872787243
0.04062264904002588
0.0549200122935908
0.05683859472353235
0.06195735707564322
0.05699601689279851
0.05466477406232893
0.04017238960303655
0.033271190172055
0.03715958746608843
0.03966812071404115
0.03226713471068988
0.1244578738390487
0.129330044544049