/*--------------------------------*- C++ -*----------------------------------*\
| =========                 |                                                 |
| \\      /  F ield         | OpenFOAM: The Open Source CFD Toolbox           |
|  \\    /   O peration     | Version:  v1906                                 |
|   \\  /    A nd           | Web:      www.OpenFOAM.com                      |
|    \\/     M anipulation  |                                                 |
\*---------------------------------------------------------------------------*/
FoamFile
{
    version     2.0;
    format      ascii;
    class       surfaceScalarField;
    location    "1.5";
    object      phi;
}
// * * * * * * * * * * * * * * * * * * * * * * * * * * * * * * * * * * * * * //

dimensions      [0 3 -1 0 0 0 0];
oriented        oriented;


internalField   nonuniform List<scalar> 
37380
(
-0.3770261462309484
0.9972892953877143
-2.773832141908474
2.153568992716709
-5.1805908475705
0.8105520847015228
52.37477125446404
-48.00473249159157
-18.28073041731062
21.92292782998445
-22.79865682468025
19.15645941196714
16.80748113678605
18.26178694927694
-18.54777253193659
-16.52149555412736
-5.07721037194892
16.72655849740983
2.815614971041972
-14.46496309650824
9.379546927280163
28.05990617589489
-20.9376900292866
-16.50176307390902
-10.21090402114849
-24.84764051424889
44.43809146266899
6.967082766560863
-2.987172983846339
7.610838519764052
-11.59074830243574
9.645166667544183
0.4357313577405468
-7.427821213517523
-2.653076811825563
-8.923876970866688
7.614193774016063
-3.176769020649852
4.486452217652121
-7.535544140800331
-7.292394205874432
14.82599109147678
44.36589051434407
-10.68337365807201
-22.3218264315006
-11.36069042478338
0.8513772279024918
4.848612899869056
6.945537185564304
-24.12315891479323
12.32900882935778
-14.94130182803134
23.74575383513724
-3.412111617172901
-5.392340389917446
-1.498205637598825
-0.9568269776724858
20.44825848002951
-17.99322586490788
4.408694330711959
-0.01074122628468521
-19.33925493245773
21.12737008524239
13.41319514216523
-10.79481139227456
-14.16316121831741
-9.921331170919244
-1.579008812947372
25.6635012021643
-17.94488995289772
2.298476475107001
0.3244192245028057
15.32199425337646
-0.08303853780330475
13.59417392692961
-6.544052622504898
7.287817874062839
2.750231430990083
2.530871425216789
-12.56892072983118
13.59273905167597
-1.527604274004545
8.272544082764865
16.64891507231732
-3.794089069862887
-8.334632562013546
15.13340036873541
11.10339202953454
-17.90215983607347
-6.215983060510575
-2.210236680571893
8.861951098903459
-9.712513236494393
5.609450066586858
-6.412854970928297
10.51591814109843
-3.224271174545969
-15.90688586736561
0.7824926085860185
18.34866443334849
-5.087609691607613
-16.73161745776886
6.422252852886892
15.39697429648151
13.99434777573806
19.53411605680568
-0.9072351944392707
-32.62122863810282
-10.15353792220318
7.736084394504989
3.939673267026778
-1.522219739334642
20.80749837327454
0.3819121763142065
-24.41368172413399
-17.59302449666208
-25.34064604002144
19.07991676017565
23.8537537764348
-14.33760131671723
15.4279439231951
19.71715576678365
8.561106825888173
-8.749737171357094
12.97436439936257
-12.78573405390884
-8.046581400922566
10.59402830395982
-12.92056762908004
10.37312072603007
-23.75510120067906
7.424215841704994
-9.017649271764476
25.34853463041941
9.2929052159847
8.770370667567271
-18.06456088266978
4.576285881262884
2.626391143625956
-10.18985000866845
9.079000137339115
-7.304583897131652
7.518488975774856
-27.4065513278194
1.951390792400788
24.24134985977464
1.213810675678644
1.468073800792514
1.304389701747195
16.38110523917788
-12.79283180992936
-3.135326540601599
-0.4529468886523794
9.128256511802338
-23.37378560462057
14.85450466953652
-0.6089755767185695
9.218428714019817
-11.83708428569865
28.12875295751643
-25.51009738584911
19.29408934169183
-8.680517532898639
-8.240716586156143
-2.372855222719438
18.89605188860397
-18.97005051415247
-0.8349603570243266
0.9089589825151226
4.825375631932901
6.965229643487787
8.36935342220991
9.41980453915175
-16.6734040430956
-1.053151215503536
8.306750719411495
-1.890272233868329
29.90450855229847
-2.922770703736527
-25.09146561471697
-15.57452460745526
-9.51018487704547
10.24198152646814
14.84272795801962
-0.1490773482096254
-12.26740829553077
12.41364237105987
27.85319000606037
3.221714526430966
-10.75123050346077
-20.32367402903372
12.31773248151469
-6.314034310077023
-4.653845951459083
-1.349852220016457
37.06185722233698
-25.53129047817796
-34.51979842999769
22.98923168577351
0.1620884597654199
-28.64903683444533
-1.041468706723801
29.52841708136187
-16.11801334160878
13.55882097190244
6.843324781305086
-4.284132411503197
13.9424898930217
0.3496163964169761
-17.2428323830321
2.950726093495831
-22.18835764660737
15.41859570213118
9.944243815334209
-3.174481870888898
22.83753361056028
-22.06711580019403
-15.38167718361196
14.61125937323771
0.3931084498484531
6.647195042718377
-23.84040085844346
16.80009736586485
6.195925344287537
-8.325461788340199
-16.82202359786932
18.95156004191376
-22.63962814983202
2.171283112760465
20.07395484118852
0.3943901959048373
-6.752023118208625
-11.48485730283607
25.64202990236877
-7.405149481329302
-29.0002298247062
-16.9985186307616
16.97756974726159
29.02117870817077
-21.78041013798002
7.074120807558971
0.5978067680942589
14.10848256232072
13.88379195118406
-21.0093424748022
-20.28100080413429
-11.08194254534111
16.29799433241228
-9.216856646385816
4.000804859311653
13.56431401607563
-18.66791553184264
14.93408193410933
-9.830480418377828
-21.84257443873735
30.72278392318969
-24.89920933130022
16.01899984679939
23.17901071234129
7.007515621108477
-27.69946898821877
-2.48705734522978
-16.79140235772153
-3.73183540485239
12.2024404352736
8.320797327284907
-1.324049326646218
5.207408065016254
6.17733690225252
-7.817034081458441
-0.1046624623993257
13.08300342564197
-27.28158777800124
14.30324681468485
6.991979128337293
-16.3022531803509
18.80847097931157
-17.15050381848087
26.88527445316766
-9.735819413594603
-11.2773119531363
-10.41866628548954
21.69492741734897
24.5918312603762
-10.47053703010326
-0.2375022790775182
13.5362571691718
11.35071808129066
2.631747698677617
-27.5187229491622
-20.92636758027005
8.141007820279221
6.575909283238041
6.209450476382602
4.435422140195819
4.835583635260858
14.40019390936309
-23.67119968480566
-7.84710271284515
-12.41708155789157
2.363156613605849
17.90102765692488
10.4592763624319
0.7808293156370808
-15.83973502795098
4.599629349902849
-33.11504209670378
-1.707258662567041
8.325844339831606
26.49645641960731
-24.37141782877602
3.874867019114356
-12.61849128701154
-16.21245661422417
-1.055718448993239
30.45034335493967
-13.18216829172938
-15.44900567240419
15.94325969644958
-0.4970304782794858
-4.15301432910151
-12.63267321910404
18.42776701741943
15.51776334265241
-3.143569961328648
-1.414534696856211
-10.95965868442572
-6.596494030228222
5.85433115059685
-0.9650516646908639
-4.926042076738447
-0.7054002887351062
5.884697043728906
-0.1995149654254847
-14.55677580112114
15.02992502822678
-12.69344129948478
12.22029207237114
-0.8217730657715797
-7.685401756107026
6.239770828359818
-11.04120089828919
-19.34199044017859
-3.466100050041963
6.59563387599458
-14.24772248837363
-0.3100007827802308
-3.366353968949737
7.950533352751051
13.09489113591634
-17.67907051963803
-0.4364833152313089
18.53945984544098
-18.10420932408755
18.96767324668215
13.24308410921894
-21.82881031421774
-10.38194704169541
-38.05512105175512
0.06931825594625896
20.91693315393193
17.06886964186206
4.408316389091651
-30.71396130866301
-1.877014927505791
28.18265984706009
29.21322931780423
-25.17302463189669
0.3681117031748755
-0.1483641704265563
-14.33052837293341
-10.74844367753114
25.2273362207448
-13.37638927596014
-2.610504905679448
18.28318981921505
-2.296295637577653
-26.79076354536012
23.42946079846124
-30.65640056035568
34.0177033072212
11.85476664856131
-5.760468284092253
21.2083877069751
-18.56577128529602
-7.686045285128738
-7.464938683411797
15.14949577227475
11.26004322750321
-13.51864738271931
13.9381642749332
-11.67956011973302
-20.18947820411329
11.56747261351583
5.858589133903002
2.763416456781983
-4.96692279494491
20.56354286879829
3.253809294566403
-18.85042936839748
-17.00784742470137
12.54493434622798
-5.149991070133843
9.612904148771841
-9.911869707182383
0.79636285851027
-3.10830812276614
1.047732722813828
1.003129050389631
-7.254248206923728
5.203386433679041
2.467445826442245
-5.916472279149096
-13.23558015998058
-17.66872517973859
29.31678981710291
-10.17587290686989
-1.472191730523755
7.061664349097534
1.209309717397976
-7.223241343632373
-19.51613142519812
-12.2119101674071
16.88952495446232
14.8385166381219
-1.720421397068549
8.159917192880547
17.7728934810455
-37.31349121918039
11.38068054524787
4.987544329009662
-3.331941422484143
-9.166764643858851
0.309167247216074
6.805153376140247
15.06511158801722
-14.13209037568656
-7.738174588444102
1.582273138357515
-7.551791703007907
-15.80090172942731
6.969155903139269
15.45680778620928
-6.625061959961949
23.13358590549007
2.755992242548259
-18.85503607436483
-7.034542073686535
-6.842318384745846
-0.5794950836456714
-13.50455411207665
10.76577221475662
0.7845099934853739
-5.727653296003962
-5.822628912152878
19.00767972610375
-18.38589221450535
23.11255189622189
-23.73433940782783
-6.080797979735871
-12.15401372802988
1.549508678413058
16.68530302929626
-0.249892572304493
-13.08884752143513
13.33690362637468
17.28596365754952
12.66722288065012
-6.992423569454793
-22.96076296841757
13.12090906712953
-1.799790390950017
21.67746801283254
-32.99858668902922
-14.54236155276464
4.268376733675579
-18.36201617907241
14.11791876417054
-0.02427931841915658
-24.70558336923483
-11.81152342062087
-3.026752288908233
16.66579807604651
-12.84545678347675
-0.7935890035626041
20.66759109366875
-16.43062454206189
8.883942515509965
-9.052613769936773
9.112629234785723
-32.44352618325256
16.84093402611448
10.60507301077381
4.997519146360291
1.713969134057055
-2.55717892126523
0.3532547225224869
0.4899550645539995
17.5662563506869
-10.62649140698942
-24.69835691925679
17.75859197555661
-6.423023194024526
9.626238940592613
-17.6719904489502
19.6130761518815
-11.56732464352654
-8.713183096803883
7.690282406207534
-27.68526968358057
28.70817037427862
-7.714420885163031
23.53913011719935
-2.683754699889737
-13.14095453217249
-9.706024014027225
5.740887900656729
-24.25418310998435
28.21931922342947
17.95682858253056
-9.187843911794452
-21.15319956028542
22.2563348227142
-18.27436066624583
6.236432300412696
-25.72012495760171
26.0863543820623
-6.602661724852474
6.521278006639024
-29.95133652797099
7.878791049909207
15.55126747142512
-0.4511532596577469
-0.3947871990309683
0.9191582393868155
-0.07321778030469361
-12.14367632582063
5.75142094706937
7.946302466324542
7.831599766864999
25.3053357070227
14.21842851413987
-19.63999695627348
-19.88376726496493
-2.09618448596916
1.361309135842755
-8.31773841977034
20.27834855199494
-0.2722486129355166
-20.006860870717
9.236758836268871
17.99512750990627
-12.97031901960205
-14.16833564843609
9.143527158110771
-16.55847032836349
-2.216413061491733
24.4307122221967
-5.65582883235375
-8.662831052266039
12.2323935742228
-20.12803285033121
-23.45935716654151
30.50253153214554
-2.762491683767414
-4.280682681817713
-2.657312089165362
-5.046538480659709
-1.648711759464197
9.352562329237571
-1.314098843194663
26.73816031194416
-25.42445060194452
-10.65779831010864
-29.74489927932132
16.94334042287819
-10.13613991318291
-4.885140256448686
-6.269644430181365
13.81463200493186
10.36402553747032
-20.8223273255233
10.45721093467399
-8.880021612331323
20.4782405557717
0.6312092811511891
32.50249594710051
-15.57202603704329
-17.56167919122577
-9.764651247421028
19.87485791542348
-10.11108382766371
-13.11770981757252
28.19726186941777
-3.631449351131333
-10.06576364101801
11.03990090294489
14.93227180528156
-9.898548181070463
-2.39297943355582
-2.640744190856986
-6.420277398656895
-14.34380217487626
21.67092131121191
-0.9068417376805008
9.380815393090018
9.176201244276642
-5.747847185482071
28.96267577827907
6.003653592755562
-29.21848218537016
-24.53475123582346
0.1379233176947471
24.39639373300811
20.10724531674716
0.7511903557620326
-1.536211461949651
-19.32222421056479
25.51917042600475
-16.99782433428065
7.124373846038399
-15.6457199378105
-4.088029261063107
13.51501790367469
-4.420384620527057
-5.006604022067359
16.71276697296932
5.947911171263414
-10.34585910796315
-12.31481903623389
-4.11871696052045
6.515465066255622
15.12225556153304
-17.51900366727219
12.44355453648849
-10.80103996587367
22.36610984103302
-24.00862441165026
0.02062866074733835
-0.03323319555852743
15.5310211280479
-15.51841659324865
3.176244326321756
5.917677696891577
1.671850191551313
-0.001668180320078305
-20.11084693670008
20.09481423644526
0.01770088057244503
21.64274241575032
12.92900524405488
-22.76017059313514
-11.81157706671482
-8.415287742949355
-7.63303699752407
-2.01488839876234
18.06321313923322
-6.433347566650412
25.17047103800877
-15.68086473625357
-3.056258735153339
-11.32086251861474
30.6387635220327
-11.39985154222308
-7.918049461244357
16.19655919479697
-15.22303700188485
0.7374837597191447
-1.711005952674227
-1.921164273630318
-1.301169296357956
19.41889276475665
15.93676006670373
-22.13159690439738
-13.08969827967138
19.28453511736696
19.12297992772678
7.101440014674547
-23.69681699100266
-2.527602951424259
2.970446093616664
-20.02187620457781
17.05077362730366
14.30547723939914
-16.60092304611126
10.65018695854127
-8.354741151880752
22.36038592908886
-0.6348268095753081
-22.3139380395544
0.5883789200374108
-19.05384373049248
19.93042810779637
-2.797748650969519
1.585321450965582
-17.93610824835941
15.87013566934542
0.48065112806685
16.72508933008343
9.199533453308161
-8.930226085605206
-13.10055764095378
13.15993157294918
-0.0600644285620329
-18.66484731988077
5.597772133350404
15.03916273909747
-1.97208755257059
18.70535742477086
-8.53656413788279
-10.19604406328147
-9.661508026370246
12.84097528843613
10.36162389422317
-27.57957757844449
-3.273455355908418
2.765781819837527
28.08725111439596
0.01250968745448051
-18.49887015691548
18.48582089925791
14.99824546590055
-26.43809455725102
16.82633889734151
-5.386489806002092
5.715184849193204
-5.463168525836237
-15.16602887895873
14.91401255556666
20.10008518707894
15.08731247779709
-14.90904911288689
5.774759511460727
1.724241624253821
8.699517793023277
-24.86041435284496
35.71475040367497
-2.823919763055429
-8.030416287828583
-14.63583090230429
35.71218632763137
-32.56063775617569
11.48428233084407
1.191134160770464
-21.71103790580803
3.003580481578082
17.5163232634506
-13.56999438767309
-9.101919756286943
30.79504682707519
-8.123132683090716
8.736518317719197
8.051951512353419
9.229798702766944
8.251863252238913
-17.48406936822643
-1.436011166192672
-27.385139609427
29.4311206020055
-0.6099698263914758
21.78498968090403
-0.1470939988627389
-21.63864041142574
-20.02526956695095
14.20498939704446
6.505776094431525
-0.6854959243663284
21.0641267176973
-20.35388179325361
-11.68549845442345
10.97525352997937
-17.92463655724118
-15.30298022786572
20.11974434362229
13.10787244148284
-13.92346885172496
8.625543042352103
-14.84013375447838
20.13805956385208
9.96230328568859
-21.74124838183948
7.764995749464522
10.3154465573529
-12.23402421012693
-5.846418096699185
2.417981509643059
7.842816119412603
-25.61042539827658
4.94140114616309
1.188486691471926
19.48053756069319
3.83830473051604
-19.30917857972409
-5.638369494582939
21.10924334381013
-12.62110463107257
13.23878649056782
-15.15425177640661
14.53656991688068
12.27666043563495
-12.13605980856967
8.663127728753445
-8.803728355863198
-14.82620899975593
-5.60217128129104
6.248945276913354
14.17943500410029
-11.69775858201969
7.381795180295954
27.44954930720382
-1.665721276382314
-24.7638474615231
2.472543908405583
23.95702482947143
-15.4964317815629
-0.0190567517208541
15.51367751835173
-1.450937219407761
13.45084577855536
-12.00108799108964
-26.44295467841186
22.41903294891004
-1.091285083837573
5.115206813331588
-17.16337594212005
0.4979294218081826
17.42371792434392
-0.7582714040598583
-20.98652402791136
0.06773568460971213
10.77624300929387
29.24924862918743
12.45235496996659
-25.61843387348936
-16.08316972571362
10.1993565769133
9.062856772771948
-15.72924580572865
-18.37252379215124
10.79136811492633
23.3104014829307
13.44503022246959
-15.94222018517474
10.26218571215945
28.09410130636634
-22.28089170849446
-20.22703468299873
14.4138250851206
-17.5938211082727
-10.15895924454303
14.36126148771711
13.39151886516028
9.508993160579184
-22.24218874582199
-2.996050220518628
-10.32227965284831
-6.422838086313877
16.74336820763834
-12.74407199197512
14.95499268372494
15.61659988469155
-17.82752057639908
0.3828499594014447
-0.2347795553108265
18.69167138720837
-18.83974179130546
-18.79208513192834
0.08990016973360779
18.69670284613969
-1.30771156147499
-14.92988762516922
25.74659234718717
18.74225820278478
-7.348552882303993
-12.70141688200826
-14.92601677355989
11.47737812089133
30.28175847390671
-23.01687839209709
-18.3547945875146
-8.584797203594867
12.00970416592236
-8.74569320430196
1.839744653473466
-7.07012973223059
13.9760782830572
-21.37356967487962
10.77932576271854
10.59210446580781
18.55344169390171
-5.849156871345633
8.056891503138614
-20.76117632570514
7.520776427276115
34.54263398415656
-3.038767134124537
-39.02464327718485
-0.9979915678979228
-3.425810277286881
16.89803461295958
0.848926897973294
-14.32115123365931
6.129113020424533
-2.435643231893706
15.88773267563654
-19.58120246412468
-15.75692035916703
31.99309542811251
-2.145859949521233
-14.09031511942631
0.639040432445884
-0.8538744429401527
31.20586760678272
-30.99103359638754
9.624067853455232
-0.5513071727873138
11.36508237597569
1.716405907821776
1.750768311631147
-14.83225659545089
-3.962491373289851
3.282845078581798
6.564343338480437
-15.61242049836475
18.68386465252954
-1.355238149220003
-1.71620600506076
-20.62227389043194
22.49645563427563
-5.735463684508358
18.54126967246433
-19.54189901850901
6.736093030530647
-1.451230987259828
7.112807467625998
0.6078438393819398
31.24920190537383
-3.260372150082024
-28.59667359486543
-12.30367140836001
1.011372310285805
13.61839000103976
-1.120557466340294
15.24125742618351
-27.73908996098408
-25.19287149827536
10.81425327779624
1.961559922614945
12.41705829774024
-6.885673645824732
-0.2820578128027761
-8.698482478463591
-9.740985572792434
3.858940384678983
19.82665370409956
-4.286091847513521
-29.53911672226186
-10.95829775475474
10.85261855932846
-0.2406103291719455
-17.17531647744485
38.87672210261703
-21.46079529603325
-33.27188834510206
17.8072597912167
-1.964626950857388
17.42925550474809
-0.06271730613178557
-20.26039447165752
0.0705118856545713
20.25259989212965
12.85880590285907
-34.89027579498766
12.75751328094002
9.273956611141539
-17.62731841728933
6.052836919989443
-15.24659156216039
15.24590153546298
11.45715714083467
21.97449556500547
-25.9553332327646
-7.476319473094982
0.09973520879668932
-22.62200780619369
-0.07656434088218003
22.59883693826247
-9.745766849800617
25.23836946168121
-26.1394876294823
10.64688501759766
2.86873066428312
-15.37542486440137
4.667809898141711
7.838884301907485
1.464725343999071
31.16215260045968
-21.16972080363581
11.99298796520242
-11.28348010472852
-6.576124179932807
5.866616319452675
-5.691417330770635
-4.067857033180264
24.56278090301475
-14.80350653906188
-35.54333318752361
5.728014350507092
2.527099247334148
27.28821958967321
9.376840335765735
19.34370540816561
-9.313161916980729
21.97889342165378
17.98878485302843
-25.68571870867015
-14.28195956597648
15.1735590079725
-15.49394370661618
-5.242778610862497
5.56316330950506
-11.49049807683944
21.38050696145745
-9.891312878749819
28.14434279327674
-23.00170180055553
-21.71476725318887
16.57212626016814
4.907084785852
-18.99404786117753
12.44453700908067
1.642426066240882
-1.034230534732081
24.01093668822136
4.12314631372901
-27.09985246722312
2.136266943755974
39.72148095938643
-14.96112857257762
-26.89661933036321
-0.27021157931742
3.026935011055374
29.0579809934232
-31.81470442532304
6.600948008533979
2.751033091094616
-14.70540226110323
5.353421161471779
-4.881644347608867
15.25146708627749
-2.192263161870097
-8.177559577099483
-15.98322545292636
-9.650467749092275
3.346623686115777
22.28706951591271
4.742609403769474
-19.71654575897392
-5.454222677143617
20.42815903234899
6.911886835717796
14.10931645971712
1.07447815920302
5.348601979532078
-8.519264624657692
8.680227160084749
10.87508417227695
-0.6757429352715484
-18.87956839712608
-0.5409023237142698
5.453562333124984
-6.633081406480256
10.5049128994094
2.938972152353456
24.48494954854471
-16.0508777157508
-12.48780658259452
4.05373474980864
0.7077004064893226
-0.7508002845318497
-23.47335000753429
23.51644988551214
-2.663465540832454
11.12235733390231
-13.13437988353669
4.675488090409633
-10.26514064330902
34.53126825339562
-2.623385194367281
3.975945382178089
7.679306300980683
0.08118832458172512
-0.09361690582094531
0.5828872600827544
-0.5704586786353605
11.6536470299844
3.658635509022076
2.845020450846985
11.19202651407775
-0.1538784792542385
-1.42524388607104
19.38734737061482
4.873988923757661
0.2985814749058558
-24.5599177690414
2.836008034139214
-7.437141244387188
33.15603924690853
-28.55490603649519
-4.925755007113723
-17.14903375217097
1.083099241991068
2.721941341204827
13.3439931689526
17.03514358042349
-0.8885205836380561
-16.14751851464404
3.544854572917912
-17.68267214227912
20.90529284796758
-6.767475278690182
-14.88173289457552
17.20572113960709
16.57891347665736
-18.90290172171817
-41.74280524434453
-10.33776766217172
24.44741657821695
27.63315632825729
16.49843572078985
4.597751894958345
-20.72638480441446
-0.3698028115211401
-37.28890839398434
27.86920344075626
9.642127353705412
-0.2224224000821232
20.14907084427015
-4.182975986165542
-25.04775902897734
9.081664170864055
16.99206465182438
18.87620503438631
-19.36983396578981
-12.05681876641386
4.932354991260357
-11.36707536152234
18.49153913666713
4.305048889716626
-3.667291293739945
-1.730431878897507
1.092674283329569
-34.26367006595591
37.49272039676919
1.375196542511661
-4.604246873319825
28.96855532317444
-21.62275785567415
17.29107037906497
-24.63686784658439
-15.24158535202746
7.568844030556157
24.66480597311996
9.958323075783236
-16.27726670254226
13.53158985755342
-7.21264623080051
3.421323676393248
-27.07868960335501
16.81152952176992
6.845836405226684
4.773716274903386
-3.696392890510415
-14.03501771475394
12.95769433037933
-12.25739523886265
1.61356178176594
18.93471517429508
-2.666419187018496
-24.07544277379078
7.80714678651715
-6.935418038762176
-20.23033184014464
0.06934881870149531
27.09640106019553
7.357830739451367
20.668813298273
-9.091928863460547
-14.32781980488866
1.902119150051005
12.4243388160417
17.59012542142749
-18.51725054593308
7.405812688039804
-6.478687563552698
-24.030739341481
15.74203520145528
13.30124657172672
-5.012542431692994
-3.668105295026604
3.056663575066429
-19.24652459128802
19.85796631122339
0.6892759953125484
-12.16115670944421
6.599391966304476
4.872488747818134
-15.66988117683798
6.516970486636536
10.52651541362698
-1.373604723425279
-14.47436981021253
23.86687005589433
9.994847124975784
-10.08818118950034
28.04138897602979
-9.520360372519111
-8.432847414014955
-5.268925764108984
4.022460902429465
24.46339549262619
-23.21693063097993
-32.09922336568901
8.295017133939808
20.6580633116984
3.146142920048382
-24.35381347643822
0.1537766440859278
-10.16306435450284
34.36310118678373
27.55574718023884
14.93761601562814
-14.45952568793415
-28.03383750796607
-1.570086977067046
-7.681849830115013
21.56998079439192
-12.3180439871886
-9.504943970697555
31.50741886608071
-21.38783398006008
-0.6146409153286598
11.74607188166539
15.50852470758227
0.04712429463569819
-27.30172088393478
1.667720014960198
-23.41868211702105
-1.575415733512932
23.32637783556855
16.15762079077081
-13.28181992826975
-18.78268672985958
-0.4434182724031173
14.26230216887807
-13.82054832269022
-22.14746337520995
10.99714050371379
11.1493709094865
12.12421554554137
-22.62525796379571
-7.731516020116636
18.23255843831346
-16.70626846558382
13.85995374016263
2.844757136414965
-9.073073661539167
12.43216034922762
18.07454354738086
-21.43363023513449
-15.99675533654207
-2.812191800422321
17.50777784055919
0.8033023257813467
11.92038871842167
-24.30673325128015
11.583042207064
-17.64422600611827
12.73844015760315
-11.09096948807062
-2.989341632651063
1.244765193070334
-18.42768173643483
20.17225817597237
5.786907656214334
11.84530038059321
12.99695764975984
-30.62916568659994
18.75148044807716
-2.135493299886409
-8.171445886706646
-8.44454126143828
7.496948185834963
-2.469985420474556
-21.389776362755
16.36281359739329
8.914371426165484
-28.6794769698886
10.69203188213824
-4.783345062122213
-13.04266634101541
-2.72900335022773
20.55501475329108
-8.000467369757329
19.09402185344219
1.886161858402019
-12.97971634210214
3.021140972243161
13.84753599254361
2.050445163932371
3.92725765625754
-23.35247570166805
15.16276119784942
4.26245684754679
18.80556973255818
-15.08754859614602
1.563607229604692
-5.281628366016096
-14.46397140870079
1.139848730116302
-2.052839229191956
15.37696190804937
17.3942144329746
5.844484227864796
-19.06123676339368
-4.177461897463125
2.636364739494417
5.124788578974086
14.47713578352356
-22.23828910197138
20.6711560459956
0.1959961699073076
-25.46954011316125
4.602387897692862
29.36216393517095
-18.71506652245937
17.96532834101665
-28.61242575365333
4.620508953162638
11.38140805516358
1.781625057482306
-30.01778303677461
-3.220406812944792
20.4518225248623
12.78636732476597
-4.138838613405207
0.3546279664854802
19.23822587938984
-15.45401523247491
6.907547779737603
9.371906377529822
4.834767127190494
-21.11422128447112
12.16059402815612
-7.081082484746773
-18.07948545040367
12.99997390695193
-18.49583810695855
10.04577357570103
16.12766463274143
-7.677600101491664
-18.57483527529189
19.88563060351732
9.103627312091403
-10.41442264030863
-7.949874337320813
25.56421413053478
-0.4126237417085987
-17.20171605148856
-21.0648572944367
-3.352158610741005
22.77776347244824
1.639252432708893
-2.328840806491819
19.29744991585571
2.829949828533486
-22.37573542420697
-6.841350252594218
3.606660278591685
-26.92711953900348
26.25088328817338
-13.79813355930459
0.9001547508862565
-41.85072545040314
6.880403694854945
-18.67471768724351
34.57288650422113
-22.77857251184057
17.70529707975153
-41.64965432383413
-13.69820011280038
37.64255735686942
26.44057374380569
-3.629547137567808
-22.39664357158199
-0.4143830346674511
4.314988126857258
-1.438140789471237
27.70278542322482
-30.57963276062543
24.21794645650972
-26.4015500896774
-1.141960017558054
3.325563650722097
15.53250861125546
-12.53908420840391
-24.37188134225628
21.3784569392027
-5.595066379216872
-12.91546419794155
14.29560924273977
4.214921334418427
33.37755217216351
-16.98094443015598
-19.77111897902519
3.374511237175059
-11.46871306150663
1.615988581653569
12.46641771748074
-2.613693237576058
8.01018873047704
9.717873564737939
0.07127448927919838
-6.281514642605866
-9.83363951265717
30.86074343568436
-14.74558928043014
9.918140320671888
-20.30909961912901
9.020811912831848
1.370147385628118
-19.44900383958477
25.25267478808961
3.449922300314478
-9.253593248790926
14.29243814271219
20.46596443576229
0.8191371652533227
-35.57753974372076
-27.19944473387985
-8.577850013797375
-11.61449632063973
47.39179106818888
37.7549765980105
-11.30768884747278
2.568849978525582
-29.01613772911385
15.63462499735748
-36.03059484424276
-8.40248805200822
28.79845789886889
21.459244188362
-12.42084435359051
6.09038622247014
-15.12878605726493
-20.30360493891651
0.09986486156539266
-3.011883177557494
23.21562325488564
-21.25547978125227
0.08965552997616154
7.466277594741666
13.69954665651859
-10.94219939197516
-20.11492481495979
18.79574755778093
12.26137664907894
14.02036561699499
0.2388915832084427
-14.25988222977415
-14.45566233952848
18.78650106967159
33.42413786788315
-18.07680513287554
26.03931153659042
19.38259399495629
-27.34510039929542
18.91088751656579
-0.2238759208298673
0.2806616509427148
-10.62038577595794
-9.686429410454286
2.453972284073624
-23.02415971924749
-6.629257298746973
-21.15530396978522
10.52226780050846
-0.309163222729042
3.481202761725727
14.95173012179029
-17.24179872276269
37.02063543415291
-17.00300760873317
-15.10178059251377
-4.915847233128913
-4.20803579217991
10.89177607941462
-26.79866510224056
14.2094549847413
3.809109141437553
1.704870086853826
-19.72343421307634
1.278248951828482
8.806721419601777
10.57894687315255
-20.66391724444032
2.259870201495252
-3.675530608256993
0.5405961507262398
0.8750642560450744
6.400961547648408
13.00665479519313
-1.270314360692071
8.747655290987451
7.95685460177316
-0.3234046535825794
-3.648829983501608
-6.718243828045192
20.16522088967261
-9.798147078084755
-42.69440948091263
9.524443071060764
15.09316127662431
1.649703775454709
-19.68670113594633
0.932962446773865
17.10403491360027
-10.83372487003658
20.94466276977559
2.361145020759112
-12.47208292044767
27.00398532466117
11.54117217175392
11.16233898780536
-49.70749648429339
11.34009548600502
5.469056565342847
-15.81058880505221
-0.9985632462923538
-23.53367688954183
-5.928001044704708
1.338658648388904
28.12301928581876
1.210093214578356
0.5898365731088164
-25.33360667726311
-15.30442323883838
-5.587551295779692
-8.050019415343504
15.43099480076456
-15.93783910880053
2.156548083352797
16.24544527568785
2.758609571280678
0.8631679373011986
-19.8672227842588
38.53881594581276
-20.80954280284035
3.579950670684676
-21.30922381366182
20.43104820322181
-27.2206078070678
6.788785763425788
-9.094257030250814
29.68147109650548
-1.461081699714135
-19.1261323665456
-17.34549730344723
-5.429875327099746
14.93780416091791
7.837568469612669
6.843114282243628
-6.669877707046629
-2.536600002082681