/*--------------------------------*- C++ -*----------------------------------*\
| =========                 |                                                 |
| \\      /  F ield         | OpenFOAM: The Open Source CFD Toolbox           |
|  \\    /   O peration     | Version:  v1906                                 |
|   \\  /    A nd           | Web:      www.OpenFOAM.com                      |
|    \\/     M anipulation  |                                                 |
\*---------------------------------------------------------------------------*/
FoamFile
{
    version     2.0;
    format      ascii;
    class       volVectorField;
    location    "1.5";
    object      U;
}
// * * * * * * * * * * * * * * * * * * * * * * * * * * * * * * * * * * * * * //

dimensions      [0 1 -1 0 0 0 0];


internalField   nonuniform List<vector> 
19632
(
(5.009067913645966 0.02996978221272219 0.01088020154973592)
(4.999982495339012 0.0007933902153390956 -0.0009951036055516362)
(5.000441710202856 0.001279533486037644 0.0002433407606436597)
(5.001558727459385 0.0004488841388047929 0.0006468807783762887)
(4.999592697501276 0.001892792841456944 -0.0007033048746285648)
(4.995952937999412 -0.008793278948786587 0.006955586334008776)
(4.996272880779189 0.02084109384636419 -0.004339940900710018)
(5.003219394118193 0.006425596080249212 0.003390043630811597)
(5.003333813417273 0.006728806977310249 0.007789843505976559)
(5.009245138575604 0.00326084328022058 -0.001164865453869648)
(4.999689806950053 0.02358653146031219 -0.0003016382658205969)
(4.995987718371936 0.002211340512160163 0.003384260959742744)
(5.004134654132123 0.005211940374892113 0.002255941012028802)
(4.999098042944871 -0.0005705552617856077 -0.0001570166364271422)
(4.999996283765454 0.001663531524434262 0.000197446750506507)
(4.999586708374356 0.002105049212125108 0.0001903790101713225)
(5.000218935386021 0.002663872233538353 0.0001387167415429969)
(5.000199783857359 0.001514874449626174 -0.0004958492173840531)
(5.000328373831839 0.0003199439859449253 -6.163787245618686e-06)
(4.999488143651953 0.003374169330240493 -0.001041340145229979)
(5.003334184954189 0.00511112109645566 0.002756570861263322)
(4.998327986871863 0.01023776884318763 0.007701530224820822)
(5.011477175044133 0.00922962208609686 0.005683850398219446)
(5.000173701452804 0.001261136530501481 -0.0007112056795146643)
(5.000406300352433 0.001847677727629344 -0.0004038363246632101)
(5.008030284442439 0.006656256356971799 0.006999073166859462)
(5.003767440761541 0.008424080351489512 0.0009413218427957732)
(4.99987657022883 0.001308435819556489 -0.0001425112635908611)
(5.001160686851788 0.001699658622028902 0.002934060124302728)
(5.000126928958905 0.0007572531278100334 -0.0003132299709701704)
(5.000600915978362 -0.0002438406820282557 -0.0001682444394726371)
(4.999316691326833 0.002501492899241574 -0.002899759619725013)
(4.99911983142159 0.001860414676474935 -0.001740089498627848)
(4.998144036118326 0.001933415009761813 -0.0004238787964156429)
(5.000014716624851 0.0007075571083704108 -0.0001568472637261987)
(5.0023027630714 -0.0007853835530146879 0.001389057579585739)
(5.000027063240256 0.003916659547511747 -6.044544607267359e-05)
(4.999034731102206 0.01447579169491849 0.00108035023384402)
(5.003096493239279 0.006962347742558328 0.005745433104932885)
(4.999285498550562 -0.002316218007087381 -0.0007546164197503336)
(4.999625184994207 0.001025271276925163 -0.001810829174306757)
(5.009532933191131 -0.002268109996331413 0.01120853983641941)
(4.993641168546834 0.006857785379931868 0.005370151359892938)
(5.000393281572356 0.001509345826602313 0.001223157043096486)
(4.999757536057119 0.001007436045429692 -0.001018152898801069)
(4.998840102017053 0.00388671870471043 -0.004358113480205322)
(5.001421536270302 0.001194459634748443 0.007041706330836264)
(4.984829315915899 -0.0004241672052653122 0.004553046221644925)
(5.004683313683771 0.003966651457144604 -0.005388861270817382)
(5.000591440137235 0.000106929398534016 -0.0008295822816492901)
(4.985859166750823 -0.001957792635363479 -0.007163377383796955)
(4.997105239000684 0.004262751444954163 0.02113141853301481)
(4.99815040803022 0.009182577328952583 0.005334062976722346)
(4.999488017874281 0.008829930039510363 -0.003998963850429322)
(4.994474390854974 0.00427873925105836 -0.002233951620485146)
(5.014826157800608 0.005159353904758482 0.007380612894350749)
(5.004082946452503 0.001076045154157951 -0.003609323492994048)
(5.002004574364092 -0.002735090939420478 0.0009785595758872994)
(4.99605433677054 -0.01176780588576783 -0.01535329514278792)
(4.999665687571929 0.001053921830140787 -0.0003273778882299402)
(5.000755907411317 0.000984424717125553 -0.0007922614517279605)
(5.002062830022504 0.0009409869897523316 0.0007959417455315845)
(5.000113745247686 0.0007194949125137249 -0.0003806020685611726)
(4.99821159137776 0.001567492704344717 0.006144636452829006)
(5.000545182394013 -0.005208712210708004 0.006530631357827729)
(5.000090659155728 -1.117009691735185e-06 0.0003987097229356559)
(5.001539927591821 0.001439112788322409 -0.0007078444462236061)
(4.998979689882785 -0.000438431084929665 0.002760697656068942)
(4.999825851811901 0.005283271351024962 0.001980398632281825)
(4.996628750610717 -0.01513676949193672 0.02091212609663443)
(4.999665650704562 0.000825255591379747 0.0001355772410995702)
(4.983548709247886 0.00440644644463932 -0.0001110768264364976)
(4.972630641329038 -0.001099188717349872 0.002244533856715345)
(5.004943304435995 0.006097706268274736 0.006224219553461712)
(5.000921813470061 0.0002668468425783588 -0.0008596977628821408)
(5.000560137490949 0.002863226010182309 -0.005592236563754972)
(5.001241304015455 0.001441129002677154 -0.0125978009643825)
(4.986066760944865 0.0002979058687892919 0.02786646445516808)
(5.000138493462329 0.001059685990871841 0.0007841622356898923)
(5.000198709519024 0.005725174935850673 0.001042727691158577)
(4.997057420304691 0.01019059596997742 -0.002316432715926682)
(5.004908829445784 -0.001601027194808124 -0.007586557289528884)
(4.998975304072048 0.001176111279175691 0.005496879158572819)
(4.999286706041345 -0.001767864066330955 -0.003328866730264825)
(4.997360309710798 0.003749308916645447 0.002125695750132299)
(4.995238142684234 0.002643175584374592 0.00157954246058043)
(4.998975904038381 -0.001244560359849086 0.002737947600277843)
(5.002451789273473 -0.004294474092048682 -0.0298678855330246)
(4.989557719296651 0.002058796571958508 -0.007133771562165748)
(4.999907178643038 0.001682167720589971 -0.001103360977719944)
(5.012159619931047 0.01251554070214558 0.009401912443916617)
(5.009638636505088 0.01201640402471185 0.007851683904621409)
(5.008115185098352 0.005945256973371452 0.007443726398744792)
(4.999268749046836 0.001004494130706389 -0.0001655700441984072)
(5.003420133277007 0.009522604934667596 0.006182760781669345)
(5.003492857921788 0.008061011612460161 0.008038986857044057)
(4.995453654966628 -0.0007066495533621398 -0.0007184695264473543)
(4.999445618720299 0.02311315409696694 -0.002822960362350124)
(4.999628240825678 0.008594763390378637 -0.006220029489589921)
(5.000015646918746 0.002188616861654931 0.01650148896579933)
(5.000356039489524 -0.0001564160774662035 0.0003603901257000541)
(5.003730545121678 0.004231207112169954 0.003513519831555753)
(5.001391442358536 0.0008574026116858102 -0.001773200778331096)
(5.000901187310375 0.0001300825275340212 -0.001389428406622599)
(4.985856980999891 0.002223959332656687 0.01295367668087859)
(4.999562200512835 0.006794097680885487 0.005115087653407079)
(4.999930049445982 0.0008771297676294246 7.852582046305466e-05)
(5.004643120989273 0.004370533141064132 0.006120204006131916)
(5.002495107826738 0.003502471581393075 0.003565572879034182)
(5.000222636550998 0.01763010389604134 0.0005044924815496476)
(4.987967163477471 0.003306600813313141 0.001672551750301858)
(5.010226902537132 0.004698107312077897 0.001255972320367656)
(4.999717060740462 0.004331358266162271 8.707774254732095e-05)
(5.006637433239058 0.004173084641226504 -0.003180679520549602)
(5.007704036580862 0.0001525567164368947 0.0002320074036425635)
(4.99910976041938 -0.001738689335491063 0.01590119820548608)
(5.006651080060985 0.001254821960972464 0.005409657811572287)
(5.009314704873566 0.006639517931240734 0.003117985380249089)
(4.995635791144679 0.007806197248415627 0.00839616233665748)
(5.003692799354765 0.01895480275431909 0.01390700538784695)
(4.980972195684664 -0.001659511119469023 0.000926489602841776)
(5.005013817854102 0.01125860899391557 0.01153716758773003)
(4.999959116649642 0.0005769787009955174 -0.0003068750293302225)
(5.009931563043662 0.001162634482395522 -0.0009923980742704449)
(5.007944373215667 0.001880124439129867 -0.005889392949422785)
(4.998758895641064 0.002780638057703288 -0.0006502978673629939)
(5.000392577692712 0.0094593299712247 0.01120927364034175)
(5.000476014811795 0.0008880408161536038 -0.0004147520303053508)
(5.000387064875748 -0.0005273072051037108 -0.001832008769570676)
(4.997025336638464 0.01200294376337255 -0.002395434640664657)
(4.992895220912696 0.006149258415560374 -0.00753508616978257)
(5.001035590431766 0.003275367326548258 -0.0007730774142880905)
(5.000001374537637 0.002117690389644328 -0.0006372500768481604)
(4.998270445864289 0.01514814170464883 -0.002131648705206273)
(5.002436805675511 0.00112309734705352 -0.001319197865477537)
(5.002957915765562 0.0003495662880189486 -0.0001496368271591119)
(5.010598497852272 -0.005127958631477375 -0.001568635467112412)
(5.001819391600511 0.001479941531077687 -0.002023909087890608)
(5.000322574620828 0.0004443105062226087 -0.0002175571728515314)
(5.000942168682395 0.001532884167306072 -0.001667779001099891)
(5.002099806231485 -0.0004644928194392574 -0.001684779697811501)
(4.996592680420101 -0.01303867464305448 0.01487252267530842)
(5.000296555110772 0.0003939502062697394 -0.0001122623693839113)
(5.02954066404581 0.02513569265454872 -0.009619381777654527)
(5.001253144251312 0.004223555261263204 0.001471882753480235)
(5.000978630439205 0.01036239682153823 0.01708288256328386)
(5.000686038813498 0.0006272151763235523 0.0006160649691468791)
(4.997896744755342 0.001733634076465508 0.001702656514907686)
(4.999099816380408 3.313641296874167e-05 -0.001955029109779845)
(5.000539504222681 0.002102507214635143 -0.001843665361079663)
(4.999819664511504 0.01268282162799573 5.393780288195961e-06)
(5.001866485315177 0.01460033255234637 -0.005001029513018126)
(4.998746854074535 0.001774799242144187 0.0004610896718530135)
(5.000294257894649 0.0002665943122290915 -0.0001465047828758706)
(5.0223578031953 0.04764263674920445 0.0261801509967901)
(5.006376940673818 0.005748036671206901 0.0009246937947602001)
(4.981753378279813 0.02240014540427719 -0.001031700576831034)
(5.002928302738057 0.0007605942710063925 0.001575695962054133)
(4.996477208555696 0.01103540909149726 0.008651694983457463)
(5.000414280859468 0.008599174034452383 -0.001931615648668014)
(5.007457356210052 -0.001069992089495564 0.01022794610001084)
(4.991232047042346 0.0004331908690511774 0.001725959649342423)
(4.995448381032812 0.004839714318879496 0.007511454201087142)
(4.989612060139712 -0.0008331724542239774 0.001257150079324956)
(4.998102028313307 -0.01389085939009963 -0.001794588613290048)
(4.997675825239504 0.01584984097335317 -0.01680963833530611)
(5.000844124532128 0.005300306382260136 -8.456900184415105e-05)
(4.989802268322379 0.003089717380207644 0.00211118538725038)
(5.000356005326213 0.0001785733509952254 -0.0006907557158560893)
(4.982574940561797 -0.0003766897500781941 -0.0001507791840216888)
(5.003549212586728 0.006605273108224289 -0.02638781671917098)
(4.987935274524357 0.00122738188981948 -0.001763598479984119)
(5.000415117918392 0.001050807755704701 -0.002256209656333351)
(4.998689546108494 0.008087789534327082 -6.608626580601604e-05)
(5.001245152571774 -0.0007851296951772932 -0.002250277385424319)
(4.998164920989302 0.006677113508077225 -0.01253694801082222)
(4.999753591438973 0.005171942762090637 -0.009566032884654407)
(5.000340229004516 0.0002496738236364589 0.001346768515554352)
(4.975364722339986 0.001536330753034367 -0.02492448422396699)
(5.000983809650733 0.001960485260316442 -0.001715936721697355)
(5.00034602021373 0.0004012334082415907 -0.0004278141446568995)
(5.000531464579733 0.0005140411560799922 -9.573452983779979e-05)
(4.999628171076142 0.0009473918636311122 0.0004229306976575171)
(4.996528674517101 0.007574096326881452 -0.005827549928245093)
(5.000329394043149 0.002356503062830576 -0.0002323669771468696)
(5.000446843326057 0.0002753521281788899 -0.0001062543281674689)
(5.000474900792961 0.0003192821947039803 -0.0001546759999403575)
(5.00156883032369 -0.002103419878184264 -0.000150259521604932)
(4.992791085423906 0.01190508567483876 -0.008154511057759679)
(5.000228083620637 -0.00299373978278461 0.002089205392190036)
(4.974444170987421 -0.009152363678462673 -0.001150972214902654)
(4.99305679724301 0.002052439452055793 0.0001321507186790865)
(4.999960257825189 0.001281094758786542 0.0001985413865168708)
(5.000257771167225 0.0009122964307663084 -0.0001070486186263895)
(5.000713920854885 0.0008449166349452936 -0.004187781112228004)
(4.999522177092314 0.001093872457853211 -0.002448674730980589)
(5.000676116035399 0.0003505785864520259 -7.393149092056426e-05)
(5.000033882404532 0.001055271128623363 0.0002775075737502366)
(5.000422107660597 -0.001531639418109057 -0.0008575618762992012)
(5.00075623673149 0.0004245527722762237 -0.0004647066077509966)
(5.000209143954979 -0.001079249952036694 0.001007461496661361)
(5.000249636676858 0.001260774941125285 -0.001019995236535578)
(5.000475306048058 -7.816606069199488e-05 -0.0009094894022026324)
(4.990679885122264 0.001343026629420788 -0.002569488542395096)
(5.000606724472064 0.0008845422449726316 -0.0005281885695288962)
(4.999494833657535 0.0009766278359745937 0.0003999002751552061)
(4.941043022138708 0.1733665375750703 0.2091909000572448)
(4.993208133884323 -0.0007272683988433168 -0.0005411854572090569)
(5.001756544468519 0.0006796890221445655 -0.01238752839084264)
(5.000952139388898 0.00483012001550135 0.001954921351746611)
(4.999298241061257 0.00245231970605583 0.0009842250866811248)
(5.010161770077108 -0.002784018145679626 0.01597138444770081)
(5.000599992796245 0.0006703918836908246 -0.0003248210177204224)
(4.99324605196674 -0.0002392254850284868 -0.0002858540857744802)
(4.999560405149398 0.01370792578210907 -0.003831394159793091)
(4.99960098608194 0.00495527079416847 0.0007252841400165757)
(4.998696208600935 0.001522588374330534 -0.002156664739463794)
(5.000575572667554 0.001173796500678279 -0.0004931573992293237)
(4.985508442567476 0.01712227730654101 1.28926333597742e-05)
(4.998659182684015 0.006260841327670703 -0.0238916078431612)
(4.9990119862875 0.0007047758688331197 -0.0005522470800086646)
(5.000655607990064 -0.001248454539671917 0.00526022395347216)
(5.000734252790171 0.001108607797449788 -0.0008737550350627792)
(5.001813232875168 5.525010515986454e-05 0.0007679079920090187)
(4.999209793492099 0.001085032774330313 -0.00542997717293322)
(5.000249505386317 0.0004663110457899575 -0.0003340333855560233)
(5.010733179121771 0.0003946435030903657 -0.004146824750067699)
(4.99982298587217 0.001187035801433741 -0.0005787534379618316)
(5.011108985407272 0.006013914758874229 -0.000256396552663035)
(5.000147895649226 0.002315668368051063 -0.003124859127988086)
(4.999627253068359 0.001614205014454491 0.0003929228541023642)
(5.001519419187249 0.0002565502271754167 -0.0005693555497175948)
(5.000517420798962 0.0004278992169831609 -0.000225911423185034)
(4.999705166833881 0.001383914015230675 2.875561456827883e-05)
(4.999910232141732 0.0008237608581449557 0.0002941184226274026)
(5.000614893066393 -0.001756757790879603 0.0002897753117381699)
(5.002715847460204 0.00444176321932458 0.01994836245942349)
(4.996941200898217 0.007697411568448803 0.01080357813623216)
(4.999870434953726 0.001000615809721667 0.0004339087798502323)
(5.000375125696894 -0.002485245407760821 -0.003060067120742557)
(5.001870021648227 0.000276932693930263 -0.0003935335995623391)
(5.00097983547345 0.000763237026053178 -0.0007905087703530611)
(4.835088257285353 0.00584457451572981 0.1549076643991547)
(5.000408069982004 0.001330033700491788 -0.0009458374252429223)
(4.999257799432653 -0.001959032145648031 0.0003553608611560688)
(5.00037607749356 0.0009942773456743526 0.000215454361872747)
(5.000333981615174 0.001293741912451392 -0.0007977025648190195)
(5.000272678187389 0.001191356539056596 -0.0007766380277963484)
(4.999312074627163 0.003208169463502072 0.02180027236713575)
(4.998672453510464 0.002855467818520857 -0.0002197033694774761)
(5.000566742699599 -0.0007550239457765505 0.0003481735911984199)
(4.995213157864036 -0.01597352027550309 0.0756604159952781)
(5.000265531633484 0.001138660822128991 -0.001145092530960989)
(5.000477158920598 0.001265243722769454 -0.001113050808623195)
(4.99965801373142 0.01118477337907379 0.009738161693329486)
(5.000572648523296 0.0005863148071271234 -0.001006344000079815)
(5.000131243418951 0.001224981981239691 -0.0006919262845517916)
(4.994641233080931 -0.001286455199039257 0.0003206211269163313)
(5.000457300888562 0.005842853235231347 0.01534165127100503)
(5.000466289317055 0.001382281827731706 -0.001132025822395491)
(5.000858793150094 0.001467772548489114 -0.001037073801524586)
(4.996170164915188 0.03451561101684582 0.003714943939510052)
(5.000359895749917 0.001613305845115305 1.225357121177801e-05)
(5.007268687976882 -0.0008736128912888565 0.01577404296716748)
(4.999415625669156 0.0005535018319580653 0.0001901552406615519)
(5.000976592473304 0.002996820314294447 0.007427590133987496)
(5.001105695834087 0.006635264865289627 -0.006438001127241524)
(5.011172682532062 0.01527909781698124 0.006905043477941375)
(5.001595807529343 0.0004626401645543033 -0.001261775451397591)
(5.010292558755787 0.007110033782029188 0.003774737426293963)
(5.000360695283606 0.001924202479870095 -6.986281298528723e-05)
(4.993306543270761 0.007877998310769638 -0.01037969161326052)
(5.001069812554177 0.002544455525850441 -0.0002869627382752824)
(5.009374816006407 0.01037418289308928 0.0008391470183070751)
(4.997116933829763 0.007031161033546745 -0.0002822090778951101)
(5.002704115121263 0.008101031934816542 0.003643404493778671)
(5.000739595783581 0.000445895845067497 -0.0004570500685633014)
(5.000944939340763 0.0003002172787516129 -0.0005665545776068035)
(5.001501791408796 0.005504081653363469 0.005403945691129505)
(5.001771331521019 0.008271365735345928 0.005617644949488725)
(5.001008346094283 0.01480267861751688 0.01230025357812225)
(4.987343676520701 0.001614250982734167 0.00101301447534499)
(5.000087273836034 0.0007349537654561185 0.000260148648060386)
(5.000285824279806 0.001030747321692155 3.940748293834859e-06)
(5.000314858560317 0.0003235463785542965 -0.000186488321506859)
(4.999253238817782 -0.006449290458383561 -0.003974724846258365)
(4.999939680873889 0.002903322384305853 -0.00193104273292608)
(5.000907206783086 0.0002865308830184343 -0.0002863785565634929)
(5.004197102781415 0.0604291658664239 0.06956509204240098)
(5.00041122648469 0.0012998879351058 0.001518026687611454)
(5.000619224740353 -0.00298434973441699 -0.000431969534476008)
(4.99962651302592 -0.001006645128566194 0.0002076849521734845)
(4.999718387191753 0.001642190051393055 0.003980867519911767)
(5.00061754577183 0.0009669211820343456 -0.0005034336973299988)
(4.99979607409252 0.003877405940309954 0.0002503711564497955)
(4.997240945380325 -0.001204201319902105 0.002831827800406376)
(5.000514052632086 1.07916492601525e-05 0.0008522766798190444)
(4.968240550515927 -0.005026692641477492 0.0007773906893855763)
(4.999770495205765 0.002542477768405428 -0.0001542043485720497)
(5.000494715805326 0.0005561282807027077 -0.0001032235591078767)
(4.999912202928565 0.004438290337479248 0.02869814762005158)
(4.985394269032538 0.009129083611322319 0.01794181575651977)
(5.000270283768787 0.00110614378703723 -0.0002134281760876523)
(5.000524766370108 0.000199814522029201 -0.0002672077211720979)
(5.000857767159958 0.001901865451075583 -0.001352600568130242)
(4.999423719787802 0.002863046541802691 0.001072646093593376)
(5.00041325496198 0.0004700908886106914 -0.0006434540805879869)
(5.002730887488315 0.002927541170950149 -0.002062917313091305)
(4.998571233210782 -0.002500087329120033 0.01066817024957228)
(4.99975021769969 0.001600992282840172 0.003548675927519587)
(5.003565935716373 0.004342429481128653 0.001042826133680386)
(4.999053414379339 0.0111560786562759 0.0102407090905846)
(5.000677033633707 0.001522881082323546 -0.001221036382602581)
(5.003979894711107 0.006492930952097168 0.009092380662939286)
(4.999181625746223 0.02382442798543445 -0.003827524659086468)
(5.000507712104469 0.0002483472501166059 -0.0003249885750997155)
(4.994090111254127 0.02314671420202537 -0.03115145969484931)
(5.006343645754981 0.00374951840204866 0.0004618217337336164)
(4.987345173847174 0.008438480993763937 -0.007807731833886677)
(5.007545430308864 0.01027062001611939 0.00413401396326536)
(5.015590580156054 0.04366947487458503 0.06614713915396475)
(5.006409234602582 0.001220261823886409 -0.000952216587875196)
(5.007570073131939 0.008101644058557476 0.006639366216750801)
(5.006017830878686 0.002524823277371081 -0.001462415002923069)
(5.000796128846514 0.002810437196654847 -0.003233286159802308)
(4.999994866025316 0.001743017766318811 -0.002378293302687828)
(5.000116064600268 0.001355482142709478 -0.003581375882983682)
(5.000776839352094 0.005176744649323004 0.0005933409086192417)
(5.000923392811209 0.0001224709683971553 -0.006141676957676093)
(5.000050287952213 0.001792494961684871 5.609608791149944e-05)
(5.000642322711942 0.003016968781570014 3.404577747530405e-05)
(5.000375915837404 0.001040309192242537 -6.156280871114957e-05)
(4.999542447759818 0.003973463517444468 -0.0002156734409148525)
(4.999308812025732 0.003045633004415629 -0.003209794754981067)
(5.000682445405975 0.002689490611484831 -0.0005582988017517248)
(4.999229751767035 0.003334875703224725 0.0008356887243870274)
(4.999806711765432 0.0006770512827478806 -0.0003748799614570526)
(5.004588621396388 0.02087447444494955 0.007666356673632017)
(5.000112709632102 0.0005597822401826794 -0.0001315921987374253)
(4.997456627790737 -0.0004932615750699984 -0.0004376960947811964)
(4.99912602348112 0.004014009747030494 0.00127900866894415)
(5.00076938998898 0.001419533522210624 -0.002008359477325645)
(5.001821305100455 0.006731059644791794 -0.003983540500458222)
(4.990479397256248 -0.0004040516686815628 -0.0004416520752648547)
(4.999228871735216 0.004789860558784262 0.00131253843064005)
(4.982797975941802 0.003525819507220132 0.004083976002525473)
(5.000356011382102 0.0005430526168842279 -0.0002965368470018996)
(4.99696909001771 0.004778555949031006 0.01743843372239811)
(5.000286306809971 0.006956726879782217 0.0003747776310838829)
(5.000673909406506 0.003212906640844571 -0.0004412384940670666)
(5.000917230216858 0.0007302420891153028 -0.0008104652920481902)
(5.00376842379946 -0.002288950338149157 0.01188548721704023)
(5.000400673936967 0.0002889745578818682 -0.0004447401549997252)
(5.000224322812323 0.001171874462090608 -0.0008586654389534515)
(5.000520880520174 0.00262255139672453 -0.002050192590449349)
(4.997432246618522 0.0009829653442930326 0.0003076916514812196)
(5.000307422113848 0.0004831616209019316 -0.0002184880965689677)
(4.999281111303056 -0.003383784945614502 3.063972273795933e-05)
(4.999677006836413 0.004298058725113886 -0.001958312678770544)
(5.002366653772558 0.002636749530760518 0.001981266931213994)
(5.000931013215452 0.0007894813872236935 -0.0006430956476147162)
(4.999662444547925 0.0006537246055074952 0.0002166942975715773)
(4.999419405829299 0.004668401210162656 0.001868586809489821)
(4.999577930662968 0.001370049096817987 -0.001159843304203334)
(5.003896345239707 0.001710746019503229 0.001054444606335483)
(4.999600572281762 0.01040443554182557 -0.0007609954482910215)
(4.999996870621387 0.01589619548090248 -0.001726671087314517)
(4.999717324860181 0.001114765503583052 -0.0004405645904415153)
(4.997550604027407 -1.0576001452064e-05 0.01847070602018544)
(5.000272361609833 0.001232529424026015 -0.0008907771637929454)
(5.000673157195847 0.001105057281436597 -0.001030718407165441)
(5.000014309974747 0.00015909092237995 -5.855051591225722e-05)
(5.000837365397349 0.002190061011844063 -0.001312998168612857)
(5.001029648639865 0.0002612126373349895 -0.0004873742081700483)
(4.999120804661698 -0.001812789420319985 -0.001015589975875493)
(5.000240874546323 0.001364235783066566 -0.001006448068011586)
(4.999526883394005 0.00130315355379221 0.0004364538544398425)
(4.999982284020825 0.001330254196065525 -0.0006741735866004835)
(5.001265581828725 0.000828330680771979 -0.002602007461008983)
(5.000204864233346 0.0005861600413161619 -0.0002957650978935429)
(4.984947754706002 0.0001892407266600398 -0.0001518043285637048)
(4.999605495441589 0.001092274689373114 -2.880696104876616e-05)
(5.004285161343299 0.003915653437848434 -0.005684547193241733)
(5.00021253146229 0.001786796507056173 -0.001139570153983709)
(4.999758912029903 0.001714530478973335 -0.001346998897480929)
(5.001697317677612 0.003654168825133084 -0.001988341301295547)
(5.001870777337572 0.001469572281652026 -0.001682193466987602)
(5.006640026253838 0.01687736126510943 0.007354734856549898)
(4.959276515398195 0.003023975563176347 0.0003054968026445302)
(4.99906331646897 0.002671966560192541 0.0005971604409022945)
(4.999241134868763 0.0008203751094036166 0.001415622504054209)
(5.003014647296774 0.007129948690585562 -0.009779716056985143)
(5.000157501791611 0.003505492190346877 -0.0002630581411359436)
(5.000289396103318 0.002370857682665678 -0.002714659291764996)
(4.999277898789721 0.002013036755537149 0.001536717263386446)
(5.002907114857939 0.002062968455195238 -0.002806526464608076)
(5.000606587465931 0.004759790060828189 -0.007655171612271888)
(4.971807458164442 0.002167844506191284 0.0007316756882895466)
(5.000413861983365 0.00265050803191962 -0.003045000513581937)
(4.999975838814529 0.002933832757649679 -0.001595859665668751)
(5.001072518330822 0.003329548314353029 -0.006192193489628432)
(4.999365897648277 0.0008920265832251683 0.0008124471433720845)
(4.999814235908691 0.0006718685883753253 -0.0002230673540714612)
(4.999435140904056 -2.976051632892267e-06 0.0008513103997686446)
(5.003151981207991 0.003361309709971338 -0.001956079606626843)
(5.000178092107373 0.0003693584554614792 -0.0005498943796590054)
(5.003731005083569 -0.00384812478966779 0.00454256561973559)
(4.999773940026414 0.0006561647739875909 -0.0002336015508058468)
(5.000330560534247 0.001533018651180985 -0.0007782945399666154)
(4.999874288936336 0.002641250915369633 0.0006658202415908525)
(4.987979060464904 0.0008015998234650014 -0.001897827279508298)
(5.001566826529592 0.001188969289171082 0.001528616284431273)
(5.000212080136295 -0.0001318187479741588 9.036519997318384e-05)
(5.000172985073953 0.001773877654792898 0.0001496576627268804)
(5.001252289744712 3.507629362427749e-06 0.0001574089194905396)
(4.99992064825577 0.001622440340487351 8.828254502441777e-05)
(5.000260855704536 0.001786880859115522 0.0005870142326113243)
(5.000022176621317 0.0007666469905073611 -0.0002729076891643777)
(4.998833318764532 0.0113010241799009 0.02381100301661728)
(5.004975076854424 0.001236513818682699 -0.008878711623166039)
(5.002284783349553 0.001327711201082498 0.0004230707276220527)
(5.000338919383292 0.001447134323918838 -0.000150266156267553)
(5.000640485259053 0.005217162950126359 -0.0002762410636790302)
(5.000177276106624 0.00168408069788512 -0.000195378717863734)
(5.003212643872908 0.0009174940726563504 -0.0009533155404373605)
(5.001537173093032 -0.002471194766590883 -0.0001437357330472997)
(5.001337946539117 0.003706000361755871 -0.06661824053941537)
(4.999958913460175 0.00183382907387587 -9.286911327847614e-05)
(5.000226712133641 0.001219294725968923 -0.0004162182742990645)
(4.9989344558146 0.001577924050900105 -0.001523363032197851)
(5.003193561843996 0.005229907457734328 0.009722878631307268)
(5.000118145934242 0.001155012966347099 -0.0001393402614917959)
(5.001221893365804 0.001104937013489431 -0.00033213037901534)
(4.99861546081013 0.005922213275580674 0.001566342547911926)
(5.010484718675259 0.02178205653738982 0.0008939984857403427)
(4.98411962616145 0.0003647735509597216 0.00160423236038669)
(5.008399410940129 0.003062371394160727 0.002749654867744949)
(4.999624650157549 0.0004098759338224384 0.001323827176027087)
(5.003642014691628 0.002135859184498308 -0.002947827267162821)
(5.000248643068198 0.001572654412546634 -0.0001108652008019425)
(5.000364312235157 0.0006752653448838171 -0.0002793394545068193)
(4.999729408568572 0.0008413625284336574 0.00130527151614465)
(5.000316195820426 0.0006686607931142811 -0.0004326219630888626)
(5.000040310423102 0.001246746112103145 -0.0003910408974672369)
(5.000077218295653 0.001535797671931438 0.0001611284546264023)
(5.004437222587264 0.000594636604171752 -0.001276176440968268)
(5.000451881284603 0.001531518843480912 -0.0003792870633272095)
(5.000905224448854 0.00133426591778664 0.003400358119376876)
(4.99974256367304 0.0007837551634736539 -7.671056553632647e-05)
(4.999915312053241 0.00928486745513997 8.818206079837295e-06)
(5.000208709169147 0.0008492273164838768 -0.0002891048262819638)
(4.999907500703624 0.001041272487354462 -0.0001775671943670516)
(5.000019225564633 0.000354865956880693 -0.0002469470187415662)
(5.001959509421638 0.001112664521391653 0.002078719052571264)
(5.00029365506212 0.001642271213962686 -0.0003510818353652269)
(4.999911602250587 0.01491326278963091 0.001128755243740206)
(4.990735993728921 0.001044234498316536 -0.0004520178941378644)
(4.999951871833995 0.001361967421043331 -0.0005733098327195342)
(5.000688147308546 0.0003020927113178554 -0.000574286250399447)
(4.995735125916028 0.0003087163207914486 0.0008405405308829673)
(4.992093321832185 0.04484967639354193 -0.0402625938718217)
(5.000822010750243 0.001766900659912609 -0.0009940032913326698)
(4.999935576979825 0.00111150817272663 0.0003657572743024769)