/*--------------------------------*- C++ -*----------------------------------*\
| =========                 |                                                 |
| \\      /  F ield         | OpenFOAM: The Open Source CFD Toolbox           |
|  \\    /   O peration     | Version:  v1906                                 |
|   \\  /    A nd           | Web:      www.OpenFOAM.com                      |
|    \\/     M anipulation  |                                                 |
\*---------------------------------------------------------------------------*/
FoamFile
{
    version     2.0;
    format      ascii;
    class       volVectorField;
    location    "1.5";
    object      vorticity;
}
// * * * * * * * * * * * * * * * * * * * * * * * * * * * * * * * * * * * * * //

dimensions      [0 0 -1 0 0 0 0];


internalField   nonuniform List<vector> 
19632
(
(0.0005103406537941069 0.003149676703446902 0.01091070269007705)
(-0.0008170206916459119 -0.0005449290806983203 -0.000275089708867017)
(0.0005027586174269 -8.158499913539293e-05 -0.0005295270364283129)
(0.0003878107051403684 -0.003838387689983884 -0.003599298082953106)
(0.001533832319771773 -0.0010104090312525 -0.0004532411606518602)
(-0.003335717910168097 0.00294899031612304 -0.001087000097659718)
(-0.003148973708572308 -0.0004208288083232922 0.0002179324899721788)
(-0.00486589947759903 -0.0004779028527531844 0.001049202183349554)
(-0.008356945011222574 0.002645296988358735 0.0008206895212701814)
(0.00246847042765664 -0.002151076223793531 0.001450115667805918)
(0.002974096150503149 0.001269754266796654 -0.001338827407188062)
(0.00102178036186761 0.0006899999560496129 -0.0003939662673323183)
(-0.003521113892898059 0.003007522022973714 0.002192705588577607)
(-0.001622032653939763 -0.000638713485198337 -0.0004182359077233088)
(0.0006727210159462742 0.0001372131121572965 0.0001367302703725359)
(-0.0002050291690874946 9.128701051608283e-07 -1.248424449968857e-05)
(-0.0009438892828295147 -0.0002723015323397691 0.0002483622298483116)
(0.0001116044684774359 0.000282094399494684 -0.0002083221585400329)
(4.078986368938055e-05 3.347881136357299e-06 0.0002646797583035429)
(-0.0002586634111553065 -0.0002686248792740315 0.001941823675549638)
(-0.004935059119913848 0.002127626013090663 -0.002110536043065179)
(-0.004534559360593978 0.00244729115819579 -0.001648889684110387)
(0.006472427643329165 -0.004997175209596017 0.01347601930908362)
(0.0002294315473798351 0.0002331799646488712 -9.323336715355676e-06)
(-0.000410524784174604 0.0001709622816447884 -0.0002926415303849366)
(0.0005534753860763414 -0.005103566295289307 0.0007906232708507507)
(8.81833777654941e-05 -0.0004476687988112684 -0.0006594873316524521)
(-0.001612570283380648 0.0007198907878421497 0.001956737288060984)
(-0.004552143583989554 0.002994628844968305 0.001030177048273418)
(-0.0003445838602501158 -0.000382997043707322 0.0001238144294706236)
(0.001229760381203478 0.0005123776539897759 0.0005655371524137968)
(-0.001389260096067159 -0.001652315030249334 -0.0002825808570971142)
(0.001057380048997826 -0.0006682886918055608 0.0002721596240212316)
(-0.0009331457087236259 -0.001724455395056496 -4.73359967250802e-05)
(2.175830700031203e-05 3.969511910623646e-05 7.113239264464108e-05)
(0.02013179393319809 0.00606857144545898 -0.001170227048105988)
(-0.0009838963916670245 0.0009889773393769257 0.0005608541237574987)
(0.007650356032099114 -0.0001043175789367024 0.0001797649451612576)
(-0.003602740465987827 -0.0009558392776361758 -0.001706618245675342)
(0.001471353366997318 -0.0001726680893642335 -0.0006836255098852459)
(0.0002788121770377101 -0.0009969587314157292 0.0004706437024636198)
(0.01313693238363919 0.002520494083819748 0.002336392227006466)
(-0.001066868499104095 0.001784731022201356 -0.001424318531494029)
(0.0005801556488737217 -0.0001237725815140213 0.0004491049210153454)
(0.0001864293680993814 -0.000170903252827387 -0.0002868634028915568)
(-0.0006882126650250813 0.000296555958013404 -8.50275621968365e-05)
(-0.006934445076801794 0.003704890798349869 -0.004369168604557978)
(0.005590385958004548 0.002979884940072262 -0.001126547221375)
(0.00434115321387464 -0.006157115364780346 -0.005638620040483456)
(-0.001050968194994933 -0.0003014539133145182 -7.945485739618232e-05)
(0.004665858982119667 0.0015874044260373 0.002809060903879121)
(-0.007532280463041423 -0.008183341285271414 0.002600909045654783)
(0.00425175209532597 -0.0001912082477969115 -0.003074894953256449)
(-0.002044673752750818 -0.0004494556198663556 0.001017660812415736)
(-0.003096040962430765 -0.001603816099052946 0.0002827334208039042)
(0.001520232724264059 0.006906045105942636 -0.006046498062680229)
(-0.00178291638772628 -0.0006302368990358628 -0.003854196429143892)
(-0.003861001282357348 -0.001388450858175271 0.0006113119118605771)
(-0.0003788715916396645 -0.003533604073402407 0.005007343739227647)
(-0.00199192425803669 0.000191259718304583 0.001205207776933565)
(0.0006376709413265206 -0.0001426835731548112 1.294240111318677e-06)
(-0.0005484407002697757 -0.0001935851737693952 -0.001856119723642757)
(-6.633552054438428e-05 -3.143281491862362e-05 -1.698272335863426e-05)
(0.0003013847510897677 0.000970812269497756 0.0001696515374797413)
(0.001234737139534834 -0.0002001494043794765 0.0003258920889239753)
(-0.0002571041517810602 4.016380403108709e-06 0.0004230866863692573)
(0.0001121814160470785 -3.311870912378619e-05 0.0004488910058849519)
(0.002324780925514064 0.00196343195579684 0.0002715025214411498)
(0.001953229626677835 -0.00401713196186408 -0.002589854133503505)
(-0.007584120245896451 -0.002598018807506376 -0.00130629167395145)
(-0.0002395792241741338 0.0002043006929075794 -2.624857869076707e-05)
(0.0009298731955395551 -0.002316677791237633 0.003310460936307079)
(-0.002428346686511827 0.002754209821323142 -0.0005661300677604138)
(0.000716646872382675 0.002200594616915941 -0.00236509748555902)
(-4.974297620418955e-05 -2.17398655838654e-05 0.0001391440597805754)
(-0.0001547964031578153 -0.000683737307941168 0.0001601484325709459)
(0.002166512501287631 -0.006628152132071366 0.000242435937611562)
(0.02095817123421637 -0.02232240375142207 -0.006461329451112929)
(-0.0002201277249027259 0.0002613380357845407 0.0001847449791480718)
(0.001407543682429795 0.002344913706093215 0.0004749531919877731)
(5.282927123826265e-05 0.008680101666028665 -0.007346613516678085)
(-0.001254817983138717 -0.002615660403237129 0.004741226304476167)
(0.003092319893069047 -0.0008855987042367883 -0.001975516349288946)
(-0.002575219818457375 -0.002441947364911658 0.001444468026799045)
(-0.001030370036116087 0.00103815865001092 0.0006750888282328639)
(0.003733753369892571 0.0007140589615135151 0.0001647270537115998)
(0.001891149575046492 0.001436806227267872 0.0002096113410643728)
(-0.004819138869789585 0.003642068827332639 -0.0008961665155222489)
(0.001795728451723586 0.001816224080175433 -0.003597604541329873)
(6.13148550293836e-05 0.0002719465552778159 -8.419490677973305e-06)
(0.007237807207428898 -0.000548989864950862 0.004910101950704833)
(0.02105159343706528 0.002586232740380405 -9.993061813975404e-06)
(0.004214153943177481 0.003379367423076526 0.0008492117388042691)
(-0.008605345749749155 -0.002068023018805295 -0.0002185507792283262)
(-0.0007910676123387448 0.003969428591116182 -0.003681686523598972)
(-0.002424985181501445 0.003245628113791261 -0.007711556484223041)
(-0.0001973080628776821 -0.000815299732043188 0.001639825755436867)
(-0.00710740636373061 -1.36803926304802e-05 0.0004433916809676463)
(0.004353207110752577 -0.002480149157174185 -0.003100145093596899)
(-0.002946007664492168 0.002488711300138171 0.0008649347186620232)
(-0.0003904023560761892 -0.000570809355641381 0.0003760255589652567)
(-0.001675703546498726 0.003308945247411234 -0.002127372901600392)
(0.0001461282498393066 -0.0007533089649154642 -0.0003723960183683937)
(0.0004005852617677478 -0.0001503128145053603 0.000133482739874939)
(-0.001557360425919105 0.000394638479380767 -0.001400738942088761)
(0.002761308040526033 0.0007855355828147377 -0.004955109388970692)
(-1.904562492059731e-05 1.119793122459876e-05 -8.346106511412836e-05)
(-0.001142928249884573 -0.0004134086434505976 0.004025513833684278)
(2.310066539769004e-05 -0.0006270154621833912 -0.001747607518686307)
(0.003529417082512885 0.0006277491610994013 -0.001512837187636806)
(0.001998573472610361 0.001742479108084912 -0.00244051774747143)
(0.006952475748476968 0.002088246780431066 -0.002959034913994336)
(-0.004698404709994454 -0.0005292962786909003 -0.0001622291879228188)
(-0.002037126147100454 -0.0004152795917693268 -0.001544888595071637)
(0.003146096664679365 0.000735393177710753 -3.945676518175476e-05)
(-0.01428408412586328 0.001414477846030696 0.01617911769807331)
(-0.003339140047783109 -0.002222940989859469 0.003769562113559433)
(0.00109783747868257 -0.001867063883362934 0.001435896547754142)
(-0.005031519199050851 0.0009737911345029163 -0.002748297467369788)
(-0.009586624419963555 -0.002577305728929671 0.003668998252620444)
(-0.002711150306985959 0.003673912456315772 0.001329007845928699)
(-0.004038228930364813 0.004032876426383693 -0.00375724874583719)
(-5.916207976203002e-05 1.145756368689215e-05 2.726300792974699e-05)
(-0.001597309333452076 0.001615268454247305 -0.002819224217840102)
(0.003407574770465099 0.006536529355360818 0.00265152609982401)
(-7.491041835169065e-05 -0.0004510473683577486 0.0009081117952096207)
(-0.0002896878179168318 0.001280925717658684 0.006518544279031539)
(0.0001187746537324447 -1.907397363627748e-07 -5.915740948509711e-05)
(0.002163195696044304 -0.0009377805144615396 -0.0003134620789910486)
(0.002793374124628743 -0.004461307175899718 0.0005216766224361326)
(-0.003997870912933099 0.002369966307153093 0.002962084622123383)
(-0.0002051597417460049 -0.0006253628078420646 0.0006871171050820833)
(-1.813909506296019e-05 1.074535407705185e-05 -0.000274313831502006)
(-0.007762597122993682 -9.901621986555425e-05 0.009291552669957914)
(-9.184917292709371e-05 -0.0001966860307789169 -0.0001558513098926892)
(0.001010096836808885 -0.0006402344520889081 -0.001865403564551106)
(-0.000326501044284395 0.004081894740064431 0.01154457634874348)
(0.0004520231776031768 -7.811352249671632e-05 0.0001154367689716248)
(3.523297480900583e-05 -0.0001037733237562788 -6.822424945448475e-06)
(-0.0001848067009247173 -1.439879744433674e-05 -6.016027629276191e-05)
(0.002188091440673477 -0.0002381820510109627 0.001491623346800269)
(0.02733014741427798 0.001120187649024749 0.02189801006484066)
(0.0001990484063989532 1.622561651456618e-05 0.0001524186020447811)
(-0.005254847908353778 -0.02424301215792942 -0.01120935258663297)
(-0.001877432900574646 0.002451870167951958 -0.0002090805216184388)
(0.01737560754717969 -0.008148797094940005 -0.009868995493339871)
(0.001458874396895913 -0.00262232073466518 -0.0003372891026199078)
(-0.000270476278204744 0.0005325830204555144 -9.846810148100485e-05)
(0.0004088115771106601 0.0002724312836393669 0.000481735072028695)
(0.0001385950247458922 5.278110745012931e-07 7.590631867001723e-05)
(-0.0051918308278809 0.0001605210689415462 -0.001858915191220634)
(0.003194783015424175 0.002053810126307838 -0.0004895080514959797)
(-0.0009164850880966891 -0.000567647661864748 0.0004406682240536121)
(0.0001245608105117068 -2.935477189566071e-05 5.627778221038719e-05)
(0.008975819116275555 -0.01903519027103361 0.01672690347573045)
(-0.003339451809219196 -0.001542486894573886 0.0005556243548028762)
(-0.01036103683419024 0.003032756311889064 -0.0008028354146840493)
(0.000858697487212862 -0.001797750341892533 0.0003390871008628922)
(0.0118026245276213 -0.002514158228668387 -0.01915716232803643)
(-4.316966622682492e-05 0.0001420284376860848 0.001060723276811929)
(0.002031342384873744 0.002775908279527276 0.00188504617473922)
(0.002596978991604354 0.0003575641828669721 -0.0003419297811051238)
(0.001539133787884126 0.001004776492128445 -0.0008054801578287554)
(-0.004832923414393647 0.0003496205249231645 0.0006188362006400094)
(-0.007097370630684103 -0.0001376304266626127 0.002369259569207239)
(-0.004401882530556537 -0.005485632065723702 -0.0004733462564313656)
(0.001634918821428458 -0.0003630778033994976 0.0001245115832167298)
(0.003295545315620577 0.0002482946763477228 -0.001279510387790865)
(0.0001082476272223112 1.451068020924357e-05 8.996526565484869e-05)
(0.001939293958279722 0.000316821182877868 -1.705994661452124e-05)
(-6.856012946275525e-06 -0.006321711626972142 -0.002372174158069739)
(0.008340270023898297 0.0002992105628552634 -0.001124578636066724)
(-0.0009434376289216562 -0.0002339489316899308 -2.491797721052328e-05)
(-0.001249612893060023 1.735034456985216e-05 0.007132424842253171)
(0.003043447628736001 0.0005336773658949376 0.00224082056925065)
(-0.003145295530619815 -0.0004486665556572925 0.001724586319659188)
(-0.0006729262577310599 0.0005734625779273842 -0.001491472469088411)
(0.0005705325948674289 0.0008625688024435997 0.0009173359047935114)
(0.01053983413004446 0.0003496855663927406 0.004499975736311155)
(0.0003935086617395052 0.000114199187371712 -0.0001029555747751803)
(0.0008373786968442127 0.0001858869639544784 0.0002423725432378716)
(-0.001601527444955799 3.993253962267469e-05 -0.000194914916419729)
(-0.0004156662832672083 0.0001244491063585933 -0.0002105125259098032)
(-0.002322835282695768 6.129944188564798e-06 -0.001164410798031777)
(0.0001843302177942875 -1.003946333177392e-05 -0.0001099182101164275)
(0.0001119122458921118 -7.123027574592899e-05 5.137139902906567e-05)
(-9.34288729510242e-05 2.977040408677142e-06 -2.012505867944925e-05)
(0.0005280232385574859 0.0004457913589204179 -0.001434321909451343)
(-0.005570910038539019 -0.001504042420745511 0.002002206949660759)
(0.001971040516143558 0.0001065710106998728 -0.0004433466010589175)
(-1.145306382955864e-05 0.0001783198150572504 0.006601251962398269)
(0.001114425337615925 -0.0001453029189739941 -0.001575760681104911)
(-0.0001370364989590651 -6.376523834694114e-05 -0.0001450276433845485)
(-9.658971259206421e-05 7.258212969567604e-05 3.557067624590647e-06)
(0.0007746289490573315 -0.0004710789196064487 0.0001004680048529019)
(-0.0002277848930038363 -0.001380109493796523 0.0006239461927596379)
(0.0007558959158478211 -0.0001524119593893791 -0.001317093392596436)
(-7.220155083166397e-05 -3.684428483811653e-05 -7.745878463540773e-05)
(-0.007117068054933124 3.64750304008761e-05 0.005308352991182937)
(4.102476304076055e-05 -3.837932055290228e-05 0.0001347204831640933)
(-0.0042794411711771 -0.0002187357267355869 0.0003957448603864862)
(0.0003098432509421779 2.044995748386483e-05 -0.0001995128271723916)
(-0.002117754488208843 0.0002513685603555779 0.0002098649265785987)
(-0.001770973305268121 -0.00218545024131637 0.003660820433536815)
(0.002072801842384894 0.0004408885484258872 0.0006806593643059926)
(9.154134559323859e-05 -2.117475205151888e-05 -0.0001052850359313405)
(-0.02281610872756762 0.02326708458252635 -0.06418385611845388)
(0.0004662384068120744 -0.0006532299324294518 0.001695031126201386)
(0.02172046018284873 0.004100673170777933 -0.007518617804302553)
(0.008696842917723177 0.00129527175313141 0.0002011422547244907)
(0.0001048489419876992 0.0001621765134693839 0.0001282553639678147)
(0.0001192701946686877 0.02288678436091562 -0.003711214492455948)
(0.0005248625096350932 -0.0006799045586521195 -0.001576619877690423)
(-0.0004956574025650157 6.946450982160809e-05 -0.001677279029188481)
(-0.0005931935819950989 9.130390478018831e-05 -0.0002439492040656271)
(-0.004956155109561273 0.00349175322031731 0.001169924843123455)
(-0.002050608920445987 -0.0009376137325205172 0.0006169244869433898)
(0.0003822604644275124 -5.048533863972476e-05 -0.0001300414232670846)
(-0.008484667623546823 0.002681925378897425 -0.0007504269570303319)
(0.008102905915009131 0.002302590529658438 0.0009362193040468061)
(0.00115408808810493 -0.0002955884094645859 -3.65095999267693e-05)
(0.01050867708909346 -0.004358307228092757 -0.0004537445021321374)
(0.0002050611986408471 4.943251374013452e-05 -9.676136541177552e-05)
(-0.002780504641686391 -0.001094357018545997 0.001328788183858826)
(0.001859115669783889 -0.00201258522700737 0.0002259019149609249)
(5.537252096237958e-05 1.114424872528319e-05 1.364706212005234e-05)
(-0.001823672020778574 -0.0001873183334703639 -0.006110716088842371)
(-0.0005202653337376677 -0.001432807370047825 -0.0013151039322219)
(-0.004722128941829087 0.003510225470200701 -0.006210531340863417)
(-0.0007046172940447596 0.0003195889024896437 0.0002650363819255253)
(0.0001611570329705638 0.0004754221349373418 -0.0004411731697881297)
(-0.0001419417761448615 -0.0001503615294463117 -5.686233954033211e-05)
(2.76509366793021e-05 9.389343774501401e-05 2.740645046847251e-05)
(-0.0001133128064783484 -0.0001470664373715695 0.000196546184460602)
(-0.00300848247455702 -0.0005972728252054212 0.0006843577165029928)
(0.004819802431340331 0.001782875188220258 -9.923570536422789e-05)
(-0.01259087750062358 0.003155008949685006 0.000860411073489979)
(-0.007320661638233611 -0.007420025801787855 -0.001706079773624159)
(0.0003376091700707066 6.129098868898718e-05 -0.0001150889471829968)
(-0.01000033532497278 0.0005021998274984148 -0.0005437731429465079)
(0.0001139656333621386 0.0001178501568163357 0.0001762368624411793)
(7.749245804116858e-07 1.358612999233201e-05 -8.631010373819295e-05)
(0.08041979203202321 0.004192334473288761 -0.005409275661004485)
(-9.272237050912517e-05 2.262308607754941e-05 -6.400454557339888e-05)
(-0.00225970055905168 0.001594290227252382 0.0009156821587916165)
(-0.0001680148802278616 7.268528901206873e-05 -0.0002088418367261738)
(4.84101795368153e-05 0.0001061018422791031 0.0002466510692500952)
(-0.0002619323918875415 0.0001585540180181013 -1.353237335468693e-05)
(0.001906573195280161 -0.007322307619346716 0.0006840504379228216)
(6.04578779707475e-05 0.0001640120812349359 0.0005470260773125264)
(0.002548753566696768 -0.0004993755495912276 -0.0001819524957325715)
(0.03350218748195147 0.0150069364305841 0.001714915048543913)
(0.0002297330911440542 -0.0001077806335045712 2.883052924278567e-05)
(-0.0003173573836973228 1.683589955758067e-05 -0.0001824872438673234)
(0.002839236568541108 -0.0005940773482623061 0.003945102477784765)
(-5.330771195457148e-05 4.341930967199641e-05 9.895169975846871e-05)
(0.0003787973065928049 0.0001544742635172607 -0.0001023744206137476)
(0.0004234173746351938 8.520654918275049e-05 8.820858405725177e-06)
(-0.01607208457689581 -0.007645774554987573 -0.0006148849767094974)
(-0.0002546960580111112 -0.0001266472173041204 -0.0003193833749911502)
(1.503023651827657e-05 4.149321630689808e-05 9.484897490900793e-05)
(0.01726971543990122 0.002431629565877623 0.003236740192511814)
(-0.0001144541191877212 -3.28174391220276e-05 0.0001470910523787257)
(-0.01295855894488924 -0.003857942239103088 0.006605239350108941)
(-2.975575803019649e-05 -0.000385111453398657 0.000170149929936565)
(0.003852005825580103 0.01114533580151206 -0.0004299795528382088)
(-0.003722935636460607 -0.0009864135644989339 -0.002451650441321552)
(-0.01776105950400508 0.002498641750016968 -0.00540358318017835)
(0.0002939200033713298 -0.0003992153288775665 -0.000249989485289539)
(0.003260338487707251 0.002948452646801721 0.001624149648958238)
(-5.925516745166178e-05 -0.0002444127469851237 -0.0001083112377993846)
(0.005085669928218381 -4.78383850515034e-05 0.0008092846511638524)
(-0.001245442539340003 0.0006545621628784792 -0.001578408709282795)
(-0.0007056418804297741 0.00263169364175888 -0.00737547850217262)
(0.001299887211761616 -0.0001440670608945795 -0.0005112825657780399)
(0.002377514710991923 -0.000598634251781673 -0.00196772577122094)
(2.320223217857527e-05 -2.729929591242595e-05 1.683958477093828e-05)
(0.0002606768176520581 2.154341784475975e-05 7.385234886679625e-05)
(0.004453939900103255 -0.001691195725619114 0.0004374779952358758)
(0.000310405482957004 -0.002196787080325332 -0.0022839959005488)
(5.072822191684416e-05 -0.0001731579923922293 0.001422947834340699)
(0.0002795447438192152 -0.000214691770217262 -0.0004164936979125368)
(-2.220847866898477e-05 -1.620055573113417e-05 3.799167261266928e-05)
(5.048564632382251e-05 -8.447167087746854e-05 4.792176605770546e-05)
(-0.0001912988248360637 -4.413653310105751e-05 0.0002955660629855015)
(0.006152817921646415 -8.179863269141966e-05 -0.001372803066833909)
(0.000443162270381095 -0.0001015060526482713 -0.0001572226499902232)
(-4.492974635032149e-05 2.84010745636172e-05 4.897558140073307e-05)
(0.002330973708899113 -0.02488407002304218 0.01513369828616747)
(-0.0006088868286583528 0.0004497413065844822 -4.823581433565203e-05)
(-0.001446995350321272 -0.0001816446015487596 0.001719663651252011)
(0.001802761898106808 -0.0003086028509658959 0.0002987637707630844)
(0.001471086815230371 -0.0006337785329732224 0.00122862019961968)
(0.002444353406875449 0.0006223482015448663 0.0003284291126887419)
(-0.004781620146675308 -0.0002922439225613512 -0.00137299755303196)
(0.002197062444730488 0.001840184199702014 -8.695095957729932e-05)
(0.000239034582345265 0.0006346720708218699 6.574617908091995e-05)
(-0.003637147995778661 -0.006140704918696408 0.01611220341625001)
(-0.0001736599832838679 -0.0001316510211765459 6.452416308998842e-06)
(-0.0001175674585854404 -0.0001346281854891103 0.0001743583068945871)
(0.001265633520657328 0.007428986880446877 -0.0009188853235289882)
(-0.01550501160271923 -0.008500319702282846 0.02646650554956786)
(-0.001861336813065736 -0.0001044412882259411 -0.001431767560387268)
(-6.671155713528699e-05 9.20707881110153e-05 -5.749088826687533e-05)
(5.800992319234301e-05 -2.346416177655261e-05 -0.0001424697333521829)
(-8.511405014316177e-05 -2.587469186570666e-06 -4.396224824777384e-05)
(-0.00159733830027189 -0.0001041180496256607 -5.743795853928869e-05)
(0.001883025002440748 -0.0003691334640211893 -0.0005500507258597662)
(0.0005233507504921108 0.005289003649704714 0.001809076604870994)
(-0.0006605457916024647 0.0008878774735983545 0.0004725839417634584)
(0.001771007136140795 0.0006199707042561118 0.001603201774970285)
(0.005425805595419044 0.001861368104625156 -0.00485052817909197)
(-9.422379531789956e-05 0.0001076230008492177 7.158792479459295e-06)
(-0.0007340905080014237 0.003468412322715461 0.002505841200240632)
(-0.002061354017888451 -0.001045789408368193 0.005377055381785455)
(1.764671986052019e-05 -0.0001179120097858213 8.537680293249681e-06)
(-0.01066545691241066 -0.002055850097937521 -0.01446626158575533)
(-0.0003778472522606708 0.00114924332574966 0.001651792407050497)
(-0.00443880046299327 0.002116191450356282 0.0004414820001413071)
(-0.004879016262701603 -0.0002480226989378205 -0.0009243305501163365)
(-0.005831936297011795 0.1268633456119442 0.009311051113148162)
(0.007175528807211265 -0.002832564052360275 -0.001029819692770922)
(-0.00287008243368821 -0.004133699004114857 0.002382600373264614)
(0.001263675694512297 -0.001944640671913575 0.001439298011720132)
(-0.0006360677967473566 -0.0005113292557615595 0.0001636133289705)
(0.0006425242302983985 -3.549193554191323e-05 0.0001459498401252425)
(-0.002906433885100626 -0.0012356137060246 0.001825888837924372)
(0.00443419201790992 -0.0007679432594101442 -0.005054707015281395)
(-0.006451531392532127 -0.0001816638024090807 -3.826325692955095e-06)
(9.365160766800146e-05 3.856416333099031e-05 -0.0001548483988256604)
(-0.001655973477774537 -0.000980858529470719 -0.002938175338161086)
(-0.0002149199189989373 9.302598313660664e-05 -0.000159872663671886)
(-0.0003524925314110785 -6.472681787831881e-05 0.0002373654053797885)
(-0.0002639452384862487 0.0001270380729819444 9.800653152833636e-05)
(0.0007773685640373781 -0.0006842952570398085 0.000170960780247822)
(0.0004214556177844865 -0.0004060733410762715 9.939436355785643e-05)
(-0.0002310682641109598 -0.000275185636983476 -8.616200663985225e-06)
(0.007030789113458388 -0.009096293424380624 -0.0001967991410990674)
(6.863598770096801e-05 0.00016625820239208 4.949590175966903e-05)
(-0.0006339765141561921 -0.0003004230898328285 0.001876783501744712)
(-0.0001504067415792191 0.0002074699630124838 -0.0002096882427637689)
(-0.008619041544704432 0.0004505041403748377 -0.002901764345938996)
(0.003203101697804502 -0.0002047610150756113 0.0003137332717259049)
(-0.001322622897073465 -0.0009149390901850459 -0.0002170377650490343)
(0.0004533831174706313 -0.0003258032213225015 -0.0001015127765489724)
(-0.005360436397885518 0.001673581504556057 -0.001232146435035785)
(0.0001827567924727829 -3.920651155926234e-05 -4.888679561089098e-05)
(0.003820098112708222 0.003116740800383613 -0.002435517755519715)
(0.003267918380539306 0.0007135854303903019 0.003067492676543151)
(-0.0004156298621259395 0.0003120013045297694 -0.0005521384209924728)
(7.471435569416819e-05 -1.515116108146173e-05 -3.634650772929769e-05)
(-0.0009853934951821405 0.007021831855388927 0.004626739671785696)
(-0.0007084222188712423 0.0004653131189228688 7.97638922597993e-06)
(4.482723826722647e-05 -0.0004734809691542605 0.0001909973048983013)
(0.0001466353097952683 -0.0001092506827953469 4.665579254327156e-05)
(-2.247160696718979e-05 -2.326491180538169e-06 0.0001800304978579011)
(2.350260200915403e-05 7.822738064699511e-05 -0.0001087778205912374)
(0.002124936414530172 0.0003601670481276303 0.001978751165837643)
(-0.00011657882315061 0.00100567158691746 -0.0006449150303337077)
(-0.001732105923217689 -0.0008453868170336851 -0.001023061625990704)
(8.583319183075574e-05 0.0001908355166848194 -2.493011814027111e-06)
(-8.484596419417489e-05 7.337713214498896e-05 -2.063087225551246e-05)
(0.0008195298445590007 0.0008124264985127698 -0.000675401688135828)
(0.001333255942978358 -0.001560040057210364 5.727435433924452e-05)
(-0.0008347084382840247 0.0002196249191207808 0.001134398385136645)
(-0.001353731315175673 -0.001146594780850762 0.008957929727813422)
(0.002079495599451725 -0.0001820998883967826 -0.001901672203775918)
(0.0001131328165832843 4.186973188543592e-05 -0.0005735115627623318)
(0.00344920101382729 -0.006784285325458513 -0.0003098119679206349)
(7.265452286801375e-05 -0.000175684449109191 6.587777957081486e-05)
(-0.0005348598085514918 0.0003977444150065903 -2.149371651106622e-05)
(-0.0003603456329586167 -7.543415351622921e-05 -0.0001682432765543116)
(0.0007052874533364041 -0.0002952024565689151 -0.001093149063837857)
(-0.001021055768650081 3.942270914667671e-05 -9.854989715704337e-05)
(-0.001722363217554375 -7.1465265030777e-05 0.001951113731584949)
(0.0002303247656709252 0.0001309278418540869 7.308321668982838e-05)
(0.0002622711317104319 0.0002874018801809931 -0.0001925717349581471)
(3.969383235950612e-06 -0.0004304581261794059 -9.923190474686784e-06)
(0.000944262497471033 -0.001841387316329372 -0.0001575117470944253)
(9.998666384584798e-05 -1.91739967315432e-05 4.669366430596542e-05)
(-0.0003744016529674706 -7.889260107892947e-05 -0.0001236774752849009)
(-4.460621985688966e-05 2.593861594338075e-05 -2.762899290599661e-06)
(0.004983139567663398 -0.003804801332140476 0.0001473928652180974)
(-0.0001372240625906068 7.737795745744242e-05 -2.937226302875593e-05)
(-0.0005466811643829737 -0.000930296636637372 1.744754266406665e-05)
(0.0003507325978429141 -0.0001774457646721907 0.00023688278712127)
(-0.000306237379032702 -0.0001072646531045782 -0.0003158850952560526)
(7.589280265437768e-05 0.01227715347430765 -0.001942759479684015)
(-0.0001926132261748907 0.0004849589704618441 0.0004284699789428924)
(-5.316884501239928e-05 1.679059884057276e-06 0.0001757879908872009)
(4.711480056173054e-05 0.001071439090783982 0.0002002847659187768)
(0.007769959977455988 0.004819436381430924 0.005209513485189087)
(3.331084744226242e-05 -0.0001435357726807507 -0.0002045217260859132)
(-0.002582531256513769 -0.0004888740939855126 -0.002017100581856363)
(-0.002650258177022279 0.00204337413741438 -0.001204899735673099)
(-0.0003135117967577676 -0.0001824316294466521 -0.0002299402283278331)
(-0.003311002431913625 0.001635692360377927 -0.001302464945117641)
(-0.001631754097786727 -0.0006364303108023475 0.0003223588803546677)
(-0.0004112400266081366 -0.001053744880860806 0.0007992422536530776)
(0.0001397717813969591 -3.979841217570398e-05 -0.0001965300262593048)
(0.0005383008720329632 -0.002320251578921367 0.0003736920283766656)
(0.0001995648469966767 0.0001749722983603672 -0.0004833630033857554)
(6.880256751864241e-05 -1.02124019822802e-05 -9.542863917282962e-06)
(0.002104498105722597 -0.0008625164050403381 -0.0001786281571621891)
(0.0007277089674020813 -0.002756553973505916 -0.00223207279617574)
(0.0006126726435789172 -2.69385413416318e-05 3.68761675867837e-06)
(-0.01146955203530181 0.006865489746262353 -0.002261299236754921)
(-6.172118400411334e-05 -0.0001226934859913385 -0.0002510449569948271)
(-8.139646972084525e-05 0.0002898023488555856 -0.0009781975235461527)
(0.0009284631978370208 -0.0001483120367324969 -0.0002614277798832228)
(7.302039369867482e-05 -0.001659082791464761 0.00158192286782006)
(0.0009233772962343528 -6.964008248472808e-05 -0.0006675417002484898)
(9.779762373840943e-05 0.0001149743143472712 7.045043383421424e-05)
(0.0002650455622685223 9.160459891219368e-05 -0.0001036358859979298)
(2.875506679069764e-05 -0.0009901401772946664 -0.001057950430329323)
(9.227202636107276e-05 -8.163235880120772e-05 -0.0002726308870090801)
(-5.182249553687727e-05 0.0002341983339887079 -0.0001305221896143997)
(6.553095486901034e-05 -8.335787367743473e-05 4.877971211449151e-05)
(-0.009830829007174044 0.005434838149366776 -0.001612160351623021)
(-0.0001731297044277799 -0.0216694801121298 -0.0009269322135910566)
(0.001366496514621755 -0.0007525814688486881 -1.623911056201064e-05)
(-8.311622520630877e-05 -4.734476010439784e-05 2.722214718432066e-05)
(0.005958469919851572 0.0001166776754147595 0.001020878565370126)
(0.0001886176191584878 0.0006204280819690527 -0.0002482397501808043)
(0.001159250211750294 -0.0003980574881757516 -0.0003387204275831897)
(-0.0002373876656007539 0.001185411721946147 -0.0001723576664705172)
(-0.02247896221866861 -0.0001381242565686252 -0.002739705639269906)
(-0.0001134906366894932 -4.915225084179913e-05 2.55243193209573e-05)
(4.862569459255456e-05 -5.692055957357485e-06 3.035118403232733e-05)