/*--------------------------------*- C++ -*----------------------------------*\
| =========                 |                                                 |
| \\      /  F ield         | OpenFOAM: The Open Source CFD Toolbox           |
|  \\    /   O peration     | Version:  v1906                                 |
|   \\  /    A nd           | Web:      www.OpenFOAM.com                      |
|    \\/     M anipulation  |                                                 |
\*---------------------------------------------------------------------------*/
FoamFile
{
    version     2.0;
    format      ascii;
    class       volScalarField;
    location    "0.9";
    object      p;
}
// * * * * * * * * * * * * * * * * * * * * * * * * * * * * * * * * * * * * * //

dimensions      [0 2 -2 0 0 0 0];


internalField   nonuniform List<scalar> 
19632
(
-0.0293494934310229
0.01810287061519829
-0.002155970424508595
0.004431612976894253
0.007343305904604512
0.049415047560994
0.04689433018056183
0.02658749340319259
0.01829721782609529
-0.004420093299970373
0.01703809985866731
0.05041475420317901
0.007017424100632818
0.007148821773291734
0.01844943676103067
0.02782049700607655
0.01824595208892931
0.01775285630742666
0.0040953138957806
0.09491620977372714
0.0145630935773334
0.06297429335158239
-0.02559072850203627
0.01618113126992786
0.01731703534617892
0.01173714595237516
0.006135283444911597
0.02336142390028847
0.01039509993873885
0.008063142465997174
-0.008869254929855753
0.02187747498673534
0.02071462533169363
0.02652712344446833
0.007304176268356818
0.02736499676917083
0.05399436748180576
0.007419241987950297
0.03213796905244438
0.01108551045193937
0.04801746958985219
0.01452084882472571
0.04925488083594835
0.03876479737191393
0.007738967396807392
0.0664140447241615
0.01870679915037175
0.08226274468306033
0.04508451901579284
-0.001382885043908546
0.07007890403561021
0.00159315226441799
0.02781525232819043
0.0467898928723315
0.0543347592458617
0.04435363278560755
0.016358066477464
-0.001007694598890636
0.07228886451379661
0.009073517224004467
0.01122247991806771
0.001357307912845201
0.006435956190453853
0.02240415666636567
0.05108549605091462
0.004361695669404596
0.04697088445868026
0.01259530005924581
0.009033527725967267
0.06093316613466199
0.01359158513948185
0.08979993161773218
0.1162612339262673
0.01789817114231837
-0.006233056938709323
0.0152944377261495
0.01049557372921019
0.09324190597549205
0.05095117545809452
0.05080254900995562
0.07622852038355775
0.02192168447069391
0.0673858412362196
0.03602821271589347
0.06682262763014168
0.07477542876790252
0.01881784034475461
0.01324317936673307
0.1409758771883137
0.02439840473904399
0.004171783631287535
0.01708113197397894
-0.005354920155542768
0.00357929349587379
0.02893511522107923
0.0329095521258398
0.02581961796771704
0.008229432382201146
0.04500190290278822
0.01034130963030546
0.004252718880757437
0.0167789872724171
0.01188767009145305
0.01304895734978352
0.1399301341677985
0.01955465399342292
0.01220280044683658
0.008952631064416386
0.07135202524058729
0.01142573982278368
0.06377433602381795
-0.004474469365270187
0.0429235940792958
-0.0002074910899128103
-0.01983225471802147
0.04918074574593258
0.004666897837320246
0.003101029738609999
0.04996433991636332
0.04207454392729117
0.08736070178697987
0.02393559159362209
0.00857405332117317
-0.01933834474557406
-0.02899734524303431
0.03228861982960357
0.05771033994598661
0.006787130028605716
-0.0004655614479297596
0.08265437790043793
0.0940062767853284
0.00269165155763462
0.02977245261519732
0.003342793365534651
0.002412299796889944
0.01120902370638171
-0.01413679249167652
0.009049178846299568
-0.001901702773574438
0.01880236346301379
0.01462812431685737
0.0601863537322685
-0.004603788876142936
-0.1138110705890133
0.008759102120183658
0.04488464039180789
-0.005077509133847713
0.06546162906027882
0.02122652504825998
0.0316237690206178
0.008081764868398594
0.07586965445225057
0.04186982614283157
-0.0009895576006830617
-0.09698300002462643
0.01002154222634261
0.05662355572168729
0.03380716349751439
0.06275271505079034
-0.002123531984541328
-0.01312834411708165
0.04160682521302444
0.04655586834433056
0.06010058357839396
0.04075680488202165
0.07164712384266494
0.001407525427852978
0.05724388384022686
-0.007049148564329428
0.07094209042430923
0.02244104416390317
0.0627494474050749
0.02767718245454235
0.01147084318000813
0.02456401064244731
0.05842042924081441
0.05175636909486525
0.003933810276136094
0.08729517283829412
0.02301944106625979
-0.005325514440073661
-0.00600173356864949
0.01188064165681707
0.07523972240994853
0.01859782083531857
-0.00557776392514547
-0.006383624817204153
0.00206008341206711
0.09062730525551557
-0.001346148217322001
0.1498527531633508
0.02447903072131039
0.01050319170868788
0.005126278336182969
0.005085016279258591
0.007129321002677939
-0.004952160704764993
0.009243365368503184
0.002559898362514499
-0.004528788449244031
0.001070894049100571
0.007195515068948171
-0.009237979175347934
0.03323397791097844
-0.008508146269949772
0.009180896938602237
0.5032398146101069
0.0216645000731478
0.0484717441498295
-0.0001091413098551698
0.04849200134782657
0.0152791468832818
-0.003078747873202749
0.02053170511880023
0.0249086421851059
0.01034301725761954
0.02608688091444463
0.005663382269518665
0.04837787167786882
0.02369557718703779
0.008491937992298635
0.002433694661943347
0.01123667820460852
0.003682560784929634
0.01387449453362515
0.0008066361431784022
0.0006030536933114295
0.007859415406468328
-0.02807981233637368
0.02956752611425658
0.0296137283928404
-0.009184720570956262
-0.004836200654177851
0.02155778438108343
0.001577673639566814
0.01306841046435855
0.004437741435706121
0.01642430107349369
0.009579987980699589
-5.876969019801698e-05
-0.009392454842745975
0.001293008711292319
0.58200965634843
0.01623540466893626
0.006911011994708772
0.0006235755139537457
0.01848004680335064
0.01534135944808018
0.02580069340114481
0.0588092460379193
-0.002679873461573798
0.06719140015290503
0.01393374071575515
0.01278891018863494
-0.006251468725726942
0.0108536748868628
0.01373708216492699
0.0184938032938286
0.05022905515154269
0.01735963316312828
0.01292673981521188
0.05980432921340849
0.00947391993254966
0.01483081173067444
0.02845758968682598
0.03833419186728551
0.01320511923349238
-0.007332917792656613
-0.006549456352986177
-0.02151104009613306
0.01751612996133216
0.080041747929001
-0.003992120397379722
-0.03379793624745663
0.08146318098256362
0.01955452423872811
-0.004077635925601606
-0.006503322932044886
0.03149343640532015
0.04417025160222479
0.04843091041498327
0.03974839731149877
-0.001044659415098592
0.01051143974014834
-0.003158019724189712
4.930737553124326e-05
0.04389246717757328
-0.00509262139876977
-0.004093391171409983
0.003773614638277844
0.0002572848732502175
0.006565160436868048
0.05928385252370737
0.002025050547884649
0.004224734661835523
0.04007597844812461
0.005911284199105298
0.1182278343138299
0.035029404599583
-0.007185135873629274
0.02907106092130024
0.1311622503626386
0.006073704424182346
-0.004671393514433266
0.02042698745659057
0.04508363571450248
-0.007006593458384976
0.03345168066714326
0.0571053443083753
0.0332292218765068
0.02788267417849127
0.0551655238102117
0.01624005593562238
0.02472865848397848
0.009443654984669125
-0.006983785098721243
0.05660452880594607
-0.03378902713207722
0.1121386746009769
-0.004138623247077682
-0.04240209426091943
0.002225967147198968
-0.002599954041832195
-0.0009248132578179548
0.04957956094490695
0.04459992674054215
0.04635405188523467
0.003603845835627235
-0.001243204166884244
0.02294654670919253
0.001040113310934049
0.005818515703453313
0.07561964250758409
0.06398732758721135
0.005970561773759577
0.076780935399272
0.008726076541172077
0.02649015099598792
0.006315990718733481
0.02651826505152461
0.07354742812180932
0.006275121193957572
0.02885337209824939
0.06226796857966866
0.0721173899618088
0.07491700344532377
-0.001376271041802206
0.05009425425502489
-0.0003249122829987337
-0.001812811872459991
0.003113526531228384
0.03168851023520625
0.0009098127920600937
0.008855907513971943
0.0481177693512202
0.01345320034422599
0.000555496871510443
0.02166014884380274
0.07656031549806543
0.01115108445832804
0.003321752240828658
0.008277169314709284
0.02961241617895441
0.02830468675515574
0.02009977189785999
0.0003445919621600639
0.0112536214268826
0.02966033670405583
0.0179069723195736
0.01496045279555483
0.007703438031613423
0.005541151541168454
0.00808739059901287
0.006536054925037536
0.002385343656329651
0.02058332750247646
0.005764100149746854
0.01448692782821114
0.01041380971235183
0.002507283956801325
0.04173600161692292
0.0129880326293726
0.02563756418246289
0.02448585228052758
0.0008793706089299568
0.01540859467517428
0.009238233005438726
0.06372276391021196
0.1392323243716405
0.05952246070621146
0.01099655140674048
0.01846238886847881
0.03024037910530659
0.007434009165179154
0.03053902456248141
0.005804903316806964
0.01960913307662874
0.104268699654359
0.03296047731515268
0.0504318955218135
0.03181393799731829
0.006953443910554683
0.008404131941490478
0.003613971658166377
0.01772642697280843
0.004252169511677443
0.06711134841069989
0.009738604690777683
0.04920242339363916
0.03982498521953952
0.0362786431020738
0.01117033727048696
0.005977637986665642
0.01851284654634967
0.007415308131609425
0.0179691809124473
0.01610279746582534
0.01074788247640801
0.05821292984103152
0.027233655964776
0.01396733573704372
0.01221320162783856
0.002337712204740344
0.01577688536625072
-0.002098368373118816
0.003670536022300271
0.05481041068323604
0.01755593170464838
0.01152740787282956
0.02605243882914091
0.07746588250822173
0.01362599427084625
0.03559825536479096
0.07312476849548988
-0.05410500998222029
0.04414974292835078
0.008807848318566252
0.04212143057648984
-0.0008911635742282566
0.01398742334168527
-0.0004720331450539583
0.001834095084134521
0.004916745523376313
0.01359998459266323
0.01445836537475793
-0.002706734903176638
0.01471516105286291
0.01071909959558364
0.009977167399936185
0.002270568964565303
0.001868695520475438
0.01267668777243384
0.001316914527811048
-0.0008700097810932103
0.01409119162492637
0.0178224264708325
0.04085777252190732
0.009338228542646822
0.0005397451391701196
0.01522757017247617
0.09046471898186895
0.02023037469751023
0.001651982007022395
0.03483022437835943
0.05436560641785568
0.008338804437402248
0.005734861337084523
0.001396341046399838
0.01948683731365268
0.03825881714044452
0.03228487554814216
0.04115930001446794
0.04012637042840689
0.01658602959816098
0.04136311354596227
0.0468350049301669
0.04411247981335262
0.0399554607630891
0.004971026672365031
0.01788152667605241
0.02791764952808725
0.01172723119626354
0.02759778848609406
0.007504804829597492
0.01622834474770015
0.005889250254571252
-0.0006463698753427756
0.01750267311797917
0.01429906076376822
0.007087305679909082
0.0148792722109186
0.02678148401695301
0.05080248093820289
0.0512038298346
-0.002157522394333127
0.04907606928895511
0.003341655558004262
0.001225291690978899
0.0008286886301454282
0.04915678739750293
0.08507376888857472
0.004461001499607417
0.03311570572593905
0.02848565414815115
0.01034265184816384
-0.0387725943955731
0.008736030110244736
0.03104186036739799
0.002047836672513242
0.02795457218680394
0.02741910152271306
0.02766368688317344
0.004845308070382216
0.01147654199342408
0.001631503079969528
0.08749054175416754
0.01415352034457094
0.02950957906993329
0.02914841997174229
0.002315195274319388
0.00879162942827778
0.001548610993390217
0.001867954777000399
0.006126700232820459
0.001172947602897859
-0.0007466741794794616
0.008652580160358801
-0.1060658569362669
0.03462685634221573
0.00518545297214752
0.07286349989472884
0.02770156477035315
0.02767344762531122
0.05165918759163503
-0.08759623468092939
-0.02684504739530161
0.02448205164403112
0.02603010139368142
0.107188767694837
0.02620607043535354
0.04249041145267329
0.04251207228905853
0.05679869943127
0.01793221552869243
0.01141416389318891
0.04433158739663514
0.04128097320361922
0.06923263182175847
0.06602307921535515
0.03960167899035531
0.04930919341711112
0.03255863578670926
0.03454632743357611
0.06164287684522131
0.03462990091771471
0.02288342596097137
0.008935319593639942
0.03977739292205926
0.03983422409281758
0.0392706582077199
0.03693225872155057
0.003597752145509889
0.01059486063946121
0.01829608953046991
0.01590480791464978
0.01431031603767413
0.0102087711583043
0.01026452846505806
0.009439414740905138
0.01095647715197686
0.0129336331926221
0.02625060422404684
0.01153414107645985
0.009549875723554532
0.00320699300925231
0.01819107320443363
0.006226503967591858
0.006605211044282409
0.006301916127526085
0.00512457544380085
0.01679478067176119
-0.0395143464258584
0.0006275583523880895
0.007911274331668237
0.02256558341207248
0.009247675143497711
0.008580673208760114
0.001282672661547375
0.02025560695195473
0.02275100609641189
0.0004586085419264225
0.02079714854908968
-0.00105618010937663
-1.027993767343317e-05
0.009043169543950258
-0.004320013941824645
0.02136252874176299
0.1376608824420388
0.009704265158611959
0.0100675949558459
0.007822391541687939
0.00672297456282726
0.00678757963159442
0.008685000326594002
0.05828897458125092
0.003992007366106102
-0.001565878841257546
0.06598490149566762
0.01996666449082363
0.06162523500679356
0.01453423143290696
0.1252445781992186
0.07316348670793912
0.01250018967655728
0.03828770122430475
0.06136383910374994
0.01735307935941775
-0.04787368590872728
0.0139034599454544
9.284397750523559e-05
0.01552317400191936
1.875791858476005e-05
-0.0005540850061203802
-7.796082320837093e-05
0.001231235074067688
0.06215829561159613
-0.002643550114108979
-0.04913764832526651
-0.00381025053225377
0.01344728800210451
0.0120465289662915
0.01389652385620864
0.01599788431034921
-0.004873245250657883
-0.003342795759134917
-1.871544446359438e-05
0.008562294549623312
0.01076632313392341
0.1266389564673573
0.08690120348188278
-0.0009260228309762147
-0.004588402789054351
-0.1100839730592908
-0.004846019004129514
0.02873430073193898
-0.003796246285940979
-0.004382627487607796
-0.0047313045193171
-0.003699701436237318
-0.004585264119242487
0.02518691279017387
0.008688837840142891
0.009299881697187391
0.06509450383984516
0.05452458489778898
0.008094029259589757
0.009840361351987551
0.0002443247781355128
0.0101329990551849
0.01043893393299181
0.009923073025640489
0.009235312721078125
0.009840612820508667
0.01368552518623427
0.001872571323624023
0.05999993925689768
0.01101517529902572
-0.002312255932583196
0.03711338446176681
-0.004726615848250224
-0.006871437016148411
-0.006340965858718868
0.01751369915054134
0.01181845818267968
0.02539659066817493
0.01152950250372814
0.01253511335921972
0.01282867634173236
0.0451624028306387
-0.001360112694532232
0.004675930765936948
0.01155070811365229
0.04246289994637983
-0.006286334294476859
0.01680970394685775
0.00649898500589391
0.02288327687373132
0.0332121563014157
0.01658160462940663
0.01383026060847166
0.0155321392920004
0.01590678619284031
0.01153921062340423
-0.01052529614640024
0.01487341502532828
0.01005727626797387
7.9989426501437e-05
-0.001395047747753434
0.010332438488284
0.01010332607498085
0.009800876399665428
0.06762070249443396
0.02491777589240741
0.0113548183943532
0.009320150375453279
0.01006055331818387
0.009881841022356643
-0.03551333257704743
0.04498708288262437
0.0403372478643925
0.02688962579870007
0.04598075124891256
0.004913398000692788
0.005566949150321705
0.008206318080167268
0.006185283537442437
0.04860114658119992
0.007968598548524495
0.06842298337436585
0.01463630753083234
0.0786351538442724
0.02215242818381753
0.001097541316116796
-0.09388244105145603
0.02260657066217157
0.04348455518305518
-0.001956783834627432
0.02378748874020943
0.02089842248883362
0.07248914086541511
0.000409238184321551
-0.01057753710716909
0.002981394778237571
0.03015270248314933
-0.001491657939474839
-0.003346950976775768
0.003821316346351738
0.0217864330970833
0.02491854064158892
0.01073896799102692
0.06415013080276427
0.001852754532721249
0.006079835285828736
0.01079057650572894
0.009127081887729411
-0.00631686815958249
0.02587274392776395
0.01523723954784294
0.02335769681688896
0.01178700761773778
0.01162569673055658
0.009278718252766141
0.0009473673888614814
-0.01528717904590242
0.007736519178846001
0.001476940616921504
0.01256400175636886
-0.007093630036586006
0.0002378681773319711
0.07821116987073486
0.01151221697402202
0.01449034429662168
-9.891492550676295e-05
0.0459458645156275
0.01209718294615432
0.01325852936640224
0.06818351972738958
0.01019282107177186
-0.007025768348056353
0.005131809267506731
0.07081118704011724
0.04463416951467147
-0.003042330268421322
-0.003437538827659003
-0.004509081677478923
0.02640738628001287
0.007348946395307919
0.004865326182439711
0.00481255149157316
0.005581935095749688
0.04421480237913249
0.002405888807378752
0.002267831941101925
-0.06679637173260591
0.07841674995448085
0.08208284215228014
0.08690011576206109
-0.01029910526149021
0.08361854508370352
0.09421787938789569
0.01277702762853905
0.1433364601320042
0.03484241374231117
0.09831141097933199
0.06623193854597503
0.01178802976201798
0.01751094490273584
0.03086528308267206
0.06534558940199563
0.07297555526372157
0.09806683793124486
0.06649256743815236
0.1138002948672319
0.03334338136786212
0.03008847512379291
0.008333023393745932
0.01478138705201301
0.03647371266750263
0.03987222023742609
0.0320102927693481
0.02738427619235162
0.03070635751930641
0.04311869435294843
0.00535252862247719
-0.01281913025356585
0.006692454529102724
-0.118553725585972
0.02395676970317485
0.02863933753453037
0.0551757486649223
0.04499737260296079
0.009398037216229668
0.008824400199485154
0.03107725632671073
0.06093621753832465
-0.02762434294688103
-0.02144780887960555
0.004931055897051896
-0.05572708072582853
0.123252084482288
0.07011723756178073
-0.0002914795312229875
0.05509237631115978
0.1035645643228411
-0.006410663945117922
0.005823807154841321
-0.02058877292356511
0.03879289564846113
0.01303459168744469
0.04322452785309253
0.00310469638767848
0.08830474883862223
-0.09186937230950282
-0.003485276909977669
-0.004216381765648747
-0.005173891963119788
-0.002455197116159075
-0.002687999691298125
-0.003588846891175898
0.09156259048304607
0.009403866840836999
0.003717482345883214
0.009295453873273492
0.009012219936282751
0.008303348725049788
0.03542842225701371
0.006277647176213586
0.01503478149796254
0.0164398720564154
0.07169082690633156
0.01348574534500996
0.07433081956267004
0.07003196729207052
0.08146570749118845
0.08944647311892655
0.04190610179597203
-0.02094406211655932
0.004442079365032412
0.03324315333007574
0.03039321714763031
0.02660805636612454
0.02649346379188121
0.06921126843919159
0.06885864276792611
0.07365445790019
0.06216927210535399
0.007199882504986664
0.04557835967251433
0.03231157240217675
0.0411266133577737
0.03704737371956921
0.02326101362566104
0.03972419187732761
0.008746227142213583
0.0249042667649543
-0.1241725692578888
0.03700215624014273
0.0634436365401967
0.005123311382217157
0.0429708511604418
-0.001596331926744234
0.01287870519534635
0.05196085977823373
0.04384190712053374
0.01764905046535903
0.008727568459112284
0.007810841898807021
0.005400056106549931
0.005394202631230591
0.003743824299455159
0.003630211233521355
0.004514368883149198
0.004526172477449111
-0.005399117750623036
-0.008614030991789277
-0.04747367184279421
0.03171027194278354
0.07898560744981012
0.09949365600570645
0.03701448947476702
0.06208553758504312
-0.002487329958728756
-0.118936023309789
0.004300066258290581
0.005316637320636339
0.02240842495324442
0.001544980438339509
0.002197939716613498
0.0004380596340472086
0.00649739422907328
0.005137047288300035
0.004115733530563246
-0.001542489675669088
0.003173330174196185
-0.06578376650664682
0.004215191636978466
0.004277610577014875
0.06343549133085311
0.01174134731687552
0.03212107795778304
0.06244938200668611
0.0165470968192341
0.00573870058190454
0.01092964351381095
0.009659968120339106
0.00836847923081087
0.009338792029417772
0.01365366465173713
0.008794231269537005
0.008185897161470643
0.005338364817005672
0.007711252172737307
-0.009799669804942806
0.01017283551689899
0.0238802438275942
0.04044001349912191
0.007770464023907644
-0.01449354475983248
-0.00633309805369595
0.008498522150431922
0.01994404862637982
0.004505344289923735
0.02062688716792488
0.008591008588658704
0.007523255692868886
0.008322365554610189
0.007798933398512689
-0.1266011211183326
0.008479389839985261
0.007771261297346005
0.008849017043244704
0.006869400853430579
0.008459932932422852
0.09080103526604974
0.005720591046505065
0.003812310036188366
-0.0708655968004437
0.005034001915076565
0.004167106148135293
0.008124849207434507
-0.0520222071728904
0.007515260343341846
0.004530317739695359
0.004190001004504397
0.06696429127236196
0.06326487645903096
-0.06744127608694062
0.07145583249376988
0.008230401261599369
0.05765619138456891
0.00924831707875374
0.06038099055423258
-0.01761652970064684
0.0652439177619461
0.04598115419960986
0.03963897564718887
-0.004794030550420268
0.04604308582552338
0.06915580649460405
-0.01455386826853372
0.07288084692553935
-0.000229024092536319
0.0008566929553484846
0.0005179467762054322
0.005319844940358554
-0.0002476123430688354
-0.03332259777485567
0.0006320599309709654
0.003110145173708298
0.0232491463346737
0.0349610809906891
0.008003583885263572
0.04123682511656517
0.04675731438356814
0.04147776079231373
0.004213491408961893
0.04774665833088095
0.006655395016458477
0.03928186741024176
0.003068201343182241
-0.0002661746914164828
0.004756912057880133
0.02289489406180361
0.013007258784941
-0.002032652154914207
-0.0277806545941767
0.003704820144966823
0.02383649909199879
0.1446498680873786
-0.002067235145747687
-0.00161803135482712
-0.1061088944975947
0.006227182675270817
0.02210218585015826
-0.05264195190782255
0.004137769328381153
0.0428702078094003
-0.03664753050859249
-0.04736720169305868
0.00431429689063052
0.01964894876268678
-0.006737548749257051
0.00941650126587718
0.006646944890483115
0.00508044255437464
0.00819345913027743
0.005050538162136292
0.004122222794304727
0.07426326825187647
0.005800051959317119
-0.002216403925174044
-0.1528490076366387
0.02779403562688826
-0.003512508385036098
0.007587846938488245
0.00914634499904941
0.008160832565479554
0.00813154059849004
0.005293196236738332
0.002991467449372349
0.009714932239941826
0.01135474906874824
0.00945861880199852
0.01108236058420456
0.008141783733502895
0.01247924551333528
0.01043787259486583
-0.0271748546005078
0.02946232212119244
0.03682234172489651
0.03137358732274693
0.01149761725678033
0.03481952589072735
0.03524026963934678
0.02449369536287636
0.02924703398286018
0.05838505202860195
0.006409191888773385
-0.04446613726967931
0.06797260846783894
0.007762904274425911
0.007084924267635794
0.007248884073300417
0.0736008396529514
0.09137221215354865
0.008201291507290525
0.004468946608531569
0.005647000401334335
0.003814228763802466
0.007809264631908929
0.038983014439752
0.03451104492973325
0.03426028581787503
0.02793845633030666
0.02724753089519395
-0.007168133289632622
0.03146693501767522
0.02392959470609614
0.01418110551843634
0.01463498747732926
0.001317477854109131
0.02872304397996038
0.02886543020921026
0.01674427960988243
0.013214772122492
0.001598303353686046
0.002093013584123755
0.007847561279034243
0.003012761867168547
0.0025462733233029
-0.005787285001907679
0.003848481649110448
0.02356905189549567
0.003518781134633682
-0.001218890367423296
-0.001953574794709511
0.002512013939963107
0.005523147831508328
0.00293771186590112
0.01647394927213696
0.01602037676050453
0.01708079416113566
-0.0239178291419119
0.01821632743154407
0.01733589069207872
0.0175040619416153
0.01695690730717572
0.02570747527321261
0.02692355810642439
0.0247278743538072
-0.0001665873705190616
0.0002170979959748024
-0.0005378180172779943
-0.003022630296440842
-0.002710902845431977
-0.002966192824608749
0.01284494126351378
0.07113264809758756
0.01229831761065458
-0.006540702879821408
0.009356127097583754
0.01110916773203349
0.01093950900868871
0.01110615185521986
0.01081457178034895
0.01047415722772149
0.00853355512985972
0.01889763918024562
0.005988044968033085
0.01169578342378067
0.05768744311316514
0.01221695620732879
0.02116097872784397
0.01950949757153644
0.01916297377797923
0.06639581640842726
0.0282509186567355
0.009034903480888076
0.0119934346214772
0.008685464179790622
0.06039345988634966
0.07456256181112049
0.02285209682163991
0.06817675034796085
0.0391259562915049
0.01932635773848816
0.04438083897740667
0.07938904407686979
0.07915778005193073
0.08092823252983941
0.07849596073506884
0.0745822592979672
0.0212587018707856
0.06890311303252353
0.06994396612679243
-0.00176393135119663
-0.001278547860844411
-0.0009972024982790421
-0.001387262564627032
-0.001339373089688969
0.004936712819881432
0.003858782641826162
0.001243960945320332
0.01449825724328086
0.1655745346529573
0.02691416941733433
0.00855610749393856
0.02406781153087842
0.01138618065534681
0.01369689969548394
0.003903675999179099
-0.006118179420443584
0.01197418279900701
0.01322541656344803
0.01136408353271037
0.01704119890579619
0.01576981941911734
0.01132787315020194
0.01031389972593669
-0.1800306491073647
0.05659352701543826
0.05092560946660911
0.003979608666459048
0.02367161633952632
0.04243017739536995
0.03449136543395361
0.04177439569266297
0.03656777278886065
0.03794648768178533
0.04494342814749697
0.04560673781404581
0.05835164474502603
0.008803972902523471
0.01035815107645507
0.01176577112120312
0.009473491435655968
0.009931434846621567
0.00701313936259594
0.007090541118150722
0.00800270382515198
0.06143826296972021
0.06374455276858701
0.06481726934908813
0.05836806490644936
0.05350623958144986
-0.00508665133364599
0.05557320321924178
0.05666645385312993
0.02461065826048165
0.02567326869570892
0.03300905848890563
0.04952837805049089
0.04507994638070989
0.04445703523118671
-0.01734718435615616
0.04850321859718504
0.04716590640046748
0.04750680991977708
0.05114124314765779
0.05321272692546442
0.0597420707780451
0.06253689942034037
0.06973271255371578
-0.009410935268928309
-0.008204054752346382
-0.01324550975713265
0.01831281291514356
0.006349616160221321
-0.000844473696511004
0.007278349233219205
0.006302171706922649
0.003671845521723939
0.006757658895199067
0.006222058696851123
0.006137734085680127
0.006222230025701158
-0.06522497326336565
0.01225122895256561
0.01543535424675579
0.01092639192569141
0.01127754055189266
0.009085693297709977
0.06778608278736181
0.02417456176386366
-0.003480441103339041
0.03917918681015276
0.00933405542700364
0.04408893771806328
0.01116998071638128
0.2672919644267059
-0.0108792434331603
0.01241544768213047
0.02316445598384937
0.01946189178925249
0.004943048500009172
0.01418139832499237
-0.006502769072949161
0.03107655720256877
0.01639810738206918
0.01480701242012393
0.009332829664687988
0.02188460903940837
0.008053006234570862
0.006418763822505443
0.005087280136332371
0.006792044239414627
0.03909384485204347
0.04310714294900662
0.04355871592429044
0.02093859621260558
0.0225470200150187
0.0236305404304365
0.03018458427857638
0.02927680406271668
0.02866321353820593
0.02737916511668033
0.03012352053746334
0.03101485658693513
0.01994961239590608
0.02049660705439521
0.02129434615464636
0.01966007137004869
0.01757144720357758
0.01765490086658197
0.01861309367552362
0.01114026230104756
0.00997217284128522
-0.07316119788573366
0.01580636541665113
0.01571181640065923
0.01750588321974844
0.01128784079085996
0.01118914854505722
0.01300424837715516
0.03790877074138534
0.03378810047891864
0.03435686896442752
0.003461586124014737
0.03652998356574334
0.0497088008992163
0.0514056659409277
0.05603923596628327
0.0227920821815388
0.02215284312263103
0.02286874642627563
0.02545118512258808
0.02901005160820836
0.02564846015291921
-0.003536268403053671
0.007101237267873586
0.00834769342313753
0.01184892643095576
-0.002386670915667614
-0.002495641039824737
-0.003657590963247848
-0.001322135534899825
-0.003558027710064106
-0.02710366831869181
0.03677906649983613
0.02330170700135166
0.02435047516412707
0.02414929549797261
0.02359207849337617
0.02334807777855282
0.02563968021223131
-0.08049478931608416
-0.004251262409989276
-0.003110618834707213
0.01071246830078928
0.01314398314805566
0.01255742398462714
0.009177966486229778
0.006683021331687311
0.01661230541631068
-0.128949387263682
0.01764164134990753
0.0187550395301648
0.01155003536184891
0.01664075565812154
0.01652488637059151
0.01718099880415032
0.01805758636393395
0.005546315772652429
0.005033476279312095
0.004836745494244008
0.006638828604538778
0.005231945895275282
0.009555643234336306
0.005898821855077908
0.005778399578590436
0.001616468575548159
0.004924710686742198
0.00111366388712202
0.001050400446129338
0.002059131243595374
-0.0002062990528093314
-0.09595446560806527
0.01829730517228833
0.01611104542276569
-0.002390932111143411
-0.06065222214070901
-0.002421130759804579
-0.0002548514910142339
0.001549337560189867
0.003609135852161375
0.003442832907773718
-0.0002459527158165438
-0.002219061240239834
0.070778301050176
0.00948333235934001
0.008168661457235498
0.008554352228553766
0.006894321127426556
0.008313402611281965
0.002486342395177856
-0.004272165404708658
-0.005361805180446272
-0.00615903990759081
-0.005001017700947263
-0.0002625490120871182
-0.003442051655881474
-0.01238799914472475
-0.01840122911017898
-0.01220618890979221
0.009096790680983027
0.01172628858781296
0.01193042548605802
0.01203433412994163
0.01022354082431126
0.01036350762015049
-0.0009592485075540151
-0.004656772895557649
-9.031748052744308e-05
-0.0005790319880753982
-0.02665514080543425
-0.002583177516624255
-0.0001302878315770623
-0.001111433847148254
-0.003499542500025768
-0.001263738363018142
-0.003598795192178607
-0.002656884485317718
-0.00717982392172144
-0.006702249589943441
-0.01286129905560201
-0.007174167062902528
-0.009156514930633155
0.01348355031089243
-0.006304803082156913
-0.01111578382830071
-0.00824884991165113
0.002325294424257606
0.007906200568256723
0.006505517540916354