/*--------------------------------*- C++ -*----------------------------------*\
| =========                 |                                                 |
| \\      /  F ield         | OpenFOAM: The Open Source CFD Toolbox           |
|  \\    /   O peration     | Version:  v1906                                 |
|   \\  /    A nd           | Web:      www.OpenFOAM.com                      |
|    \\/     M anipulation  |                                                 |
\*---------------------------------------------------------------------------*/
FoamFile
{
    version     2.0;
    format      ascii;
    class       surfaceScalarField;
    location    "0.9";
    object      phi;
}
// * * * * * * * * * * * * * * * * * * * * * * * * * * * * * * * * * * * * * //

dimensions      [0 3 -1 0 0 0 0];
oriented        oriented;


internalField   nonuniform List<scalar> 
37380
(
-0.3774103732848093
1.002094598325469
-2.775368459098902
2.150684234049602
-5.161501886376591
0.8040330833912704
52.37087265069788
-48.01340384771138
-18.28154847056375
21.92188267915251
-22.79654218432356
19.15620797572274
16.79429954099086
18.26621780415335
-18.54278750579673
-16.51772983934777
-5.078316880739532
16.72727484200484
2.821954961402721
-14.47091292266967
9.388954005035128
28.05339134479043
-20.95051714108214
-16.49182820874952
-10.19416991880816
-24.85870739682407
44.4418313206649
6.969537108481176
-2.97873656513682
7.608476921212259
-11.59927746454054
9.652371252663183
0.4378089511384667
-7.436443370178486
-2.653736833635508
-8.916308825834317
7.614689729033883
-3.178887584111223
4.480506680959905
-7.538910477053954
-7.297271366784774
14.83568307907891
44.35937101041644
-10.64686522742254
-22.34040909834176
-11.37209668465553
0.8378414494210463
4.851216713366613
6.943834937408574
-24.12796303316787
12.33291138239205
-14.94179596854436
23.74737385527499
-3.415108527853302
-5.390469358872545
-1.497421276768747
-0.9626881514227573
20.45446327845553
-17.99435385031016
4.407917339942171
-0.01609764186086009
-19.33361566662539
21.12622729419794
13.41307041119311
-10.79192385011737
-14.16060910415677
-9.921739010180602
-1.580768166192794
25.66311628052416
-17.9497238207985
2.310068352498255
0.3202625551043176
15.31939291322239
-0.08080394454756494
13.59677445881812
-6.546433405769023
7.277202098725678
2.767361441040666
2.520343001395035
-12.56490654102688
13.59159320912681
-1.527028319863404
8.275598769209799
16.64803589132779
-3.797407366346836
-8.330628200257188
15.13560812011211
11.1001694662352
-17.90514938603316
-6.219262040681786
-2.202012006730685
8.859082998578314
-9.725824653808823
5.606764133089104
-6.40685400547409
10.52591452627915
-3.231729827140013
-15.90685761484213
0.7838187577732897
18.35476868421599
-5.092381924915549
-16.7295945946484
6.426856232400486
15.395120287161
13.99465190845337
19.5349630473431
-0.9043683122616705
-32.62524664353429
-10.15229986451907
7.738329890969253
3.935178972147408
-1.521208998599404
20.81297708772123
0.3777979935137479
-24.42250490837474
-17.58962885123087
-25.34449311825488
19.08125896744627
23.85286300201721
-14.33537544199757
15.42516616178667
19.72318636792816
8.56225121243552
-8.748593643055981
12.97384054428236
-12.78749811366662
-8.053980095592005
10.60398936836179
-12.91617861015143
10.36616933737775
-23.75698389909844
7.42160397080633
-9.02013072255793
25.35551065075451
9.290114716732381
8.778061188774497
-18.06835038171618
4.579496082643205
2.629531939010048
-10.18776458676686
9.074933163591522
-7.308261593257552
7.523443146397673
-27.40633912102912
1.955964482510528
24.24259144705964
1.20778319146932
1.463173187786609
1.292946378853643
16.3824862359048
-12.79930664195187
-3.132207115017773
-0.4509724789367928
9.114076129010533
-23.36700092355475
14.85776788991396
-0.6048430953697796
9.211955153994539
-11.83711769663695
28.13134267024207
-25.50618012760313
19.29754775997585
-8.683707902019405
-8.238193915357469
-2.37564594262597
18.89138587729881
-18.96640768359459
-0.8278851703251541
0.9029069766029687
4.819350434310672
6.972372147133532
8.368575723234155
9.441207283832558
-16.67999933688917
-1.055455073244044
8.294247126289726
-1.891624420426865
29.90240738114119
-2.91937503565213
-25.09140792506937
-15.57247530801929
-9.505602331804479
10.23806232105768
14.84001531876213
-0.1408248102181132
-12.27796326540762
12.418753689913
27.85944083615121
3.22247603373516
-10.75906191772513
-20.32285495216219
12.31929988958589
-6.316322794553939
-4.65667394097753
-1.346303154064006
37.09049930440595
-25.54903440436182
-34.52454665621918
22.98308175615537
0.1513149773714673
-28.55951502107303
-1.041456415784479
29.44965645947327
-16.12122055594957
13.55853184356492
6.850535123606941
-4.287846411189244
13.93604655450183
0.3541851460891617
-17.24255476812235
2.952323067500957
-22.19447781331044
15.41334223214819
9.941572676387032
-3.160437095234247
22.83441855455655
-22.06660023646744
-15.38074480150352
14.61292648341194
0.3903513154797184
6.646647435421571
-23.83887049559425
16.80187174468937
6.199901362970283
-8.321770178249771
-16.82252964109975
18.94439845637676
-22.6407585162363
2.170375302556391
20.07345186402964
0.3969313496568963
-6.759626386177559
-11.49080716270176
25.64288664587162
-7.392453096993885
-28.98912074864317
-16.99208198385074
16.95481651466285
29.02638621782056
-21.7788131584141
7.073392506701389
0.5963717633855182
14.10904888832533
13.88216148159716
-21.00499752240096
-20.28350308020502
-11.08662734436375
16.29848099051989
-9.214259284551991
4.002405638394945
13.5815658976716
-18.67652041566246
14.90899782686338
-9.814043308883351
-21.8610363145059
30.73735615750119
-24.927166276462
16.05084643345192
23.17837055370221
7.010624686338419
-27.7019295945192
-2.487065645521031
-16.79446116823517
-3.720410150235967
12.21471614284941
8.300155175617006
-1.323694666629126
5.206036889977712
6.174921594881001
-7.814687552905429
-0.09997639925637704
13.08247159663797
-27.28285641557125
14.30036121816674
6.984289470918586
-16.31598507754351
18.82209603034317
-17.15038107415657
26.8835992825901
-9.73340316702426
-11.31223006258113
-10.42284116129981
21.73325959648112
24.59288671113208
-10.46845342808702
-0.2422718014445834
13.54208088641394
11.34233091595645
2.625739083660152
-27.51015088603706
-20.93270662798658
8.144336646071805
6.579543973173139
6.208826008641405
4.421429913640268
4.842922892233172
14.41160623307492
-23.67595903894409
-7.847828736566307
-12.41700422105354
2.355065612871028
17.90976734468893
10.46135539644666
0.7847254369315353
-15.84779628050735
4.601715447135664
-33.1201611706519
-1.714615994102331
8.334889914676383
26.49988725012763
-24.37630549741596
3.869807951252696
-12.61366362447967
-16.20883050372985
-1.053882249523436
30.44512847232228
-13.18241571907115
-15.4443353931666
15.93781825285289
-0.4938681777627094
-4.153164812210171
-12.63796848347306
18.44740567849636
15.51921955664166
-3.14043324335928
-1.415611847149783
-10.96317446611934
-6.604880533747377
5.866041714849229
-0.9676781731537142
-4.921416906054769
-0.7157854545171757
5.890063584767443
-0.2098681702843557
-14.5569098122523
15.03504746559288
-12.69937638975388
12.22123873641088
-0.8089548353692702
-7.703788799376794
6.234563360215409
-11.04147479139304
-19.34474187321981
-3.464185715520312
6.600097085009718
-14.25288418675998
-0.3042166578898149
-3.368879905319085
7.935530051869098
13.10495111472048
-17.67160126123609
-0.4344544166606012
18.54405518980709
-18.10976647165597
18.95424074846506
13.24616156844727
-21.82667140354705
-10.37373091336886
-38.06743492760157
0.07034905794957255
20.92632601263813
17.0707598570095
4.404484764088252
-30.71946261019269
-1.867820791259181
28.18279863735847
29.21064878230024
-25.17436453006138
0.3682005118465805
-0.1055483771709679
-14.36671523758476
-10.74840119507557
25.22066480978724
-13.38885491859434
-2.602673853299968
18.28488893202291
-2.293360160129266
-26.79466851515318
23.42865344391577
-30.65528102756241
34.02129609878966
11.85919957276567
-5.76508192242453
21.20775820075631
-18.58852470747859
-7.692735095967543
-7.4607027345682
15.15311818001278
11.24699708513555
-13.51470341200841
13.94996570443416
-11.68225937756615
-20.18379593273069
11.56664826201334
5.856247742123371
2.760899928621293
-4.959897668775179
20.56350458771648
3.25590612865434
-18.8595130475888
-17.01111651243198
12.54799095188249
-5.141198526845429
9.604324087448028
-9.911222217085051
0.7860210062511614
-3.10210624789577
1.042732642329551
1.001276845856529
-7.259629868966345
5.215620380773571
2.465612620687097
-5.918197289525
-13.23767663107103
-17.67433913289563
29.31978634005935
-10.17355070574473
-1.471896501427904
7.063177448587393
1.20287765922593
-7.223322465465912
-19.52434136182993
-12.21963381529142
16.89592801331138
14.84804716380352
-1.719188277475488
8.157187457091641
17.77517038659992
-37.3141144275392
11.38175658384554
4.983317180407879
-3.327891135419134
-9.170309178722562
0.3065163662274182
6.807672568789808
15.06371338648964
-14.13513746987003
-7.736248485401042
1.570981613405726
-7.553858410877472
-15.79965269727079
6.971339858042279
15.45706239568282
-6.628749556467448
23.13610448438222
2.758413453698626
-18.85831006709363
-7.036207870991137
-6.830759917590673
-0.5801529240943414
-13.5217937863584
10.77342753567411
0.7866707942813399
-5.739608737511997
-5.820489592420476
19.00517495451933
-18.38890229303232
23.11423532838272
-23.730507989872
-6.078710424026495
-12.15713060393479
1.55105795893983
16.68478306900438
-0.2501859714009227
-13.09514690695364
13.34524374040536
17.28802108200697
12.66318211558507
-6.991447542174848
-22.95975565531617
13.11916372697415
-1.799332853983346
21.67644621777505
-32.99627709077101
-14.51406780581718
4.265366537951901
-18.36228069504495
14.12130634547394
-0.02439218827172129
-24.70654153021558
-11.81025889521383
-3.023169873134866
16.66599771959498
-12.84662908621682
-0.7961987602128729
20.67021302749873
-16.43521098256902
8.884161682040645
-9.055808729407241
9.123484285371095
-32.44356186680645
16.83879368835326
10.60685361801123
4.997914560440736
1.719926199064176
-2.557405296897344
0.3522277024917749
0.4852513953176651
17.5642226937068
-10.62453728915512
-24.7000384913477
17.76035308679519
-6.416200790643648
9.626270025888687
-17.67323883309708
19.61207732967817
-11.56510852247058
-8.709365655709954
7.688491310601947
-27.6965469964395
28.71742134157886
-7.714505964517607
23.54230183079421
-2.679706313608645
-13.1480895526757
-9.710032955770586
5.746595317712854
-24.2557396377285
28.21917727580962
17.96046590559075
-9.182591429029618
-21.12488971230194
22.23542938014265
-18.32217749012121
6.240904653877107
-25.72673557817802
26.0922059284892
-6.606375004181882
6.520058795924197
-29.95149310664596
7.880924014753908
15.55051029596856
-0.4542574911916114
-0.3901242599074293
0.9210107398334445
-0.07662898862454233
-12.13498355169374
5.747842044208098
7.949696766829453
7.833674443984122
25.3102994642027
14.22047418628397
-19.64564625645255
-19.88512739405303
-2.106942611712212
1.369098874104467
-8.317964991785612
20.2796753735296
-0.2739750976068462
-20.00566095007126
9.233929515282311
18.00495354591733
-12.97231450466297
-14.16440040466408
9.131761363403323
-16.55868616404008
-2.207618903134835
24.42392725866169
-5.657622191490416
-8.660870344499386
12.22986695777184
-20.12768277731585
-23.45271665850418
30.49478826516471
-2.764482053495023
-4.277589553159693
-2.665924300924483
-5.04662246366908
-1.648339785449401
9.360886550034527
-1.311674843796616
26.73540177683702
-25.42374577518462
-10.65689168283299
-29.74318037306719
16.94735539739291
-10.13491973975328
-4.884050454261126
-6.271326570107628
13.81963250970602
10.37081304877208
-20.82006613438207
10.44882131818978
-8.87694006132331
20.48895366789464
0.620422639707726
32.51018864154722
-15.57678512365671
-17.55382615760324
-9.764061054779869
19.87748043098795
-10.11366499360771
-13.13460806955637
28.20457893727772
-3.627766223549135
-10.07460794895527
11.03644987157998
14.9335622795558
-9.900643591159394
-2.381142329851671
-2.651776358595793
-6.420748230578169
-14.34163207644031
21.67100978885475
-0.9086294818368034
9.379744385199887
9.18358795942069
-5.751715234144478
28.96311200813126
6.007356143120735
-29.21875291705254
-24.53474118592288
0.1385059789722187
24.39631464826483
20.10931463293776
0.7462380443264911
-1.535854162273192
-19.3196985149927
25.52172517550654
-16.99847969868479
7.12643478138175
-15.64968025821814
-4.094950375855815
13.52013373018502
-4.426202213679689
-4.998981140645165
16.7153481643519
5.945219466499664
-10.34249859489919
-12.3180690359408
-4.118989994131084
6.516618336346651
15.12113063224493
-17.51875897446173
12.44138078616195
-10.80072177812472
22.36723460338365
-24.00789361142174
0.02467014586771827
-0.03302625040285392
15.52538933058947
-15.51703322605797
3.174907269556855
5.919784381934022
1.678735884184725
-0.01641414132355037
-20.10452210640831
20.10332554215854
0.01761070557258323
21.66027707575649
12.90915997463889
-22.75744689526983
-11.811990155139
-8.417894204625011
-7.63701713305987
-2.013729016291751
18.06864035397586
-6.438481064682629
25.17477806416226
-15.68095728149609
-3.055339717998588
-11.31737165517057
30.63952880739441
-11.40209290597295
-7.920064246266493
16.20227498727144
-15.22341992739966
0.730134459841738
-1.708989519726913
-1.92073488509573
-1.296613884029493
19.41962375638769
15.93756658273266
-22.13317989506411
-13.08783764927996
19.28345096161194
19.12251200726105
7.09841272792943
-23.69771863408197
-2.523206101116352
2.965330531944674
-20.02311050531734
17.0577242394489
14.3052255010753
-16.59871625995653
10.65034946922586
-8.356858710360571
22.35892430557668
-0.6315679474464462
-22.31294368024642
0.5855873221151258
-19.05344291785768
19.92844147338899
-2.795733440638027
1.584975298045979
-17.93764169885196
15.8685479543951
0.4841184464164579
16.72975100713042
9.197778224256039
-8.932034557925883
-13.09950719904609
13.16176374423297
-0.06202642945231055
-18.66637058348074
5.595216009879119
15.04166242382608
-1.970507850225513
18.88602938777795
-8.656082588635353
-10.24075321694538
-9.662035270428344
12.84282118094905
10.36080102127058
-27.57934144812994
-3.257256605336721
2.758766899344006
28.07783115408606
0.02168810611419235
-18.50862159300297
18.48693557093968
15.00292003587397
-26.44090108710552
16.83000122455382
-5.392020173325288
5.758093942138315
-5.46606845580466
-15.19908843388144
14.90706294753695
20.10105956273458
15.08557073359238
-14.90695492279915
5.77628180177799
1.724235039387085
8.698610950805238
-24.87927298540976
35.73014045125748
-2.816651103691
-8.03421636217319
-14.62420710298576
35.7174638133154
-32.57512301127993
11.48186630094891
1.187741934521857
-21.7109027682792
3.00097711189177
17.52218372186291
-13.56931905787345
-9.101493687012614
30.79703744905144
-8.126224704157993
8.740447098525603
8.052064768055724
9.228128616772286
8.259771890566977
-17.48851142321273
-1.433526298444671
-27.39077357708237
29.43674210099547
-0.6124422254701433
21.78331183644248
-0.1420704249799766
-21.64126910759569
-20.02645682380992
14.20410709093153
6.50774970740434
-0.6853999744761911
21.0593057479998
-20.35233066703921
-11.68633039191446
10.97935531095376
-17.93348023623371
-15.30734202845707
20.12505206055796
13.11577020413229
-13.92221140209025
8.625477575427777
-14.84200456795612
20.13873839461889
9.970066535567119
-21.7232344128127
7.764469263660351
10.31783184868316
-12.23594026139554
-5.846360850950613
2.409275004231422
7.854427069430015
-25.61060999807273
4.947358899033695
1.181947386751039
19.48130371230411
3.841112941112835
-19.31389810768668
-5.6368255378789
21.10961070445865
-12.62173590580154
13.23918782361509
-15.15246582687935
14.53501390905513
12.27720345496767
-12.13384391478142
8.662545060607863
-8.805904600808161
-14.82672494171067
-5.606651572794247
6.249444751681979
14.18393176281243
-11.69647041300094
7.383642907646325
27.44893198973381
-1.670304307966478
-24.76536736109404
2.476712334120437
23.95895933493132
-15.50332777938912
-0.02004526777857504
15.52330292373189
-1.471799238709141
13.4699562459686
-11.99838655894838
-26.44460029632854
22.41694277231398
-1.090932955730934
5.11859047974313
-17.162952307008
0.491284497601721
17.42535919610365
-0.7536913867058541
-20.98712042161264
0.06960205178173516
10.77660941718938
29.24722864719558
12.45379318688021
-25.61575503669069
-16.08526679740098
10.21297162824521
9.099016563062717
-15.73368694347966
-18.37013180528466
10.79425499393535
23.30956375482293
13.44935312322175
-15.94440623328592
10.25952237372143
28.09883441515271
-22.28092343853164
-20.22525395510406
14.40734297848095
-17.592755718406
-10.16123168492799
14.35851161723161
13.3954757861221
9.506474300843831
-22.24318262467081
-2.996978619662606
-10.31681472419432
-6.429346996405238
16.74571797682843
-12.74776360446177
14.96598773272636
15.6155067709425
-17.83373089919256
0.3858596179980264
-0.2399074848107549
18.69157238288411
-18.83752451607338
-18.84470662970376
0.1260647933093166
18.71748057851318
-1.309286861283545
-14.93292545892544
25.74868662104178
18.74100348542582
-7.346299986248827
-12.70399036047667
-14.93108914226316
11.47854384686431
30.28180863711173
-23.01934899857603
-18.35535731953279
-8.587212031137321
12.00964389173916
-8.745714355715197
1.838221529431838
-7.071950050552689
13.97944287683547
-21.37225746951272
10.77181974663287
10.59951179916936
18.55551716291599
-5.852834235909967
8.057254613408022
-20.75993754041687
7.516427058795257
34.54123720871686
-3.033031328979312
-39.02463293849428
-1.01393340319027
-3.432073275766142
16.89998821048461
0.8520484565402898
-14.3199633912637
6.129154205574421
-2.433978076299082
15.89022096633863
-19.5853970956008
-15.78083937814257
32.06841753781752
-2.152079631420303
-14.13549852825528
0.6331322266585371
-0.8606578394301022
31.20800253943588
-30.9804769266954
9.627056640572228
-0.5502673647460594
11.36346736307721
1.714801772596485
1.752013315735375
-14.8302824514162
-3.950453506621236
3.274008230770847
6.566508860629367
-15.61492776189656
18.68310794430057
-1.358169528029313
-1.710010654410786
-20.6433060420007
22.51652498453529
-5.734220187502057
18.53770482237381
-19.54361479255795
6.740130157679305
-1.440123245700042
7.116726379712291
0.6378812096621564
31.25767800223094
-3.271994573359279
-28.6235646385928
-12.31580921647227
1.018667114152695
13.61789511782222
-1.123416057796048
15.24312367066138
-27.73760273071865
-25.19343507282711
10.81600213021643
1.96297085453175
12.41446208804148
-6.890200691641982
-0.276274389440598
-8.708612538096974
-9.74676756744395
3.861899509244845
19.82804249354708
-4.289106472421102
-29.54187159913119
-10.95717860572038
10.85798297913121
-0.2458494073828482
-17.1735355850311
38.87817628742621
-21.45879129502251
-33.27124408177269
17.80704415165501
-1.965732409032681
17.42993233915196
-0.06472475129231182
-20.25680007382566
0.0576990408169414
20.26382578429952
12.85549364399541
-34.89481406723884
12.7640733095304
9.275247113698827
-17.62689217593288
6.051352220908252
-15.2757053084601
15.27588480958154
11.45161246636264
21.97964948726234
-25.95187639359451
-7.479385560036324
0.08722161131504902
-22.6126350787369
-0.07580772867669885
22.60122119609338
-9.743232707158098
25.23567924124905
-26.14072591228023
10.64827937818803
2.873468217339545
-15.38113232531793
4.664690644510443
7.842973463447959
1.453297834102921
31.16223610144255
-21.16392146918643
11.99417797024947
-11.28982487630074
-6.573978433820769
5.869625339870114
-5.703064737593683
-4.0528453909195
24.56490433283157
-14.80899420431776
-35.54528423549442
5.730635864454348
2.526907781225888
27.2877405898114
9.385054300493081
19.34524223127918
-9.318757655932322
21.98292569743937
17.99543745229325
-25.68761609521918
-14.29074705450133
15.17317704438594
-15.49463286638721
-5.24034177989401
5.561797601894935
-11.5108545402579
21.37898150228737
-9.868548842463937
28.22135538933333
-23.06113529173496
-21.7602869891542
16.6000668914629
4.907175549801316
-18.996573217613
12.44489761904068
1.644500048769775
-1.033745410043429
24.01074364225254
4.121615927140176
-27.09861415935088
2.136458091606066
39.72299646792094
-14.96689532067806
-26.8925592387874
-0.2674887596586761
3.02066756175304
29.06668638624598
-31.81986518838993
6.599042837939351
2.752779124341338
-14.70559817078946
5.353776208507908
-4.890059259755303
15.25828958143618
-2.196359853542234
-8.171870468230001
-15.97901461842778
-9.644641261706916
3.317519382091696
22.30613649804606
4.74467019976722
-19.71921510275235
-5.44930016287349
20.42384506585913
6.918823947012336
14.1036291059764
1.080100870312947
5.343907022167361
-8.53095050417509
8.681350177077144
10.87247357558761
-0.6725191083217927
-18.88130464435364
-0.5355086293738249
5.450440530188371
-6.634120178288022
10.5111370508616
2.938037666930083
24.48489926735746
-16.05238562359869
-12.48610308982956
4.053589446073327
0.7715721318921223
-0.795409954015852
-23.50695711109156
23.53079493319561
-2.665424931229916
11.11456945415681
-13.13552885124341
4.686384328294841
-10.26970164106563
34.54441807102125
-2.614439354208438
3.974910051203642
7.674421351285284
0.07453017503583753
-0.08305245470758812
0.5824971594569466
-0.5739748797271093
11.65348722050473
3.671633573390364
2.840655120274663
11.19162636754237
-0.1620835866908491
-1.425218693410513
19.38565851994412
4.86743929460043
0.3105052780039206
-24.56360309247805
2.840829593757609
-7.435366399440277
33.15993167247238
-28.56539486674004
-4.911079791469021
-17.1473733498043
1.084859523922948
2.720704215738257
13.34180961013612
17.03717589641214
-0.8918926936542411
-16.1452578699409
3.541608485923291
-17.68144308341603
20.90836909806631
-6.768534500599378
-14.88059481008909
17.20128031387867
16.58700463601996
-18.90769013981852
-41.74771275854326
-10.33037146601422
24.4463844540631
27.63169977048069
16.50035744464343
4.59357457214278
-20.72813626072736
-0.3657957561155142
-37.29101721241813
27.8765589318375
9.628356259673069
-0.2138979789785072
20.14349630947256
-4.183814383660473
-25.04451106806329
9.084829142248578
16.98793665096597
18.88184414980851
-19.36942335624231
-12.05893079778443
4.932463289471031
-11.36676696841061
18.49323447672127
4.307436197305455
-3.6603444108468
-1.732893336115784
1.085801549787093
-34.26347369680695
37.49450266698832
1.374089322971728
-4.605118293151515
28.97269145026634
-21.62877922344585
17.29405205938793
-24.63796428621425
-15.24547073989143
7.562689931126568
24.67071745967764
9.963483894637321
-16.27637744880449
13.52946944392941
-7.216575889764086
3.413937088234519
-27.07776202273871
16.82439736527651
6.839427569238412
4.771213183225646
-3.690955807036218
-14.04123687143277
12.96097949524903
-12.26793665367773
1.616040485920825
18.94479888916296
-2.680627689415075
-24.08236940138681
7.818198201639937
-6.932786304622201
-20.23050764120866
0.06583470611364683
27.09745923971409
7.338917248962756
20.67225415776322
-9.066372517572345
-14.32572295946105
1.902165830823468
12.42356671182829
17.58743469778415
-18.51715220784918
7.405447563212498
-6.475730053153221
-24.03263519563674
15.74025017682881
13.30162393584511
-5.009238917035165
-3.669895890895182
3.064063498811871
-19.25032143365058
19.85615382572636
0.6909457683110919
-12.1621665600208
6.598820746651699
4.872400045055208
-15.66887633982469
6.515618013656919
10.52694791154162
-1.373689585373762
-14.476097129811
23.87322743219745
9.988528217570201
-10.09089147171697
28.04874305456686
-9.523808687953984
-8.434042894897313
-5.269996203249961
4.025301552892981
24.46233353457752
-23.21763888423078
-32.09400941977919
8.292080472157075
20.65887053726814
3.143058410353246
-24.34850654561524
0.1424793898148365
-10.16587917913516
34.37190633491464
27.55341571588604
14.94028269409909
-14.46359389151034
-28.03010451848494
-1.567630414262996
-7.685402942977712
21.56972385223512
-12.31669049498782
-9.506234815535002
31.50836508697973
-21.3902657233446
-0.6118645481018101
11.74164209427303
15.50631633468397
0.05329205095747948
-27.30125047993012
1.664571878904784
-23.41402886943139
-1.577179153824429
23.32663614434962
16.16576324972023
-13.28040670212326
-18.79221416243691
-0.4446548942519074
14.26691276147569
-13.82226737729312
-22.15111189791384
11.00220437914971
11.14869047571716
12.12422308331613
-22.62887911884425
-7.732501709241593
18.23715774475212
-16.71643990782433
13.86562115922522
2.850462769245043
-9.076452618215429
12.43129779582615
18.07686600864653
-21.43171118627729
-15.99386608844185
-2.811260592845568
17.50851279724327
0.8002622616716643
11.92208441390807
-24.30739533921428
11.58504866363051
-17.64591090445106
12.74085102624922
-11.08880621025354
-2.989726262962492
1.248010683451141
-18.42721356596282
20.16892914546086
5.783858533934153
11.84572132603372
12.9974225385243
-30.62700239850219
18.75156941820346
-2.133040065336875
-8.172132215137104
-8.446397137715394
7.498704613223583
-2.471325431475831
-21.39101461180961
16.36363543006146
8.914014402479051
-28.68252414416635
10.69205712345797
-4.790691946167254
-13.0407899179628
-2.723913416351421
20.55539528045876
-8.001983296328531
19.09281612337456
1.887104239712007
-12.97793706676266
3.019923052264994
13.85223180300953
2.0487829108563
3.931721582724364
-23.35601362198141
15.16114688176068
4.263145157492019
18.80338743603314
-15.09013652850356
1.551309608871093
-5.26456051640032
-14.46479392015938
1.143291734936047
-2.054239274787313
15.37574146009447
17.3989232134788
5.841519899228569
-19.06225293358385
-4.178190179128875
2.644233408331746
5.130775421632566
14.47068298387882
-22.24569181383567
20.66918675620932
0.1884828551612006
-25.46604045858043
4.608370847347381
29.35627356043205
-18.74493560834971
17.98974070393019
-28.60107865599003
4.614606850944127
11.39332951821937
1.779624339853627
-30.02391437383439
-3.23174251247406
20.45917636546168
12.79648052082101
-4.142433906904484
0.3542940839216713
19.23999120257402
-15.45185137959267
6.918635195754918
9.38618828319942
4.814446818006626
-21.11927029696499
12.15237651054605
-7.086134354066544
-18.07827993154489
13.01203777505354
-18.49537419855722
10.04326246184518
16.12807199207747
-7.675960255367793
-18.56787495594753
19.88304061670838
9.095826051021737
-10.41099171177983
-7.959853729149969
25.57123005496279
-0.4044051214788132
-17.2069712043281
-21.06636825733856
-3.369075539795881
22.78629131474064
1.649152482387485
-2.331663631925204
19.30554310512145
2.827552864031421
-22.38676695197748
-6.830682591046802
3.606839544972138
-26.9274188703183
26.25555327103282
-13.80423153050204
0.8973833561719222
-41.85202526410217
6.87768316320033
-18.67189610466075
34.57788069540386
-22.78366775394585
17.70854376589841
-41.64962430650197
-13.70023593832518
37.64131647892464
26.44247065552803
-3.630687856591737
-22.39896600938906
-0.4128167895507424
4.325931789362364
-1.432729946135688
27.69945545389558
-30.59265729712664
24.21582739077734
-26.40135395205467
-1.142736557630179
3.328263118906448
15.54275324978915
-12.51918795462542
-24.40845011211909
21.38488481689498
-5.595457313032761
-12.91575320019897
14.29740876410287
4.21380174912879
33.38722173212803
-16.99001776514702
-19.77287553792187
3.375671570988876
-11.47066226602577
1.620240399461057
12.46571192273136
-2.615290056150259
8.0059002704515
9.722929129655109
0.07174867794807785
-6.279417632160613
-9.834827710238578
30.85919002959265
-14.74494468719608
9.918686528537185
-20.3087989192875
9.020170346848587
1.369942043902612
-19.44809604908707
25.25470078479601
3.443738792372919
-9.250343528073289
14.29316025912912
20.46781482768683
0.8238589411271053
-35.58483402794089
-27.20625789834681
-8.572188086996468
-11.61590264814019
47.39434863344346
37.7624760821523
-11.31471825697568
2.56722358237501
-29.01498140756726
15.63142997088848
-36.03087901168954
-8.401475417510493
28.80092445830397
21.48202603400511
-12.39707826201052
5.986887297682127
-15.0718350696837
-20.32294167441075
0.1123808623136241
-3.004294273167575
23.21485508525765
-21.25087631189592
0.08347831818322141
7.468841569488171
13.69855642421969
-10.94672856165832
-20.11201120366636
18.79269532940356
12.2660444358971
14.02436668108416
0.2324385133528717
-14.25686679724195
-14.45196360647593
18.78580262931126
33.42863705932205
-18.06527918515323
26.03011177815298
19.38150614672599
-27.346338739929
18.90431154363718
-0.2273156164291987
0.2772448212560366
-10.6310095202855
-9.693152047994763
2.44908762186076
-23.02837546741669
-6.626970052803903
-21.15710821896495
10.52040037371882
-0.3100207164219039
3.46398076449844
14.96013541147872
-17.23637424146051
37.00944903477578
-16.97029329850908
-15.1062383674296
-4.932917368904648
-4.206960196052968
10.89642549880134
-26.80147650642928
14.21338941109424
3.807690297747678
1.698468192670196
-19.71954790152531
1.285333597566467
8.796256180027084
10.57889418099059
-20.66048395854176
2.261490068469285
-3.674145492595381
0.5423426459163121
0.8703127782056256
6.403447599546046
13.00625419486605
-1.270585415939466
8.74648539969302
7.963983524371179
-0.3279826881593055
-3.64853489962385
-6.719896076797219
20.16545616838074
-9.797025191947137
-42.69426590420478
9.543768365292026
15.08521835364725
1.652673539485786
-19.68762916016114
0.930589812035183
17.10436580860345
-10.83554627508512
20.94509225433939
2.361122183326589
-12.47066816256507
27.01070345361059
11.54504791467033
11.16099963327673
-49.71675100158001
11.34028815431264
5.469647456282783
-15.81009273977932
-0.9998428708151539
-23.53288504230769
-5.929639462804119
1.334794135841141
28.12773036925859
1.214832091390713
0.5870788105266969
-25.33479594423553
-15.29981664124369
-5.59326484096616
-8.043275175965853
15.43194065802954
-15.93651627355585
2.157249154968946
16.24081694025541
2.757149266449257
0.8612457896482066
-19.85921199634949
38.53922135563815
-20.812252512039
3.583464176694238
-21.31043302029484
20.43379638545262
-27.22436264834948
6.790529265276207
-9.099790470262638
29.68475730266747
-1.456303476396773
-19.12866335600958
-17.34828162967724
-5.428914939858491
14.93744960171031
7.839746967820493
6.842439020645826
-6.661156599849069
-2.536263482894231
18.29294862560899