/*--------------------------------*- C++ -*----------------------------------*\
| =========                 |                                                 |
| \\      /  F ield         | OpenFOAM: The Open Source CFD Toolbox           |
|  \\    /   O peration     | Version:  v1906                                 |
|   \\  /    A nd           | Web:      www.OpenFOAM.com                      |
|    \\/     M anipulation  |                                                 |
\*---------------------------------------------------------------------------*/
FoamFile
{
    version     2.0;
    format      ascii;
    class       volVectorField;
    location    "0.9";
    object      U;
}
// * * * * * * * * * * * * * * * * * * * * * * * * * * * * * * * * * * * * * //

dimensions      [0 1 -1 0 0 0 0];


internalField   nonuniform List<vector> 
19632
(
(5.012092376211045 0.01912876298869103 0.006356217370262093)
(5.000102009307264 0.0003765846594829972 4.396714806404615e-05)
(5.000401978038497 -0.0001132856494411837 -3.386382893305496e-05)
(5.000345909649158 -0.001543604385885683 0.002271138211535038)
(5.000143722355602 0.0006982969882340017 -3.60458060018733e-05)
(4.998359803335426 -0.002338355824679901 0.005242376738096745)
(4.999183834447104 0.008585733149495811 -0.001552441520439952)
(5.00412608998588 0.002486210474914917 0.002276521976399576)
(5.006669559768103 0.003945095452555184 0.00341722048765889)
(5.007604542917272 0.001730633055714383 0.001958432730686671)
(4.999677374119055 0.00929344162620642 -0.0001102937760114677)
(4.999086041378411 0.001628509527646359 0.002113409612699616)
(5.00699196798324 0.001812640240222137 0.002472235982596874)
(4.999788907777464 -0.0003656698509562745 -0.0002930683173130304)
(5.000121168962234 0.0008033110858588141 -5.228042578378963e-05)
(5.000307355945495 0.001042827031801441 0.0003386479801628405)
(5.00016431894102 0.001049511235737314 -0.0001351278379847229)
(5.000237042245764 0.000868329900895267 -0.0005045467408107182)
(5.000251968697832 0.000159552295751151 -1.745789607286808e-05)
(5.000323206782273 0.003307561342006098 5.474191564870342e-05)
(5.004788556985977 0.004256899120279841 0.002832052814473395)
(5.000043058479474 0.002936693929204304 0.003116794015801828)
(5.00937490141551 -0.0002182833277840614 0.002237363599720384)
(5.000289294971263 0.0007487159442413308 -0.00035975858592748)
(5.000820520554393 0.0006039204645621115 -6.90554585692581e-05)
(5.007371509563218 0.002854261730007983 0.003825822418164994)
(5.004133033253343 0.004999846272642604 0.001593129376345386)
(4.999763683703929 0.0007256625313007367 -0.0004271448458178967)
(5.00062930849147 0.0008825508419825789 0.001104374915307932)
(5.000202373297565 0.000273896492939138 -2.496722663625326e-05)
(5.000308254638972 -0.0001041082909406145 -0.0001790254689158385)
(4.999655806444584 0.001219852703558336 -0.001024863364379493)
(4.999891011850682 0.0008058197897646681 -0.0003571442082359146)
(4.99952461507733 0.0007550548297414909 -2.905343091216287e-07)
(5.000207901968832 0.000259865151732772 -3.826108001062161e-05)
(5.001239486588765 -0.0004671352030692282 0.001201774819773128)
(5.000875617380832 0.002469135324184441 0.0001798273401086866)
(4.999775997059289 0.003227060169106378 -8.08794652466598e-05)
(5.004391897715172 0.003107680373562256 0.003486494004611567)
(4.99965300201 0.0008226561954682338 -0.0005843638996203238)
(4.999886593005382 0.001139659160377389 -0.000191275890388555)
(5.009228165064562 0.002821573477071179 0.003948516653369537)
(4.996596659439064 0.004025877618435899 0.002282286192403725)
(4.999816576393916 0.001095358714921253 0.0005039282806268234)
(5.000119208079297 0.0002886541869257902 -0.0003158700051195783)
(4.999070300032292 0.003777669933414635 -0.002647380511614152)
(4.99998593409671 0.003068440745169655 0.004719320876976785)
(4.991149820846864 0.0006550962568208947 0.001580906370417778)
(5.002503296340505 0.001196417011949804 -0.001632663119540578)
(5.000483552076627 7.464755379220383e-05 7.598448311129974e-06)
(4.992329379166994 -0.0007880917028848322 -0.004396029719485261)
(5.000580393241384 0.000178052360527742 -0.0002828965674848349)
(4.999295125162489 0.003625395886684318 0.001599337530703324)
(5.000940593417171 0.008207716397737867 -0.003520753098229024)
(4.999188693833394 0.001492047513291146 0.0002653927288241863)
(5.00662397364226 -0.0008853516042403093 0.002214778860534752)
(5.004756402348988 0.0001532321898482656 0.001170654660220272)
(5.001143452022926 0.0002838991912116515 0.0001924575502446818)
(4.995903220349675 -0.007001614744858415 -0.009063653798527119)
(5.000076160451638 0.0001478916704043392 -0.0001806450516181981)
(5.000263790152585 0.0003346896492014821 -0.0002372243155970124)
(5.00042447001071 0.0001690905384606722 0.0001645033484283558)
(5.000293116327504 0.0002642006661077024 -3.761022130587695e-05)
(4.999362674936408 0.0007783532240327184 0.002613791449305984)
(4.999809652392094 -0.002284977584325463 0.004010035755551123)
(5.000061137607574 -4.217403975479612e-05 0.000234712122693581)
(5.000557273185912 0.0009658240419315005 -7.337159379540658e-05)
(4.999519775286367 -4.054358983185556e-05 0.0008596031726778546)
(5.000541065543758 0.000392822809339347 0.0006238317226467921)
(4.998428966117781 -0.005555974259954482 0.009409494279318888)
(5.000062401207627 0.0003807734736588909 0.0001661115466024233)
(4.990811182594552 0.002910898057868733 8.479538467429126e-05)
(4.985638634778705 -0.0007298718372949122 0.001040502171556974)
(5.005765904648449 0.003906896018782456 0.004277875403157569)
(5.000970854946614 0.0001252354317942002 -0.00020784913604758)
(5.002130132860325 -0.0004262086314015758 -0.003782848910642614)
(5.000489672900424 0.001546944304410697 -0.009620011663961977)
(4.993595391231971 0.0009872998972798161 0.03005782044094673)
(5.000079690761976 0.001627173930943081 0.0001205393699308411)
(4.999037160002763 0.002338548879567209 -7.314827478154735e-05)
(4.997981277182836 0.003990908556235838 -0.005978079144340539)
(5.002927496678831 0.0006307960977004873 -0.002280931350156362)
(5.000202576368256 0.0007453385555004965 0.003430091604779161)
(4.999519909846738 0.0004547776888981119 -0.000967105764960547)
(4.999432353720368 0.002978109512223684 -0.0001755571538437433)
(4.998556325844395 0.002716157825276976 -0.0001261000330426313)
(4.999650603123548 -0.0001153780455495672 0.001557537525743312)
(5.001223705604061 -0.001551010181935267 -0.01063332822701497)
(4.993797295286027 0.007927188230981423 -0.0001924855816563671)
(5.000057293722028 0.001009100951182987 -0.0003918824935264786)
(5.008918224316436 0.003083139089747047 0.01075672899241268)
(5.00697243700084 0.00829372414886098 0.01084798020396644)
(5.008427098596067 0.00180193526404307 0.003886903599308557)
(5.000171350786727 0.001439108640053885 -0.0003978944279926309)
(5.004026492583098 0.00186995508918779 0.00184682805253978)
(5.00507489768045 0.002486882706469078 0.003979140418056792)
(4.997806125224173 -0.0003021177130149749 -0.0001033447436051615)
(5.000089394999153 0.009421689876993888 -0.000600719264272946)
(5.00103532240349 0.001696212600420664 -0.006746408277814347)
(5.000299643744882 0.0007940699669275686 0.004107090111724504)
(5.000193415367366 -4.593832404538038e-06 -0.0001592630061465555)
(5.001793000700457 0.001993855677260177 0.001171346086560223)
(5.000449180410183 0.0006001196290253884 -0.0004433134141661071)
(5.000231152273333 0.0002165242310667281 -0.0005867089297863438)
(4.995106437106462 0.005309991766847145 0.004599783518441689)
(5.000464093362487 0.002323189502796626 0.001503344377107575)
(5.000134496489499 0.0003824248415622243 4.542745937973093e-05)
(5.006429743759459 0.00326638315390495 0.006938751656274268)
(5.001798233923332 0.001193643365464337 0.001557281400228729)
(5.000151356636555 0.006086983351031046 0.0004665013103832386)
(4.993761678620385 0.001574259104133883 0.0008255433355356876)
(5.006456198483829 0.001788564832916783 0.0003927429834704174)
(4.99929163414528 0.001964737457419604 -4.444757187981998e-06)
(5.00543572921695 0.0002187954161929893 0.000853573573238327)
(5.007640420163705 -0.001348515947335117 -0.00181297128859665)
(5.003947647076499 0.006476172031230258 0.01163201733486666)
(5.005202320266227 0.001667531248725298 0.0004597462449154817)
(5.005961759778584 0.001074383279885359 0.0006330742212625074)
(4.998311084720125 0.004865483054067195 0.005004752933385742)
(5.003801945718342 0.006852693196331361 0.006187181220454204)
(4.989767591433108 -0.0004731007756972768 0.0007799218097692489)
(5.005841324423005 0.003745849080054654 0.007159239031778585)
(5.000121068952379 0.0002284027885277619 -5.877204004562762e-05)
(5.006800996254246 -0.0001537175628518482 -0.001772684545474332)
(5.007044277079914 0.0002181792974292916 -0.004802457612955852)
(4.999717279050602 0.001258962365632021 -0.0001276354554618768)
(5.004246986099933 0.005878030337167557 0.01310600098353608)
(5.000574994257897 0.0002676536750981208 -3.300263729751398e-05)
(5.000481654658211 0.0001785583472797388 -0.000594816156113493)
(4.99769710520944 0.003987571731388561 -0.005709918421695108)
(4.996413940282276 0.01015175700522851 -0.00557607944829459)
(5.000414381284502 0.0008839676962388922 -0.0004581710276012142)
(5.000032821498872 0.00109309667577083 -0.0002843469715194818)
(5.000366103162698 0.0002752216508068842 -0.0001698939918134003)
(5.00219540548014 0.0003758780187924007 -0.0006416116756798211)
(5.001288558319499 0.0002051189651950878 -0.0001342734274567864)
(5.006650201663746 0.0001281383334774705 -0.001476311204451577)
(5.001841272833501 0.0007356181994705839 -0.000919642489750638)
(5.000454693191484 -4.009519635739501e-06 -7.212536120527544e-05)
(5.001070328116748 0.001130819615181855 -0.0008524619921249975)
(5.000806133272293 0.0001064442757299212 -0.0004218072681038614)
(5.001752985331059 0.006288734892254673 0.009092298009004716)
(5.000355427472356 -2.623457750074762e-05 1.684869120758204e-05)
(5.03222749445145 0.005406732974111384 -0.01993396977791013)
(5.000676105275905 0.001475832272543696 0.0003695650892980983)
(5.004787772313021 0.003145879004685653 0.007081497876835618)
(5.000463163044923 3.691599951237165e-05 1.65785029507268e-05)
(5.000337664536177 0.001043613010560597 0.0009284889973704402)
(4.99956752617728 0.0006122652904749432 -0.0004187141680942127)
(5.000652497532957 0.001532607635339073 -0.0007861093591951404)
(4.999925204382293 0.004408065358243782 -0.0002496287196544115)
(5.002423388975956 0.004007643822118477 0.001414544970338735)
(4.999946397271507 0.001110905112770373 0.0004678646895924914)
(5.000297533827562 5.186578872629379e-05 -4.275209145668757e-05)
(5.017956882230298 0.0279791577755389 0.01510129030210051)
(5.005363699465734 0.002556133180866106 0.001267012084909636)
(4.993439717284087 0.008089135527129213 -0.0003083437409809401)
(5.003393385959493 0.001491209240258754 0.001662683584484232)
(5.000992315988074 0.002655175924236741 0.007560806773687334)
(5.000331791865614 -2.8058364361035e-05 -0.000311241784266514)
(5.006840009027398 -0.0003821343723534054 0.004599229603504608)
(4.995803939364883 0.0005665462883860471 0.0007668848187900532)
(4.997431333039798 0.002278149382743951 0.002499907482652243)
(4.995204324854845 -0.0001116818686953963 0.0005873989799268015)
(4.999215718821437 -0.00546447260322636 -0.001354833204543844)
(5.000714446276159 0.01452335708253922 -0.01579338231130791)
(5.000407376400481 0.001690530869767788 6.249580026603309e-05)
(4.994951657788114 0.0009831744610353293 0.0009426120400730662)
(5.000292465039869 0.0001020558723287015 4.707042197419873e-05)
(4.992092598124196 -9.400758259769415e-07 -8.044929054334667e-05)
(5.002620373732671 0.00404010413625282 -0.01935351007325288)
(4.99417269001988 0.0008801869149660347 -0.0007768942520371863)
(5.000801448225975 0.0006951747001712107 -0.0009534669031304209)
(4.999561364421156 0.002591449325204487 -0.0001169631777869203)
(5.001689537017486 0.002246032424467513 -0.0007788665281629164)
(4.999865737503752 0.007585527677483365 -0.006938914156036037)
(4.999931890153284 0.005227537728872971 -0.008780745599053055)
(5.000185496374195 0.0002319874346589684 -0.0003268243850161514)
(4.990107851277852 0.0006542380619362373 -0.01000664820684247)
(5.001069506899617 0.001271204538801605 -0.0009012227328376152)
(5.000382686683758 -0.001296689439385275 -8.830227206764816e-06)
(5.000417117337345 -1.399989969864999e-05 2.293271532403421e-05)
(5.000216486489181 0.0003676343607555226 -1.548834837259225e-06)
(4.997425559493001 0.008492319834670947 -0.004476395497296037)
(5.000927687231404 0.001001744586520782 4.141524823919647e-05)
(5.000355048259871 3.281388205288733e-05 0.0001443464675728262)
(5.000346106585404 -3.843520314770647e-05 -4.49737630627746e-05)
(5.000298618823209 -0.0001501083731631333 9.933937546598384e-05)
(4.996320375648531 0.01033840564579124 -0.005564247398784933)
(5.000291617222338 0.0003134161423402904 -0.0002552455105683413)
(4.983707971224121 -0.0004148006024990374 -0.001655763527512121)
(4.997108819255725 0.001133057870429435 1.373119585603153e-05)
(5.000332079677044 0.0002908250049281146 7.52739884343783e-05)
(5.000364242398518 0.0002459578510334634 -5.157361989917477e-05)
(5.000499261327854 0.0007894881377097159 -0.0014727904333663)
(5.000256224838671 0.0005981320873072524 -0.0007142033198326384)
(5.000324422434757 -0.0001484650974606958 6.597792786547564e-06)
(5.000185436273868 0.0003245953833288478 0.0002073487367725714)
(5.000384899621362 -0.001558627126338434 -0.0002614155803119107)
(5.000659102596911 9.238101425335724e-05 -0.0002002157762150366)
(5.000145032073879 -0.0008592473467880993 0.0007703509128500394)
(5.000407847414133 0.0006171652132227014 -0.0004494372137629286)
(5.000460770094199 -0.0004286265294617195 -0.0001814407513239451)
(4.996422047746534 0.0006017710539312115 -0.0007478881007035634)
(5.000473991025848 -0.003685526145890704 5.320008540409317e-05)
(4.999879384429859 0.0003085688963015419 0.0001224791632151979)
(4.973964792616972 0.03466417476388713 0.0820533470856339)
(4.997374441923094 -0.0004061469389906608 -0.0002075903321435048)
(5.001389659635395 0.001101655608044482 -0.003640910002642006)
(5.00030569416513 0.0003182167247536869 -6.047085812359785e-06)
(5.000250538952234 0.001306014888255288 0.0004757446562328814)
(5.003255132398309 -0.0006547291107416183 0.005583794162161238)
(5.000423275512534 0.0001350876126212164 5.101226895345553e-05)
(4.997336399028808 -5.315522296058731e-05 -9.263982634329805e-05)
(5.000317937942128 0.006029565023469226 -0.001708739160917699)
(5.000032539368331 0.0009392101911923848 -0.0006747855106692424)
(4.999630633199022 0.0009863783539172523 -0.0008651614190702874)
(5.000923940104642 0.0006321959171588056 -0.0001919914075065242)
(4.994314316427893 0.006646025998000855 -0.0001645907487267678)
(4.99887386174869 0.00280606814587681 -0.009630825927426484)
(5.000001937795595 0.0002910241290317028 5.866844697365721e-05)
(5.000724955712892 2.860468217535928e-05 -0.0007862074555547596)
(5.000878395843342 0.0006713866549543532 -0.0003081289391010463)
(5.000648507771811 0.000218925962952797 -0.0007558489228245387)
(5.000209209015014 0.00063790629288977 -0.001387245351146532)
(5.000340379359967 0.0001717907707087534 -1.372930365336232e-05)
(5.006102736778905 0.0008651993406379577 -0.00181144115230265)
(5.000204527935797 0.0001038767858198827 0.0002194283794318792)
(5.009219436664683 1.578207097212611e-05 0.001168637642303344)
(5.000521404105387 0.00146519362773538 -0.001019455490194354)
(5.000156884823621 0.0008239494529347542 0.0002229507675781558)
(5.001433393071864 -7.194515485150962e-05 -8.59008323510537e-05)
(5.000399507238837 -1.134836170395784e-05 -4.086275853080071e-05)
(5.000346759921325 0.0006178949322216399 0.000167633756850668)
(5.000104124946366 0.0001027840986401382 5.386609382937008e-05)
(5.000553712418037 0.0001360065278165672 0.0002447567226475242)
(5.000372009020775 9.538356409855979e-05 -0.0005653633899482533)
(4.999227760620055 0.002327495762774866 0.003522171636875562)
(5.000089415290312 0.0002617908863809473 0.0001599132173089739)
(5.000362845813899 -0.000298729161722036 -0.0001671967894492702)
(5.001690695949455 0.0001361647747541505 -2.14165665714312e-05)
(5.001032978857918 0.000574009765608136 8.308434473569636e-05)
(4.939779711037299 0.001977736692296078 0.05668369929495722)
(5.00047019420899 0.0007344083808287756 -0.0004228846129207208)
(5.000319027738003 0.001655546306470428 -0.000364211263457501)
(5.000340914249263 2.689867296014695e-05 3.261102254231153e-06)
(5.000581931594565 0.0009139754785386057 -0.0003658093323996505)
(5.000502065794363 0.0007094438201654266 -0.000387900600604071)
(5.000465078446947 0.0008084473653793304 0.003611611759179754)
(5.00082563143039 0.001232354803538112 0.0003772960464563451)
(5.000379415625029 1.766631375203602e-05 -6.869930495079934e-05)
(5.000108765732379 -0.00180696737064796 0.01210504626242116)
(5.000420978343109 0.0006684478768888674 -0.0004126216656589588)
(5.00045581527154 0.0007766977125687331 -0.0005789209659719083)
(5.000274845941656 -0.003410173908058869 -0.002883506769054473)
(5.000563971814231 0.0005726290968458223 -0.0004901618347195535)
(5.000371674937135 0.0006610269853681048 -0.0001874050976417867)
(4.997891874522315 -0.0006195778512528722 0.0001145885558565693)
(4.999958083211653 0.002463228418723751 0.007756960653350726)
(5.000646355830368 0.0008637029653619043 -0.0005948074885060805)
(5.000810968405153 0.00103257670705162 -0.0007540168391256901)
(5.002597382694435 0.004423361265423809 0.01059075376920657)
(5.000755808924752 0.0001891302896369229 -1.47022151530415e-05)
(5.009581561038195 0.00967465979063015 0.003424192573109812)
(4.999979138569858 0.0004662280864083006 0.0002521551333813303)
(4.999868684814155 0.001335076439932539 0.002449733003219377)
(5.000586554918732 0.0001807228012690502 7.050537179024187e-05)
(5.010827193142195 0.003920189647633244 0.002016214074619703)
(5.001407564562455 0.0001805942891590605 -0.000539018914413561)
(5.008579590254445 0.002072439602792089 0.001862544639356132)
(5.000689323559861 0.0006585380122469772 0.0002572976096724809)
(4.998052973098453 0.00471971875183364 -0.006625777718151546)
(5.000450049659025 -0.0008476810274084943 -7.776092043002166e-05)
(5.009785621404042 0.003983862591247585 0.001203345426781195)
(5.000945964197561 0.002969433371503465 0.0003247588224735373)
(5.005383504819162 0.00163456176968269 0.001692635474681133)
(5.000765136565313 4.189626924828657e-05 -0.0001138074704921471)
(5.000860538836508 -7.716313040011403e-05 -0.0001355434051888578)
(5.004598364037661 0.002034737872927622 0.00332274704497115)
(5.003123996879345 0.003240392629683531 0.004229155539108993)
(5.004445954351685 0.006002971780040714 0.005741456549134547)
(4.994871678439783 0.0007516442061817121 0.0003736771808430241)
(5.000342138687889 -2.142605154242964e-07 1.491949540460579e-06)
(5.00041329490903 0.0004663964611212638 5.536033731255687e-05)
(5.00034508578239 -4.147104124533263e-05 -6.169602568236305e-06)
(5.000173524033144 -0.0002389841824652581 -0.0001273513253762074)
(5.000317910787304 0.002039333148466796 -0.0009088169883487061)
(5.000862739842195 0.0002343411108933095 -0.0001211228042646416)
(5.001085317390453 0.009739695856402062 0.011212331922033)
(5.000336059211981 0.0002759408038137544 0.0002519122592019058)
(5.000267127860712 0.000221494671039125 1.410999285329945e-05)
(4.999775832633339 0.0003901859609066355 0.0003646917996146038)
(5.001581131517231 0.0007045401819823833 0.002473875673305306)
(5.00028680767359 0.0002508080442506985 -5.59896754379639e-05)
(5.00060341651661 0.0009039135586876654 -0.0006790368760371487)
(4.999038470899327 -0.0001017794941358542 0.001291285009706214)
(5.000112178113705 -5.353171202599987e-05 3.410198433749368e-05)
(4.987603273241936 -0.0006931720691955955 0.0006236514991249001)
(5.00110666903377 0.0007611451803102628 0.0001702247757219893)
(5.000355590484809 -0.0005277892765732695 0.0001739402142195783)
(5.000430801598619 0.001629943666607858 0.004884835063811227)
(4.998742221648055 0.001614365150569104 0.003542324587021681)
(4.999997033484013 0.0006269822860853152 -9.468794839106311e-06)
(5.00039578332242 2.660352414339626e-06 -2.578958555295029e-05)
(5.001004048440114 0.001251370034732685 -0.0006678006484907478)
(5.000816005119626 0.001527915857168625 0.0008855017323754765)
(5.000333175575229 0.0001769509166647726 -1.328524970856337e-05)
(5.003066785213553 0.001271265813030513 -0.0008651757297189542)
(4.99868198782493 0.000758223569629048 0.003354491920238829)
(4.999828703528264 0.0007818455594763701 0.0008600942977963863)
(5.003983924289048 0.002664905976125318 0.0002425949405595718)
(5.001967374492803 0.004108902782077386 0.006219466613725195)
(5.000755267167138 0.001022924167247469 -0.0005646655799134528)
(5.004821010792638 0.003468172301413537 0.004686899306248606)
(5.000197773016926 0.003702454487242741 -0.0008392538947041266)
(5.000497946564326 -5.018725850558128e-05 0.0001011706206098504)
(5.000227517307564 0.002572377435057115 -0.00149992103147313)
(5.007517547384881 -0.003793435735147069 -0.005219257442924005)
(4.993072930634463 0.006325438821751721 -0.004745360213068387)
(5.00728542016635 0.003150843712784815 0.002855224222829715)
(5.023657159837743 0.03507785659648764 0.004877396368971864)
(5.005778947087675 0.003539077207792097 0.003098184237498635)
(5.005439041058991 0.003664742004231415 0.001561768726342221)
(5.004847279852324 0.002637005015894144 0.001232023551799668)
(5.001035223503591 0.002037601959146256 -0.001565790946249876)
(5.000807454646264 0.001716887709931953 -0.0009498156628085221)
(5.000807545592437 0.00138995169556085 -0.001312570291603579)
(5.000489927181655 0.001690104463699724 0.0002691431301572444)
(5.000567226866988 0.0002473148672601234 -0.0001210989009595137)
(5.000458971843658 0.0009499986834200138 6.58206962478964e-05)
(5.000428812553021 0.0006333519627928994 5.301041425409425e-05)
(5.00057708962485 0.0001415359576249938 7.420511768354806e-05)
(5.00010705038648 0.002554267826352929 0.0005604792056452217)
(4.999822768605013 0.001590779287563422 -0.001473833189718613)
(5.000277723252703 0.0007720711164853709 0.000141125941569761)
(5.000101124146384 0.002110542090271756 0.0007233327565306485)
(5.000101401337102 0.0004766198708420767 -0.00013266781699822)
(5.008394970734858 0.01367307212179321 0.007242175650700176)
(5.00021671291087 0.0003554449042124821 -0.0001221800788323519)
(4.999164781366756 0.0008543674204106941 -0.0003485164516409634)
(4.999940930897687 0.002570705621422907 0.00110311864964884)
(5.000508055289003 0.0002134780454342155 -0.0007587117852707324)
(5.000998558967853 0.002671556596513904 -0.0007771360741470814)
(4.993972463849121 0.001499049818457989 -0.0001544375852014738)
(4.999888799577933 0.002713477718964915 0.001096254945186157)
(4.991228698741157 0.002128028246377119 0.00380247028364049)
(5.000346750655135 8.663344747899286e-05 1.881221390607912e-05)
(4.998158843213598 0.002000885797915478 0.006610203290066176)
(5.000322784829079 0.0001979381120446918 0.0001024918632074611)
(5.00048829560458 0.0007532726237478567 -0.0002798343649982191)
(5.000886382772726 0.0003199096826812607 -0.0002434547381434837)
(5.001470471295504 -0.001038219697421199 0.006824456666170336)
(5.000251295164419 0.000373805182415964 4.341962678463038e-05)
(5.000057507177353 0.0005177125717960708 -0.0002918655064561243)
(5.000973239459928 0.001841367408774742 -0.00120343225749276)
(4.998880767718165 0.0003109677793966376 0.0001585681034753866)
(5.000300491328025 0.0001796910060816073 9.468221837784028e-06)
(4.99971101687493 -0.0005226820329258093 -0.000109301612921586)
(4.999979951326775 0.002828049948327192 -0.000114835605825407)
(5.001174942592653 0.0008137497141094569 0.0008813447809736866)
(5.000890706900521 0.0004558474348199753 -0.0002934692491589886)
(5.000027092205636 0.000254989375669226 -2.914185970835095e-05)
(4.999739772864688 0.002281668250267551 0.000514300280264117)
(4.999627378087985 0.000637171821711153 -0.0007583128020744625)
(5.001648236752551 0.0007539677748948009 -0.0005843878982383712)
(5.000188891251909 0.0009598304601879617 7.14109162545275e-05)
(5.000248260010539 0.00815230285229312 -0.0003721192921275898)
(5.000012459461026 0.0008295467457118161 0.0001484782949006087)
(4.999316843082603 -7.586017586971209e-05 0.005792245718769205)
(5.00043315974028 0.0006431973045896551 -0.0004607595696227858)
(5.000599833740962 0.00044301053456263 -0.0004786336604095528)
(5.000189494879614 -2.00707038796027e-05 6.142202518495703e-05)
(5.000715941009693 0.0005239299431625122 -0.0005593184166545311)
(5.00068186494178 0.0002720964144985203 -0.0003041307608431917)
(5.000064472163067 -0.0002286897507191644 -0.0001427500111470779)
(5.000366242472611 0.0009900546107409198 -0.0004512253641004089)
(4.999918165873712 0.000430264706559421 -4.874178365073646e-05)
(5.000297628873379 0.0006542798779636352 -0.0002717323738812521)
(5.000572543556096 0.0005370696801433248 -0.0002273962441057936)
(5.000165305440463 0.0001725620651270133 -7.816936023745817e-05)
(4.994217892835206 9.906909117934586e-05 -0.0001447885401916999)
(5.000009036331384 0.0003728039800282866 3.620947141283413e-05)
(5.00286886547624 0.002515355584266062 -0.0009976610483651632)
(5.000503158714054 0.001288605785290005 -0.0005847758280681202)
(5.000358442187757 0.0001460034070597914 -7.564238092046074e-06)
(5.001611278770159 0.002122309578878593 -0.0007336026931975795)
(5.001850761305366 0.001014744518336451 -0.001030250440503021)
(5.004060100701543 0.009131374115869931 0.000550868526900222)
(4.981018373296394 0.001695630534164381 0.0004470365932108855)
(5.000683705212365 0.001330773066205955 0.0005975843272466628)
(4.999598857974536 0.0002723263982047629 7.792076601923532e-05)
(5.002303157516703 0.003087278659747175 -0.003242967883637409)
(5.00092176756095 0.001746812322454828 0.0003229701999769255)
(5.000337361537064 0.0006509136667242518 -0.0007067535350041949)
(5.000108012388608 0.001294170075290165 0.0005146749399411678)
(5.002351234354096 0.0003526589013415951 -0.000387959874963343)
(5.000709014704285 0.001147660381259831 -0.007406112539263729)
(4.986820191514292 0.00127452355360549 0.0002729537099221477)
(5.000225017660323 0.001738547316863487 -0.001307561013905424)
(5.000574429636288 0.002113608230549831 -0.001143172186950154)
(4.99983218675225 0.001341800725555291 -0.001465878024653956)
(4.999974379305225 0.000209161962004612 8.227639246618258e-05)
(5.00008137434618 0.000309856349093177 -7.646030075609385e-05)
(5.000067617466031 5.54977540145444e-05 0.0002644180010825524)
(5.001311181203476 0.001137309484564533 -0.0002594701486687862)
(5.000239316352152 0.0002094299368973327 -8.342888812866199e-05)
(5.003245470306759 0.0006677867323979142 0.001957382777099032)
(5.000016389435061 0.0003548778441633519 1.802545183435859e-05)
(5.001057901621374 0.002312197711278789 -0.0006954037726001561)
(5.000380690678439 0.001712944496723082 0.0005413867562472631)
(4.99552482586367 0.0002927064946457492 -0.0007276326935359191)
(5.000604227162627 0.0006345847285409174 0.0004438102806042534)
(5.000240548727191 -4.738642447978629e-05 0.0001173332495310057)
(5.00056118825376 0.0007475327446554831 5.222227690054506e-05)
(5.000678442658718 -0.0001863520620079571 0.0002388903058783755)
(5.000459825475345 0.0005695244095690362 0.0001126427415210543)
(5.000566548128226 0.0005675052367133827 0.0001018025666134971)
(5.000136682943018 0.000436298998227358 -8.231998817085251e-05)
(4.998049298930215 0.002464619284115513 0.006252434179038914)
(5.001087294831648 0.0002178699693351016 -0.005697959244208304)
(5.001079472410955 0.0006936612948501145 -5.3232348895091e-06)
(5.0005210733673 0.0004787122167952021 -6.337425312524365e-08)
(5.000281974352367 0.0005384691488383836 0.0002221141631369083)
(5.000670013647295 0.0005363895378259527 -0.0001920551956619442)
(5.002968575360591 -1.384668663597034e-05 -0.0001586761446036516)
(5.000282750080787 -0.0001114542442994822 -0.0002279937219644153)
(5.001193569410409 0.001174530012706647 -0.0188247899722595)
(5.000441847805219 0.0007592055173423194 0.0001234580324596566)
(5.000510405755473 0.0004686595959477043 6.955835944257527e-05)
(4.999223035665556 0.001220583679744717 0.0005881090763566221)
(5.003035405079417 0.003381082271447175 0.003161604325375959)
(5.000545371620595 0.0004935783075200496 -3.08140143089234e-06)
(5.000201901719316 0.0009231344475827904 -0.0005161426327924356)
(5.000075461058303 0.00313985803786557 0.0007973338747434048)
(5.011096414296887 0.0141581702414197 0.003258222745387934)
(4.994151831048902 0.0002104556071513415 0.0006752497280732405)
(5.00410730976015 0.001574957207615499 0.001413580539058371)
(4.999565377439196 0.001419208349579818 9.871344629551845e-05)
(5.003241606300747 0.0007612192764048012 -0.0008378400121107196)
(5.000527486577143 0.0006413695802116982 4.331129181790798e-05)
(5.000403529395468 7.687762882409492e-05 -0.000235917802602257)
(5.000411843739655 3.071657585493183e-05 0.0001537186182034773)
(5.000345393840548 0.0003317356160020994 -7.75155245198894e-05)
(5.000397192773909 0.0003546980182278708 -0.0001560883528724344)
(5.000410247002017 0.0007628116125573587 4.888871555982014e-05)
(5.003316715590934 0.0004358253463289118 -0.0003397339225345145)
(5.000634442407563 0.0008103280363562539 -8.245606642832775e-05)
(5.00112293661705 6.0982502851527e-05 0.00016349066454975)
(5.000052317520129 0.0002621420163381971 5.96842264497271e-05)
(5.000355743331331 0.001615733218537912 0.0002023083806303561)
(5.000317583830518 0.0002425804840988316 -0.0001520197356905727)
(5.000261184231245 0.0004388663057929254 8.325492459089244e-05)
(5.000457791034981 4.684177360940607e-05 -1.114767444828078e-05)
(5.000746115870117 0.0002900012195549609 0.000477975575328483)
(5.000612656216634 0.000625619552439489 -0.0001522629052219448)
(5.000041350670624 0.004938277905752786 0.000263160084907122)
(4.995222596741659 0.0005593820311879772 1.317124549073814e-05)
(5.000079750235016 0.0006612028983851046 5.965818472829851e-07)
(5.000391671679528 -0.000148762776541873 -0.0001334206751624849)