/*--------------------------------*- C++ -*----------------------------------*\
| =========                 |                                                 |
| \\      /  F ield         | OpenFOAM: The Open Source CFD Toolbox           |
|  \\    /   O peration     | Version:  v1906                                 |
|   \\  /    A nd           | Web:      www.OpenFOAM.com                      |
|    \\/     M anipulation  |                                                 |
\*---------------------------------------------------------------------------*/
FoamFile
{
    version     2.0;
    format      ascii;
    class       surfaceScalarField;
    location    "0.4";
    object      phi;
}
// * * * * * * * * * * * * * * * * * * * * * * * * * * * * * * * * * * * * * //

dimensions      [0 3 -1 0 0 0 0];
oriented        oriented;


internalField   nonuniform List<scalar> 
37423
(
-0.1098823194679417
0.4256614314266045
-0.4546303601970791
0.1388512482359208
10.88852024108525
4.857814471372208
-15.74633471248596
1.580290787512461
2.848757069787822
-1.477222078031096
-2.951825779256209
0.6055188466220369
-1.165517768297735
0.5599989217082058
0.1184075863937773
-0.1658229949774066
0.02853654419357822
0.01887886439612891
0.04602120868111634
0.1476367897802546
0.3030445096964824
-0.4967025081382354
9.161423952041257
-4.65618222629672
-10.85488060360299
6.349638877860778
-0.07127093831432194
0.07842330911293412
-0.007640541025537762
0.0004881702365603309
-0.1912501471362218
-0.02292385376851896
0.413584261498017
-0.1994102605847082
8.635332916362554
0.684264566143771
-0.4785998641483531
-1.396631794574926
0.4443635013679464
1.430868157364637
0.3020554943054588
-0.5518448102433879
0.7629565211167549
-0.5131672051414223
-1.071344912926281
1.37547440763022
-0.3041294946914476
-0.4540214805044615
0.4936556860161316
0.6003382641372169
-0.6399724696172838
-16.28147015097882
8.934381575982769
-0.06142274182763647
0.001061352145948624
-0.1189862031680501
0.1793475928578298
-0.4676015328495456
0.8134161526755936
-0.04375912550280305
0.2068432415539113
0.05076805762118088
-0.1816506396749812
-0.07596065948794373
0.1061872720684102
0.02490255982693939
-0.004427686577883564
-0.1266621453080198
-0.02357873253951757
0.06953541523459886
0.03172503314742375
-0.07768171583395342
-0.2179794236056137
0.3815228608021506
-0.425507150299574
0.2619637131104
0.4066884840568944
0.6728794012827783
-0.2614344371965346
-0.8181334481176735
-0.1173037677686204
0.1275592342461369
-0.1128481425792693
0.1025926761099719
14.79957182663554
-17.66357139728946
-6.357573719826089
9.221573290405077
0.5847819159285323
-0.06870388095165357
0.09134493844825343
-0.6074229734214168
-20.47651348428558
9.374960312603188
11.101553171678
-0.1827537468658783
0.13279622278736
-0.4176440087557189
0.0913377700379038
-0.08764725525411647
-0.1948260993807333
0.1911355846040682
0.1686933091966841
0.01341413801090575
-0.1803341041595753
-0.001773343033328584
-4.260456113600853
-22.44329516545224
2.757219106938092
23.94653217200697
0.2142315345762666
0.3968043895224727
-0.1528911568063496
-0.4581447672796252
-0.07906689768455231
0.699986916323874
-0.01337112649926392
0.1090272420163634
-0.1074117093437133
0.01175559383620601
0.06224486574152664
-0.6367671491084081
0.3315556275901401
0.242966655798329
-0.02166258176063291
0.07068332740624657
0.09040420253770692
-0.1394249481690252
-0.03937759426746948
0.01066324331734137
0.123728935876644
-0.09501458492042439
0.2683160815047855
21.62435685347974
-19.54956000214084
-2.343112932848824
1.143856519257489
-10.31525941998131
9.315003703395137
-0.1436008027276208
-0.02380202751071221
-0.04646018395233252
-0.1016852653842849
0.1719474768561078
1.606260022014818
-5.70430081664943
2.382546042827995
1.715494751851927
-0.1540592814249629
0.009854350967288259
0.1652826807684309
-0.02107775030581647
0.5553069312062739
-0.7031978153585712
0.1934741348279425
-0.04558325066783697
-20.99161436887173
3.666813196052016
7.171154837357023
10.15364633542559
-0.2201655944133214
-0.9236329248158262
0.9975414517212019
0.1462570675477825
0.3842969879695839
-0.004303775423481453
-0.5339560482786415
0.1539628357317893
0.06147851006229096
0.6599359635586656
-0.07737729297817318
-0.6440371806199507
-3.60046712948494
-21.71235037992733
22.59411752977499
2.718699979629431
-0.9466816429575559
-0.6785525152109332
0.1788425681367125
1.446391590033846
0.515295603288996
0.2490275014677043
-0.5183572946943322
-0.2459658100538175
0.4186392872576145
-0.1843840538400487
0.370298477520987
-0.6045537109261903
-1.048020249739033
-9.891556329950221
10.9395765796233
-0.6615723285213548
-2.834137327971425
1.158796944974307
2.336912711658379
-0.2473951676443358
0.5869675572207778
0.02316539803325876
0.2073911995160226
0.0501934326717362
-0.2807500302076631
-0.1329439300903339
0.04262734360243643
0.1127091642529339
-0.02239257775734077
-0.5341992697750462
-0.08468714856823588
0.1008343103861874
0.5180521079920054
-0.09050539181581886
0.5874356561690632
-0.8647605940850629
0.3678303297466326
0.2688892803594986
-0.07416100216342622
-0.0193858743130852
0.01253516202808611
0.08101171445296046
-3.21694063165993
-0.5610486062634464
-3.059322581617896
7.247527613315302
0.05735382762395939
0.04604902334211767
-0.0371155195706097
-0.06628733138965104
-0.004999445667478425
-0.09344062004257081
-0.004022927944278281
0.1024629936595489
0.3885964236285943
-0.3770813385047009
-0.1330894014879268
0.121574316382366
-0.3117742090120628
-0.1593351795742175
1.143988789893739
0.02493996181935604
-0.1128577719480377
0.01122324092779669
0.07669456921145028
0.1150938635118261
-0.2976107985345947
-0.1582623511779166
0.3407792862090225
0.3377769175437028
-0.7835954085648187
0.2164932160529242
0.3656696761524847
-1.147345247756334
0.5651823555682159
-8.541185941438684
3.965591578173553
-4.775481830047895
0.08264705966064806
-0.04215374244586055
0.01417755141324954
-0.05467086861617039
-2.393411386142578
1.028797489882593
1.108761700917222
0.255852195365146
-0.5265603044412128
0.531997332132065
0.0920657435912231
-0.09750277126069722
0.01197924748877781
-0.2767186224729151
-0.3645766971367225
0.6293160721238897
0.1137221396484358
0.08318893979706335
-0.1532219589124491
-0.04368912052189238
1.673716053997851
2.984061620762186
-0.9490010249624359
-3.708776649717958
-0.01399975473557248
-0.396824195455087
0.7150784486854774
-0.3042544984585883
0.6801774746344497
-2.025093295125687
0.3926981662886832
0.9522176542287788
-0.0362786888027891
0.01841760240878375
0.01786108639920606
13.83006318131008
-1.129181574115387
4.761480626617939
-17.46236223385484
0.7337693912546518
0.07272515736655862
-0.00788634002504395
-0.7986082085838186
-0.1766373252899634
-0.5298506092057935
0.03464449343739741
0.6718434410699512
0.3315419584122948
-0.1514238574784272
0.09905102371302929
-0.2791691246314913
0.009320651024496605
0.1238978239385784
-0.1217792360546409
-0.01143923889912164
0.0510925173981221
0.0327559813576424
-0.0838484987503991
-0.08309652248344465
-0.5240510962393593
0.3597524510790325
0.06888544061361088
-0.04544861531624413
-0.109197911493206
0.08576108620533289
-0.09118601314775963
0.09319590506949575
-0.002009891915590458
0.05852054675386897
0.4301288726169697
-0.06005944656211071
-0.4285899727966193
0.07042154167906674
-0.02988294436426967
0.1475364263470982
-0.1880750236550833
-0.1169523312284353
-0.2281099043389767
0.4601560990839093
0.293035773138331
-0.01318371483493323
-0.03287294288394053
-0.4577377640271635
0.5348874145802638
-0.0442767076575668
0.1609967162418107
-0.01417194375010433
-0.1692355024255047
0.02241072994866859
0.01358645252281539
0.06606469927541361
-0.02765784638180641
-0.05199330540895018
-0.1051324114266715
0.5107768655280024
-2.067004153358465
1.661359699288898
-0.7960505804414159
0.7684675214699458
-0.1299617671421723
-0.1448500682889068
0.1999031008600145
0.4247000113041496
-1.178255550104838
0.5536524379598412
0.46646238502386
0.01934617339753951
0.07564391793785979
-0.06942442849765859
-0.02556566283076475
0.05274992823925662
0.06835210924994342
-0.2314270229683821
0.1103249854881447
-0.6220125529023182
0.5871396828062542
0.2339259655562376
-0.1990530954503197
0.1016953680059912
-0.04873684598220866
-0.1258487503480435
0.07289022833195807
0.1101633109879865
-0.08771485775900063
0.507875272088287
-0.530323725311583
0.06086402642271536
-0.0767078335447073
0.1184772365497887
-0.1026334294188938
-0.09895552100916166
-0.1499867737974736
0.376300768260732
-0.1273584734563616
-0.3230695648684699
0.4707483019912092
-0.246634258134855
-0.03440495235197137
-0.04291469083362161
0.1661718523809438
-0.08885220918709885
0.1220187144709803
-0.04794504295727611
0.08621220775594564
-0.1602858792610987
0.09512981870943152
0.008359838868212996
-0.001838755168887199
-0.1016509024029399
-0.07212483308731224
0.0317737925551167
0.134548346207204
-0.09419730566027286
0.4258747758027755
-0.5622058741580476
0.1141338976908566
0.02219720066872455
-0.4293476126091421
0.6556921580012048
-0.228156957885796
0.001812412506374214
0.06800994528135708
-0.2287933196764355
-0.2060118958225327
0.3667952702271494
0.05626668622183695
-0.0367104946122495
0.1122603130116173
-0.1318165046140265
0.6138107513877797
-0.3569963957961644
0.2876410139013265
-0.5444553694677117
0.09928493049878741
-0.08540096759385084
-0.02554851595000059
0.01166455305334807
0.1115513706495563
0.3189802662994999
0.03593074808770379
0.4551397004147781
0.1884090023751723
0.6950584175632467
-0.1141206090434285
0.2151583282442123
0.782570598406559
-0.3026705090744747
-0.2481044391032396
0.1563677210512241
0.1994331752498764
-0.1076964571891561
-0.5258421017030462
1.299367480849798
-0.5605087478552343
-0.898193912556071
-0.0315870651112758
0.08739485513287991
-0.02134128900120067
-0.03446650101151628
-0.1343439926603625
-0.5218625983568107
0.3629049119655469
0.2933016790947823
-3.182252683271818
-2.981156684841918
3.796888393720439
2.36652097435106
0.3498202838177978
-0.3406979747781755
-0.6176763940843889
0.6085540850687203
1.819066661156681
-0.397317223751125
0.4702020725356374
-1.891951509940608
0.3537694159381906
-0.5295766311258315
0.2380520809447529
-0.05348645660919058
0.3368345334496777
-0.5412408449596248
0.2578927681265205
0.2018178323899378
-0.2150541048933163
0.1032999104870029
-0.09006363797085129
-0.1293810981152401
0.03929725806877699
0.317437117082587
-0.2273532770236417
-0.08114382074350944
0.01583361868348752
0.06181803321642713
0.003492168851098244
-0.2539348842197007
0.02178813039780354
-0.01467328362242455
0.246820037454005
-0.07661482340722979
-0.5070682014064054
-0.01137687892152565
0.5950599037512821
-0.2116449955683442
0.1518116898833005
0.05983330568893844
0.2223924087753364
0.02873465907000935
-0.1677503700002037
-0.08337669782839978
-0.03142151398223933
-0.1467759196594073
0.2108107876224415
-0.03261335397098289
0.2186582253555369
0.06967044920409329
-0.1047344612980485
-0.1835942132521115
0.336860469797163
0.2242026722301229
-0.758522646441872
0.197459504431874
13.68702240166823
-9.165753267152946
-22.54405643631788
18.02278730176406
-0.5745534537299805
0.01881916489186182
0.6133424064213616
-0.05760811756341072
0.1226997486565237
0.03760863117846552
0.002130551888099757
-0.1624389317088853
-0.07270043804671387
-0.5291112852520906
0.6079506805389786
-0.006138957233479128
-6.780615734409163
-5.404519100624345
-17.39837974558532
29.5835145805252
-7.671048311620793
10.95466007078416
4.232305490663103
-7.515917249792659
0.1123620970307855
-0.09959060938438201
0.05591107616691234
-0.06868256380478666
-0.4682746632230202
0.2322869839321315
0.07915608080198545
0.5351028489911812
-0.09943309534824235
-0.5148258344303001
0.2314134632085483
-0.1195880115503494
-0.2618122254517139
-0.2899025948720014
0.5048733652961652
0.4218944706459797
-0.6368652410460132
0.01295874547704063
-0.1430318609380272
-0.4460893631940556
0.7542724447981191
-0.1651512206489958
-13.63458647291472
6.12591195786754
1.085733558696718
6.422940956310413
0.08802721731551903
-0.007240180129329214
0.1649072588410016
-0.2456942960173938
0.102750856492869
-0.08601585371404369
-0.01673500277281332
0.1226614652451862
-7.545691920284898
7.423030454980472
0.3895117509367752
-0.3636567829783314
0.476257579642176
-0.5021125475898962
-11.15931910906482
10.56666015730875
10.68557493292061
-0.04288009729449
0.5244575918239918
-0.08817705838539808
0.08557899477651802
18.0682535619259
-17.99377696955026
-0.07447659239845184
11.89350466520573
-23.04036699798459
11.14686233277808
0.8878445226840314
-0.1377987798548822
-1.544075382133219
-0.08937885899801853
0.1602032033317215
0.008052408091963368
-0.07887675241961641
-0.113399579621897
0.1817412277317857
0.2273954141164523
-0.295737062224307
0.4666747680955642
-0.4380082217134852
-0.1972286518824254
0.1685621055084708
-0.1316139704739929
0.5430850961621386
0.4293646981554026
0.09704941551673056
0.06102154250580007
0.4860081342347116
-0.6011686096159363
0.01765770413501057
-0.3076417289199451
0.1051723220781901
0.08288139529386111
-0.5382212420652188
0.8963898777423859
20.84507074265439
4.723110765020246
-26.46457138539438
-0.5762483184642133
-0.21509590962515
0.4965616920648263
-0.4029853797140761
-0.1415307152354675
0.04795440289462278
-0.045058522567289
0.2139744841920676
0.02369814432231037
-0.1926141059412803
0.3343803010129154
-2.643987403636975
-9.538346358196314
8.965393130119724
-10.46657253896012
6.265100589762882
1.557484545522545
19.65671645820111
-9.438419762612865
-10.21829669559523
1.092207625003003
12.40558736647026
-12.81353042536328
-13.7009114778473
5.833345709061434
21.18001586160521
-13.31245009281564
12.54423113884392
-11.56804961558079
8.571022588844132
-9.547204112093157
1.151228127294075
-0.6096723967263147
-0.2539147166372939
-0.4836196414133305
0.5773286741536606
-0.1365891300303959
-27.45364379139514
10.17483447391058
17.27429860259024
-0.01799008058657273
-0.1328224113832093
0.1892585893707809
-0.03844609738780744
15.94819327966062
6.709157792728527
-38.28017689314319
15.62282582076504
-0.05734341870832756
-0.6001482846220173
0.0529379924082528
0.02695247385831873
-0.1474063993478294
0.05537113246648106
0.06508279303320567
0.003387400980609285
-1.661007741019304
-1.965789455640485
3.937150173127542
-0.3103529764264291
1.845776207465658
-1.193924902853754
-0.1075152711316777
-0.5443360334574008
1.389191823039338
0.09389910845157598
0.487467968298833
-1.970558899758499
-1.137021941650359
0.1317288104814587
0.1785517569245572
0.8267413742929113
-0.09991442339183274
-4.703052551644946
-5.207376909066692
7.356731050918529
2.553698409819041
0.73166625401979
0.1826331548796004
19.38323370530144
-20.84292506513978
-12.24122011797843
-0.168524066336786
0.4530386962093025
-0.5096770542230665
-0.2872076848647106
0.2750221407568009
-0.386693002717713
-10.15171429873146
21.62112936956902
-11.46941507085908
0.7632783712397226
-0.5838120880468939
-0.705308384872835
3.878295254020325
-0.006845315948950602
-8.574502489698876
0.06735741923697003
-0.03299350242819877
0.04668980974741652
-0.04492969148168983
0.03123338416627492
-13.80918343493119
14.87840458412579
-0.1923075237853202
-0.01544076270608919
-0.04015550603641284
0.2479037925452339
-0.2359926286548199
0.01116821818470716
0.3124400722505119
-0.08761566177148948
-2.761671119535049
3.545010014420722
7.19718655532858
-8.783576221705818
-3.189092163689178
3.92111903982273
-10.11394692241306
3.431156763020566
-0.04042758567182287
0.04066228476109842
-0.1043199356670065
-25.23628053588172
0.002140360813493523
-0.006272404548317907
25.24041257957249
1.860070550914638
-7.99518863598892
1.921239713852185
4.213878371335519
1.89917782720002
-0.3957768103623031
-2.944168001010758
1.440766984208549
-8.731817030180796
3.889715239809736
36.31229310208003
-2.956553215171994
-8.455953741554525
8.141593614566679
-0.7826565208988432
0.05237171287709799
-0.05608445375714509
0.7863692617931047
-0.05592553508574249
-0.2737617827641329
-0.1396774775251515
0.4693647953970234
-0.3546783180480035
0.1715751945063824
0.04337762930614514
0.1397254942570701
0.05368350621308805
-0.04436285518286743
0.0540687917272514
-0.04825903973280717
0.2103682815908535
-0.216178033574413
-6.556219611913995
6.551304213046101
-2.938486459237135
2.943401858155449
0.0006681813306840636
-0.0003330354328535768
-0.0003351458967900619
0.0006681813311347605
0.004074858179121744
-0.01725272181594528
-0.1563942424605738
0.09542782689304248
-0.02212280371209506
0.09225875030668333
-0.1655637734780743
-0.1753254194293527
-0.3287177922020282
0.4562907126499272
0.04775249899215104
0.4041457740912696
-0.506987167746902
0.04063929207362508
0.06220210158664779
0.178371182255525
-0.2648937071840829
-0.09905087115003813
0.1855733960884827
-19.59463897077568
-7.863476445829419
-0.06599515455502533
0.1726195871790592
0.009431485383148886
-0.1160559179964855
12.98668920306287
3.745534176247995
3.364295435775118
0.02059918106260623
-0.3549574779716776
0.04201785205848309
0.2923404448648392
15.42987505360014
-14.00919989465965
-9.719544544268635
8.298869385326279
37.63649385188555
-19.55605596344212
8.122128765559372
-26.20256665400812
5.261675043994304
14.74340153132722
-1.464606359126289
-18.54047021620843
19.60175066370102
2.855766134514395
10.95259880198151
-22.8307393152063
11.87814051323784
35.21243580074589
4.956440639588745
0.5933332509816071
-40.76220969139578
-0.07567191207006049
0.1368564492478307
-0.2513063926246861
0.1901218554597796
0.1929359287206663
-0.144532316471464
-0.6175114166527532
0.5691078044015361
-0.1487629918292696
0.3006208038390304
0.07430648133712549
-0.226164293331745
-0.05910796846287421
-0.01056279477727321
0.09370797199740166
-0.02403720875380586
-0.1289831173841852
2.010380354904545
-0.38290212864482
-1.498495108855007
0.2860946509930658
-0.5253400481176738
0.2055939123129029
0.0336514848158747
12.27151868982699
-5.708413232617417
-6.56310545723072
-0.2375437976232199
0.1244764921762678
-0.04283588171114219
0.1559031871660056
-0.3537045706331433
0.4963576062115528
-0.2122845174719318
0.06963148190622653
0.1743185154931929
-0.1202497237619925
-0.08908930557445974
0.02023188000353673
0.06885742557491061
0.6697154190419327
0.4890467539708715
-0.5132996339716961
-0.6454625389919983
1.931434436186442
0.3813999799376754
-1.082593628859282
-1.230240787222986
-0.138176794624
0.1052975129740211
-0.09987670922009219
0.1327559908806379
-0.05200846509916387
-0.1396455667083724
0.08692197581712126
0.1047320559998232
-0.8325515427444516
-0.7365360470491235
1.743301585199805
-0.1742139953848398
0.3620868854163468
-3.865967025131658
3.330474827504931
0.173405312267545
-0.843136133289261
3.417397811653728
-2.609648293302524
0.03538661496368986
-0.4744315366347954
0.2359549671238087
0.3056680743977548
-0.06719150487226577
0.1734679429768495
-0.3141804765535559
0.5184911820109093
-0.3777786484219831
-0.09325344797537265
0.1041817179838166
-0.01092827000157919
0.1202762050933726
0.1740216942263425
-0.2942978993177956
-0.09664280630017949
0.001986094766954403
0.1082665238628184
-0.01360981232298611
-0.05668483240869512
-0.09514722746566766
-0.1074679786093981
0.2593000385010242
-0.1055760281858775
0.1358657160321585
0.2194752209915238
-0.249764908827906
21.18091640394112
-13.61727314631722
-13.98871166580516
6.425068408146514
-0.02125731461240591
-0.07085767442627519
0.003661040802027011
0.08845394824368454
-0.04665897665317285
0.05898068616966314
-0.0123217095138351
1.978859480593933
-2.577127629880657
14.55258808247368
-7.004025918187623
-7.548562164310376
0.05313751443355913
-0.1352716117002662
0.009760595431198874
0.07237350184277369
-0.03744613403970846
-30.3669323226106
-0.007801882786590366
30.41218033940785
0.1180652184695433
-0.07232190019838715
0.2181422703393429
-0.2638855886010564
-0.04756049257946816
-0.02636555435530472
0.06702146089263537
0.006904586048295926
0.06080076944079795
0.6328616657369023
-0.2558939720939552
-0.4377684630551253
-0.06972934504857504
0.001473098021386446
0.06825624703400245
0.02069953387715213
-0.02304293968365502
0.07652173078002124
-0.07417832496729906
-0.01275392696561646
0.05245920081888544
-0.02563360758421011
-0.01407166626248115
0.07347346175947105
-0.04452650648045309
-0.02894695527340146
-0.00433633340521061
0.09325778488454221
-0.08892145147319307
-0.1288755349324407
0.5689575411313595
-0.4182969391654065
-0.02178506701817861
-0.01208478736762466
0.1025234803902091
-0.1062808141988029
0.01584212118499163
0.08714206421025882
-0.423597611589366
0.4146717535440646
-0.07821620614010588
1.256598116666624
0.5126376941919903
4.21945621078278
-5.988692021615939
-0.2820032935432162
0.1371226358995373
0.04420414421972336
0.1006765134346712
0.1024887407717801
0.03669761611322483
-0.1391863568766182
-0.01446401142379488
0.1428475454826598
-0.6237025981733731
0.4953190641318867
16.48815396269677
-21.12342467870226
-0.07516429595682721
0.1493477387204501
-0.003116227148791762
-0.07106721560876095
-0.5356284607333176
-0.01821994387949685
0.5538484046482941
1.575707603853324
0.617494012070181
-2.272001392073376
0.07879977614569954
0.8439790848205327
-0.03066131573887701
-0.7058894653296298
-0.1074283037404677
-0.26123295224987
0.3128018534072819
0.08721365159205573
-0.1387825527373753
-0.02149573354494625
0.4012947643802722
-0.4217054228306677
0.04190639201421149
0.1332175287020169
-0.2934609240174073
0.1653671819716479
-0.005123786649408955
9.894604168805968
9.906481059081976
0.05691706280684057
-0.4606902780100737
0.06935705901514762
0.334416156197425
-0.2225148743111959
-0.4407571652715065
0.5894655516936996
0.07380648789065661
0.01769292022359917
-0.1982252385414549
-0.02221632886482258
0.202748647192153
-0.2785776061337917
0.008400901732413583
-0.006537005687956673
0.2767137100998591
1.429480899663937
-0.5637452829876467
-1.673896036008404
0.8081604193663904
-0.0289008860621874
0.1243532614980788
-0.1068430860232365
0.01139071059833673
-0.01428721759057448
0.02382674704598281
-0.1036133929692645
0.09407386351964711
16.13481998022538
-23.66836527198291
-3.143670840066165
6.29057789405726
23.04116280048351
-1.384382588142866
-0.1829971012186785
2.17699997564093
-0.609620286263674
0.1669713995824997
-0.2659418934332732
-0.2477286832294704
0.3466991770878636
-0.1104122258714263
0.0201892347052276
0.04349975707171524
0.0467232341018775
-0.1160960668796136
-4.604236627918129e-05
0.0993350157424711
0.01680709350787788
-0.1378095235662681
0.1797072086960809
-0.06569971263231852
0.482915426419229
-0.189612818768061
-0.3943206010386311
0.101017993399984
3.254649382588501
24.67561623663486
0.08630443950535512
-0.04755493752403749
-0.2378714660948617
0.1991219641249694
0.006821461535579403
0.3853242847314345
0.07955042866881144
-0.4716961749233055
-0.5459960598843797
0.07012398183914324
0.07600839906432118
0.3998636789945723
-0.5149354159243414
0.05146803762287511
0.2547352034592822
-0.6167357926961158
-0.04169558556202755
0.7022147706352629
-0.04378339233139555
-0.01781888784569842
-0.2523978141935048
0.7429421938387795
-0.4727254917749387
-1.773800747225917
0.09690303124024102
1.676897715986975
18.60119728321488
-7.359979934777407
1.745471854631496
0.1567128355429858
-0.270264833569264
0.04700474389851293
0.06654725414465576
9.016822127248007
-32.50316215271094
32.21293785907925
0.05470106080531777
0.09907866639657904
-0.1010297989568305
-0.04278112229166095
0.1613233599838793
0.001049192731938661
-0.1195914304170428
0.05898401473279419
0.03702971918508616
0.04459091728192702
-0.1406046511935074
0.04073500485262786
0.2590628974638463
-0.08408433075405188
-0.2157135715530456
0.4262611155821479
-0.2997577320942274
-0.5118682001716974
0.3853648166986964
0.08566265788395171
-0.0286096203221626
-0.09098272561159684
0.03392968805517562
0.4809041999689568
-1.105525910871346
0.2520923933178361
0.3725293176206453
-0.1010211839802149
0.06024678830970283
-0.03438990028219981
-0.07247378607022918
0.06162356537716979
-0.1226947118759124
0.1335449325739508
24.10888323292177
-12.90802233668582
-20.76591866858505
9.56505777234047
0.2159425688490091
-0.1863493865327078
-0.02959318231012367
-0.31568090568761
-0.03776432103461633
0.4554561920275167
-0.10201096529625
-11.60725010843794
14.86874401380727
-2.143264864897887
-1.118229040424534
-0.01977027836813698
0.1166132701316845
0.01661748815441434
-0.1134604799117606
0.0627586177471051
-0.1852532237477245
0.1040013608532546
0.01849324515608701
-1.289564227065741
0.9667294103895162
0.444955730593398
-0.1221209139050482
-0.02421099841334
-0.2051502073255551
0.2035855219417733
0.02577568380439394
-0.842449863307758
-0.6237113417537458
0.8564888083482683
-0.9803119444785413
0.2157769964275748
2.545836364891447
-1.781301416846699
6.938035883137139
-17.36612526927543
12.4132016140904
-1.985112228057615
-0.1111308514977741
-0.5259767039395559
0.745237005149741
-0.1081294497134951
1.57427004909242
18.28984582503844
-23.46458300360043
-0.05110636444097866
0.1058798323615137
-0.04333852550187187
-0.01143494241309037
-0.5167339305801543
0.3174244961388723
0.2340862083653768
-0.03477677391122707
0.4962222315994081
-2.146630737926456
0.6865877981147888
0.2199770893350551
0.07138502155862642
-0.1906052744211615
-0.1007568364612048
0.4926099188596412
-0.04321683284953896
-0.4861376652005551
0.03674457918904264
-0.09758045678191889
-0.4066164531974535
0.3291148020022419
0.1750821079895085
-1.753530803421295
1.650367904640617
0.1031628987900316
0.1297125432651162
-0.1283597345938983
0.01889162332906521
-0.02024443198987663
0.01382618564356174
0.11163834108599
-0.1076043073888358
-0.01786021933234254
0.01117752027560872
0.0159178480325332
0.1198819935853296
-0.1469773618857366
-0.02042037417993647
-0.08583718761038041
-0.05926316638160091
-0.0103850181640739
-0.3153841597890066
0.06743680007874012
0.2583323778813796
-0.1465024687506485
0.07929562552794699
0.1126614056645594
-0.04545456243326172
-0.2265797835067494
0.1217693590693926
0.2172523977254083
-0.1124419732730833
-0.5969583496985784
0.7180898788023599
-0.04628533501172799
-0.07484619404267713
-0.01149936659080883
-0.5151608657163
0.1081986464900678
0.418461585821599
0.004022101232367655
-0.002941677592645059
0.1650689226197924
-0.1661493462554638
-0.3239460863992072
-0.2022518225683861
0.429928291694925
0.09626961729030278
0.00292281163415694
0.1780676365950074
-0.1620985742227999
-0.01889187399400636
0.009427194152692948
-0.1432845385225242
-0.02351913864591566
0.1573764830240922
0.8379304615402406
3.899220564884709
-3.913205058533097
-0.8239459677608935
-3.970944851294459
-40.79147030261669
36.55691966667212
8.205495487234264
0.06245948678761986
-0.1708225261757136
0.09312326263732572
0.01523977675802352
23.01251043198791
0.3166108549543293
-23.16232748494592
-0.1667938020100526
0.1489217174144991
-0.2044681503122995
0.04544032502507204
0.01010610788794257
8.157357430294493
-9.799386187073749
1.907285304651585
-2.846725133475228
0.7623663900957524
2.084358743389181
-0.1108138909173355
-0.04745395122674367
0.03381516499005512
0.1244526771643419
-0.07795368414906224
0.07210644919120437
0.005847234964194086
0.1266103721758773
-0.06109234331271206
-0.2409357739192736
0.1754177450681218
-0.003355779340877726
0.001535247300148856
-0.08362261006195536
0.08544314210686321
-0.01726133105718263
0.09376593616969055
0.009631692602247149
-0.08613629770518016
-0.06840957477217262
0.003661305256649125
0.1677494009141479
-0.1030011313896146
0.02790746697245506
-0.09930393849976772
0.04919251878803102
0.02220395274823684
-0.08855051998032538
9.420522538864789e-05
-0.004786772336972338
0.09324308709845434
-0.6582689354662178
0.1506784308341293
0.5075905046393756
0.1278966115946288
0.09151126557311991
-0.1857849151380866
-0.03362296202159813
12.52722257101374
0.6959251844114734
-12.73068902145669
-0.4924587340048863
0.1850981226658595
-0.1241677559440753
-2.245083553893959
2.184153187197052
0.3224881831278713
-0.3638217856588247
0.5159234230897395
-0.4745898205440186
0.6495660414554595
-0.4419464547066976
0.0571066704054103
-0.2647262571393666
0.2363408651879472
2.213641392695964
-3.701792918101638
1.251810660266512
13.38085475253022
-13.43591655953909
0.05506180700037699
-13.65495977247743
-10.39153983948718
10.23731617698559
-0.2292849043682623
-0.2026552481690818
0.37848793712851
0.05345221542574729
0.4176081469048521
0.2352746190529249
-0.652882765926212
13.57684404133202
-19.29699575428539
-0.1865477461853341
-0.03279021406292624
-0.1856023245476946
0.4049402848098019
3.369703937093083
-1.188726800440367
1.790651383245979
-3.971628519952193
0.3973391100915586
-1.002299238594
0.4767674777091152
0.1281926508163773
-0.0211427128182837
-0.00160979820871763
-0.05818557232483088
0.08093808336122876
0.374804135470893
-0.4967445141994583
-0.06375007271728288
0.1856904514530235
-0.2661140274486151
-0.09373471786302313
0.257283621507309
0.1025651238170964
1.30357112549038
-0.525722093804305
0.6516318680029651
0.1355513082162227
0.07897160520145553
-0.1147970839381143
-0.09972582947049226
0.2245334713812701
0.3229402892821024
0.01513289315492158
-0.5626066538113966
-0.246334863601547
0.2206030545064518
-0.002502816227889339
0.02823462534349641
-9.5612718646308
-0.6039643751245943
-2.690327792217534
12.85556403198481
28.10556337277822
-0.7450431945630188
-3.710747818380542
-23.64977235982671
-0.002381623549778274
0.1430017930718198
-0.05891674147895166
-0.08170342802932073
8.315942641086751
-2.357439947050924
-1.360312812804889
0.7063692016370222
-0.4124671563083711
0.2510080916192264
-0.5449101369210239
-1.214620092304654
-0.2231220358804649
0.08510290706516818
-0.3520588646182909
0.4900779934515119
-0.1063976736607558
0.03099110251767347
0.07540657114445433
0.3639328059449135
0.08245948264426234
-0.4567773067449638
-31.81899823917959
7.026315376842208
-3.668641624119893
28.46132448645087
4.304389599143077
-0.6931583619411303
-1.784522603485359
-1.826708633723927
0.007624529902417606
0.02961952707501661
-0.037244056972584
-0.1897470475375715
-0.003541901762865037
0.6117373483213645
23.61983277937113
0.02890061092978818
-0.05694974396362911
-23.59178364639432
0.1961504471660907
-0.01068736470160427
0.1520327676252095
-0.3374958500828228