/*--------------------------------*- C++ -*----------------------------------*\
| =========                 |                                                 |
| \\      /  F ield         | OpenFOAM: The Open Source CFD Toolbox           |
|  \\    /   O peration     | Version:  v1906                                 |
|   \\  /    A nd           | Web:      www.OpenFOAM.com                      |
|    \\/     M anipulation  |                                                 |
\*---------------------------------------------------------------------------*/
FoamFile
{
    version     2.0;
    format      ascii;
    class       volVectorField;
    location    "0.4";
    object      U;
}
// * * * * * * * * * * * * * * * * * * * * * * * * * * * * * * * * * * * * * //

dimensions      [0 1 -1 0 0 0 0];


internalField   nonuniform List<vector> 
19631
(
(5.030606980322658 0.005965463903928254 0.02485974123441378)
(4.986195134647194 0.04141576288615042 -0.00924391102531816)
(4.993790601184599 0.01525742764781193 0.0281627219101375)
(4.659353716358966 0.2018694804998018 0.004206099846855411)
(4.997811946965007 0.028516758437029 -0.0423386543539967)
(5.074599653495008 -0.02661194395026578 -0.02778476859391171)
(4.992710490762191 0.003628108290664548 0.0008901283189040548)
(3.178827283081969 -0.05466602709900989 0.1542519977417363)
(4.579944715744048 -0.2094351699474689 -0.05755148787059249)
(5.005962554781922 0.0004065239600162807 0.003122940121122905)
(4.960772339434016 0.01367625353175211 -0.002519894302477073)
(5.04953925770227 -0.02945602964166887 -0.0183592031641249)
(4.501504014336327 0.07270562065194422 -0.1788491597364303)
(5.046017575175716 -0.00971452399420549 -0.01830196762854637)
(5.000572956922009 0.0002890409399112396 7.957601408635418e-05)
(4.963547600279793 0.06089736022299402 0.01284269552347899)
(5.049506668640777 -0.02405588037372238 -0.01577099718567717)
(4.477669346122348 -0.2737628880510427 -1.007689267457332)
(4.738097134390248 0.104831864794025 0.1710063031193687)
(4.995319427732432 -0.1408178226174185 -0.003644864399621815)
(5.027968445833173 0.04808458379988435 0.03140804507940703)
(5.051568952210055 -0.0180654057932022 0.01355179192328046)
(4.601372513385365 0.2087445889016361 0.4504742328537383)
(5.003685184259817 0.009906196448375766 -0.002540169463175131)
(5.050062742073638 -0.03221673061869305 0.01190778217513918)
(4.989775538117781 0.008635170735029115 -0.001323448180099883)
(5.05902019281532 -0.04472886451013197 -0.01905042845383013)
(4.312593932542423 -0.1201709823004704 0.1852368167960622)
(5.061865556341112 0.1043790194887458 0.1697969119930124)
(5.001491526032348 -0.002096374634745391 -0.0001841763087743864)
(5.044197868337395 -0.03139773084206007 0.01836183416338186)
(5.04341123991955 -0.03186264640444499 0.01417218500368045)
(5.010006698241445 -0.03090220861677453 0.05429099958431373)
(5.009770237918972 0.02434107531138512 0.01465897322574674)
(4.512605406916365 -0.3681715861155498 0.03139588957531538)
(4.388110390877523 -0.1261399381541014 -0.4009227454900621)
(4.993135733152703 0.001622411165837246 0.001730404101128179)
(4.973835403455834 -0.005346110938098177 -0.008323839313968675)
(5.051979773738066 -0.07574434434062691 -0.01895124329271677)
(4.966701794927693 0.0007105085064771757 0.02169290828263372)
(5.486419645056817 -0.02614207329665558 0.1056734908730421)
(5.035485421894962 0.02706075726393626 0.04894785154309476)
(4.999003338760488 0.001841335545609279 0.0006767233105619842)
(5.000431753279474 0.03781423600485321 0.03683394690415213)
(4.988967309407614 -0.2193366250332457 0.1111685654258937)
(4.742700170496451 0.03152227375134813 0.09379777024692633)
(5.000131576349709 0.001431006609150513 0.001740042160054698)
(5.018297233597104 0.01069313053626097 0.03800052825701367)
(5.028709215923779 0.0006198487040766889 0.03354861441728438)
(5.049515239663859 -0.03125803341842411 0.004024411775470942)
(4.935922876148889 -0.00461293883476001 -0.001258246411758324)
(5.005765892875709 0.01457251519158789 0.00833235512546575)
(5.050663564895158 -0.04586500280971102 0.01218049332642994)
(4.902281240021163 0.1163719228372184 -0.01090462665907373)
(5.006584538295442 -0.0834543056262209 0.001145110389361585)
(5.025549111687457 -0.04787539448757858 0.05055824615680869)
(5.055865820546442 -0.04874215282876958 -0.003130355376289304)
(5.045250555562505 -0.0799182056541833 0.005897103949937183)
(3.729407721180539 -0.3047455102496725 -0.2289823209398391)
(5.003277609762327 0.001178352708849419 0.001140638627860397)
(5.005965487691102 7.069536096363268e-06 0.002654322526439661)
(3.588717635156464 -0.007461484190078381 -0.1351851830855242)
(4.139969615548018 -0.02937893641086425 0.01111761756990507)
(5.004969109567418 0.02760665828420889 -0.0144454558001208)
(5.048843300620169 -0.02889776491703635 0.01114184749275838)
(4.383725052013888 0.07629266849221028 -0.06312904277758559)
(5.039531541966611 -0.02991023213391808 0.02190162862640458)
(5.054483847727144 -0.02048555091195636 0.008309816238076645)
(4.946161038732068 0.04279550519064565 0.005016419413766458)
(5.007431949527673 0.00110866964249463 0.003973408096604412)
(5.006024050533618 0.003717263343387911 0.00357103026863076)
(4.295546741086731 0.5807439960366664 -0.5136903609189742)
(4.998456454985365 0.01856597071200058 -0.02726370439021467)
(5.03960939801611 -0.02047546843269795 0.01147775978342027)
(5.083579425344769 -0.03851292437164274 -0.00615488388045678)
(5.040190698255373 -0.00164881920873486 -0.07833260189406675)
(5.011924604432314 0.009336501670830654 -0.02660890697871592)
(5.056286810998875 0.02534701845673491 0.07252257430750982)
(4.99291766811442 0.07331075052273345 -0.04521487318116973)
(2.342271841968018 -0.2466149323465436 0.1403667389557177)
(4.996299504673858 0.003710498786491562 0.003543539389731633)
(5.02629586804541 0.003334247705853749 0.0451023579823562)
(4.907693945674599 0.1700444563314777 0.01345368242147174)
(5.260927446300756 -0.04289324540630634 0.1114609632546949)
(3.229671015081371 -0.1345178375142605 -0.08623645000191558)
(2.958889193948442 0.1318535241666884 -0.4931738752295236)
(5.047879974458879 -0.03704255801931929 0.006947779701823087)
(5.000425656807896 -0.04158486041330985 -0.08049850358801867)
(3.524874306002071 -0.03008746345563391 -0.085986295631477)
(5.002888121572624 0.01410347205295093 0.03413614302541092)
(4.436785107698234 0.2881638875894659 0.114960130086594)
(5.040339942935653 -0.0294728089946014 0.0194111072834231)
(5.043865006436298 -0.02689815288929934 0.01949342683864421)
(5.044708253511518 -0.03472796931616386 0.00934763362313064)
(5.055883081941632 -0.05919375882506202 -0.05559795152418914)
(3.920763142041061 -0.2943390993533066 0.2415510775141433)
(5.027785727647563 0.0145325972378141 -0.02917846920468546)
(3.588557529474936 0.08491914659764897 0.2295959593306868)
(5.043644846503072 0.0009890376206450789 -0.02066157139047643)
(5.049017635940082 -0.01649393780794638 0.008003268414657937)
(5.043214690639023 -0.02773710038890122 0.01230543416908935)
(3.784275470739876 0.07414421134642357 0.1292121362410308)
(4.521040667279943 -0.1030453625510531 -0.04403370587970182)
(5.020991029629576 0.01772813182884927 0.0226033665615391)
(4.439360572124777 -0.01151570096931179 0.07864354695215214)
(4.845904036485953 0.1193198546330146 -0.1055490497229166)
(3.450960602439177 0.03280692457938252 0.498593869603982)
(5.040040578530614 -0.04411948483085665 0.02970781589197139)
(5.050957621656734 -0.04554221879623772 0.01203670597007218)
(4.435476809093568 -0.1901562139660105 -0.07405897253668134)
(5.00270780465446 0.214908816546382 0.1198234116409856)
(5.013938695437488 0.0003278993566966926 0.1303990660565476)
(5.084590806921498 -0.05546366097145964 0.04128873850204802)
(4.886293854600813 -0.08305741184824703 -0.1151282884558715)
(5.024400603439706 -0.009783830470785555 -0.02095336376062886)
(5.060929482282679 -0.04798487801890695 0.03902304463019977)
(4.671672398596136 -0.08380036547946756 0.07895137943740171)
(5.049458487563872 -0.0301302498184064 0.009445999661076239)
(5.073957748605463 -0.07286304687899271 -0.015963424161235)
(5.044565485496372 -0.0321909356407763 0.001068815452026074)
(5.044372801059972 -0.0295184831371887 0.002545536210491473)
(5.044460575616331 -0.03375105689343349 0.008019831598292042)
(5.041032712460701 -0.030025810102013 0.004615683707148068)
(4.408895757244345 0.1200406687788193 -0.5443960155276427)
(5.053119698665557 -0.02450679675023851 0.006120593569710182)
(5.045592093494758 -0.01218828201630149 0.01044554612540368)
(4.941117799773806 0.1863208318618601 -0.07562800686532625)
(5.035949864687708 -0.007658037848699784 -0.003742396622883541)
(5.009034418875471 0.001031820774882036 0.004185237026506783)
(4.955011931464576 0.1142886911752019 0.1395369525113412)
(5.019857532773474 -0.008456563561863951 7.4087424154856e-05)
(5.005343233253038 0.02257682845245523 0.02012532367574378)
(5.110310053765309 0.05744057919443697 -0.1085551449923317)
(4.229860188698918 0.3416795217228641 0.255443059227714)
(5.009434546389171 0.02821420085670397 -0.02742022807606986)
(3.991566963348947 -0.2445017813118417 0.847502166750782)
(4.537114487321698 -0.1179309329034639 -0.008938563035780965)
(5.055147781623199 0.05383966899957754 0.1443967804781988)
(3.62260957290468 -0.3454107760181148 0.4359176594389688)
(5.030439583617749 -0.07665964659308083 0.04192814576939397)
(4.330121131687523 0.1508329962622609 -0.2831522516123732)
(5.151300465858736 -0.05646136676643968 0.07069460047481108)
(4.814773445332021 0.04535434555576653 -0.1110551180368495)
(4.999788276577504 -0.001236470628710477 0.00304006095655276)
(5.050588753339781 -0.04922529354990457 0.002814164394762708)
(5.056039990616687 0.003170568555258954 -0.07113151614354769)
(5.022400305297147 -0.002350757635833633 0.02875721999968486)
(5.001553369402333 1.012461354056658e-05 0.002826520144986633)
(4.995187647728042 0.0025464639113808 0.003690203989695475)
(3.790325985552306 -0.1677319381471515 -0.01218277686925905)
(5.046876263361706 -0.03936601496812295 0.01603904193224323)
(5.040974576069053 -0.02372280699045018 0.03609474033780027)
(5.045523444698454 -0.02815098570290037 0.02636977671996785)
(5.041443492344883 -0.01821950321469586 0.0105897975806422)
(5.040141014976492 -0.03677996848663498 0.02814412704808142)
(5.052239037389067 0.02691146983690817 0.03547600106267114)
(4.994214743453544 0.003197006195230933 0.000720036764161601)
(5.054357849048761 0.03643305396158721 0.1814100333968096)
(3.469478087277482 -0.1869004042817543 0.1794605831297886)
(4.936826605862183 0.006250675755283247 0.00263826023857317)
(5.039435122702413 -0.02361584010376074 0.01610492322428093)
(4.995143012959679 0.006228837105569643 -0.002108844248003647)
(5.040008589248995 -0.01593800953877961 0.01256374818032959)
(5.047845023246579 -0.02579994530018292 0.008083765841932952)
(4.987611055439449 0.01114666120305508 0.002654424652996396)
(4.987654746631743 0.008005609403154446 0.0001918046826010757)
(5.043103191244168 -0.03542315194077845 0.005309834454647265)
(5.020277004399698 -0.005749952467687703 0.002017474640439525)
(4.454443268032737 -0.4339889084690632 -0.04216545969506448)
(5.035186089278072 0.02304495674226935 0.0534657178142792)
(5.04530148304626 -0.05676761444054933 -0.003074696179713358)
(5.042686922857897 -0.04006437943988882 0.004531239312922293)
(5.046744699117614 -0.04541373083732935 -0.002611920906362024)
(5.039122651616373 -0.006539092016925838 -0.004454180415771536)
(5.045627439889348 -0.0341518290103492 0.02752555209663564)
(5.052346449853452 -0.05084645152731377 -0.008349596741977317)
(5.004732508425483 0.001993175073745209 0.003506370817688312)
(5.048752209781101 -0.03459508773190136 0.02332787522499576)
(5.080361359186763 0.01128982368944135 0.04506557931704549)
(4.66968564740813 0.02917424535545425 0.1029210501658538)
(5.039587385033539 -0.01625791464667846 -0.02493441469204033)
(5.003383090444354 0.000550605918811899 0.005136596986180823)
(5.003685048038331 0.004049762807338141 0.004472393326324339)
(4.929930261187095 0.01714674091367326 0.01332092449035447)
(5.005748164665565 0.001959694812600501 0.002307555482062796)
(4.989257328992799 -0.01854106119193008 -0.001320513021203124)
(5.004192562815705 0.001230789101738122 0.00381953638989039)
(5.04002153419938 -0.02371718351431724 0.007271051234088581)
(5.04407949019966 -0.007423783551846974 -0.005860193061415743)
(5.037033790092188 -0.02036801598219934 0.01488811924250483)
(5.042564499562094 -0.02084004367644072 0.01420040457003073)
(5.001934915316574 0.004495328130152297 0.04711831452181931)
(4.970955480655683 0.06630140530488476 0.1905952129998834)
(4.996744804412284 0.003816352241152848 0.001260644135893416)
(5.051239360981894 -0.03952380159095441 0.00285989588604059)
(4.794881700311884 -0.01182800804634891 -0.4043327275339066)
(5.054161594121211 -0.03272233391090667 0.007774088394852796)
(5.007407922092385 0.008147906865031175 0.01596812533675878)
(4.957031115008335 0.03331499542406672 -0.03256967163644061)
(4.969786873883203 0.04177010483013322 -0.04262174266748419)
(5.041409403695173 -0.02462889618545768 0.006101065361437029)
(5.038409058966764 -0.02887499395315735 -0.001207675899800575)
(4.987847483022764 0.01160764364636556 -0.01531020245545657)
(5.041600144240096 -0.02868011249253257 -0.001719927662202309)
(4.999876701726177 0.000956503183632387 0.0007825297160133066)
(5.042221569947452 -0.04458841241783137 -0.006645817714000433)
(5.039547806083141 0.003599337630474784 -0.0213926044674131)
(5.045370396774656 -0.01763111924065677 -0.01681377186397073)
(4.959100155296568 -0.01058640356424005 -0.002853704620385481)
(5.056503821715552 -0.01284172019415256 -0.002134982161015094)
(4.988024325845532 0.006327860843466909 -0.005049659322436197)
(5.057242770903671 -0.01950120333080071 0.01412908394256451)
(4.593057517078984 -0.08422402982920603 -0.133259348254488)
(5.00395906498506 0.001079852360289294 0.00129842165844493)
(5.025764526292441 -0.02515576233058602 0.08369796939576533)
(4.673534039810713 -0.124012864338543 0.2201013374294671)
(5.007375907079739 0.0006725976344410643 0.00415465460733069)
(5.005523810677876 0.002502178974190808 0.003209920974536806)
(5.007399600857651 -0.0005378141260215849 0.006700872850655045)
(4.976673786434559 -0.1403286122300002 -0.06189898881699281)
(5.001478125552831 0.001332876992520997 -0.0007065545060736902)
(5.007402264151263 0.007961378219976611 -0.01228934655308501)
(4.97717071714061 0.02205438918871179 -0.01368056333881727)
(5.000269931544603 0.0008020829502082426 -0.0007331208878050114)
(5.010336277671952 -0.003245994450662537 0.001066610213436835)
(4.999619425236584 0.09563845704876399 0.03410006154458853)
(5.038609266208726 0.02862160283876152 -0.04846418321845397)
(5.014607789668599 -0.01432754425306506 -0.0502747502099179)
(1.640941392829113 -0.2771692368573848 -0.7491071872509667)
(4.811699978016136 -0.07484294976576408 -0.1232750202623599)
(4.989090927731693 0.01165895955649236 -0.00673525888788974)
(0.06716191148455847 -0.02324405329932911 0.03423132218363867)
(0.01431652738976984 -0.06286879228687847 0.0328833732589486)
(4.170194981106118 -0.04245614811465294 0.04154640442005925)
(4.876883070807425 -0.1668463160676508 -0.398976847479771)
(5.089585839200277 0.062394320893101 0.1243287425922779)
(4.416252648777079 -0.308585496682678 -0.1809565143103354)
(5.090775256171256 -0.118669188507812 -0.05733606520714762)
(5.002111731400466 -0.0006516237345447071 0.03231768976312634)
(4.234488583918662 -0.04993580563205484 -0.09122881495624276)
(4.980773321284935 0.003309014483625536 0.0008426523682927232)
(5.048879146863466 -0.02953140364532478 -0.001267083887703248)
(4.99824935355536 0.001192448972420283 0.00329887797623947)
(5.00409404152413 0.006976403020378301 0.0008434044987634599)
(4.995496518128443 0.004256784328650447 -0.001214124449222632)
(4.949069233316418 0.004619756441247081 0.001540183626113219)
(4.973563779756093 0.001965209078122301 0.001622063790353345)
(5.001077410061574 0.002498276546640843 0.0005472120908290181)
(5.068853372789125 -0.06275658887999384 -0.006158076069425139)
(5.01603209251257 0.006067222552091173 0.03073002760743567)
(4.983331941544757 -0.07571564206690058 0.06444932022450298)
(4.589883686872744 -0.3560915266338349 0.2047238165415519)
(4.985521781762268 0.05906790170544238 -0.02815653741260696)
(5.095757032525784 -0.005098890188050775 -0.01039277065593557)
(4.973137898928258 0.0125006470930151 0.000559023626827836)
(4.82823993471133 0.09039865097731664 0.2546277741313686)
(5.056811746583469 -0.0659102172219856 0.01781631649665951)
(4.635142715866849 -0.1222082407619827 -0.1622750911694291)
(3.073217093342819 0.022185027341685 -0.0837778804366294)
(5.043235085471681 0.041346122771251 -0.01720148669875493)
(4.995774821123729 0.03262863663365532 -0.03274631126146643)
(5.033376588483924 -0.07371560178389942 0.02664160238774772)
(4.975594696905395 0.02328478548875449 0.1475746937100984)
(5.005547268666581 0.07637822483434455 0.1115641588673476)
(5.031450296914548 0.003683074307010275 0.02345151236170741)
(5.008331799204702 0.02491791811542257 -0.02477195155013985)
(5.006211190120826 0.1137901456920946 0.08880295833923885)
(5.040393688078273 -0.08349292909570155 -0.02246822309401159)
(2.730336847002798 -0.04928978586255272 -0.01681784679134177)
(4.370698229186954 -0.171922475669365 0.2064755082790836)
(3.609305528439116 -0.07471460188028893 -0.0935114349209816)
(4.980785098909802 0.05016315455152138 -0.06430340983320344)
(4.497541488925735 -0.05753656979353403 -0.06170097590689419)
(5.00328186783887 0.002350397238101266 -0.0005342325438282323)
(3.87160790848466 0.003462163048758561 0.1438049993126171)
(3.46297656516071 -0.2079204285265245 -0.1098240737327515)
(4.997992463416243 0.02894735570764283 -0.01381812282609336)
(4.891428820757051 -0.008469765984870068 -0.001547615819880978)
(4.202612047638849 -0.1492597157518954 0.1303529521584657)
(4.998614715039398 0.004999041042918701 -0.001066263326776703)
(5.069735308879764 -0.07261173171372125 -0.002738670909470112)
(4.951263476274701 0.03488912978964928 -0.09832799107453508)
(5.062908330056479 0.05982068588629277 -0.04588618512457617)
(3.080853186129023 0.396816790397367 -0.04832915092901066)
(3.516820198124939 0.1081423243028259 -0.06517872226488761)
(1.793685226837874 -0.05498698916595199 0.5095322616585866)
(3.058891625684931 -0.02562160650697724 0.07409081038776018)
(3.698932331266986 -0.125935526071364 0.1825536558607385)
(5.063526401124436 -0.01624955598666219 -0.01658840652364531)
(4.868831868030738 -0.1179265552366517 0.06223813084776398)
(5.074147000935498 -0.03884324221800835 0.01020596874627328)
(4.98491913866869 0.0235367939976816 -0.0033409807860239)
(4.979548803724889 0.02145653581847903 -0.06731432313684188)
(4.136487891428738 -0.5707976551790404 0.8733323673084774)
(5.210394223341061 -0.03091999801578733 0.1235744513318887)
(5.000409862356208 0.001421729846640055 0.000939885847533739)
(5.081234272076975 0.005041224226230973 0.09953818952708469)
(3.827360441324311 0.07044155981831259 -0.4368586125753524)
(4.991224905405886 0.02763680173838397 -0.03790258255855565)
(4.938677596148793 0.3255696887276229 -0.09175422151119689)
(5.130418614679883 -0.02977705399986246 -0.01979422682314737)
(4.78561848757523 0.08013958435603089 -0.1122320491772907)
(5.124947576035159 -0.02863015445566167 -0.002958470830278527)
(4.922597120327219 0.00152587874766924 0.001233245537670926)
(4.892107529743825 0.1842409506228106 -0.008124854471643845)
(5.031219620214101 0.003582978159340605 0.02145426669757746)
(4.320112484464202 -0.08292745827225281 0.03915723042914004)
(5.048621174609966 -0.06886094122910667 0.008034133148539306)
(5.028415499852457 0.002338835193136572 0.02109543170236524)
(4.953798082071809 0.2954987354831954 -0.2497421495310814)
(5.028341999635362 0.02173489191852346 -0.03050478687139393)
(5.002127778415173 0.0008605016124857193 0.0006971377551069122)
(5.002531782560395 0.002191084911528143 0.000239226862374651)
(4.988457290801993 -0.01527429556327925 -0.04868008177742977)
(5.08392340885139 0.0959633118196339 -0.2342208971230255)
(4.487101634397257 -0.2788045597710211 0.1179452975189065)
(4.650185703369691 -0.03365115847382699 0.06889572740277872)
(5.055956452129226 -0.06812979876816148 -0.04231540745181816)
(5.053833385100683 -0.0326548749417889 -0.02906041451091751)
(5.002016998886256 0.0001500556602718771 -0.0009581564842982465)
(5.047932253735763 -0.05651427092766109 -0.01955555068583812)
(5.045212729719949 -0.07772872390390403 -0.005193745956558064)
(4.637579556037166 0.01814503427764995 -0.04579948976217594)
(5.050083291635283 -0.03522739218800738 0.01180211962019629)
(4.993776123315131 0.0448304232307242 0.01211512159178365)
(5.0294520452495 0.02101110396498414 0.05496191481547813)
(4.902202639636929 0.0351576319100154 0.007480716149056444)
(4.993084901857481 0.004989333954886687 0.001938491457019636)
(4.98244530354147 0.04644179875606895 -0.0618111803444552)
(5.00124984300901 -0.0005657242136682412 -0.001019719431366209)
(3.799399282653671 -0.2017420820790524 0.06469523528783884)
(4.975374329870314 -0.03495331880292145 -0.02857791159445424)
(5.133694647040673 -0.06887129178167169 0.3450114620663787)
(5.038987599898088 -0.05662986260198556 0.009557731065365657)
(4.938161971323037 0.09846313909823179 0.01787392090023692)
(3.847300696288992 -0.03760756637323594 -0.05648641679800852)
(5.023346833823834 0.02454735433498613 -0.01994924803207916)
(5.089855505364732 0.02253722332459965 0.03112637238111953)
(4.789429839630363 0.0143065900342616 0.06010604802624875)
(5.004171849812288 0.002222731449400876 -0.0002232985678248054)
(4.362208364765539 0.1666150252449151 0.177088799492129)
(5.058667682973736 -0.07357995188366517 0.02900525374475319)
(4.996936185462208 0.0018754220294758 0.001454819081001227)
(5.23223440498999 0.1979212621889649 -0.3262834507484696)
(4.857876356444997 -0.1305427076034198 0.04787010232407782)
(5.01921672539512 0.03259796775488982 0.04052428274134599)
(4.609791009828483 -0.07253116967572755 0.03837829127201137)
(5.039057074415545 -0.01932568626495532 0.004480675674295577)
(5.009553789247979 0.01620140130242624 -0.02245890303479458)
(5.00954428741725 0.002511731163925677 0.004817293867152187)
(5.03230307950392 -0.02548105917310828 -0.01501126728520208)
(4.99967758487427 0.001623926734441191 -0.0002626061576066746)
(4.640437928723502 0.07302462869272106 -0.09624487184449843)
(5.034104373934825 -0.04897354038075824 -0.06579921677055636)
(5.018323326915749 0.0008204532124167913 -0.01929350668715335)
(4.560210987373042 -0.0195414254431788 0.1072929909401923)
(5.034274579689041 0.01733526509010566 0.03633649314939984)
(5.034482403901849 -0.04729827065354478 -0.06105060351921181)
(4.990358564419812 0.1672534360916522 -0.02761505226910142)
(4.874250329200903 0.1038870146655481 -0.07965527219311404)
(4.802923405377165 0.1260623346971004 0.2448990554943491)
(5.130158872087605 -0.03895203471817611 -0.09070272512024358)
(4.487925575040186 -0.1580115804776994 0.009027369901218468)
(4.911137432404784 -0.02615271054790952 -0.1242543106372338)
(5.089493286066427 0.003035090232284749 -0.05508528298677975)
(4.618942344502027 -0.1747280145785001 -0.02165762489382725)
(5.011354984123007 0.0475603268548604 0.02219131729296873)
(5.077714947653755 -0.02862828476495102 0.02811347100787396)
(4.502644433880709 -0.08654771804905818 0.1084455716983186)
(4.980812112223672 0.1371138742414748 0.05564139947031763)
(5.054144125017459 0.03398160938109743 0.02205900101314352)
(5.042063192954667 0.07394457773824764 0.03002183271689961)
(5.002821189838103 0.005035834215913914 0.008297684619256538)
(5.000319687650758 -0.001489779527712082 -0.0007231079519874344)
(4.918012902366728 0.05225056046009745 -0.004576425306087885)
(4.997575062293478 0.001640937922805701 -0.0003109681641860631)
(5.060345182688548 0.02630498880442891 0.04008148077855982)
(5.005054339259649 0.0002199123263222423 -0.001479127570911642)
(5.028617770093344 -0.3574975227137064 -0.1230621580922272)
(4.903715936505453 0.01098170154206505 0.3298831504929667)
(2.422552539413205 0.1893353514969222 -0.07028766472490178)
(5.053584086633911 -0.03371631779002712 -0.01848802432797355)
(3.969070137186749 -0.02116353104809584 0.05030324138205015)
(5.081339372452501 0.1606253845655451 -0.01363178852992186)
(4.99406366877245 -0.04582430783687937 0.1205178176998393)
(4.113059710196146 0.06640768939765158 0.12424261540591)
(4.69882566053629 -0.1245634352609633 0.1204974473979622)
(4.273781863146932 0.1056928235868866 0.1490612038721355)
(4.937874178689368 -0.09888403234301033 -0.06374809051180125)
(4.997204678143266 -0.0007649041760229352 -0.0008462909594847004)
(4.997356131570863 0.02284030122900317 -0.04141073380207002)
(5.014293663881682 0.04893179874461571 0.07063760021471716)
(5.015536991521911 0.02571463547918489 0.01661710961024309)
(5.005073325426665 0.01353397471797232 0.02919526347019444)
(4.987850329692144 0.01344544337786622 0.001228951832439692)
(5.004048939651859 0.002034203023064462 0.001961112124769459)
(5.007855595659422 0.008369618488872441 -0.03890827067667767)
(3.924716248759253 -0.08821003862944603 0.1763181832183811)
(5.001327986836288 -0.0007141508696313658 -0.002809570108465072)
(5.047099615677716 -0.04621091790181905 0.01631157646647133)
(5.026850889437384 0.008926030521890733 -0.002683866379650659)
(5.043961824126232 0.01604414832862113 0.03120316516087679)
(4.376053688812756 0.3734804762628287 0.7205957792021465)
(5.097394262979044 -0.0362791804717443 -0.01570229904339005)
(4.995641455686725 0.04690756784063273 0.0669315609587646)
(5.0299187216353 0.009024153860864885 0.02308841789354201)
(5.028399374117082 0.02864410858306444 -0.01237127329983702)
(5.054067413149243 0.01477635499114665 0.04544257809561773)
(4.978550746752052 0.07814082256525585 0.01621303093049547)
(5.004072775746909 -0.0004346731490617417 -0.0007348549059357283)
(4.999244201755607 -0.0008770240910877408 -0.003903172751247967)
(4.909619471244149 0.2279244503276654 -0.1087820252763655)
(4.999651455901588 0.006062238812324355 0.007486992820748242)
(4.959969934500188 0.04868943348869008 -0.07033962684110502)
(5.00171415019023 -0.0006478588005030516 -0.0007026745941760077)
(5.018230897303701 0.03684823745243886 -0.002816624836958354)
(4.424534836356171 0.1531950682701995 0.2046215898190719)
(5.074071539677443 -0.1376370333331301 0.2094515048807317)
(4.999340357486065 0.006137322741923736 -0.007434903683714582)
(5.02610597938756 -0.003914029001767897 0.0005040712757753569)
(0.7361198324836602 0.9751632016645088 2.943000074060821)
(5.010553875457469 0.03480982471059114 0.004236503663950315)
(4.997591267904358 0.003413384666191295 -0.004980688346613555)
(5.05409285994777 -0.08291786924834731 -0.007023019429927788)
(4.982365420659805 0.006112204217131855 -0.003357482092126148)
(5.061585084233848 -0.02808471572887482 0.0005724951968385569)
(3.266495622775335 0.7005866386895956 -0.2752319401327527)
(4.960103389501973 0.1391749991391015 0.0607857927178727)
(5.006795421107443 -0.1172070503580492 0.05920675950572898)
(4.985664479902193 0.006124048926134966 0.0007383790948170474)
(5.00300054121927 0.0009318227219364438 0.0004604449040569268)
(3.642535973624529 -0.09069421980963564 0.02429496295531782)
(3.587184186901287 -0.1545810312966213 -0.03509304223803288)
(4.985607860001371 0.008574280305893217 -0.001054796768444185)
(3.361856139574368 0.01453138112378481 0.1350082342078958)
(5.001088268172404 0.01166531277422101 0.0155328943398082)
(5.040714139599616 -0.1496368988660874 0.06999307482399959)
(5.006594924238779 0.1530505924895866 0.07736797317189373)
(5.000542984809282 0.0007284460613072589 -0.00093057190705732)
(3.500125213524675 0.1133152702329325 -0.1472978990025692)
(4.997646644078866 0.1422523553303622 0.07173934850937268)
(3.629123632812372 -0.2307653712597447 -0.1747747472639799)
(5.043612198312618 -0.05227637123445529 0.07161553661669991)
(5.073354959152496 -0.06686411966517795 -0.006164122247969205)
(4.993254781178822 -0.01778170778515405 0.01604855889231069)
(4.910221426957831 0.0496204686569118 0.1050293781220684)
(2.917631774220694 -0.8774352343204844 -0.6686114080188482)
(4.95569854028501 -0.07349828335145391 0.004892889087984586)
(5.049026364700125 -0.06551815193782488 -0.04079448727365743)
(5.07364097563955 0.01533796412478964 -0.09106354772080455)
(5.022037698362003 0.1641161928424057 0.07174668125213814)
(4.98534836652854 0.001138660984708092 0.006039884756776384)
(4.991843315394605 -0.001756205513537378 0.003338086245388601)
(4.424837020264627 0.1602910511909197 -0.1419117829567945)
(4.996840549557523 0.1937908381107256 0.04022405335615527)
(4.998091410340576 0.003111382160997373 0.008501296998746971)
(4.990653095572392 0.00601656546980779 -0.001245634422260014)
(4.978505793865901 0.02946533029908563 0.03319876804877854)
(4.855547721702582 0.0348192022342666 -0.08211836661039788)
(5.021827335081919 0.006936516283987624 -0.01334382639890423)
(5.080427950717585 0.0699882977803601 0.0749014386696539)
(3.25966943702023 -0.1037680726036508 0.1874827488645169)
(4.908091006058219 -0.1323534823393428 0.02347584048834243)
(5.006838015263594 0.002275804465104367 -0.004323962779694828)
(5.056597894307497 -0.07260749225131205 -0.02318262518853572)
(5.108327741883793 -0.04272890918220951 0.04975664696878846)
(5.045381030162563 -0.121120500536611 -0.1343772776639846)
(5.00633280513759 -0.08724228268557664 -0.1539870334157988)
(4.228660789523867 0.1578789863193736 -0.8769258235962784)
(4.829059769287674 0.07600454923500052 0.0800942474858619)
(5.007499382364426 0.02025986711860106 -0.03476688290368275)
(5.267863782778046 -0.06939588970473616 -0.09453761210263931)
(4.997168775509654 0.0424649240856431 0.01853876670509475)
(3.123327835991825 0.05884742113389374 -0.07758709777029865)
(3.415082638528829 -0.04564907812023552 0.1665291692049574)
(4.717179448886817 -0.01907688302021273 0.009970470238240083)
(5.000678774091978 0.01728612964965607 0.02355211777228727)
(5.122591763834373 -0.03506014162091764 0.04434021108485897)