# Force coefficients    
# dragDir               : (1.0000000000000000e+00 0.0000000000000000e+00 0.0000000000000000e+00)
# sideDir               : (0.0000000000000000e+00 0.0000000000000000e+00 -1.0000000000000000e+00)
# liftDir               : (0.0000000000000000e+00 1.0000000000000000e+00 0.0000000000000000e+00)
# rollAxis              : (1.0000000000000000e+00 0.0000000000000000e+00 0.0000000000000000e+00)
# pitchAxis             : (0.0000000000000000e+00 0.0000000000000000e+00 -1.0000000000000000e+00)
# yawAxis               : (0.0000000000000000e+00 1.0000000000000000e+00 0.0000000000000000e+00)
# magUInf               : 5.0000000000000000e+01
# lRef                  : 1.0000000000000000e+00
# Aref                  : 1.0000000000000000e+00
# CofR                  : (0.0000000000000000e+00 0.0000000000000000e+00 0.0000000000000000e+00)
#
# Time                  	Cd                      	Cs                      	Cl                      	CmRoll                  	CmPitch                 	CmYaw                   	Cd(f)                   	Cd(r)                   	Cs(f)                   	Cs(r)                   	Cl(f)                   	Cl(r)                   
0.00434783              	2.5584346626316201e-01	8.3303492410215160e-03	-1.8091848112087566e-01	8.5699820300020428e-03	1.6948540611484055e+00	-1.5462514809874039e-02	1.3649171516158304e-01	1.1935175110157896e-01	-1.1297340189363281e-02	1.9627689430384797e-02	1.6043948205879677e+00	-1.7853133017088434e+00
0.00869565              	4.8786310607896344e-02	-3.7102698866984052e-03	-8.7246690419951565e-03	4.7723885455554522e-03	1.6105149615660685e-01	5.7538281570369380e-03	2.9165543849503622e-02	1.9620766758392721e-02	3.8986932136877354e-03	-7.6089631003861402e-03	1.5668916163560928e-01	-1.6541383067760443e-01
0.0130435               	4.8726855935366367e-02	-3.8832185723843716e-03	-8.8777164563028851e-03	9.5909525471812272e-03	1.6438801226959671e-01	-7.6659986808208166e-03	3.3954380514864407e-02	1.4772475420501956e-02	-9.6076079670130016e-03	5.7243893946286309e-03	1.5994915404144527e-01	-1.6882687049774814e-01
0.0173913               	4.8312923260568831e-02	-3.8496813610598801e-03	-9.1541575929011722e-03	1.0856932289061351e-02	1.6524924364022611e-01	-1.3375851071818727e-02	3.5013393919345770e-02	1.3299529341223065e-02	-1.5300691752348668e-02	1.1451010391288787e-02	1.6067216484377553e-01	-1.6982632243667670e-01
0.0217391               	4.8187672655104888e-02	-2.8650232174969054e-03	-9.4964076541925891e-03	8.4182348585291732e-03	1.6614108703016289e-01	-8.8262325897719256e-03	3.2512071186081619e-02	1.5675601469023269e-02	-1.0258744198520377e-02	7.3937209810234729e-03	1.6139288320306661e-01	-1.7088929085725918e-01
0.026087                	4.8008112681591331e-02	-2.9636034322248336e-03	-9.5336064165597815e-03	9.2784764005065211e-03	1.6474768398813208e-01	-1.1711388011980073e-02	3.3282532741302190e-02	1.4725579940289144e-02	-1.3193189728092490e-02	1.0229586295867656e-02	1.5998088077985220e-01	-1.6951448719641196e-01
0.0304348               	4.8136239032788387e-02	-4.1769938305128498e-03	-9.8227794624338137e-03	1.3481404281576105e-02	1.6655691643115295e-01	-2.1555646485739152e-02	3.7549523797970302e-02	1.0586715234818089e-02	-2.3644143400995576e-02	1.9467149570482727e-02	1.6164552669993604e-01	-1.7146830616236985e-01
0.0347826               	4.7908455485410770e-02	-4.0105281711396747e-03	-9.6426603369345332e-03	1.1928258346448384e-02	1.6412402292997041e-01	-1.7820978212551786e-02	3.5882486089153773e-02	1.2025969396257000e-02	-1.9826242298121625e-02	1.5815714126981947e-02	1.5930269276150316e-01	-1.6894535309843767e-01
0.0391304               	4.7764627681597706e-02	-4.2950866837236663e-03	-9.3494982045765843e-03	1.2889406945255432e-02	1.6229209959411267e-01	-2.1351306886878835e-02	3.6771720786054285e-02	1.0992906895543421e-02	-2.3498850228740667e-02	1.9203763545017002e-02	1.5761735049182438e-01	-1.6696684869640097e-01
0.0434783               	4.7496470312507116e-02	-4.5095628557473497e-03	-8.9949327265831224e-03	1.4970939111482525e-02	1.6000028707096675e-01	-2.6470142105413090e-02	3.8719174267736085e-02	8.7772960447710328e-03	-2.8724923533286765e-02	2.4215360677539415e-02	1.5550282070767518e-01	-1.6449775343425832e-01
0.0478261               	4.7190453383578496e-02	-4.7741234911087352e-03	-8.9073064470171579e-03	1.4620680600776410e-02	1.5829142500596913e-01	-2.6264138755730124e-02	3.8215907292565660e-02	8.9745460910128378e-03	-2.8651200501284491e-02	2.3877077010175756e-02	1.5383777178246055e-01	-1.6274507822947770e-01
0.0521739               	4.6843172623447851e-02	-8.2067255213023257e-03	-8.5769684578901190e-03	2.1377902104152319e-02	1.5591633108687306e-01	-4.0575358573311890e-02	4.4799488415876249e-02	2.0436842075716062e-03	-4.4678721333963056e-02	3.6471995812660724e-02	1.5162784685792799e-01	-1.6020481531581812e-01
0.0565217               	4.6081446637532046e-02	-8.1401127524446948e-03	-8.0763297353984992e-03	2.2396785603344588e-02	1.4978906223602584e-01	-4.3007985015650743e-02	4.5437508922110612e-02	6.4393771542143458e-04	-4.7078041391873091e-02	3.8937928639428396e-02	1.4575089736832658e-01	-1.5382722710372509e-01
0.0608696               	4.5863826786916487e-02	-8.1171476412111240e-03	-7.5142298756478250e-03	1.9325509250289578e-02	1.4608008297532973e-01	-3.5288749114060519e-02	4.2257422643747822e-02	3.6064041431686650e-03	-3.9347322934666085e-02	3.1230175293454957e-02	1.4232296803750583e-01	-1.4983719791315364e-01
0.0652174               	4.5220137721096065e-02	-5.8394965029806220e-03	-7.1426399182776537e-03	1.3864562328981403e-02	1.4321463067532431e-01	-2.4689758541606776e-02	3.6474631189529434e-02	8.7455065315666294e-03	-2.7609506793097087e-02	2.1770010290116465e-02	1.3964331071618549e-01	-1.4678595063446312e-01
0.0695652               	4.4620967969834113e-02	-5.3748986436739036e-03	-6.5914998106094110e-03	1.3428447669492522e-02	1.3831791928969939e-01	-2.6305643937015486e-02	3.5738931654409577e-02	8.8820363154245349e-03	-2.8993093258852437e-02	2.3618194615178535e-02	1.3502216938439468e-01	-1.4161366919500409e-01
0.073913                	4.4068216310318223e-02	-4.6460181613631928e-03	-6.2896461068312716e-03	1.3376815346249869e-02	1.3521086232429574e-01	-2.5548029933569433e-02	3.5410923501408981e-02	8.6572928089092421e-03	-2.7871039014251031e-02	2.3225020852887836e-02	1.3206603927088012e-01	-1.3835568537771137e-01
0.0782609               	4.3532842430651739e-02	-5.0706286732595252e-03	-6.0926475495469892e-03	1.3937983169473683e-02	1.3363192834116491e-01	-2.6944629059442025e-02	3.5704404384799548e-02	7.8284380458521867e-03	-2.9479943396071788e-02	2.4409314722812263e-02	1.3058560456639143e-01	-1.3667825211593840e-01
0.0826087               	4.3255097569421627e-02	-4.8407534569691142e-03	-5.9851229011088480e-03	1.3324529066164492e-02	1.2970901934942022e-01	-2.4427282561126761e-02	3.4952077850875306e-02	8.3030197185463214e-03	-2.6847659289611317e-02	2.2006905832642205e-02	1.2671645789886579e-01	-1.3270158079997466e-01
0.0869565               	4.2951191292028908e-02	-3.4718673079647332e-03	-5.7708718497067706e-03	9.8744251808462191e-03	1.2897609717973807e-01	-1.6958230681746244e-02	3.1350020826860669e-02	1.1601170465168235e-02	-1.8694164335728611e-02	1.5222297027763877e-02	1.2609066125488469e-01	-1.3186153310459145e-01
0.0913043               	4.2400353391552056e-02	-3.2880887105567621e-03	-5.4667708029232098e-03	9.6926417195755139e-03	1.2615839060463974e-01	-1.8356730585547005e-02	3.0892818415351540e-02	1.1507534976200514e-02	-2.0000774940825385e-02	1.6712686230268625e-02	1.2342500520317813e-01	-1.2889177600610136e-01
0.0956522               	4.1896106214373563e-02	-3.0283325756362669e-03	-5.1497905920301224e-03	9.4647839946440052e-03	1.2327393868878664e-01	-1.8317452157375482e-02	3.0412837101830785e-02	1.1483269112542776e-02	-1.9831618445193617e-02	1.6803285869557347e-02	1.2069904339277157e-01	-1.2584883398480171e-01
0.1                     	4.1365520021722113e-02	-2.9562591970381255e-03	-5.1270711120163844e-03	9.4024979324501146e-03	1.2237910657342334e-01	-1.8015189858013449e-02	3.0085257943311169e-02	1.1280262078410942e-02	-1.9493319456532512e-02	1.6537060259494387e-02	1.1981557101741515e-01	-1.2494264212943153e-01
0.104348                	4.1219763612562389e-02	-3.0076808677608610e-03	-5.1561553142301974e-03	1.0818172422077044e-02	1.2247702334105053e-01	-2.1925375685300896e-02	3.1428054228358239e-02	9.7917093842041503e-03	-2.3429216119181327e-02	2.0421535251420465e-02	1.1989894568393543e-01	-1.2505510099816564e-01
0.108696                	4.0769024218834937e-02	-1.6509589805729892e-03	-5.0004369164836629e-03	8.7990504860452918e-03	1.2086344857829216e-01	-2.0242084910069517e-02	2.9183562595462759e-02	1.1585461623372177e-02	-2.1067564400356013e-02	1.9416605419783021e-02	1.1836323012005033e-01	-1.2336366703653399e-01
0.113043                	4.0412717775998287e-02	-1.7563484655131233e-03	-4.8519956081655583e-03	8.7923426235308102e-03	1.1870474191644556e-01	-1.8704784355013254e-02	2.8998701511529952e-02	1.1414016264468333e-02	-1.9582958587769816e-02	1.7826610122256691e-02	1.1627874411236278e-01	-1.2113073972052835e-01
0.117391                	4.0192314197348145e-02	-3.0042024450738160e-03	-5.0480137530989518e-03	9.8244474542084244e-03	1.1880449648994387e-01	-2.0055837347855352e-02	2.9920604552882497e-02	1.0271709644465648e-02	-2.1557938570392260e-02	1.8553736125318444e-02	1.1628048961339439e-01	-1.2132850336649335e-01
0.121739                	4.0012096832065754e-02	-3.5359093714607851e-03	-4.6524348867951395e-03	9.6084952449434092e-03	1.1604715940652666e-01	-1.7785873606231802e-02	2.9614543660976288e-02	1.0397553171089468e-02	-1.9553828291962193e-02	1.6017918920501410e-02	1.1372094196312908e-01	-1.1837337684992423e-01
0.126087                	3.9887428363019478e-02	-3.4360757446051039e-03	-4.5984842827852292e-03	1.0282095834549103e-02	1.1494732488813805e-01	-2.0512056588950729e-02	3.0225810016058841e-02	9.6616183469606359e-03	-2.2230094461253281e-02	1.8794018716648177e-02	1.1264808274674544e-01	-1.1724656702953067e-01
0.130435                	4.0074831369508630e-02	-5.9520044667282111e-03	-5.0114474141964363e-03	1.4223361117944977e-02	1.1684135152994321e-01	-2.6835680914432062e-02	3.4260776802699289e-02	5.8140545668093381e-03	-2.9811683147796166e-02	2.3859678681067958e-02	1.1433562782284500e-01	-1.1934707523704143e-01
0.134783                	3.9682131324277094e-02	-3.9734280643803363e-03	-4.8838408409953935e-03	1.0880289274399789e-02	1.1635668763094262e-01	-2.1395110318658071e-02	3.0721354936538336e-02	8.9607763877387579e-03	-2.3381824350848238e-02	1.9408396286467903e-02	1.1391476721044493e-01	-1.1879860805144031e-01
0.13913                 	3.9497215194414341e-02	-4.4184056582158770e-03	-4.7090579029106872e-03	1.0730475326757511e-02	1.1361798752794391e-01	-2.0317044844346523e-02	3.0479082923964680e-02	9.0181322704496591e-03	-2.2526247673454462e-02	1.8107842015238584e-02	1.1126345857648857e-01	-1.1597251647939925e-01
0.143478                	3.9390457458170339e-02	-4.0760378736348852e-03	-4.8616867191356499e-03	1.1493206968771735e-02	1.1490717945667692e-01	-2.0508350606889179e-02	3.1188435697856905e-02	8.2020217603134341e-03	-2.2546369543706622e-02	1.8470331670071737e-02	1.1247633609710909e-01	-1.1733802281624474e-01
0.147826                	3.9068689675519581e-02	-3.6438311156769469e-03	-4.7430594283447425e-03	9.1125962887793899e-03	1.1305557166236410e-01	-1.5261722316119282e-02	2.8646941126539181e-02	1.0421748548980401e-02	-1.7083637873957756e-02	1.3439806758280808e-02	1.1068404194819173e-01	-1.1542710137653647e-01
0.152174                	3.8887148790637059e-02	-4.0531091988861350e-03	-4.6263506710628646e-03	1.0457761183990590e-02	1.1351624988494802e-01	-1.9012555657773746e-02	2.9901335579309119e-02	8.9858132113279400e-03	-2.1039110257216814e-02	1.6986001058330678e-02	1.1120307454941658e-01	-1.1582942522047945e-01
0.156522                	3.8761698552596438e-02	-3.8238341609468005e-03	-4.4623172562257380e-03	9.8421281557121831e-03	1.1164139741449934e-01	-1.7224471229585342e-02	2.9222977432010404e-02	9.5387211205860360e-03	-1.9136388310058743e-02	1.5312554149111942e-02	1.0941023878638648e-01	-1.1387255604261221e-01
0.16087                 	3.8708791964474208e-02	-3.7216292557024451e-03	-4.5969486696166885e-03	1.0069898981785714e-02	1.1198972867223714e-01	-1.4673247540602664e-02	2.9424294964022817e-02	9.2844970004513899e-03	-1.6534062168453885e-02	1.2812432912751441e-02	1.0969125433742880e-01	-1.1428820300704548e-01
0.165217                	3.8807591303005422e-02	-4.9743275785390931e-03	-4.7443382880812601e-03	1.2282019816421845e-02	1.1265374625202021e-01	-1.7739644224195057e-02	3.1685815467924552e-02	7.1217758350808659e-03	-2.0226808013464603e-02	1.5252480434925511e-02	1.1028157710797958e-01	-1.1502591539606084e-01
0.169565                	3.8691643054827071e-02	-3.8351252767762252e-03	-4.7892142702666233e-03	8.8029008882223748e-03	1.1295762138524804e-01	-1.0865355846785357e-02	2.8148722415635909e-02	1.0542920639191161e-02	-1.2782918485173470e-02	8.9477932083972447e-03	1.1056301425011472e-01	-1.1535222852038135e-01
0.173913                	3.8602286459707202e-02	-1.4270551904321780e-03	-5.1147026356969747e-03	5.5639417511708714e-03	1.1385621458569654e-01	-3.9726633873238453e-03	2.4865084981024473e-02	1.3737201478682730e-02	-4.6861909825399346e-03	3.2591357921077564e-03	1.1129886326784806e-01	-1.1641356590354503e-01
0.178261                	3.8376220808844681e-02	-2.0599016750057898e-03	-5.0457473260182746e-03	7.7194326690526362e-03	1.1269797746309437e-01	-8.7185795389642141e-03	2.6907543073474975e-02	1.1468677735369704e-02	-9.7485303764671093e-03	7.6886287014613190e-03	1.1017510380008523e-01	-1.1522085112610352e-01
0.182609                	3.8219318413709374e-02	-1.9321649990333421e-03	-4.9414544156782423e-03	8.2037891937271623e-03	1.1248261210885781e-01	-1.1694434626494103e-02	2.7313448400581850e-02	1.0905870013127525e-02	-1.2660517126010774e-02	1.0728352126977432e-02	1.1001188490101868e-01	-1.1495333931669693e-01
0.186957                	3.8285751688141412e-02	-7.4214816224309069e-04	-5.1724968738173669e-03	5.5754682402492997e-03	1.1231927423940291e-01	-6.2547139999978253e-03	2.4718344084320006e-02	1.3567407603821406e-02	-6.6257880811193704e-03	5.8836399188762802e-03	1.0973302580249422e-01	-1.1490552267631160e-01
0.191304                	3.8134059158939519e-02	-1.1874102903451690e-03	-5.0602038615346666e-03	7.4246672115109002e-03	1.1085955206542410e-01	-1.3846069607630879e-02	2.6491696790980658e-02	1.1642362367958859e-02	-1.4439774752803463e-02	1.3252364462458295e-02	1.0832945013465677e-01	-1.1338965399619143e-01
0.195652                	3.8057830839256214e-02	-3.0253067699907471e-03	-4.8399007331175010e-03	8.9001219736200895e-03	1.0851689855250300e-01	-1.4832638965290570e-02	2.7929037393248195e-02	1.0128793446008017e-02	-1.6345292350285943e-02	1.3319985580295197e-02	1.0609694818594426e-01	-1.1093684891906175e-01
0.2                     	3.8102709263085434e-02	-3.3307657731216607e-03	-5.1163419224813924e-03	9.9927256270457964e-03	1.1039088844894311e-01	-1.6040645347252726e-02	2.9044080258588512e-02	9.0586290044969205e-03	-1.7706028233813557e-02	1.4375262460691896e-02	1.0783271748770241e-01	-1.1294905941018381e-01
0.204545                	3.7696822193404041e-02	-3.5157791902544733e-03	-4.7792399638172641e-03	1.0458667444554473e-02	1.0879018942033251e-01	-2.0601456006409492e-02	2.9307078541256491e-02	8.3897436521475476e-03	-2.2359345601536729e-02	1.8843566411282254e-02	1.0640056943842388e-01	-1.1117980940224115e-01
0.209091                	3.7542403152889418e-02	-3.0252352118911928e-03	-4.6832422664423489e-03	8.8658001654556163e-03	1.0807491040300379e-01	-1.8932887266830959e-02	2.7637001741900327e-02	9.9054014109890929e-03	-2.0445504872776556e-02	1.7420269660885362e-02	1.0573328926978262e-01	-1.1041653153622497e-01
0.213636                	3.7230703203608786e-02	-4.2953078827188814e-03	-4.4040837081568739e-03	1.2307935523233664e-02	1.0574840101439592e-01	-2.6044118743264403e-02	3.0923287125038057e-02	6.3074160785707295e-03	-2.8191772684623844e-02	2.3896464801904962e-02	1.0354635916031749e-01	-1.0795044286847436e-01
0.218182                	3.7378360792886874e-02	-3.8692926907614783e-03	-4.3820343767431756e-03	1.1324539419924156e-02	1.0650611105567589e-01	-2.3543041860699256e-02	3.0013719816367593e-02	7.3646409765192808e-03	-2.5477688206079995e-02	2.1608395515318516e-02	1.0431509386730431e-01	-1.0869712824404748e-01
0.222727                	3.7171850886409431e-02	-3.6207150725196366e-03	-4.3558889734836665e-03	1.0959109091605319e-02	1.0594516307276783e-01	-2.1554964817027098e-02	2.9545034534810034e-02	7.6268163515993970e-03	-2.3365322353286918e-02	1.9744607280767278e-02	1.0376721858602600e-01	-1.0812310755950966e-01
0.227273                	3.7042701308165879e-02	-3.9583994625660033e-03	-4.3228007360446002e-03	1.1741276989648972e-02	1.0576086953784603e-01	-2.2740304138917190e-02	3.0262627643731912e-02	6.7800736644339672e-03	-2.4719503870200190e-02	2.0761104407634189e-02	1.0359946916982372e-01	-1.0792226990586833e-01
0.231818                	3.6802037938853845e-02	-3.2490298749858551e-03	-4.0227192342405646e-03	1.0274661541276079e-02	1.0366508811986133e-01	-1.8570497535676297e-02	2.8675680510703003e-02	8.1263574281508436e-03	-2.0195012473169224e-02	1.6945982598183369e-02	1.0165372850274106e-01	-1.0567644773698161e-01
0.236364                	3.6680181142349604e-02	-2.8967909624916651e-03	-4.1041586033171654e-03	1.0473209546341867e-02	1.0401132878828419e-01	-2.0402522867075820e-02	2.8813300117516670e-02	7.8668810248329352e-03	-2.1850918348321653e-02	1.8954127385829987e-02	1.0195924948662560e-01	-1.0606340808994277e-01
0.240909                	3.6553252701631858e-02	-2.4459194020471512e-03	-4.0841432145283388e-03	7.9105030368974913e-03	1.0275673768634463e-01	-1.5360490800693323e-02	2.6187129387713420e-02	1.0366123313918438e-02	-1.6583450501716900e-02	1.4137531099669748e-02	1.0071466607908046e-01	-1.0479880929360881e-01
0.245455                	3.6368707288962535e-02	-2.5192813199505894e-03	-4.3528735307411717e-03	7.6604000296133564e-03	1.0353143988515545e-01	-1.3342222487984702e-02	2.5844753674094625e-02	1.0523953614867911e-02	-1.4601863147959996e-02	1.2082581828009408e-02	1.0135500311978486e-01	-1.0570787665052604e-01
0.25                    	3.6237413853756513e-02	-3.1405824053152933e-03	-4.2823881757041915e-03	7.3047564196010188e-03	1.0338010326374128e-01	-1.1897381308485500e-02	2.5423463346479276e-02	1.0813950507277237e-02	-1.3467672511143147e-02	1.0327090105827852e-02	1.0123890917588918e-01	-1.0552129735159338e-01
0.254545                	3.6051953822371384e-02	-2.9418919939198833e-03	-4.2674065108380885e-03	6.9560466177741561e-03	1.0330005453089122e-01	-1.1672093533239468e-02	2.4982023528959847e-02	1.1069930293411537e-02	-1.3143039530199409e-02	1.0201147536279527e-02	1.0116635127547217e-01	-1.0543375778631027e-01
0.259091                	3.5989523114930332e-02	-2.7621867104097898e-03	-4.3196328086846708e-03	6.2725088893689279e-03	1.0330014869217523e-01	-9.8313996847517113e-03	2.4267270446834095e-02	1.1722252668096237e-02	-1.1212493039956606e-02	8.4503063295468164e-03	1.0114033228783290e-01	-1.0545996509651756e-01
0.263636                	3.5842214746740500e-02	-1.9554973886815271e-03	-4.2657246933248206e-03	3.8089571634085098e-03	1.0290726118215682e-01	-5.2804196742575662e-03	2.1730064536778761e-02	1.4112150209961739e-02	-6.2581683685983295e-03	4.3026709799168028e-03	1.0077439883549441e-01	-1.0504012352881922e-01
0.268182                	3.5764186244724751e-02	-1.1174206608175635e-03	-4.3670032737852154e-03	2.6814801542555558e-03	1.0312923486369414e-01	-1.2926293427489948e-03	2.0563573276617932e-02	1.5200612968106819e-02	-1.8513396731577765e-03	7.3391901234021303e-04	1.0094573322680153e-01	-1.0531273650058676e-01
0.272727                	3.5608391377660371e-02	-1.7675541014876717e-03	-4.3980185126110492e-03	3.7890373518034925e-03	1.0389490112487186e-01	-2.5473169624042977e-03	2.1593233040633677e-02	1.4015158337026693e-02	-3.4310940131481336e-03	1.6635399116604619e-03	1.0169589186856634e-01	-1.0609391038117738e-01
0.277273                	3.5467757582463719e-02	-1.4898207231758137e-03	-4.3707070843014336e-03	3.5733315528490807e-03	1.0337099197267124e-01	-2.8952498873568247e-03	2.1307210344080941e-02	1.4160547238382778e-02	-3.6401602489447315e-03	2.1503395257689178e-03	1.0118563843052053e-01	-1.0555634551482196e-01
0.281818                	3.5354510054175878e-02	-4.7333597155035711e-04	-4.1744179874144798e-03	1.0422023026279913e-03	1.0241417214541083e-01	1.3256706033154997e-03	1.8719457329715930e-02	1.6635052724459948e-02	1.0890026175403211e-03	-1.5623385890906783e-03	1.0032696315170360e-01	-1.0450138113911807e-01
0.286364                	3.5310951953473411e-02	-8.4275288931755265e-04	-4.0919838036841179e-03	4.1954965362999856e-04	1.0275288139281366e-01	5.3659457569860056e-03	1.8075025630366705e-02	1.7235926323106707e-02	4.9445693123272294e-03	-5.7873222016447817e-03	1.0070688949097160e-01	-1.0479887329465572e-01
0.290909                	3.5292988778392438e-02	-1.2803285368030580e-03	-4.2289068608713154e-03	1.8018906616342225e-03	1.0352577063222199e-01	2.0298466479662090e-03	1.9448385050830443e-02	1.5844603727561996e-02	1.3896823795646800e-03	-2.6700109163677382e-03	1.0141131720178632e-01	-1.0564022406265765e-01
0.293939                	3.5205602237643609e-02	1.8880219606519502e-05	-4.0276649856644661e-03	-1.8975993419845347e-03	1.0230307699710878e-01	1.1008043291742547e-02	1.5705201776837270e-02	1.9500400460806339e-02	1.1017483401545807e-02	-1.0998603181939287e-02	1.0028924450427655e-01	-1.0431690948994100e-01
0.29697                 	3.4641378839022290e-02	3.3612368402363886e-04	-3.7587776166005645e-03	5.5688896496027646e-04	9.7903694732359423e-02	2.2295260749336694e-03	1.7877578384471422e-02	1.6763800454550868e-02	2.3975879169454888e-03	-2.0614642329218500e-03	9.6024305924059139e-02	-9.9783083540659706e-02
0.3                     	3.4625999341165725e-02	-1.6974997297597146e-03	-3.7394310382385040e-03	6.9737191873112357e-03	9.7845296864752129e-02	-1.1358500212854167e-02	2.4286718857894098e-02	1.0339280483271627e-02	-1.2207250077734025e-02	1.0509750347974309e-02	9.5975581345632874e-02	-9.9715012383871385e-02
0.303448                	3.4545502969888148e-02	-2.4286649650463758e-03	-3.6214676943387863e-03	9.0927476202305353e-03	9.7394785634537545e-02	-1.5621525451706135e-02	2.6365499105174609e-02	8.1800038647135385e-03	-1.6835857934229322e-02	1.4407192969182947e-02	9.5584051787368146e-02	-9.9205519481706944e-02
0.30731                 	3.4607142832328186e-02	-2.6093950129485117e-03	-3.6023417816554246e-03	1.0446365038614588e-02	9.7149609405427467e-02	-1.9099931478912251e-02	2.7749936454778683e-02	6.8572063775495049e-03	-2.0404628985386506e-02	1.7795233972437995e-02	9.5348438514599759e-02	-9.8950780296255175e-02
0.311724                	3.4716479595873817e-02	-2.3857441608616482e-03	-3.4511384945346813e-03	9.5215595005866665e-03	9.6154840913083822e-02	-1.7755127199393206e-02	2.6879799298523577e-02	7.8366802973502420e-03	-1.8947999279824029e-02	1.6562255118962383e-02	9.4429271665816480e-02	-9.7880410160351164e-02
0.316628                	3.4646047889475284e-02	-2.8170674610108830e-03	-3.4528490364141204e-03	1.1771111300361188e-02	9.5761601582968148e-02	-2.3422312527752787e-02	2.9094135245098830e-02	5.5519126443764541e-03	-2.4830846258258227e-02	2.2013778797247346e-02	9.4035177064761083e-02	-9.7488026101175213e-02
0.321533                	3.4573194456282985e-02	-8.2058542637908187e-04	-3.5017823174517573e-03	5.8077679986593177e-03	9.5259662352630309e-02	-1.1310489104304301e-02	2.3094365226800809e-02	1.1478829229482176e-02	-1.1720781817493843e-02	1.0900196391114760e-02	9.3508771193904425e-02	-9.7010553511356193e-02
0.326437                	3.4516590418140064e-02	-1.2593788775493336e-03	-3.6709860636262464e-03	7.2979474696478067e-03	9.5301552861478914e-02	-1.5115127080074151e-02	2.4556242678717838e-02	9.9603477394222262e-03	-1.5744816518848816e-02	1.4485437641299484e-02	9.3466059829665785e-02	-9.7137045893292043e-02
0.331341                	3.4522385219885952e-02	-1.5112066605742673e-03	-3.7586949286205237e-03	6.3251570259512686e-03	9.5291531437736485e-02	-1.1615299109011913e-02	2.3586349635894246e-02	1.0936035583991708e-02	-1.2370902439299046e-02	1.0859695778724780e-02	9.3412183973426224e-02	-9.7170878902046745e-02
0.335918                	3.4445657231107089e-02	-2.8413603144724262e-03	-3.8098249164444258e-03	9.3912232896050784e-03	9.5531075009123043e-02	-2.1775901707165882e-02	2.6614051905158621e-02	7.8316053259484663e-03	-2.3196581864402096e-02	2.0355221549929668e-02	9.3626162550900824e-02	-9.7435987467345261e-02
0.340496                	3.4522060825886693e-02	-1.6544284316785383e-03	-3.9931254676801430e-03	6.4228023945516310e-03	9.6723482063368768e-02	-1.3817048617693511e-02	2.3683832807494976e-02	1.0838228018391715e-02	-1.4644262833532781e-02	1.2989834401854241e-02	9.4726919329528703e-02	-9.8720044797208834e-02
0.345073                	3.4495827418773405e-02	-1.1825067391942389e-03	-3.9168382113970350e-03	6.5773221881459563e-03	9.5931057377762918e-02	-1.4293861736432122e-02	2.3825235897532659e-02	1.0670591521240745e-02	-1.4885115106029242e-02	1.3702608366835001e-02	9.3972638272064396e-02	-9.7889476483461441e-02
0.34965                 	3.4332723748995764e-02	-8.7694670845601475e-04	-3.8096425318092080e-03	5.1002018727608440e-03	9.5547204571966485e-02	-1.3181283499159802e-02	2.2266563747258727e-02	1.2066160001737037e-02	-1.3619756853387810e-02	1.2742810144931794e-02	9.3642383306061880e-02	-9.7452025837871090e-02
0.354227                	3.4211694429736282e-02	-1.5889658782503842e-03	-4.0803093656085285e-03	7.3073620363467541e-03	9.6813757659377581e-02	-1.8574002870798040e-02	2.4413209251214894e-02	9.7984851785213878e-03	-1.9368485809923234e-02	1.7779519931672847e-02	9.4773602976573321e-02	-9.8853912342181841e-02
0.358805                	3.4099740402027706e-02	-1.8493784132419828e-03	-4.0184094380402964e-03	6.3670936293870701e-03	9.5931872443809213e-02	-1.3883811246074405e-02	2.3416963830400924e-02	1.0682776571626782e-02	-1.4808500452695397e-02	1.2959122039453413e-02	9.3922667724789063e-02	-9.7941077162829362e-02
0.363382                	3.4092098044155639e-02	-2.5875274737153387e-03	-4.0922209612105475e-03	7.1492652032223688e-03	9.6369121777299088e-02	-1.5669938754068375e-02	2.4195314225300187e-02	9.8967838188554515e-03	-1.6963702490926044e-02	1.4376175017210707e-02	9.4323011296693821e-02	-9.8415232257904356e-02
0.367959                	3.3963947538268563e-02	-1.9728797788641970e-03	-4.1082408057028716e-03	5.6163682090704025e-03	9.5964283400346378e-02	-9.5576580069844704e-03	2.2598341978204685e-02	1.1365605560063878e-02	-1.0544097896416568e-02	8.5712181175523726e-03	9.3910162997494939e-02	-9.8018403803197818e-02
0.372536                	3.3853936968846234e-02	-3.0562667697757715e-03	-4.1800164313592425e-03	7.6707921177160739e-03	9.6290663235662197e-02	-1.2023703377304750e-02	2.4597760602139189e-02	9.2561763667070428e-03	-1.3551836762192637e-02	1.0495569992416864e-02	9.4200655019982579e-02	-9.8380671451341814e-02
0.377114                	3.3962498162884026e-02	-3.1645459554198109e-03	-4.3323517363911606e-03	6.9141368654314769e-03	9.6911011908950878e-02	-8.5336579853964017e-03	2.3895385946873491e-02	1.0067112216010535e-02	-1.0115930963106307e-02	6.9513850076864964e-03	9.4744836040755301e-02	-9.9077187777146455e-02
0.381691                	3.3729870272595136e-02	-2.7480378475000069e-03	-4.2881909261636292e-03	4.8630220336498579e-03	9.6381034250206027e-02	-3.2821995513726081e-03	2.1727957169947427e-02	1.2001913102647709e-02	-4.6562184751226116e-03	1.9081806276226047e-03	9.4236938787124219e-02	-9.8525129713287835e-02
0.386268                	3.3639417038193314e-02	-2.4109787582637762e-03	-4.2381839010616242e-03	4.4679950959900403e-03	9.6592974410078025e-02	-2.8466352502626163e-03	2.1287703615086698e-02	1.2351713423106616e-02	-4.0521246293945042e-03	1.6411458711307282e-03	9.4473882459547215e-02	-9.8712066360608836e-02
0.390845                	3.3529537594363133e-02	-2.2936389628038277e-03	-4.1877085763562900e-03	3.9835835369206509e-03	9.6202867408453824e-02	-3.8166071734647023e-04	2.0748352334102216e-02	1.2781185260260916e-02	-1.5284801987483841e-03	-7.6515876405544364e-04	9.4109013120275684e-02	-9.8296721696631964e-02
0.395423                	3.3554965155963720e-02	-2.3325640538564155e-03	-4.2258744630822185e-03	3.6561400571984786e-03	9.6058087766469291e-02	-7.7121780018548887e-04	2.0433622635180337e-02	1.3121342520783381e-02	-1.9374998271136966e-03	-3.9506422674271888e-04	9.3945150534928176e-02	-9.8171024998010406e-02
0.4                     	3.3196752267293489e-02	-1.0588830535757658e-03	-4.2088537945783166e-03	3.2640499985301919e-03	9.5879427111986409e-02	-1.0993180544306117e-03	1.9862426132176935e-02	1.3334326135116552e-02	-1.6287595812184946e-03	5.6987652764272875e-04	9.3775000214697257e-02	-9.7983854009275562e-02
0.404762                	3.3146937598295838e-02	-1.4605969938970486e-03	-4.1847210729385508e-03	4.1759156003061413e-03	9.5840004113737692e-02	-2.4950750815829555e-03	2.0749384399454059e-02	1.2397553198841779e-02	-3.2253735785314798e-03	1.7647765846344312e-03	9.3747643577268419e-02	-9.7932364650206966e-02
0.409524                	3.3167739376744956e-02	-5.5501157579973981e-04	-4.2393830665228786e-03	1.6443960824769268e-03	9.6177663826901086e-02	3.6587775262719707e-03	1.8228265770849406e-02	1.4939473605895551e-02	3.3812717383721008e-03	-3.9362833141718409e-03	9.4057972293639644e-02	-9.8297355360162528e-02
0.414286                	3.3050150964551203e-02	-1.6813651308649450e-03	-3.9997231975416230e-03	2.4829559925495389e-03	9.5571555032926025e-02	3.5553545339471154e-03	1.9008031474825139e-02	1.4042119489726062e-02	2.7146719685146427e-03	-4.3960370993795881e-03	9.3571693434155209e-02	-9.7571416631696842e-02