/*--------------------------------*- C++ -*----------------------------------*\
| =========                 |                                                 |
| \\      /  F ield         | OpenFOAM: The Open Source CFD Toolbox           |
|  \\    /   O peration     | Version:  v1906                                 |
|   \\  /    A nd           | Web:      www.OpenFOAM.com                      |
|    \\/     M anipulation  |                                                 |
\*---------------------------------------------------------------------------*/
FoamFile
{
    version     2.0;
    format      ascii;
    class       volVectorField;
    location    "0.6";
    object      U;
}
// * * * * * * * * * * * * * * * * * * * * * * * * * * * * * * * * * * * * * //

dimensions      [0 1 -1 0 0 0 0];


internalField   nonuniform List<vector> 
19632
(
(5.014538180990661 0.004758458755549231 -0.006594976175947892)
(5.000042270969317 -0.00337120840113958 -2.718234252525005e-05)
(5.000403697678836 -0.0004820011183695414 -0.000251966706378258)
(5.120565303003368 0.08316763542471158 -0.1749965840068515)
(5.000520003499952 -0.0005182425962198083 -0.003327109748015194)
(5.000519809502829 -0.0002848530995058452 0.0004017912371667312)
(5.001335657214589 -0.00219155223849707 0.001667566023309486)
(5.000238128193697 0.0001596906155552057 5.154686393158538e-05)
(4.99995340840221 -0.0008110491812505326 0.008506687077074384)
(5.061928669265443 -0.004660427076489346 0.02219785064286726)
(5.01596488966999 -0.02211988976137077 0.01629065030446528)
(5.001105287366703 -2.176711759857665e-05 -0.0002640776556508172)
(5.000204701681285 -0.0006739923932529349 0.0002925100494882053)
(5.000950612504404 -0.0008076820882245148 0.0002681063513559633)
(5.009377827592203 -0.01083693517709903 0.02040791166424109)
(4.995509178263238 -0.0001380991979859189 -0.0003729464751944956)
(5.000171065175889 -0.0008162433725602407 0.0005202106704129749)
(5.000679690045584 -0.0008828024223790507 -0.01607868967648993)
(5.000123624621938 -0.0001213396533789585 0.0001035711357033919)
(5.000243094672171 -0.002690837402837168 1.328794209555055e-06)
(5.016477964684668 -0.01087806366957729 -0.002619931122613457)
(5.269201354820455 0.17639958107126 -0.1241028996571738)
(5.012600226905689 -0.0002807748982768722 -0.005362155983421882)
(5.00036400383873 -0.001242890682445579 6.578173163996718e-05)
(5.000062681698346 -0.001258223553761004 1.070226288282382e-05)
(5.000099965962829 3.192736307811223e-05 0.0001361642103570607)
(5.000301594455139 0.0007429584829983534 0.0001536910753687107)
(5.087876488384829 0.1275893379554554 -0.3143478615498237)
(4.998176937842973 -0.002043113449972414 -0.0004780077878685112)
(5.00019309626642 -0.0007771107911160854 1.871161463534383e-05)
(4.999984470670062 -0.0001926680741335061 -0.0001375329243044677)
(4.999427777489625 -0.003406369115379313 -0.00259821356683124)
(5.062634492021652 -0.01068416766089379 -0.04684864948512292)
(5.266031267439751 0.03449742435996427 -0.2308945692534373)
(5.001467862499665 -0.0006863804619335424 -0.001417000732455606)
(5.000193330590952 -0.0004729778047630769 9.883855554686107e-05)
(5.000214675605441 1.799726550291112e-05 -0.0002335931419332348)
(5.000223266429069 1.86362026387206e-05 -5.855951314484654e-05)
(4.999982153352184 -0.0002711535399609205 -4.937527003748387e-05)
(5.014210009201725 -0.01248412228461019 0.002954353768013716)
(5.000050137253204 -0.0002118022426843392 0.0002448557615260437)
(5.000660789682773 -0.002147877340969215 0.002147760547492193)
(5.000072181026523 -0.0002082670480359865 0.000114304004129247)
(4.971206697147121 -0.01928524291270741 -0.002462763385762291)
(4.999665554901875 -0.000244105852338671 -0.0001629445747331696)
(5.000202721148979 -1.900317448405563e-05 -5.997348490123307e-05)
(5.000230282793999 -0.0001185491067898503 5.138429928634477e-06)
(5.000301486601528 -0.0002491418878230102 -4.700222239668707e-05)
(4.999638910175615 -0.0007434338607547885 0.00050892426072589)
(5.00130813339588 -0.002425628849962773 0.001120471183444248)
(5.000115010892217 -0.001070227114758416 -0.0009234371819733471)
(5.000654098339379 -0.006913445379911638 0.0007929272390131794)
(4.99983535935705 -0.0002851142448018026 4.193459904587242e-05)
(5.00178123258776 1.484966129753275e-05 -0.0006422568295496964)
(4.999832208686107 -0.001193765145003569 -5.875293145755953e-05)
(4.999732669477821 -0.00743069660756816 -0.0001666933271386835)
(5.00103145323633 -0.001721955940904827 -0.002678463035694598)
(5.000479074006087 -0.003819184053637984 -3.026735396171623e-05)
(5.000054914126393 -0.0003757692497979787 0.0001420916152165494)
(4.977841242736959 0.002630549185917785 0.02351456228885809)
(5.000155153893189 -0.003372881427168835 1.690960121026955e-05)
(5.000026329646248 -0.0002654663717067739 0.0001427331733678896)
(4.986547721923145 0.06532538193442318 0.03026388866206254)
(4.612322214567412 0.2859771569069313 -0.004212054505950446)
(5.000384451491684 -0.0001428560667903036 -1.391571354721372e-06)
(5.274943058755397 -0.255368199464995 -0.4006787522497465)
(5.302674195276112 0.07482646996770841 0.02955362615706167)
(5.000338338442169 -0.001967334919140633 8.592588458417468e-05)
(5.000539923275865 -0.0005947292382786669 -0.0002418253648510098)
(5.001016510269447 -0.002490067722816384 0.0016138738281783)
(5.011371757114966 -0.00289218437707741 -0.0003082699915585037)
(5.000316732785993 -0.0004486974855554668 1.117941986255961e-05)
(5.000196130957253 -0.0001114559151197048 -2.960656308134522e-05)
(5.000303236627248 -0.0006185836019559702 -0.0004338945809303214)
(5.000161703270439 -0.0001758964033387967 -5.992034837322416e-05)
(4.99996997076919 -0.0002613510281598495 0.0001222070011707477)
(5.000180316130158 -0.0001100658623220228 -0.0001093213971291906)
(4.859636706283245 0.01149356405536862 -0.002068441335234154)
(5.008982628612597 -0.00490618236407359 -0.009098094340023562)
(5.030552638788181 -0.009628201470833604 0.01155797312172559)
(4.98831841656431 0.004102377857405398 0.01725395059289138)
(4.946967432743453 0.3193289251219069 0.3275509805841228)
(5.001276952812614 -0.0002766697998666637 -3.050311655859026e-05)
(5.000206075672751 -0.0006153717629410267 0.0002672737852825421)
(4.999855691917149 4.110552765713172e-05 6.654414599491825e-05)
(5.000221705325775 -0.001216230124790394 -0.0006381035283580318)
(5.000292337178927 0.0002680310229569534 7.700998195314077e-05)
(5.000233712894157 4.286965089853814e-05 -9.810053588051569e-05)
(5.001272358833469 -0.0009728779560584523 -0.001120277003866976)
(5.002053880182831 -0.000772700115669932 0.001981283089448064)
(5.029503278921731 0.007037411685602791 -0.02197825847327494)
(4.999972144353256 -0.004199876718198072 0.0001742997114813828)
(4.998932694697825 -0.002814678302422455 -0.0002666062000002127)
(5.019864663749108 0.0001965112771251405 0.02458549938744465)
(5.000286304263616 -0.003981155188200441 -0.0002152021212889678)
(5.00312106038548 -0.0005803853440264642 -0.002096291837961812)
(5.000462932902732 -3.186734571096561e-06 0.0006842402138058939)
(5.00055186585975 -0.0004746155632719046 0.0001223221744910377)
(5.000131670237051 0.0008022725561961971 -0.000235141517433119)
(5.000072465556851 -0.003309844454372939 0.0001236946882714028)
(4.481598985897603 0.3426079165451875 0.2317957958529402)
(4.999871210592785 -0.0001139111647360261 0.0002204108309725255)
(5.00970654866597 -0.005375729974996685 -0.002064002751909167)
(5.000059995890443 -5.594600720018197e-05 -0.0002649882265475921)
(5.051741693447171 0.0422474812724191 0.188691201328056)
(5.05956764836063 0.0212187969108208 -0.03095546438269901)
(4.885180174781158 0.2810010394335616 -0.03929913038994284)
(5.02088019800709 -0.01361247469905503 0.008808187282598348)
(5.000083852472401 -0.0008833144486392501 -1.709920311355696e-05)
(5.000470696786605 -0.003652173048218364 -0.0004881054393369981)
(4.896498179146501 0.242329709965451 0.4180892235497093)
(4.999494736156745 0.0004234884743279986 0.0001198471237254615)
(5.001585538720422 -0.0006711186254554543 -0.0006781678741031551)
(5.164993001003849 0.0758117200020277 0.1352238126409748)
(5.000094650263942 -0.003383230808402965 4.615931081314079e-05)
(5.003793273669934 -0.04315763437627505 0.02093085415968905)
(5.230571908006313 -0.2112032940965822 -0.6679684264033087)
(5.090024336162534 0.1538983749560615 0.0111964281365075)
(4.999954535232673 -0.001669853975340147 0.0003719665959359286)
(5.000117189775683 0.0003336451826244648 -0.0001336920054620828)
(4.999981524977846 -0.0027417615619744 4.155353759953972e-05)
(5.002671864512613 -0.0005709927682159765 0.0002485725325738868)
(5.000112462371919 -0.0007158462292851597 0.0003991519933732387)
(5.000251784167458 -0.0003855815131666886 -4.811198814855177e-05)
(5.16709285447591 -0.1051298557201495 0.01470149096483545)
(5.037624354029175 -0.01713827642671222 -0.01177743925077698)
(5.000075737371046 2.417943009479599e-05 -0.0001703576765441068)
(5.005141551491114 -0.001211885397113648 0.0004593920326053003)
(5.000684498618042 -0.0007399888248525074 -0.0001080745813668815)
(5.000144194498456 0.0001099222777062972 0.0002463933717315065)
(5.000084648404216 -0.0006777375348372702 0.000188155141994629)
(4.999986248097035 -0.000298174088252816 0.0001784009508987861)
(5.030673688531634 -0.02391793981550205 -0.01708816877001288)
(5.000262992675901 -0.0001111299137767694 -3.65434313313875e-05)
(5.003885989913188 -0.0009331839328518051 0.0004400972025997035)
(5.014559906755068 -0.01016406944925245 0.005642565528929917)
(5.004470892828595 -0.002672319810187139 -0.002227234879232675)
(5.001704806504891 0.0003535729877807861 -0.0005987400602430415)
(5.000081332902069 -0.0005361936013536317 0.0003019792642107559)
(5.001493420926227 -0.005980550407278793 -0.003469417632308603)
(4.646689446537382 0.004958763560831419 0.2381069444177905)
(4.778434731708747 0.3720348099404219 0.1757300791441677)
(5.297541897010057 0.238461256031205 0.07021116770357862)
(4.270303167060523 0.1178777442722635 0.03751318533643075)
(3.050532351168734 -0.7822418671645561 -0.954890617133483)
(5.000230865293919 -0.0001176434139419036 2.608268975951957e-05)
(4.996416785864093 -0.0005686400443724092 -0.0004238940750761388)
(5.004082020454187 -0.001780106268287369 0.0002375388846385273)
(5.012755255460576 -0.0005621889327155465 0.001083017816430921)
(5.000031192707366 -0.0001039779526076706 7.910235171419428e-05)
(5.001439723650967 -0.001090352057036299 0.0008479077804439865)
(5.00131565909872 -0.001350633862842891 0.001078398210849255)
(5.001258941896148 -0.00107115637688959 0.0009255197588056007)
(5.000240682305168 -0.0008848843026253138 -0.0001025563152197798)
(4.974337856918685 -0.002480676215991855 0.001864518276857419)
(5.001477462198452 -0.0007534856346754545 0.001009717608384624)
(5.000266139480896 -0.0001779501978937252 -0.0001558982038445249)
(5.000189127702598 -0.002543695477683003 -4.632629733873066e-05)
(5.001368094859251 -0.003478209835823938 0.0003018687309500448)
(5.236780099720445 -0.2390233018261499 -0.206474265460167)
(5.036024893763642 0.1396065048409439 0.454271757065817)
(5.116657529036894 -0.06829999750734297 0.1698124031338221)
(4.782077779161452 0.9171283478073671 -0.1024624316666249)
(5.324136921086743 0.2472844405897509 -0.1215537910480632)
(5.000964443167994 -0.0005473478652842397 0.001614036553662421)
(5.000174166568393 -0.0003469809972516822 0.0006870462983313448)
(4.999812961640936 -0.0007203248947606587 -0.0002240108942756387)
(5.001876554317711 7.271771805709661e-05 0.002355540389773245)
(5.2049381668204 0.3115396056205647 -0.3311653482990874)
(5.001718413319095 -0.0003523776047252854 -0.0007415760436584716)
(4.999897199930487 -0.0001813622086601172 -0.001244284905012393)
(5.008778544249111 -0.002650895098952727 -0.001196827843832787)
(5.000225847000174 0.000180468257478263 0.0001629086161532123)
(5.000044223153225 -0.000541525546326751 1.039554481632719e-05)
(4.999836857690567 -0.0002871799787740097 -0.0001974259338860996)
(4.97893579451624 -0.003756257308199718 0.0003231986392323585)
(5.000528277551306 -0.0001404761694330947 -6.402859230463065e-05)
(5.010806009660585 -0.005540979326583114 1.617959012964068e-05)
(5.000427757465195 -0.000149080727395597 1.174779270328043e-05)
(5.000296712417086 -0.0001810191278183783 7.071645135325309e-05)
(5.00012287206209 -0.0001016275910177903 0.0001168905016576865)
(5.000383031169227 -0.0001257315863460303 2.052985345929136e-05)
(5.000343713810024 -0.0001842011621129942 -0.0001565839826947993)
(5.000140179113494 8.882270729974867e-06 -0.001855746407123862)
(5.00027443586112 -0.002461667043507984 1.401069790054963e-05)
(5.000133030866285 -0.0002337138401245276 -0.0001354124922295169)
(4.995495175802641 -0.00098960429686162 3.935729683297223e-05)
(5.000174345662185 -0.0002003751046891766 0.0001611638230184785)
(4.999911449109113 -0.0002943054097651079 7.04983157805859e-05)
(5.000457579875735 -9.798243528109045e-05 2.94347639021607e-05)
(4.999889167465851 -0.0002711582424592501 -0.0001699121802114227)
(5.015831326453622 -0.004930206450540961 0.003400328895124049)
(5.022978407228758 -0.02704444376866302 0.01362301877248827)
(5.000662823287473 -0.0007726929680416278 0.01930774457266772)
(5.000202933522833 0.0001320591976150841 6.836163652790739e-05)
(5.000494329753162 -0.0003806737180669023 -4.127234870638424e-05)
(5.00702749313878 -0.0009608352273541656 -6.661144721804847e-05)
(5.045841304888649 -0.145041391203403 0.139909863364487)
(5.001040865304999 -0.000756885455649499 0.000416532021467509)
(5.000641095910816 -0.0005931329787440664 -0.005929093512865836)
(5.000272734482338 -0.004654206589936795 1.518897293443209e-05)
(5.00958695226257 -0.00818306420865946 0.0003326338599044207)
(5.000074905085964 -0.0001005430065614118 -3.229398399104377e-06)
(5.000517055370497 -0.0005951931281072837 -0.0004008485558098759)
(5.000122737034916 -0.0008454950543140666 -3.041163566852227e-05)
(5.001054339172053 -0.002049919247791583 0.01277389476132237)
(4.999992880907753 -0.0002762268374994321 0.0001837565912767394)
(5.000708319328519 -0.001284584375049657 -0.0007072481430168629)
(4.999949915624478 -0.0001847320824018425 -5.479593820622457e-05)
(5.000351265495919 -0.0003296928724985403 0.0001135369715777746)
(4.997524253424927 -0.004955207827222116 -0.0008291512198303005)
(5.000364161876266 -0.0001472504599456302 -4.084093239998926e-06)
(5.000080497742581 -0.0002506909013976958 -0.0001205873064358034)
(5.001921076758987 -0.0002500054444167915 -0.001188866634466599)
(5.000236744300429 0.0001375194828087256 0.005075403163250734)
(4.999686139766801 -0.0001678349119235522 0.0006262459035159583)
(5.002581630384587 -0.002425462742617845 -0.001992299010833391)
(4.999872617995892 0.001263057398162586 -0.0001031245938976416)
(4.999847109196964 -0.0001095403770267596 3.053103949259842e-05)
(5.000183822834467 -0.00221798994779899 -0.000419257707203474)
(4.995938536480848 0.0006277351012730219 -0.0008880724042378601)
(5.000063311011492 -8.421643573467761e-05 0.001681674363550081)
(5.000180392311111 -0.0004257073634303821 0.0001846727731491268)
(5.000192453252758 -7.441950528385072e-05 -8.562852015668236e-05)
(4.99150464439526 -0.000721627321024036 -0.0008273019903291463)
(4.999805511575267 5.998378229926711e-05 0.0001987254872252877)
(5.000098210099795 -0.0008792715384136134 -0.0004564442976795861)
(4.999628294509231 -0.0008319201393817932 -0.0002030194616294325)
(5.001398456095678 -0.00136663156036251 -0.0004051686803214463)
(5.001110625210681 -0.0004546887518409399 0.0001435007591519894)
(4.999935713568589 -0.0004223395504118682 1.840414387155456e-06)
(5.001344091249455 -0.0002944585627820507 -0.0001919975999305258)
(4.999850146834238 -0.0001861083514545384 -0.0001740142930677598)
(5.001125249676693 -0.00020596435135886 -2.91488992191657e-05)
(4.998962671537296 -0.004079942459606904 0.001884709997074416)
(4.999761388200106 -0.0001784436856950758 0.0001341490331270629)
(5.000135773479026 -0.0004286803763523221 -4.672331689367747e-05)
(4.990465710490708 -0.001459030705707679 0.0009710394589042582)
(5.011763825159972 -0.003175490107301761 0.001487558665927549)
(5.000178610399567 -0.0004330523046168353 -0.0005094404152600208)
(5.000040900807174 -0.0001795285894267284 0.0002573684757943064)
(4.967738266628593 -0.01063982062561123 -0.0007742498323494879)
(5.013160756890758 -0.0117161716781399 -0.007748632728980182)
(5.000290520411686 -0.0002709267446850197 -7.051298679403007e-05)
(5.000497541694249 -0.0005099170828141248 2.336168758401419e-05)
(5.000218433753884 -0.0009631633454562001 0.0004439540996566595)
(5.000194551135346 -0.003821642797067608 -8.615521127214255e-05)
(5.015968280562524 -0.005737896244898173 0.002322054692353965)
(5.000200451550549 -9.238934873936696e-05 -2.063057978146756e-05)
(4.999890760050182 -0.0002977861079760092 -0.0002458801371954506)
(5.000325674960648 -0.0001521853882396293 -2.901364004671276e-05)
(5.000012650991092 -0.0003273585807591474 -1.212578246287851e-05)
(4.999835162731133 -0.0003006272540096962 -0.0001185510308619759)
(5.007979992032387 -0.006889420907599779 0.005615700728673014)
(4.999416749013558 -0.00322850228515839 -0.0001098759671537413)
(4.987282221600593 -0.002913552415788007 0.001417146809372025)
(5.000115132995293 -0.000341305025907822 -5.875080418302731e-06)
(5.009309236864998 0.02069516413505508 0.0253558507272157)
(5.024907568030128 -0.01657433598830002 0.01455962934581158)
(4.999081223120114 -0.002011406075468273 6.92934482478317e-05)
(4.993687175282457 -0.005150703138195342 -0.002295005875774092)
(5.000591555176375 -0.002437645709475502 -0.001251903832246755)
(5.000353001080009 -0.0001309596578708442 -0.0001318265154755153)
(5.00069595668348 -0.000443866077647255 0.0001806953902711881)
(5.000013613729652 -0.0007089717228912654 0.01971661890863445)
(5.000641623293555 -0.0003914400846995855 0.0001057858146260836)
(5.000731251595946 -0.0004843850196423515 9.453315428698962e-05)
(5.000454969250939 -0.001080720361275636 -0.0006191136932042332)
(5.00054934616915 -0.0004459311198157177 0.0001576512784025665)
(5.000121477397037 -0.0001876365860914604 7.301114764635694e-05)
(5.000852151729702 -0.0003466754784483044 0.0001255179298825481)
(5.000083925696162 -4.821670433231148e-05 -3.006507582244332e-05)
(4.999719973691116 -0.0002345495920344395 -0.001318645045494686)
(5.000167416725263 -7.024576686656023e-05 -4.157746551577507e-05)
(5.000242310610167 -0.0007188077597689963 -0.0005548671360505173)
(4.999847528486793 -0.002119682909993741 -0.0002870170879551652)
(5.00247497319606 -0.003513635355315501 -0.001679772771262318)
(5.001959882954157 0.0001967608645009578 -0.001442643080907771)
(5.000233101231452 -0.0002374095017073064 -8.739763022958545e-05)
(5.000624986266298 -0.002062814690583269 -0.00087866161420972)
(5.000180401162229 0.0002289477906427367 3.816446916628466e-05)
(5.001179565758021 0.000258272516580426 -0.008779917286886168)
(5.000132848143671 -0.001829690943099359 0.00108249414619662)
(5.000371032991913 -0.0007189373957188945 -7.136342846509641e-05)
(4.577326715250605 0.5782445025365195 0.593565261684857)
(5.001163595317982 -0.0008552646398385079 -0.01092644960282578)
(5.000549098253801 -0.002897963151376875 -0.001284687531428422)
(5.000363740018643 -0.001719309520564083 0.01623217766725654)
(5.001478437383128 -0.0006308623145266711 0.0017338597661572)
(5.000109349695615 -0.002892625688858006 0.001035880596714535)
(5.000563416768535 -0.0003261131441475691 -1.332032884573853e-05)
(5.00038066312746 -0.0007852889085074418 0.0009409255461388152)
(5.00014198912675 -0.0002853844290853969 0.0002643098057786451)
(4.999852046152179 -0.0002457235805590067 0.0001085316473282281)
(5.000301581051631 -0.0001346665329479014 0.0008342739391815635)
(5.000185468059929 -4.133563487408453e-05 0.002432278393258212)
(4.999990048224131 -0.0004175431045118759 0.0004241077069887013)
(4.981636599616534 -0.003998237805730425 -0.0003407973318123525)
(4.999836884354059 -0.0005747029679981945 2.43144636552468e-05)
(4.999727961047569 -0.000536391363179157 0.0001254729041974439)
(5.023771349614427 -0.01531607215063912 0.008874655960533313)
(5.000051580842012 -0.0005474050511028063 0.0002538222154092347)
(4.999893329106066 -0.0005838107197392845 0.0002341339168708089)
(5.00014965068718 -0.0002690564170496939 4.893086063804609e-05)
(5.139665768644135 0.241116831653124 -0.350324154676554)
(5.000912696034486 -0.002539282963558746 0.002184236333177368)
(5.000511388985502 -0.0003820625302959587 -9.209764545976076e-05)
(5.000220865272017 -6.187738498342809e-05 -2.917370776053354e-05)
(4.999921736929198 -0.0002601552205315161 -9.836426634384552e-05)
(5.000278648423975 -0.0001034592312384787 -5.783710521206209e-05)
(4.499247687301295 0.2101589925835242 -0.1224559972228426)
(4.196209704486121 0.03731460413994135 -0.1852372560750534)
(5.107828463116427 -0.003274092083190425 0.01863341657869213)
(4.998518907372153 -0.005536150549510803 -0.00234440022284138)
(5.122107193352455 0.2467647158304491 -0.08033212158261455)
(4.398191020634449 -0.2393801007884889 -0.1389644872930018)
(4.186719139974896 -0.1212193731495032 0.02526426433309131)
(5.000165921488189 -4.774688103361531e-05 3.215723344970967e-05)
(5.25433497864472 -0.1195391711206172 0.5880769155656769)
(4.748509275850176 -0.2400830754162689 0.5476891577880285)
(5.000158446471145 0.0001975408199714026 0.0001383392989300366)
(4.999950703626964 -0.0002485052714992762 0.0008433025668631348)
(4.918626240030181 0.001465729498275378 -0.01612722296026049)
(3.308210932446058 1.07895774922506 -0.4728783173922943)
(5.000175034557539 -0.000397317771665156 9.017486861204399e-05)
(5.000526918240761 -0.00504696747082675 -0.0004092370949882498)
(5.000144946322392 -0.000390189419823576 0.0001738362536442149)
(4.841107025265138 0.327917188941219 -0.2195068531722131)
(4.885947150115381 0.2461422383610883 0.002284182181720915)
(4.987555162375372 -0.002122896317220515 -0.0003119353442227836)
(5.001082675330929 -0.0003107561719568442 -0.0001393740861962422)
(5.000071995231285 -0.0001444334781373854 -2.641500953790088e-05)
(4.999918272902053 -0.0003246547442572243 -0.0001467060375296368)
(4.999347246068407 -0.003633333188498656 -0.003939699201233398)
(5.000212842129452 -0.0002758891512156916 -0.002754400616042727)
(5.000545492092373 -0.001174281715737068 0.0006439299775977287)
(4.999640293764274 -0.000946771650096889 0.0006692440808620662)
(5.259847694206474 -0.1362981960560036 -0.1769876656956163)
(4.991574786851708 -0.0009921104643839985 -6.375575965806954e-05)
(4.192464983963703 -0.2390146787630034 0.006142256506531905)
(5.000130130613761 -0.001279371980400687 0.0006718341283286119)
(2.938198857931553 0.3181427479932694 0.1418304600010303)
(4.082204775050732 0.2179565435232854 0.319976252112382)
(5.004175983951439 -0.002600847196010991 -0.0002452681886007731)
(4.437590215506146 0.0255626867230013 -0.1621470086707529)
(5.003380768194252 -0.00161160214299933 0.0006469018680012877)
(4.957168362241081 -0.001680431778487315 -0.006289137699001333)
(5.000997477567518 -0.006331599393000936 0.004368241740685354)
(5.013781446508815 -0.0001119883653517384 -0.001974332063173112)
(3.52569350242675 0.1956802386696206 0.009371568093046276)
(4.99991457685084 -0.002083725020221957 -0.0002447790267211873)
(5.000063506591105 -0.0005445248226078701 0.0001413113250755947)
(5.002074684595956 -0.001103913424278653 -0.01120809696822695)
(4.213848398427736 -0.5370363187213489 0.01320856855678038)
(4.999840233952747 -0.001264517917333207 -5.303883161885651e-05)
(5.000116838151563 -1.170788822343615e-05 4.612200238903561e-05)
(5.000171651249281 -0.0002501347858056407 8.020081287836485e-05)
(4.999966465289615 -0.0007113444126971266 -0.0001766572610757831)
(5.000829618945023 -0.0001972990487676634 5.100921232107522e-05)
(5.000135964176519 -0.001152294925451465 0.005064315220271644)
(5.026327526219498 0.04551735686427447 0.003933955642166478)
(5.000243263690366 -4.876633068146776e-05 8.435739252343166e-05)
(5.018612254580368 -0.01618114825096007 0.01299798608774475)
(5.001398915424565 -0.001452623467524312 -0.0004034465287930418)
(5.003959570915451 0.0001965151087579708 0.0005242314039281563)
(4.950033324098026 0.0008155532203006571 0.0004873819006702056)
(5.000358189761304 -0.0008049846995932745 0.0002643236155730622)
(5.018096181758961 -0.01262956061698465 0.00109045721197409)
(4.999931745670449 -0.0001763920156921918 -7.69632538096765e-05)
(5.007325760490255 -0.004618282010834539 -0.0007052588786148875)
(5.011424818458854 -0.008766573121087095 0.004034073159362095)
(5.000203419719567 -0.000518764732573385 0.004572364754327036)
(4.953345041997836 -0.0006069335912810752 0.001233301852134994)
(5.000529440924572 -0.001154836730850516 0.0003714868816235393)
(5.000417960765847 -0.00152490239146799 0.0004676319955613859)
(5.004680222843239 -0.001948270256980708 -0.0004622764481175899)
(4.142866593459756 -0.01991857467655575 0.1769525538401248)
(5.000185340366509 -0.0001498504748004649 -9.621807865506208e-05)
(5.000212160179025 -9.928687345209383e-05 6.598940428525357e-06)
(5.00035858393346 -0.001355914312139133 0.0005511596055412072)
(4.995522374243056 0.03207907505515096 -0.02713136907550373)
(5.000387026323298 -0.0004208473225615038 0.0001238827645351156)
(5.000350525743832 -0.001566370794217779 -0.0005156879656325334)
(5.000175084857442 -0.0001915756338577224 7.541953694696877e-05)
(5.022817334062537 -0.01051686868851563 0.004219021536530119)
(5.000368285186076 -0.0004577654504702298 7.386863728366045e-06)
(5.000140839504346 -0.0002211434365545818 0.0001028556672650226)
(5.000527956782148 -0.001383269087738817 0.0009004379303289243)
(5.036284365963517 0.0166183311291227 0.04840857272126765)
(5.000395886154211 -0.0004339662955735564 3.271202845367144e-05)
(5.000485685931787 -0.0004430271633894186 2.159880254419364e-05)
(5.000148498638174 -0.001574395648423608 -4.667051685031039e-05)
(5.000425778494171 -0.001721872644121728 0.0004076134144117336)
(4.999973561507352 -0.0003682220651935859 0.0001982291844541043)
(5.000266811376848 -0.001006514893763994 0.0003273697917586379)
(5.000419100451314 -0.001005247896974155 0.0002723255239039623)
(5.00037165056619 -0.0009743440190771111 0.0002408951501201193)
(5.000290015700608 -0.001203546638900687 0.000104227260768608)
(5.000206220606337 -7.750144664117842e-05 -2.709306484115762e-05)
(5.000047542129717 -0.0005275725182115671 0.0001615095704233799)
(5.0004964926232 -0.001370308710790956 -0.0005265517011932322)
(5.000373720933101 -0.001314533257539882 -1.414093312933671e-05)
(4.99665667541566 0.0008119180899154219 0.001198812110751856)
(5.000425582976597 -0.00133249469283909 -0.0007710076700788463)
(5.005465905321746 -0.002412232485500193 0.0002611730908855687)
(5.002026204104105 -5.233097207151766e-06 -4.240462769311237e-05)
(5.000403840569326 -0.0003420470522185027 -2.669306351282401e-05)
(4.999942533521502 -0.001131774975869721 -0.007395668371447964)
(4.86322001595977 -0.01151565303999037 0.02097353513369822)
(5.000286677498381 -5.448760507312424e-05 0.002939098056202271)
(5.024869812671817 0.01080002222985462 -0.03599046643245569)
(5.000316115437349 -0.0006572618273202739 -0.0002162513126954411)
(5.03572173529091 -0.04015828149509995 -0.03987495444976914)
(5.000472224885454 -0.0007787598919302958 -0.0001520102841284048)
(4.999272023309109 -0.002021566695261361 0.00256034888937704)
(4.999892000798056 -0.001566606790790104 -0.0001000105060011269)
(5.000100603822944 -0.001693463426069186 -0.0003611225645755202)
(4.993650105075162 0.02800155505760542 -0.04925913581579146)
(5.000125704537605 -0.001603898736997093 -9.077282154520574e-05)
(5.000249796054214 -0.0005550838747105566 0.001089662683888068)
(5.000257483209523 -0.001594980709540108 -0.0003250169952295234)
(5.000389192008747 -0.000641084145071894 0.0004516379283677219)
(5.000241992727769 -0.0001852175033417862 -0.0001441523949494974)
(4.999341002077102 -0.002003923081338 -0.0004245936854685296)
(5.000009330498909 -0.0006923420020639022 0.0002980711167287883)
(5.000043007622891 -3.921320899488354e-05 -0.0002731799351301788)
(5.000116749772916 -0.0004550751441826638 0.0001021153280344149)
(4.999977745415001 -0.0003608313234974513 9.008150241466592e-05)
(4.999393411705497 0.0002842004169816736 -6.034676525072574e-05)
(5.061098903719025 0.008523675449686009 0.03483382526336802)
(5.000194121747038 -0.0004173997883208787 4.054870667966633e-05)
(5.000145128842324 -0.000431455086554909 0.0001624285124161661)
(5.000128371448656 -0.0005963571180092458 0.000283950165855632)
(5.000111855396708 -0.0004755164811492516 0.0001603010805725383)
(5.000302911588686 -0.0004214183924626909 -5.761492949163628e-05)
(5.000337851436615 -0.0004550752466740444 1.974537190584956e-06)
(5.000084682290285 -0.0005070102765700131 6.25974722173376e-05)
(5.000200731008777 -0.0005866506457285249 0.0002668621668893556)
(5.000310745822244 -0.0006489000323351834 0.0004614524873131708)
(5.000205493874848 -0.0006753936982782757 0.0002270352606530248)
(5.000076762661744 -0.0007795838218394615 -0.001423440692339842)
(5.00042162213385 0.0006275690568528449 -0.005956452782163905)
(5.000359762669977 -0.001129761171705371 0.0001823789583219769)
(4.999597895718176 -0.0007697996507299437 0.002084281250351799)
(5.00069907086368 -0.0005868425529422138 -0.0001892499632124757)
(5.000439848224535 -0.001013072195480106 0.0005924199347805285)
(5.000132895724066 -0.0001031353963371224 -0.0001116507047088392)
(5.000441602533556 -0.00108317547584639 0.0006624716411239815)
(5.000473831650232 -0.0007506145498859475 0.000236869710968749)
(5.000494650811081 -0.0007440635049825518 0.0004752852866405016)
(5.000548731761368 -0.001058909426206867 0.0006792149801059767)
(5.000170213173228 -0.0008058449616762292 0.0004735936558557931)
(5.000367519771884 -0.0003166266231695602 -8.460849478125029e-05)
(5.000330924002685 -0.0009157003730740755 0.0003135548562122065)
(5.000566903875081 -0.0004905511869636421 0.0003501266039415044)
(5.001414689959619 -0.002763175931310325 -0.0003019357345986447)
(5.00021500622703 -0.000102923108645306 -7.575630314819219e-05)