/*--------------------------------*- C++ -*----------------------------------*\
| =========                 |                                                 |
| \\      /  F ield         | OpenFOAM: The Open Source CFD Toolbox           |
|  \\    /   O peration     | Version:  v1906                                 |
|   \\  /    A nd           | Web:      www.OpenFOAM.com                      |
|    \\/     M anipulation  |                                                 |
\*---------------------------------------------------------------------------*/
FoamFile
{
    version     2.0;
    format      ascii;
    class       volVectorField;
    location    "0.6";
    object      vorticity;
}
// * * * * * * * * * * * * * * * * * * * * * * * * * * * * * * * * * * * * * //

dimensions      [0 0 -1 0 0 0 0];


internalField   nonuniform List<vector> 
19632
(
(-0.001889839074173458 0.003425878456170335 0.005258745713336625)
(-0.001146828533021036 0.0004508592428128334 -0.0002056252694259374)
(4.554066599124298e-05 3.585686028464612e-05 8.70154862597968e-05)
(-1.818932403940828 -0.9027816743510839 -2.578571747619649)
(1.707389139204605e-05 0.002872015484044911 0.0003792049017143528)
(-0.000216958177117534 -3.825620641727107e-05 -0.0003625252649228341)
(-0.001250586262817989 -0.001726678638975554 0.0003032190341634877)
(-0.0007200837410177635 -0.0001597027902370253 -0.0001574690883830796)
(-0.001820914192195749 0.001347115244787675 -9.911560802839779e-05)
(0.2181211354465184 -0.2677261225777185 0.01010792191541786)
(0.1556772555903165 -0.08685348725602986 -0.01971911296946636)
(-0.0007049934772179415 -0.0005270737047293814 -0.0001967425355087353)
(-6.652951860515558e-05 -6.214436880273728e-05 -4.999984166747579e-05)
(8.508721688980272e-05 -8.140905185442975e-05 -2.95102562642331e-05)
(0.01120242826500784 -0.002735243403271127 -0.01000062303557592)
(-0.0001939671439551989 0.0007347441365747729 0.001088634532255508)
(-5.33905122735448e-05 3.54028168312047e-07 -4.730572844497693e-05)
(0.0005468923376107759 -0.002006619523594189 0.000660606972087835)
(1.708420564561547e-05 -5.94369189229341e-05 1.239468329282027e-05)
(0.0005217462258024104 -6.621833482603782e-05 0.0007608108584816213)
(-0.02509346428182928 -0.007067364767953886 0.005213400116162057)
(0.4244577131905067 -1.990231487526652 -0.05372008268282347)
(-0.009673563151314447 -0.00801584146260699 -0.02910917327339006)
(-0.0006948237385866478 -3.493155457417252e-05 0.001147149335653904)
(0.0003552313534721566 0.0001200433925073219 0.0003139428941075101)
(0.0009928170969937748 0.0001167252421924092 -0.0005085593490961976)
(-0.0001351183316707382 0.0001427383851032612 0.0001386531165709468)
(-1.982144788232467 -3.297818866173083 -2.713156083308348)
(0.001346592293103606 -0.009639470561482573 0.014505791878926)
(-7.654453410704229e-05 6.00481264848929e-05 2.464278261021997e-05)
(4.998893047931255e-07 -7.998097203349127e-05 -1.512801984065918e-05)
(3.340764266301203e-05 -0.0002383910810168958 0.0003788626945642206)
(0.1198235507483226 0.03194722369108786 0.03497579318356366)
(-2.801008790885361 2.177199387961135 -3.526393074673414)
(-0.0003408535991779393 -0.0002574978133072163 -1.133163470636597e-05)
(-5.523373347199101e-05 1.496052079841305e-05 -8.405760075412055e-05)
(1.358519898250532e-05 -0.0003331906590340917 -0.0006799063538073236)
(0.0001126394336229844 -2.518890307168694e-05 -0.0004273835777861071)
(0.0001541012289195793 -6.610990426065654e-06 0.0001116745905380755)
(0.001203418674553797 0.008202828356265471 0.001349449423857977)
(0.0004576968814174387 -5.313496088370296e-05 0.0002776901008420204)
(0.0005320557781097383 -0.0001690350234624737 0.000131358435137318)
(0.0004345815003612874 -0.0001891389265149519 -0.0002210201355465358)
(-0.01560918244000111 0.004310271027894857 -0.06288547257424082)
(-0.0003679565864405295 -1.041671690552212e-05 0.0005359805611248611)
(0.0002655484914768988 1.375516409734152e-05 -2.879317656897407e-05)
(-5.942370695117443e-05 -2.992178804826898e-06 -3.908778497799407e-07)
(1.563263156050247e-06 -3.78214909085939e-05 2.397368538622488e-05)
(-0.00019373559275484 -0.0006739197174554098 -0.0008149100030165322)
(1.62394316918002e-05 0.0001409865816531439 0.0002952076829979621)
(-0.00184295628081191 -0.0008171522294045644 -0.000590783813443629)
(0.002819880458877574 -0.0003380799515126978 -0.001300054889743655)
(-1.845163439901878e-05 -2.557320260529089e-05 0.0001396205085641269)
(-0.0002271896003550193 0.0001150792283662872 0.0001985736079897627)
(-2.176002418469977e-05 -0.0006171297631854739 0.0001154308934928244)
(-0.002623198790262334 7.152227541666785e-06 0.001506224798417146)
(0.0002091239226356721 -0.000448528859038814 0.0001411722578251976)
(-4.795817544898378e-05 -0.0003357453934147898 -0.0008833740273200101)
(-5.662772710318339e-05 -0.003610264637494899 -0.002204732378814626)
(-0.01742906378705119 -0.2640386683408222 0.05110366445842741)
(0.002023711469245682 -6.070719284770634e-05 0.0004073807397892353)
(1.270655773771086e-05 2.195852975055438e-05 -1.873833236260415e-05)
(-0.5440707337357181 5.04872867409065 -7.271464087542912)
(-4.522834338797341 -0.9610789411811804 -13.55079132794754)
(-3.746373678293204e-05 -1.164813166815876e-05 -1.611848959088581e-05)
(0.9007317607640282 2.566979651353385 -0.1099979626093621)
(-0.6833974986217431 -1.279945609291663 -1.156360195894858)
(0.0009032069307744092 -0.0001691975823189727 -0.0005670741693470986)
(8.511547971178031e-05 -0.0001339332926401586 0.0001137660437739261)
(-0.0002206624545761826 -2.985156742287443e-07 -0.0001654876801731356)
(0.004257656832896005 -0.001151125086741716 0.002730157353669019)
(-6.754292548765151e-06 4.034886102027266e-05 -1.24031696651879e-05)
(-6.519102280207717e-07 -4.854698847470742e-06 0.0001203974377387111)
(-0.0006007252400910212 -0.0001310397677953964 -0.0005943018637219548)
(-4.376432843835872e-05 2.798876390093803e-05 1.217326318359673e-05)
(6.658498291682208e-05 3.867323598455315e-05 1.215458846402214e-05)
(1.940031150251046e-05 2.990521922868898e-06 -9.040094809965956e-06)
(-0.0142801015692032 0.002987540771105837 0.06336783012248658)
(-0.009307079163337341 0.04126809998253805 -0.04184626368477341)
(0.04103893346202234 -0.03559740725641311 0.0170191584362669)
(-0.02594460298352438 0.004814519822956647 0.03852358347132351)
(-0.569293783137209 0.1469055157625865 -0.07877695093011303)
(-0.0001920583423809023 3.226416220345195e-05 0.0001058892175574979)
(-8.75585073007648e-06 0.0001137479112404827 -8.886550677142916e-06)
(0.000610392017957163 2.764091588847511e-06 -9.84415893892721e-05)
(-2.506645888637549e-06 0.0002670574681697587 -0.0001199672968519141)
(-1.824177318838737e-05 -2.37535950704259e-05 -0.0007762410569344993)
(-0.0002732657259953877 6.826959856065664e-05 -0.0004044821874121502)
(-0.000184096766041918 0.0002372172259720792 -3.689483999126257e-06)
(0.0002501994775757673 -0.0006410286683763709 0.001728176980053971)
(4.368990819084151e-06 0.02465016133105068 -0.03777434797517743)
(0.001733586173724056 0.0002916171535968384 -0.001097575425495058)
(-0.0001724143855305694 -7.049624790359581e-05 0.0001317481439453912)
(-0.01869615913891222 0.0142734903973629 0.004589192918942186)
(-0.001922013508427792 0.0001237075662471005 -8.219224727407191e-05)
(0.0006188834565072058 -0.0006371206326206125 -0.0001397473535566117)
(0.0004856536944769638 0.0003917094819980721 -0.0006280644239126832)
(2.978490739931486e-05 1.199276224795294e-05 4.259192008637421e-05)
(-0.0002575388177377618 -0.0001220703029171855 0.001105036415887966)
(0.001597910288446051 -7.668770203588859e-05 -0.0009003198806658485)
(3.752909433804198 8.015580180243449 -1.641200183515879)
(7.936410115575412e-05 2.966651612409637e-05 1.451939671021188e-05)
(-0.002764320493041273 0.001275593557823709 -0.001288058581445092)
(-3.854194663242434e-05 1.561383079264107e-05 -0.0003397020244494788)
(-0.5161646269453262 0.2656269307650974 -0.3932323398507459)
(-0.09306527386880042 -0.05272251725115339 -0.09117852215528971)
(-0.6989714824427219 -0.7198399994618214 0.6388504550608456)
(-0.01645633340017917 0.0225922750613734 0.01786424596423291)
(0.001014238081879051 3.048045831587095e-05 0.0008234688589720289)
(-0.001270495982782886 -0.0003245499579035787 -0.002003887763246179)
(-1.32551273242477 0.5345759638252332 -1.148004191353061)
(-0.000458090698425396 0.0004161014801412022 -0.0004095345903166473)
(-0.0001052770434873614 0.000341757440487489 2.436015763468279e-05)
(1.405041426279022 -0.8352994819226842 -0.3236870351217151)
(0.001076505913154569 0.0002109843035951379 -0.002078067685034182)
(0.1677909842611269 -0.07113305049501413 -0.05087040813598272)
(-8.155199066197348 15.25388681251655 -5.235527633330375)
(-0.1752343281480218 -0.469182940507691 -0.4134060719141009)
(5.763176514897799e-05 -0.0001515525127025148 -7.093106922788283e-05)
(-5.189150269736672e-07 -3.75627906635935e-05 -0.00090540812549426)
(-0.0005442657660007772 0.00031778088562158 -0.0001347865918774122)
(0.0003614286057879019 0.0001524229759759541 -0.0003434733478782278)
(1.653346347407656e-05 2.018845935871494e-05 8.461864250223004e-05)
(9.072311209567585e-05 6.000702099674298e-05 2.800516596866753e-05)
(0.2176668005921379 0.4257880096634022 0.3351147822821428)
(0.07652372138780617 -0.03761932082909794 0.05336355295946445)
(0.0003756559755595653 -0.0002791533796784001 -4.053928149158235e-05)
(0.0006643064665504396 -0.0005750521047857597 0.0006940277635899736)
(-0.0001759051595636109 0.001835122595619631 -0.003275429892767806)
(0.0009402480262561861 2.936373340276121e-06 -1.312493731368463e-06)
(-6.66248936867046e-05 -7.806364885742439e-05 -4.522537513672262e-05)
(-8.027698722593906e-05 -4.896496615434421e-05 7.196510093574829e-05)
(0.01393794919991323 0.08552137046523756 -0.05342486769073815)
(-8.697821510755793e-05 -4.518224775576461e-05 -2.588718284892703e-05)
(0.0001292539988277345 -0.004817130050587762 -0.009466043952677408)
(-0.001223600908933568 -0.001813354227951851 -0.004166072308028448)
(-0.0005911023016407059 -0.0006302936200868105 -1.091691303958554e-05)
(1.511157184260416e-05 3.800707375167882e-05 4.741213566432553e-05)
(-0.0007668498528055654 0.0003117616167544404 -4.833804541865017e-05)
(0.001283727105608382 0.0003581087778197378 -0.0007667870894247027)
(8.258556566812846 -14.23073095695488 -50.22614579803311)
(-2.438681138018849 -4.143973287739334 -10.5159869091232)
(-2.985643984864323 -2.736302992755343 -0.3335492353040124)
(0.9524726962834198 10.87677544383571 -2.993292366945194)
(-3.835037793689256 8.357469619775388 -42.03384997292601)
(2.100233676813364e-05 9.002052073743132e-06 2.677698582379005e-06)
(-7.78467358778804e-05 0.001990212468273923 0.001097694120059225)
(-0.006043248144426422 0.008200847943512125 -0.02212616371577651)
(-0.0008147631468831203 0.005843939322106178 0.01419469464429723)
(5.519920020171892e-05 1.555036822372166e-05 4.361510423040099e-06)
(-0.0002975531541013096 2.995144454587161e-05 -0.0001851048614518319)
(-0.0004486768570974847 0.0001791919767544613 0.0001781283833728545)
(-0.0007619951202642135 -2.021630033063178e-06 4.237012133462221e-05)
(0.000390357476863516 -0.0001895051477103675 -0.0004304258207161547)
(0.0004061312974254393 -0.01279838487449987 -0.0004120715674134402)
(0.0001348120144418958 0.0001264144103538901 -3.662826441668146e-05)
(1.588624808393396e-05 -6.441878779240495e-05 3.068169245386863e-05)
(8.417411418491026e-05 0.0002074640794547969 -0.001089766544091192)
(-1.8341706552152e-05 -0.0002716692881201497 0.0003595917238293819)
(1.160681283940008 8.368476851174574 -2.419678117521166)
(1.378235578779222 -4.067346121165069 -1.237098843944328)
(-2.910594256919327 -5.527300882266643 -3.880584532687139)
(3.116360960446585 -3.786837310891789 -13.59301916888889)
(0.5147178842508775 -4.011568742428379 -2.179500584898886)
(-0.0004850495474324595 -0.0001976868280264405 -7.979816858077118e-05)
(-0.0008529850874493749 -0.001004237662551791 -0.0007823600048177954)
(-0.0005500302671585157 -2.605900222075238e-05 0.0002880506061597197)
(0.0003615847439494774 6.129339308393289e-05 0.001447088572014787)
(0.9946243339744791 0.5974081808950337 0.3346571176187014)
(-0.0001193052428597744 -0.0001455499977992952 0.0003159239368566606)
(0.0001455015748666685 -0.0002440319205811686 -3.944931381887546e-05)
(0.001919365299447015 -0.004453513100501639 -0.001773926377857989)
(0.00155565469188634 -0.0009948438537783402 0.0001424564480530357)
(-1.319229685295844e-05 6.288252128233971e-05 -5.578819280355931e-05)
(-0.0001167773737781575 8.956985686780483e-05 9.216252056307671e-06)
(-0.0004310782107224684 0.001855431897732475 -0.002367239296895193)
(-0.0006028790189971981 0.0001199745528035832 6.324915440416982e-06)
(0.003223197113306195 0.001317537934383351 0.004508122798779424)
(2.794891767599661e-05 -8.309419785769908e-05 1.233593033993794e-05)
(-0.0001035817485850989 -4.039035108697332e-05 4.767950345307779e-05)
(-5.688567139303323e-05 -5.27077051704386e-05 -8.642827292548754e-05)
(-3.013306377996929e-05 3.461025016602694e-05 3.395143673185225e-05)
(1.391738927864036e-05 -9.196728985678705e-05 8.695432605009057e-06)
(-0.0002150182204145721 0.001867755948632897 3.024266235990412e-05)
(-0.0003962885563774944 9.327300443844115e-05 -0.0009783115962264286)
(-1.884282955881513e-05 -2.826684589490738e-05 2.227740147445194e-05)
(0.0005971234534938226 -0.004831236640849196 -0.002257599676787876)
(-0.0001859800262578276 -0.0002421724254003532 7.966241689471243e-05)
(4.77640784335145e-05 3.267838496617167e-05 0.000180235531047077)
(-2.787344990897909e-05 -6.433892328315768e-05 -1.75872369614477e-05)
(0.0001313326975311233 -3.570475957153654e-05 3.939138622521653e-05)
(-0.002790730522034565 0.007397969128326745 -0.002471946937570924)
(0.03904121584034784 0.00248929956650927 -0.0288207590905931)
(0.006960871349948955 0.003425501188630577 0.0001856679514212511)
(0.0002009352136365255 -3.068537505413502e-05 -0.0003438279842706166)
(4.338692006739784e-05 -4.087156823382959e-05 4.522456373243195e-05)
(7.526056776866881e-05 -0.0005440877735004826 -0.0004683353649922673)
(-0.7668908482533225 -0.8010435211533479 -0.4664097788890284)
(-0.0002253642080079087 0.0001025069462976086 -0.0001872270950031727)
(-0.001970724046706012 -0.003874963133512432 0.0003340153098618491)
(0.001666762457142438 -0.0001390307524104667 0.001181787692341541)
(0.003217096079747185 9.675400822785384e-05 -0.001009673615779525)
(-0.0001855686431136029 2.44922944095026e-05 0.0001185903632415134)
(0.001129408118263169 0.0001366356901104834 3.222556643856406e-05)
(-0.001701588287311521 -0.0002712230415408455 -0.002031554147257208)
(-0.007652781249169235 -0.001709964924728755 -3.725336022206648e-05)
(0.0001746518416804378 -5.717104806245989e-05 -1.283034561709576e-05)
(-0.001183685382031406 -0.0008358913024682864 6.013585688463443e-05)
(-8.057845189262372e-05 3.889134463544985e-05 8.867876553311605e-05)
(-3.31748523255733e-05 1.201462351354286e-05 -3.892867768367323e-06)
(-0.0003722973653271189 -0.0009606099295406023 0.0009267263069805163)
(-8.547672491853164e-05 8.142428351266153e-05 -2.643620463089973e-05)
(5.951448734505697e-06 3.029153304446893e-05 -1.82092816245817e-05)
(-0.0002015770779628953 -0.0002213809174440786 -0.0003618806000069578)
(0.001517904696514649 0.0010563611873396 -0.0001484808901943594)
(-4.086065758728897e-05 0.002013755828061045 -0.0002923933861056317)
(-9.312361164111925e-05 9.387987166518475e-06 7.083904179412372e-06)
(-0.002092994612609011 0.0004089040859305783 -0.0002842060436160612)
(-0.0002150295757542712 0.0003594303000990188 0.0001147903098666028)
(-0.0006583141293049085 -0.001021210353627813 -0.003226230580842129)
(-0.003149031176195684 0.00413163190576421 0.0001827843592042821)
(0.001223030330546529 0.0004602294743372188 0.0003741061999804316)
(-0.0001406089953275241 1.895605916436301e-05 -5.795691883249719e-05)
(6.416336363614857e-05 -1.384226710282538e-05 6.20774210574364e-05)
(0.0002151278885053475 -0.0006499747538205631 0.003840960348017966)
(-0.0005905322405473269 0.0003231728266932408 -4.998770931443687e-05)
(-0.0002420254008637822 0.0009744727104885817 -0.0009696211148703243)
(-0.000256165949503754 -0.0008385300417522127 0.0001748542187898958)
(3.057700547518822e-05 -4.674639454593909e-05 -4.122762215021125e-05)
(1.463375303985482e-05 5.087707397522042e-05 4.724604126997567e-05)
(-1.849003756330156e-05 0.000406185578999917 -0.0003430213025469878)
(-0.0002816371221235947 -3.359246633502832e-05 -3.184311334470088e-05)
(-0.0001143906584697821 0.0001176483080838975 0.0002936895523994877)
(2.694044394473396e-05 -7.054384521948127e-05 -4.321389575636849e-05)
(-0.0001220250886266795 -7.467872809143985e-05 7.30928278284134e-05)
(0.0003395709404694139 -9.019724626678121e-05 0.0003655563167430326)
(-3.644245862907707e-05 -6.221973830524331e-06 1.591098683228672e-05)
(-6.914675654149565e-05 -0.002101559779033358 -0.0002371958624834394)
(-0.00240880400228016 -0.0009063742234837195 -0.0006220457063459873)
(0.000328068195574154 -0.0002782767717123324 -9.726510842284657e-05)
(0.0002226574317289521 2.594958050896283e-05 0.0001647792312740463)
(0.02320466178459476 -0.002057675898937157 -0.02224854512111618)
(-0.002296854181004859 -0.0005292156437625485 -0.0008680093068547084)
(0.0002630557453783656 0.0004324664034644758 0.0006057458235370097)
(0.0001001810158972257 0.0001071364355496961 -6.399445730474682e-05)
(0.003370348128681421 0.001684547498496091 -0.0007317131572792948)
(-0.0004815164935768268 3.683735824074142e-06 0.0007723705426822541)
(0.004149703270151467 -0.0003633209590586853 0.002157112855207864)
(-5.747401026350688e-06 3.354959770457987e-05 -1.217959379337492e-05)
(-0.0001087138759286034 -5.733198036790159e-05 -1.523353449173888e-05)
(8.527885061506414e-05 3.26580027103716e-05 -2.827297896489263e-05)
(-4.825386587038752e-05 3.605596296010015e-05 -2.499437642206444e-05)
(9.589809966810594e-05 0.0002749636133250683 -5.898827811379939e-05)
(0.003722474954506259 0.001222553868050496 3.120207285740981e-05)
(-0.0007366818501633859 0.0002989415686144253 4.545995505668594e-05)
(-0.003131169606562277 0.0002116844522717178 0.003251196252454651)
(-0.0001743468951925579 1.152143928414497e-06 0.0002051149514630755)
(0.03715195188973138 -0.005288865182745661 0.00377994126373235)
(0.03584087029247267 0.01039241478108 0.0128054051714822)
(0.0003751955283380747 -8.946303406582643e-05 -0.0002114103436985822)
(-0.001184298875907215 0.002256229729296256 -0.001401265615612697)
(0.0008618901285718332 2.14934378152076e-05 0.0001063889615966757)
(-2.510470404414325e-05 0.0002489531547333701 -0.0001385933130095879)
(5.860200332244175e-05 -2.59283854683408e-06 -1.058148194149314e-05)
(0.000861137809153919 -4.381781946712638e-05 8.902222309891832e-05)
(6.831751639554905e-05 -5.575461755559302e-05 -0.0001077960759109876)
(3.091132052819038e-05 1.472566798538632e-05 3.727215993279432e-05)
(-3.370002521044437e-05 0.0001598496860575503 -8.738621070822158e-05)
(2.129082075440333e-05 5.935352836503105e-05 -6.820729550691872e-06)
(-2.961383828178165e-05 -3.366960701521064e-05 5.020149134371672e-05)
(-0.0001529837491350212 -6.988444586200608e-06 -2.666357792732844e-05)
(0.0002443990465372154 6.874255505027423e-05 3.270764064391176e-05)
(0.0001770699072704435 -3.742825157165093e-05 0.000594034069177291)
(3.341940829571674e-05 -3.05406301320378e-05 8.086111388173016e-05)
(-0.0003753297692696575 0.00307926487118311 -0.0004051272813710059)
(0.001913220497916542 0.0002681425287502538 -0.00236646894125322)
(-0.0003071503711257269 0.0001458668174114376 -8.1466637361942e-05)
(9.783392068749794e-05 5.048358316199672e-05 0.0005446564679822602)
(-1.660821680203553e-05 8.475517443095054e-07 2.512742333231933e-05)
(0.0001020089002635682 0.0001014364115231997 -0.0004050796214391495)
(0.0004093422902491003 -2.582042051427183e-06 -0.0004052177324849368)
(0.0003573504963243736 -0.0002659974801279603 -0.0001128553113406906)
(0.0001661651606602289 0.0001704090955442985 0.0001106294930733157)
(5.649064072320543e-05 1.011564446060779e-05 -6.99031391682511e-05)
(9.964448139210045 6.139381967403669 -2.115453939157411)
(-0.003425460787376106 0.001669428541805238 -0.000161101376658787)
(0.0006331940665848944 -0.0002257804731884178 -0.0004074726685076499)
(-0.006164949565837559 0.001971979622590566 -2.754778868240232e-05)
(0.001109661038559752 -0.0004723633305041461 -0.0002566429736327234)
(0.0001066850728487567 -6.922630117816008e-05 9.83563038325103e-05)
(-0.0001681293790512271 9.796892245803207e-06 -6.639707983169972e-05)
(-0.0001703305479156303 0.0002375801816781849 -0.0003167983691106696)
(8.149574651488819e-05 -1.639987546979494e-05 -0.0001316757535944806)
(9.276729740573933e-05 -4.162795694796328e-05 -3.07456963226594e-05)
(-0.0005563836562567921 -0.0007177424188729519 -0.0001683089501150105)
(0.001274708990677606 0.0007122843668570696 1.451918938592681e-05)
(0.0002916094708840919 0.0001511053001122286 0.0003783855755371502)
(-0.003646923347609713 0.01096057988973718 -0.006669813264792334)
(2.35444569217757e-05 -4.046537715951381e-05 -1.067891044089357e-05)
(5.917017741386305e-05 0.0003597315104478987 -0.0001951883066949465)
(0.0117627444989333 0.02628799248856151 0.006353108444761318)
(-0.0005943885105999145 -0.002064801777271831 0.00114508070732263)
(-9.109208219883192e-05 5.786804737564892e-05 5.861143225261845e-05)
(2.638128219037548e-05 -2.514616585463514e-05 5.007307823795674e-06)
(-1.626584860504259 -1.17045241912286 -0.02193348400109002)
(-0.0001695019053604009 4.200571162302588e-05 3.333686670040035e-05)
(0.0002532610709395498 -0.0001210619619261772 -0.0001758223198939567)
(-7.941618057395584e-05 -1.552658007049831e-05 -1.562722807067514e-05)
(0.0002606470196215278 -0.0001241036383808582 2.235425213548036e-05)
(-7.748666409119163e-06 5.980575636193225e-05 3.392366626657763e-05)
(1.947069320904432 -61.88762112125911 -4.724153299767743)
(-0.07593941981967278 -56.45229132233771 -4.557793370581811)
(-0.1488630899473749 0.3212405733368168 -0.01311615505557832)
(0.001164379768127254 0.0003032318423321136 -0.0009782344542402059)
(4.035643223553317 -2.969847852212815 -4.075392330352527)
(0.9380834971157502 3.76598633121966 -1.174506514679891)
(1.440576958074396 -58.36392022094552 -5.698859556953884)
(0.0003207142025684117 3.107076046001923e-05 -3.928575209666082e-05)
(2.477936575983844 -8.145468158532044 -4.22335152839111)
(8.936327820759452 -6.159889618885058 -69.41149287369251)
(-0.00025222430180313 0.0001043008937393444 -0.0005670501721093442)
(-2.599034131066984e-05 -0.0003494429981223122 0.0002914634864397176)
(0.008404502198330995 0.04230411155165425 0.04469022958903213)
(-7.186920307436767 2.727966125874842 -50.777420211928)
(-5.603234908061921e-05 3.348251131134292e-05 4.055963204613246e-05)
(0.0004301695434126621 4.799049021667782e-05 -0.0008282025243957312)
(0.0002840806344250076 0.0001531261687827758 -0.00029122048954201)
(-2.953539485060608 -13.60949148824114 -9.980225488218833)
(-3.808758733777394 4.317728815708449 -9.023756389140269)
(0.0001886739437042512 -0.0005794921569576674 -0.002408394572333675)
(-4.342030061158567e-05 -3.574407189519886e-05 4.427215862416576e-05)
(3.928819574124956e-05 -1.781937267280309e-05 1.474008107053591e-06)
(-2.944722557271243e-05 -6.418494501880925e-05 0.0001068687710600575)
(0.0008758778417546434 0.0007650210917588421 -0.0007149360918577768)
(-0.001175550672536492 0.00113815934706291 0.0001564750335890392)
(-0.003226643198769111 0.00211739591079085 -0.0001172647585867971)
(-0.0001833054760721302 -0.0002865106138457935 0.001785738235152964)
(-2.596501954625799 8.520018845870634 -5.104330123207772)
(-0.0002461030385959608 0.002521473805846175 0.001467442797078395)
(-0.2153159426165928 7.590792197225419 -60.20865209080504)
(5.709092261651017e-05 0.0001064533529733245 -0.0001041537111527126)
(-1.166938942222608 60.6400062376859 -0.0494282145108772)
(-4.873056827398562 73.29010062457137 -13.69638138878192)
(0.001568212024550798 -0.0003903472994535226 3.628488989568907e-05)
(0.3596170990247044 4.445286040580749 -4.862096933917869)
(0.0005619053752652248 -0.0002538515404869773 -0.0001826037090720161)
(-0.001905140045122204 0.000594696767966741 0.004452802657288603)
(-0.0009896373834896496 0.0009098846703391931 -0.0001816500078645078)
(0.0002343490254175463 -0.01557201166688013 0.02599122392173323)
(-1.688165253286045 46.60983146072643 -0.6405125810393004)
(-0.0001961681115856088 0.0001491029350552906 0.000376419613334421)
(2.788706398842817e-05 3.043567705606029e-05 1.310516282811914e-05)
(0.003325650161161163 0.002137235213063636 -0.0003299457578487764)
(4.897959964241065 -7.919649042010956 -4.68434822878576)
(1.443514871853817e-05 -0.0003357969903667156 -0.0001181292092432019)
(-8.515506347209307e-05 -8.519397828227471e-06 -6.448642124938545e-05)
(-1.303250156908686e-05 1.85580793804674e-05 4.755421058740052e-05)
(0.0001614441604537433 -0.0001394295890673098 0.000249432510910116)
(-2.72184092681259e-05 1.430067716250573e-05 2.571826307754696e-05)
(-0.002937729990299539 -0.0002842510691591869 0.000264872744508198)
(-0.00802504788255836 0.0020971605542488 0.004368236816754639)
(8.24017253774614e-05 5.288673710654944e-05 -1.890102360925676e-05)
(0.004266338560872268 0.001543730295588421 -0.0009063455994951352)
(0.0001139030289723554 -0.0002266480894187381 6.062014040518529e-05)
(0.004112789005148885 0.001103000857520786 0.02850147810362049)
(0.002415941831681984 0.0110820793128585 0.015914226261461)
(3.896796183422066e-06 3.784709492819201e-06 -7.173001303135439e-05)
(0.01223388736212585 -0.01836323834700393 -0.008714931448095136)
(-0.0004459193008170887 -2.047538193276194e-05 -0.0003053656760991593)
(0.004663400782215908 0.01045757045591585 -0.0225688028732757)
(-0.006830785453676393 0.003867091641509104 0.005349695751586301)
(-0.0006635094988966495 0.001188985220550146 9.440124207033703e-05)
(0.002626557192954157 -0.003963589279538157 0.02140473300573398)
(-8.544527201540386e-05 -2.624394099183463e-05 -0.0002519815310759376)
(-7.365516843161116e-05 -4.689076046049931e-05 -5.771076758753074e-05)
(-0.0004685718490216739 -0.0004566198625111447 0.0004460943474682477)
(-0.667239229513813 20.34317160711897 6.843480641422758)
(3.629059677311751e-05 1.206818775758792e-05 4.498667941629698e-05)
(7.966830515989071e-05 3.792657471279197e-05 -6.570093471245365e-05)
(4.113711461110691e-05 -0.0002003043505708043 4.337966998125758e-05)
(0.03268425241261313 0.07585810210371591 0.03343097231072401)
(-8.11207896165491e-05 6.552796215360032e-05 -4.719136352256541e-05)
(-3.72974593118453e-05 4.774907414155079e-05 -0.000179360809061647)
(-5.191977316517595e-06 -1.285100425616992e-07 5.310079633032223e-05)
(-0.02268469810201817 0.002364121412264498 0.01689493282946148)
(0.0001084981948355357 4.338291618041137e-05 5.24645622116633e-05)
(-7.390896611021922e-05 7.162239667575594e-05 6.41806732072425e-05)
(0.000159917813304956 0.0002256852631922 -0.0001843130486883657)
(-0.007134063549834112 -0.3220842282486655 0.163248580842325)
(-6.920712937298593e-05 -6.413032706766704e-05 -5.090329873686577e-06)
(4.413813731990027e-05 -4.717104645794483e-05 6.020127582366676e-05)
(4.702533520785571e-05 0.0001824541305605032 -2.598674382988965e-05)
(7.015871654699893e-05 -2.339556115758745e-05 -4.762529617309741e-05)
(-3.404296066631674e-05 5.041664577794989e-05 1.788300157760078e-05)
(-2.895374709662811e-05 -6.125941940325117e-05 6.690643284444918e-06)
(4.94702871141654e-05 -4.260166948812795e-05 9.282096047015296e-05)
(0.0001020490489691584 6.042806170208279e-05 -0.0001982734794104071)
(-0.0001045107342391317 -6.724112675262362e-05 6.740742442067958e-05)
(9.565053310136176e-06 4.226829195340902e-05 -4.912056307958042e-06)
(0.0001614003203599187 1.193534604795605e-05 3.492627259773931e-05)
(-3.990813451936475e-06 -3.989177226197334e-05 -0.0001165069415759475)
(-0.0001725343474079046 0.0001161478313045803 0.0001826949977444546)
(0.001622647620555171 -8.745493219492178e-05 0.008946457109956493)
(-0.0004477106414246615 -5.694474883795585e-05 -0.0001236917310821334)
(0.0007018025959857654 -0.0004865650126729859 -0.0009871320146492388)
(0.0001072075968562729 6.693284983438536e-05 -3.101708521046254e-05)
(-7.07906762009547e-05 -2.971770006875216e-05 1.842795590139514e-05)
(0.0009090953586248663 -0.0008394194261427181 -0.0002976289921991383)
(0.0006701854010599218 -0.01758848317256919 -0.0008007475412814113)
(0.002001893634978549 0.002117312432485638 1.04615036588438e-05)
(0.06395737987946441 0.02062389414728231 -0.005797866661430335)
(7.017109119879396e-05 1.456845295179926e-05 1.451808856209573e-05)
(0.1040564973599959 -0.02826431872398172 0.04223121225958881)
(0.0001233585268011775 -0.0002255744143181026 -6.029952849539235e-05)
(-0.007955319586481897 0.003667355541950808 -0.0001266867528325546)
(2.574316828004719e-05 5.629693820764636e-05 -3.999866616117655e-05)
(0.0001782434484288204 -0.0001313237010119908 1.663262404810118e-05)
(0.1283301058155006 -0.008181914976076926 0.01779053949925196)
(-7.434759951638017e-05 3.910902574944794e-05 3.167638206178407e-05)
(-0.0005343124898963903 -0.0004722982742157716 -4.335666815153033e-05)
(-0.0001105927646541358 -2.355325910841441e-05 6.114633462718837e-05)
(9.709279279741299e-06 7.662547889181899e-05 -5.561789280810699e-05)
(-8.097254151337861e-05 -1.606248777956349e-05 2.426387788781453e-06)
(-0.002332334391118187 0.004742107082396658 0.002168031703272398)
(3.310002915763158e-05 0.0002033877913822922 0.0001033663925827854)
(0.001042780870570322 1.502503517846616e-05 0.0003231841727810194)
(7.636068531212523e-05 3.846294016737596e-06 1.544193741342787e-05)
(0.0001918999455540871 0.0001616974447023011 0.0001828086025066939)
(0.0008934769986099425 -0.000655596399412742 0.0003544747570832038)
(0.1830100017562812 0.1145876881716709 -0.2115055773571915)
(2.625822464449591e-05 -6.207419955428782e-05 -1.882128534287132e-05)
(3.406720289810563e-05 -5.175353138133054e-05 -1.764345959712114e-05)
(2.884458520410542e-05 6.052899314165355e-05 3.368435182377497e-05)
(5.13929058118591e-07 -7.259612681389546e-06 -4.351545048819344e-05)