/*--------------------------------*- C++ -*----------------------------------*\
| =========                 |                                                 |
| \\      /  F ield         | OpenFOAM: The Open Source CFD Toolbox           |
|  \\    /   O peration     | Version:  v1906                                 |
|   \\  /    A nd           | Web:      www.OpenFOAM.com                      |
|    \\/     M anipulation  |                                                 |
\*---------------------------------------------------------------------------*/
FoamFile
{
    version     2.0;
    format      ascii;
    class       volScalarField;
    location    "0.8";
    object      p;
}
// * * * * * * * * * * * * * * * * * * * * * * * * * * * * * * * * * * * * * //

dimensions      [0 2 -2 0 0 0 0];


internalField   nonuniform List<scalar> 
19632
(
0.01659926513627195
0.009836856799132019
-0.004332332357165987
0.005205712288987264
0.003826901875084178
0.0338727211410349
0.03105882858393301
0.03661838550605632
0.03587524486305479
0.02457663112050092
0.0176216460622379
0.03395344729696209
0.0327588025871906
0.006023129220904717
0.01040067056457105
0.0175863341312622
0.01039703656438152
0.00974537228425024
0.001153397266079081
0.06704151943774739
0.03109746196261192
0.06097191848430504
0.01227473330124006
0.008606043103524783
0.01041490029819705
0.03369988235713941
0.02441887092684565
0.01351710763357218
0.005646829528068813
0.00412612342713747
-0.006001630779720519
0.01234211331257277
0.01197046252021912
0.01592529232914516
0.003253781028833348
0.0146150560547549
0.0411159803169737
0.004414062786942044
0.03952747591639928
0.007571386008960491
0.03122637987929378
0.03915570464346404
0.03555563262415737
0.0245316941342234
0.004106610196104196
0.04236272790236737
0.01098084992213742
0.06068245042967176
0.02709272454858951
-0.003463940490652532
0.05931976021319331
-0.001669570352393012
0.01814341582728443
0.03559685195369773
0.0330129891325034
0.03343795923476647
0.03031305202150876
-0.004818693680705823
0.05263529714176913
0.006182359486590377
0.00616475485432641
-0.0003475354719024561
0.002252071613197634
0.01525406422149778
0.03354909465843253
0.003135578510180218
0.0302497576128939
0.008652152203634182
0.002855842574880726
0.04291544848270527
0.007322870516711693
0.06851663579276263
0.09277698966971103
0.03635978374049724
-0.008287304311492372
0.005322111689113661
0.007541229641269146
0.07221329555752612
0.03316701166551954
0.03290862800379414
0.05245878067884389
0.009182417976690336
0.05581837510426588
0.02200937500429561
0.04450945916895965
0.04977150552125932
0.01253858172969953
0.01099459068787411
0.09190907335998456
0.01466315552879888
0.0281985953279945
0.03527438917765225
0.0235186970288589
0.002466440127419235
0.03623949708117159
0.04019441421387909
0.01915202766941957
0.006780947288837122
0.02997131140590809
0.006098798824313169
0.001293776594679077
0.007317912352909934
0.00608409778003539
0.006969471922292746
0.1059022194353557
0.01537494295450227
0.006675927547096026
0.0285134530673147
0.05292837969688966
0.007631194332412612
0.04952009895126706
0.02289461581097147
0.02751698010877009
0.02303981616164479
0.01467324681393348
0.0549209889969733
0.02594646869968042
0.02738021154771186
0.03521005836813714
0.04993238267888776
0.06913416426337325
0.03936075050768132
0.004376945579284016
0.01446585917189726
0.006807163715341179
0.02022919777230932
0.05889278413474239
0.001657121600849119
-0.002209990941337488
0.0538687027702331
0.06164168777831468
0.0007224535046252816
0.01816779139597872
0.001274745940491227
-0.007399144629547237
0.003985288539938244
0.01800658454597969
-0.0006668030438902569
-0.004684622861989623
0.00863871770997634
0.006706848279658107
0.0645897398304963
-0.00502846127932835
-0.09242461414450379
0.005606332306839381
0.05490085055990396
-0.004851157625203187
0.04810698085158076
0.01195991920007427
0.01817444823381073
0.004464066249216526
0.04990490618821314
0.02569703015038967
-0.002062574353731456
0.002356730697400147
0.03058676149927137
0.04551854370385394
0.03711533149124167
0.06662286642967752
-0.002481149623763707
0.01509401652514918
0.03113955322061612
0.03294776848572604
0.04533467912067966
0.02715523214598349
0.04944704165611602
0.0008597135757231779
0.04235193676767398
-0.006994257694215598
0.05481436233860704
0.01613010720328458
0.04743902650805278
0.01557496093784837
0.008461746316836627
0.01355038712305982
0.03803151441423192
0.03416092845423833
0.001011465314276183
0.06958852483931505
0.0110215182298553
-0.005232646526203495
-0.005887632786260875
0.005717720986660892
0.05357668692382796
0.01197063268873493
-0.005278426139788303
-0.006306110936360899
-0.0003344994485138904
0.06025914402508599
-0.002718695889252872
0.1198188926761787
0.01894964134093904
0.004572852337253036
0.001003418049958363
0.0006709053915272763
0.002136773182465966
-0.004808144114171509
0.004455874703699876
0.0007987754466697966
-0.006165827261685341
0.0008079199837802224
0.002170950719885315
-0.00872789706107106
0.02684541322578366
-0.008205071169250774
0.004968756362337686
0.387270312614493
0.01755678625101974
0.03154051454931223
0.0002533850402210173
0.0328376135090321
0.006958718892260663
-0.003471778363228647
0.01630734635078396
0.01683988168857374
0.006550795716843248
0.0159952052249737
0.0005242512192652909
0.0394613493489101
0.02077605365690053
0.00454538827547426
-0.002708834589050549
0.003717018780431595
0.004172430771608501
0.007974468026871767
-0.0009240431019133525
0.02580393805931915
0.004848187123908766
0.01194502910633645
0.0190747261274989
0.01825171139259498
-0.01333919753459336
-0.006113606946034183
0.01245909983631945
-0.0006499332896574851
0.006711927664355485
-0.0002101198666237161
0.01054619184395848
0.00491399406358918
-0.001973974708655457
-0.01567083431478424
-0.004043499275432771
0.441875155494319
0.008334561522083497
0.004112695346214581
-0.002620125287938285
0.009674307913791874
0.007712895228703111
0.01730031632572918
0.04307532398029004
-0.004034682560163651
0.04089493042636393
0.006915944731260486
0.006252877241992775
-0.008049760237081059
0.004693058361762215
0.006815151847542633
0.01487983363466402
0.03505988830207029
0.00860279301760007
0.005364278034817374
0.06601120653201106
0.002386078646333741
0.03692673609935034
0.01655396015439227
0.02904728450549271
0.004144179529220369
0.01766707188621355
-0.009146899543161582
0.01553200153432877
0.009709000794206167
0.04093184640366772
-0.005824482097854882
0.02054010726386377
0.05696210673924208
0.03672487280771394
-0.00586014562115764
-0.007849382432774745
0.03565372535144895
0.04670360326614404
0.04956453296399796
0.03155477836485115
-0.003497332242582089
0.005055176155202117
-0.003438879018415161
-0.001518335618794199
0.02712298819407171
-0.006623592191183055
-0.003552164901533283
0.000489768249327443
-0.001861785362037678
0.004471363339335156
0.04910221998314341
-0.0005552354789873506
0.003242027228577933
0.02734478259096056
0.003864333038080373
0.09113053427449891
0.02182574673422551
-0.006479531080614499
0.01792458294107076
0.0857797167692519
0.002619054829318451
-0.005482430155619203
0.01036961846428507
0.03187416768066462
-0.006734412519772828
0.03544099805795165
0.03799269336466691
0.02029133021875475
0.03514206594919687
0.05665253620734764
0.00743999718857519
0.03945883428420038
0.00643656214433379
-0.00760812731103133
0.03223874351774082
0.006800527280434491
0.08331533122735105
0.02206317037575716
0.01581969327385713
0.02566059031492455
0.02406326060537902
0.02031739621647251
0.03204415891714942
0.02901105285395747
0.03067562757868889
0.0009268334472832594
-0.002541353034261498
0.01404610173235166
-0.000586086661864328
0.0002764390910401111
0.05401792458202752
0.03961495867221582
0.00247513026691239
0.05524106244950536
0.004229808729723577
0.04476954972968481
0.002966830250592401
0.0154060653004433
0.05333404776346069
0.00319512988434545
0.01589808255268927
0.0462627590614833
0.05186645053975632
0.05715251276908145
-0.003145072649632121
0.03471030955088768
-0.001364135166128605
-0.003317650100062903
-0.002378657115139888
0.01899866381247885
0.0006339651308432949
0.005202555207026889
0.03100664327307757
0.009296765850885989
-0.001154673115255283
0.01240014569261656
0.05329232031817431
0.004342735320608125
-0.001837229207945318
0.00439318147259236
0.0182163472743996
0.01958486442740937
0.01049088405060496
-0.0001273322351096303
0.009074300526287759
0.01833052588490248
0.01340451806299051
0.007701186888811093
0.002457344818391354
0.002331008121847219
0.00264435464082597
0.00178011081132384
-0.0001721266634076612
0.01141095380594511
0.005560019401875304
0.007135734676746435
0.004123494493739545
0.0008498903534160211
0.03421851233463869
0.007155342565409187
0.01531313243016027
0.01367345243147598
-0.001841603194940181
0.00978859098923876
0.0002243867922809436
0.04060112394324727
0.1133608365558701
0.04547040968216074
0.006583637505395121
0.008319902635055229
0.02080670512501662
0.003803214998204927
0.01946977030442828
-0.008328746589431769
0.01302920301093689
0.0824189049922763
0.02158345371020137
0.03301417030507246
0.02047934083423355
0.003721493439842907
0.004414703009685839
0.000900026396909976
0.009018023133729675
0.001469676963864386
0.04191585957835713
0.005573062165484404
0.03500427296995681
0.0263873942821495
0.02861379452138089
0.005826244310492766
0.002908409836750333
0.01052693344837636
0.003463850034047447
0.01019222848967681
0.008939699928122281
0.005717139760403503
0.03922866852769658
0.02076428600981996
0.007827557912892561
0.00600347957961762
0.001256937027624482
0.008492813235123462
-0.01501253986365378
0.001723485824220688
0.04630703167708878
0.009936311133711349
0.005547176662096137
0.0166862101251073
0.05307153025579847
0.006974378254899513
0.02260794624965187
0.04969043465277241
0.005947017525883377
0.03441224891679612
0.0003193000058739593
0.02699453141884671
-0.0154881744851191
0.007522084119024068
-0.003192773426865021
-0.001299499946519962
0.001489815900592623
0.007095602111388184
0.00780843989150774
-0.0162653595736167
0.007985218193581925
0.004874292475357482
0.005280698095266084
0.0002431262586654083
-0.0004598086286250013
0.00662283136714818
-0.002366060791547326
-0.00249372993784579
0.00744292068763875
0.01439595490626252
0.03107001961928852
0.004921523865889267
-0.001071328622603579
0.01115991655059028
0.0594116484258984
0.01129932412318876
-0.002359643111424761
0.02155600295963575
0.03634352197580996
0.005280534013936673
0.002127412643113411
-0.002174617447566418
0.01137095164389686
0.02512283126754952
0.01989421133926498
0.02715530597530144
0.02623066974318458
0.008450842574347592
0.02703782039000751
0.03097603794401991
0.02873352860654436
0.02784558882473312
0.003816773241271803
0.01123640776693713
0.01690039815457953
0.007078127430443651
0.0174102819588263
0.004454277651256594
0.008491997303007247
0.005406827326128174
-0.004630130380658683
0.00806918563816553
0.005258514946235087
-7.98317409563167e-05
0.009847994078325631
0.01632571975456923
0.04080375199525157
0.03854611885516194
-0.003687383733913089
0.03775259574935425
-0.0002504408571476161
-0.003619906773761739
-0.004284753133870962
0.03849254713526847
0.08929136604241368
0.001230118351156322
0.02155450791053006
0.01800508592608164
-0.002879049710903476
-0.01653506431987308
0.003727295048637837
0.02012245831579461
-0.003337750099974074
0.01775082807077676
0.01721163085532552
0.01718618110725061
-0.000151613841714033
0.005851329919124939
-0.0003650889275285961
0.0615361294300794
0.005456825249035588
0.01852944534947315
0.01874428466116038
-0.003275548351624175
-0.001545540588853287
-0.003756980956403654
-0.00170621119848107
0.0008622819823911001
-0.001833884084031866
-0.004189950620277517
0.00477985581318055
-0.1148346566941839
0.02103658893841065
0.002010360373857234
0.05945022851967129
0.01671612834452582
0.01677724256154276
0.03613358696672794
-0.002426623686179836
0.007328669790252932
0.01360974903122507
0.01392725542806592
0.07784446621627868
0.01379072769031758
0.02976223072725996
0.02531844444434577
0.03612034465797059
0.0149793119473633
0.004039555606613511
0.03047795065623114
0.02853486194753758
0.04830793797370152
0.04605434147225684
0.0269174167896363
0.03432502515114658
0.01884587297530142
0.02020487356906767
0.0407217752554651
0.0209180215754772
0.01255357157492374
0.003961904887020543
0.02736907056030078
0.02658033533409643
0.0279442361496393
0.02409123754101135
0.02751341340063486
0.005053783725246004
0.009387216456281133
0.0109679815676933
0.005195291883724752
0.00444495134973062
0.004600850657561123
0.004112176959520891
0.005049426635507203
0.006534511568327041
0.01611497860204009
0.005436588400460476
0.004368355761604762
-0.001609270427712745
0.008986661590920536
0.0009004475254238588
0.001386876535739989
0.001100192749790309
0.0001130728617923603
0.006283569859689284
-0.05635630734797333
-0.00195708493766734
0.002197923857945413
0.01414441733991395
0.001883205181215602
0.0006411638334686417
-0.002723313432078334
0.01222648501725202
0.01475142820636825
-0.003382734945355164
0.01333348147470492
-0.004404122669781635
-0.00382198464350756
0.003633238663315551
-0.01988425448543409
0.01365143843998461
0.1087083014058136
0.004203792099326856
0.004411360064647893
0.002934112501441987
0.001983806393234033
0.002144932584399572
0.003535095988409649
0.03887910087923515
8.352429249631574e-05
-0.002396063917255603
0.04494131938360978
0.01118693238374895
0.0669325846905111
0.007940501118512409
0.08196684225159494
0.05216665225186297
0.006536621209046912
0.02487524706934542
0.03608971723508785
0.008237809736282228
-0.00199953731366163
0.007616410810092024
-0.004956655590904075
0.004319921107750138
-0.003574325234984258
-0.004079630395090562
-0.004200912068739798
-0.003106055986539297
0.04903104310697917
-0.00382674744611433
-0.006938390045333555
-0.006356978137935829
0.007259699045812557
0.006280069105108554
0.007643600910957287
0.008935866910930021
-0.00802980965949137
-0.005669485266038748
-0.002454077630644628
-0.01135262435847918
0.06237990918705532
0.1104870908367505
0.06398800437537738
-0.003001329201435895
-0.006597518816269582
-0.02028732512584947
-0.006927092075463524
0.01695529669228237
-0.006189192045401109
-0.006304116163576875
-0.006648240318626256
-0.006329245063894548
-0.006920017900093542
0.01358412873582402
0.003767952243274449
0.004309996042963407
0.04578673526315842
0.04308700239038988
0.003357239458738322
0.004615665445011935
-0.002222189256000115
0.005258152654071898
0.005422884882960626
0.005141970718703209
0.004608481822305688
0.004924247935285901
0.01092507760460326
-0.0006172811107505502
0.03625337799347005
0.005700110807557291
-0.004935875937007759
0.02355915067682226
-0.007412757222723269
-0.007906175868782105
-0.007609706958298748
0.007609313126032934
0.006331160277414629
0.01311786647201916
0.005849210031893453
0.006654418742340478
0.006893854049479373
0.02909825951195967
-0.003498253549055603
0.001864799460468904
0.00602555900564448
0.02639270659620048
-0.0176734692184404
0.009618689004830481
0.002436942197655584
0.01694393696749718
0.0193640744935767
0.006161424071849797
0.007741290696456823
0.008888811315303913
0.02312448871713854
0.006350988277214727
-0.009952942773071967
0.008384836921076659
0.004617051357448813
-0.002418141830676861
-0.006209954530483326
0.004826366111510081
0.004560930920061252
0.003970817384668994
0.04498541453479973
0.01454441807631147
0.005452877001525303
0.003935867459439748
0.004743318489928905
0.004521971796655453
0.008488543236547732
0.05196361608823138
0.05254604588834078
0.01618484250425229
0.02896208513699248
0.0009891177605868069
0.002151696334644332
0.003438992744437978
0.002685292266104255
0.03656092553902249
0.004920598516598123
0.05055045894232399
0.00834619376235613
0.04983410152143653
0.01393314999166186
-0.0009444784723700504
-0.009072033923572738
0.01455265508096662
0.02920711384120652
-0.003720765811801556
0.01682135634692187
0.01281302789933538
0.05610201727588757
-0.001656208251313229
-0.007233735303248071
-0.001202216999611481
0.0145386515041823
-0.004334446596752375
-0.004220368142661095
-0.0007176021936311551
0.01277101660545447
0.0146275278061574
0.005621183908099109
0.0411191394497669
-0.008670293804825549
0.002728984678498649
0.004377662709966427
0.003339439658297718
-0.00669753340831163
0.01531898406069931
0.007783164779329444
0.01214593084869984
0.01158402805849619
0.006167210932122098
0.005386290252192082
-0.0008357922870391526
-0.01661269527784762
0.0003930615539326237
-0.001152414322349859
0.006740582107383306
-0.008432265739342023
-0.001946018128958595
0.07066677458573252
0.006152036977454633
0.008070921629584768
-0.002195316601697381
0.03166062783347701
0.00639710044628904
0.007259213916425021
0.04908092303682773
0.005331723959517675
-0.008561109648134375
0.000223786170040419
0.04837822250545038
0.03050560618216419
-0.004689083232218245
-0.004881229813367881
-0.005542774667547952
0.01585307187311471
0.003517156013781651
0.002502041062617509
0.002299964516279455
0.002565399144474644
0.02435410671038258
0.001111719827502963
0.0004255495599455276
-0.00784331491961065
0.06981037029105179
0.05545291331459836
0.06106481579295604
-0.009760974795468629
0.05859612052444547
0.06330380880455609
0.002154703505020968
0.1040378704015332
0.02417799468841348
0.06506078939092436
0.04801687816486332
0.006962322397777599
0.0106767844320086
0.01592473249104841
0.04916386890126319
0.05099988595641661
0.0708271972382635
0.04975643176825815
0.09421931345533922
0.02077879621062253
0.01737814208381934
0.003504065878263867
0.0120785595919796
0.02261724678478061
0.02530468535521507
0.01951453099051683
0.01648837422607576
0.01875341081410785
0.03466874015912634
0.002573783196741634
-0.03911900905519863
0.003971976559062283
0.004573413446331952
0.01389866766666853
0.01772777196503274
0.04116334338861602
0.03016121687502978
0.005554143967224025
0.003815700395747951
0.02325221575032439
0.04328670964585694
0.01123354671098556
-0.03342182867693192
0.001839025795343231
-0.03361408868932236
0.09675913620076705
0.06204859013176799
-0.001802638156222196
0.04925943767112728
0.09273742470620194
-0.007351755347742249
0.002634956295103094
-0.009713743745626134
0.02431380419633427
0.01065772484228917
0.02736300721279376
0.002525601991723711
0.08744057861491794
-0.004730606763809601
0.02682096527040105
-0.004768459295078994
-0.004994530914546987
-0.005356977602808318
-0.003522215776622497
-0.003979521828057912
0.08784930705290257
0.006602871832090749
0.001110887933738883
0.004732080493331466
0.005271525635598158
0.004077143915295326
0.02159368852536881
-0.001089485839492257
0.008567809674811853
0.009393953715884687
0.05434144935855195
0.004016796002423852
0.06159663955405163
0.0576806635461284
0.07763490147964945
0.07229003585856519
0.02528027072529445
-0.0104838785065707
-0.004247308613962617
0.02661131810380303
0.01661702030134675
0.01179530679389248
0.01444672757538235
0.04536899974548456
0.04569581098489676
0.04878748817042647
0.04343153873556157
0.002302774960449171
0.0418546868519951
0.02456299243474697
0.03261958206370765
0.02860505522866669
0.01612721833569394
0.01996138474188993
0.003378197475733021
0.01572844512175265
-0.001818631260455906
0.0292589520395815
0.04768557974085604
0.001527414460368376
0.02877214510400036
0.01884801653468858
0.008658990702682428
0.05300316295706584
0.02997506440995333
0.01396089821696404
0.006171810928963245
0.004645614815737717
0.004009379691700551
0.004019600412421746
0.00111837485373505
0.001035868304157407
0.001539694798197635
0.001629696941412087
-0.02176298040071688
0.02429607332420005
-0.002518759330509876
0.01781336015611914
0.07393266249549069
0.09572889783210299
0.04130286020655049
0.0461413181939247
-0.00498997522439618
-0.03986117950900779
-0.0007368229790084924
0.002252472848723882
0.03186184088934815
-0.001594436130795743
-0.001077721726400726
-0.003530898219486177
0.001428310606810754
0.0006094888447612155
4.559908217498552e-05
-0.004947596074868655
-0.0006209799376266321
-6.460193267798523e-06
0.001063841880539936
0.01946793094741424
0.07742809545473776
0.008817041207292332
0.02376058561940192
0.0484133359178551
0.01288329680446854
0.002592153116175705
0.005785054608118155
0.005025035698849937
0.004321266940464965
0.004886784046436345
0.007524998725097735
0.004564359759326364
0.004188454745137978
0.002202230023661356
0.003768024590184852
-0.008649370945797669
0.005571477211813141
0.01047497718125901
0.04080964375427061
0.004052619284957932
0.01592852545511022
0.03200942167526395
0.004407951496902754
0.01394220109345802
0.03473325159331345
0.01229754730910535
0.004188568328595063
0.003678142697874467
0.004324208854638933
0.003758731546788646
-0.01163136025236694
0.004203342663255373
0.003887384161514311
0.004357390967429694
0.003395118414183044
0.004107004117716406
0.06487757926263572
0.00218002338834362
0.002514019844511004
0.03564055857568059
0.001252065499940074
0.0003178482032542853
0.003472281984142052
-0.02048048339472245
0.003901985786167927
0.0007889359922899093
0.0007245804841327487
0.0467563691125135
0.04421324200821692
0.02652578839162828
0.05085233124557093
0.003955281246852272
0.03914288644781957
0.004544948826602613
0.04105643866624283
-0.02198989947518464
0.04912930095167339
0.03413019267623532
0.02916135891246878
0.003751075096688667
0.03297278220028572
0.05177018311180651
0.02803603914810369
0.05370580515881591
-0.00118496047411332
-0.0001518600634537773
-0.0007897408666686467
0.004147713024640413
-0.001401393655406961
-0.01185701164367544
-0.0008519039339158633
0.0002327767445781406
0.01185307070052303
0.02041788187666854
0.003711919403081962
0.02401072374860147
0.02649181845271577
0.02372686083988156
0.002282205711600523
0.02899328657122131
0.005282503036299008
0.0230166876360603
0.001689834802626927
-0.005791301237580013
0.01490748269597591
0.01087627821287926
0.004615919408792388
-0.004887152887424052
-0.00780131807521942
0.02468357986027972
0.01643933856735531
0.1026232685925726
-0.02550134585513525
-0.007729746709881778
-0.01268259694778479
0.00107845109871706
0.0130317609880793
-0.05845548378362344
-0.001432274255923226
0.02765982513134521
-0.009708731437152928
-0.001311506898474359
0.01634130086321733
0.01421639255157437
-0.00672686396507225
0.004706664404036662
0.003622089054930886
0.001126111294299434
0.003628989027066252
-0.0003299787314908572
0.01796261681383667
0.04533896958758014
0.01615089690739489
0.0175700753841242
-0.01348648141693131
0.02935621368567621
-0.004890142583956095
0.003585058396895934
0.006126118851934015
0.003446432432563057
0.01102592890322606
0.001891249996270918
-0.0009998892643089861
0.006277003447107094
0.007463316557174468
0.004604494947979291
0.006101981555561473
0.005011937813550168
0.008109182113662541
0.007254563380716323
-0.02140537807472415
0.01512629205264534
0.02074749840083917
0.0172870176957125
0.01611090037075913
0.02689147781745262
0.02638307536945999
0.02101026286423772
0.0222720551872854
0.03562177987826918
0.002901544722490045
0.009970210539172911
0.04497433632341383
0.004496730697826505
0.004699616414423066
0.004918048854721876
0.0678059850531731
0.05612282170888631
0.004763395235352294
-0.005892348285929974
-0.003655385945684157
-0.001507127248704861
0.004727829603925769
0.02337406302462939
0.02168756825837053
0.02160237554462523
0.01720664323221007
0.01594235571126893
-0.01087709045505975
0.01989878665481658
0.01517973016917457
0.005305601245657112
0.006281293016543329
-0.0007191709737031215
0.02861361552498352
0.0333071345422867
0.02808086145840636
0.02770344796281361
-0.0005685313453980676
-8.249035878984094e-05
-0.003525591197432467
-0.009801056239338945
0.0002129543344858421
-0.01822135011881763
-0.001411807800204158
0.01465911540416452
0.0002147725746536537
-0.006173839576438128
-0.006308830930659889
-0.001017561512624176
0.0009616616907139549
-0.0007955844444098995
0.008574285367816313
0.008254101099482236
0.009460547635414922
0.01083040405099563
0.01007357085977512
0.009160976292810446
0.009293934108127337
0.008775564969196634
0.01508284406228578
0.01590696327597526
0.01442013041327105
-0.002978150364538006
-0.002974337454972424
-0.003154759617642011
-0.005504198846068455
-0.004978977901492405
-0.00542578172203614
0.007936951057244769
0.06114400885669623
0.007825846830614082
-0.01022402059788339
0.004861376425684456
0.006204493887600589
0.006004788646787034
0.006410036544416058
0.004949475008656177
0.00531544319304404
0.003182938709743872
0.009300069533249316
0.001941138847066112
0.004259317566968916
0.05403089379601549
0.004923922577658574
0.01206203064249091
0.01270497221970657
0.0119350079890103
0.05645544343568055
0.0186279608328904
0.004043788346827772
0.005216023442459172
0.003841459859486593
0.05322623351055758
0.05285793880682232
0.01395140240061557
0.04851177389551913
0.02709160209565943
0.01090367412482466
0.03062564483587732
0.0563859582024725
0.05586146925874982
0.05719758664941106
0.05571559891154341
0.05266814051524533
0.01245717475644834
0.04881145816506231
0.04858604795983405
-0.005626695388735834
-0.00425423367957804
-0.00400109266849859
-0.004617525130848161
-0.00466721845592062
-0.0003817030032656462
-0.001322407552062922
-0.004319465138463907
0.007495863317398558
0.1296350602261912
0.01523643392015111
0.005845551216995691
0.01313558731846199
0.005052941104009543
0.006724249733459991
0.001560173519544937
-0.005735642890778282
0.00888704118791458
0.006451077514675539
0.00489044681505323
0.009384239022489508
0.008401857623941422
0.004947818442638322
0.004242012895428275
-0.01093017849608367
0.03774063868144863
0.03298726264765729
0.001314393265931139
0.01490056537359241
0.03047310242038517
0.02198926675031921
0.02838289115280321
0.02256014106612908
0.0249761439928965
0.02796115064749224
0.0306278757827242
0.03967447877141146
0.002838529165452659
0.004085382031405507
0.005617533002424992
0.003685101373253016
0.00401889136401602
0.001926996968074611
0.001698221785914568
0.002397354975755121
0.045132368267286
0.04753068398815376
0.04671378241717035
0.04107925525090581
0.03817531891104142
-0.007992123187017948
0.03968222513445699
0.04110703224703584
0.01689047969153779
0.01752498520060863
0.02312690482151345
0.03992401440770083
0.03447840468978684
0.03242811209260107
-0.01568062957965646
0.03562990135597326
0.03506775545456916
0.03512479331772671
0.03971315117626504
0.0418126099979825
0.04079523341027035
0.04404280342841757
0.05016533668883609
-0.01662397452833759
-0.01575656672743839
-0.0203822267197819
0.004165906549653527
-0.01396189914782708
-0.006003947604569925
-0.003676112888208831
-0.004646312145861169
-0.002154195688740348
0.0002818919568031833
0.0003198225441903853
0.0004544526187780854
-0.0002359982545922973
-0.00581450821372168
0.00596178251582684
0.008339777510106573
0.005397961680658645
0.005420938691311583
0.004045859328139709
0.05437961443072665
0.01290501733444329
-0.004620444350449547
0.03099550918974916
0.004798008818531934
0.05596372413808933
0.004043012069583749
0.1805595015908833
0.008232665134193132
0.004928484512640306
0.01383301305523139
0.009985544564799524
0.0004642783191960571
0.007033519808918413
-0.009364499488650093
0.03316652860730194
0.007168155960940069
0.007618134192540831
0.003458344335337782
0.01186496830678477
0.002859916873480682
0.001146433854643006
0.0001159522095204508
0.001276456429069731
0.02714518657280116
0.03035982922111358
0.03003622697407106
0.01241753132712104
0.01347272075092573
0.01418603405618593
0.01910865010377987
0.01838328774580049
0.01836779115638456
0.01692127134560691
0.01926714210606511
0.01997804309171517
0.01155028159636939
0.01183945267096153
0.01284242575425707
0.01147347087533389
0.009982761380251726
0.0102688284299265
0.01072125547865064
0.005978564694355438
0.005398547855953292
-0.01138145097500106
0.008642724567011406
0.008865348877244741
0.009986244615377978
0.005550093410160064
0.005372610435093311
0.006651113990098733
0.02466881479076203
0.02147668176116027
0.02209878819302529
0.0009175375336781988
0.02528299589742794
0.0331731027422747
0.03476175817700776
0.03799212511997166
0.01396947654276269
0.01342595153399254
0.01448690320593877
0.01646396812184849
0.01844898695602975
0.01647416956623114
-0.005395769032286776
0.001066724344373777
0.002187809526318025
0.00486983911200002
-0.006249396881401227
-0.006101882124154611
-0.006963818947009804
-0.004700790451311403
-0.007202877248972848
-0.01171649154504854
0.02305718637926537
0.01420015831902888
0.01494320622899117
0.01472414874983945
0.01478545902161242
0.01448457131288579
0.01599079482268165
-0.09346299272391846
-0.005424668639289578
-0.004979979684977526
0.004884959013234198
0.006622989474364543
0.006364466358090611
-0.004013422855891789
0.002107804442591118
0.009326053211866657
-0.01082368332666686
0.01018652923450538
0.01097154083080509
0.00500663884654734
0.008972109741198707
0.008883272979277459
0.009659326257630038
0.0103205993257345
0.0002484975515905926
5.94642938168257e-05
-0.000225101425334719
0.00103891342183155
-2.784814255574626e-06
0.003032012996409191
0.0001454090167014025
0.0003334840406630896
-0.00252437957110871
-0.000379137855488971
-0.003101475247208094
-0.003839176337563131
-0.002763401986096538
-0.004314305240874419
-0.006312612812385299
0.009826136779594095
0.007774915481136794
-0.00637924711525404
0.007569088664617526
-0.00672018032328362
-0.005637628700446189
-0.003740892919118517
-0.002896273424484137
-0.003392344722875453
-0.004313576490904498
-0.006668610495366508
0.05201629352487235
0.0005064281983666218
-0.0002039935116835834
-0.0007170943925726936
-0.002257047870240067
-0.005102239472827242
-0.007620182649229689
-0.006586920925962424
-0.006694435069093866
-0.006563815275100005
-0.005928054252421196
-0.00156233739370186
-0.005069576268136806
-0.01063945092981563
-0.01654901075948888
-0.01173147712864041
0.003807637765259013
0.005406720817522395
0.005756814635101306
0.005154490488819584
0.003561375433746007
0.004730914319676554
-0.004926729766360151
-0.005920663238621596
-0.004034829652273183
-0.004097679819126743
0.004096221690404968
-0.003703002479186035
-0.002111465319097974
-0.002151669940672403