/*--------------------------------*- C++ -*----------------------------------*\
| =========                 |                                                 |
| \\      /  F ield         | OpenFOAM: The Open Source CFD Toolbox           |
|  \\    /   O peration     | Version:  v1906                                 |
|   \\  /    A nd           | Web:      www.OpenFOAM.com                      |
|    \\/     M anipulation  |                                                 |
\*---------------------------------------------------------------------------*/
FoamFile
{
    version     2.0;
    format      ascii;
    class       volVectorField;
    location    "0.8";
    object      vorticity;
}
// * * * * * * * * * * * * * * * * * * * * * * * * * * * * * * * * * * * * * //

dimensions      [0 0 -1 0 0 0 0];


internalField   nonuniform List<vector> 
19632
(
(0.003326468860461211 0.003155575506664029 -0.002617562622672358)
(5.068916515778488e-05 2.632544206508921e-05 5.059783488217499e-05)
(-6.984753274437948e-05 6.365864113042294e-05 -3.223382539490709e-05)
(4.471056680357608e-05 0.0006727197666662591 -3.146100716366142e-06)
(0.0003180295982507001 -0.0004626102638103629 -0.0006245083285892307)
(-0.002958482893009362 0.001616817377156057 0.001234353512290769)
(-0.0001188588099779629 -0.0003394170133217736 -0.00256310824506652)
(0.001694771893945203 -4.515366208784254e-05 0.0005917889787669025)
(0.00145696416939169 -0.0008313104077192853 0.0003979282419645058)
(-0.0002324414349415448 -0.0008192257401892198 -0.0004477821361289818)
(0.0004479724808785962 0.0003969885857994537 -0.0005675244982168892)
(0.0005310377052291288 0.0006355704802953779 -0.0001302792329550457)
(-0.0006665498597997928 -0.0001650389532481227 0.0006179529480499226)
(-0.0006870664001578154 -0.00031453116183236 0.0002771992557926885)
(0.0001528420782524947 0.000186605257386512 8.937863126063649e-05)
(-3.668427875209543e-05 -8.099537035493649e-06 -5.688875456704308e-05)
(-1.008300301430439e-05 -2.202607978485634e-05 -3.443987937829214e-05)
(-1.10993282110854e-06 3.882256987273492e-05 -4.010426428191685e-05)
(-3.253146918300025e-05 -4.422683784355151e-05 7.771338765825616e-05)
(-0.0002923716434486743 -0.0001729068199264865 0.0003964842282294619)
(0.0002938570857599564 -0.0005338339415561168 0.0001043642337475048)
(-0.00293189105792661 -0.0003210011917815516 -6.191120166705317e-05)
(-0.0008597290824219311 7.031855720826259e-05 0.0006668355115312089)
(0.0001459502268326546 -6.422142915245028e-05 -3.721134998806827e-05)
(-0.0005466763232166332 4.707148520787102e-05 8.675703160221174e-05)
(-0.00396715307076055 -0.001526346234832594 -0.0001839408040096727)
(0.001086421760337476 -0.000150847008665247 -0.0009463277279008937)
(0.0002093310023507429 7.984494916303368e-05 0.0009068617157223152)
(-0.002893813458488664 0.002001442657298397 0.0002625432051019654)
(-0.0001001929169895174 -0.0001208131502267918 7.265975843803802e-05)
(0.0001543724566823353 -5.190584084297617e-05 -7.819103695099342e-05)
(-0.0004685662718166963 -0.0006921831113577695 -1.789757738086331e-05)
(0.0001874090913970485 -0.0002292522231900499 8.008722568725211e-05)
(4.187766429105904e-05 -0.0003345115857889655 -0.0002069415586350251)
(-2.482727768189355e-05 4.155810287104187e-06 -3.539629043057134e-05)
(0.007936302348140467 0.002699910203146314 -0.0002318888039031587)
(-0.0001934532597690027 -0.0004828544148258228 -0.0001952168310512973)
(0.001854987741241657 5.989917183982999e-05 0.00156102864694181)
(-0.0003525556535461328 0.0006507202108706942 -0.0001899719547101063)
(0.0004478945406416999 -0.0002189543833220361 0.0005941361075832064)
(-3.512782336786466e-05 -0.0001823506918329934 0.0002938585805760412)
(0.001078853230009435 -0.0005542521072821585 0.0008149200586204932)
(-0.0006840582041802494 0.001082432230671301 -0.001062885571240449)
(0.0001136214009893584 3.559213729885914e-05 0.0001753000586629523)
(4.495821019649732e-05 -4.924709455744495e-05 -4.627147610948356e-05)
(-0.0003235623235939134 -0.0005260293330917686 6.30866779813822e-05)
(-0.003596438115697926 -0.001694728643626907 -0.002682954721441114)
(0.001410993172013201 0.0008826574947947954 0.0002020803617844579)
(-0.001239923251751647 -0.003103641978868238 -0.003295863114925812)
(-0.0002397583534675316 8.681389726736919e-05 -5.035123872639933e-05)
(-0.003669452172332372 -0.00380270595724617 0.00180895844700155)
(0.0002928508304591907 -5.480212562113324e-05 4.022294470694535e-05)
(0.001204801676908409 -0.0001975561687986496 -0.001833119247680018)
(-0.003335027049940415 0.0003756339346301483 -0.000102688737038096)
(-0.0003781477405334244 -0.0001560720076329659 -6.454678606175105e-05)
(0.006025701700088979 0.003415064334743488 -0.0004014498480599473)
(-0.0007873140324084388 0.0001043299169730561 0.0002893469663161395)
(-0.0009923971872219267 0.0002516364222614649 -0.0002036285306507435)
(-0.0001670485922960924 -0.002579937939955913 0.003576323665093378)
(-0.0006059745294374083 -3.215298355454269e-05 0.0007867060890878444)
(0.0001544258566281765 -0.000138142827213998 3.021544729499994e-05)
(0.0003986930265105274 3.726383646055377e-05 -0.0003023331979866757)
(-6.638399991821366e-05 5.467834196325123e-05 1.413099499286433e-05)
(6.622847726908671e-05 0.0005637615010862646 1.975286057853021e-05)
(0.0003956068474017584 0.000629530920424735 0.0008932167570727858)
(-5.495884598431778e-06 -2.59644602527992e-05 9.137567644056715e-05)
(0.0002407224503390454 -7.701905802906218e-05 0.0001844364001835085)
(0.0005087495481617668 0.0008476164779247194 3.166868142706679e-06)
(-0.0001185642928081276 9.697038372641362e-05 0.0001322142316740838)
(-0.001969605237314525 0.003905627377873221 0.003969429865995276)
(-0.0001025755984858258 1.138371487006221e-06 -2.953105761014127e-05)
(-0.0007394071570922635 -0.000972257258131033 0.0001181546744748118)
(0.0001438736173086878 0.0008228142071669544 0.0002295648280953667)
(0.001634884730233594 0.001034907767632803 -0.0001163155456766293)
(-4.139872618602451e-05 -0.0001156569465944301 6.456066940285895e-05)
(0.0004091066492174967 0.0005472510896076553 0.0006952714761603968)
(-0.00021987099647304 -0.002365946900277745 0.0001793106757341573)
(-0.007866166631923341 -0.009134300242417541 -0.0004731469623766339)
(0.0001816422255410199 0.0004324346552477622 0.0003200264104327713)
(0.0009327681699511394 0.0003204340703253603 -0.00100285386247811)
(-5.173741165029725e-05 0.00178015631379431 0.001213319581310979)
(0.0006063817030260814 -0.0001274933053501623 0.001761147235095356)
(0.000567822919075406 -0.0002814641841187107 0.0001602401532279443)
(-0.001388619328066249 -0.0005006342816264756 0.0005247280009486266)
(-0.000232852107143958 0.0002478133735193032 -0.0001617164400534662)
(0.0005156105279928186 0.0008010141448385644 0.0006238962063055134)
(0.0008139193352147829 0.0009020712883168562 3.287053971861431e-05)
(-0.001771221066296035 0.001602386217667624 -0.0001779412298401379)
(0.0008160011115398611 0.001850182513071231 0.0003235305294284137)
(-0.0003722489053313629 0.0001947872856326927 -1.706635139888258e-05)
(0.00514291138212212 0.006184147327442424 -0.00190983962486624)
(0.005560679333021771 9.763768399309071e-05 0.000326174275198943)
(0.001411950494376356 0.0005952417487443739 0.0006680616649259731)
(-0.001992414885495595 -0.0004813927400115868 -0.002836571037977444)
(-0.0003241818559745457 5.137924944831535e-05 -0.0006539400617395672)
(0.0003719552436585381 0.0008233138683117643 -1.664485968589442e-06)
(-0.0003515196483034032 -0.0004549338966740993 0.001131692306559414)
(-0.001550692517599731 0.0002608433415821087 0.0008942434830173374)
(-0.00275743644128238 0.001403366773392466 0.001568334620102755)
(-0.0003641978052926436 0.000326930341302479 6.865542157907165e-05)
(-0.0002434921392065847 6.921348305144955e-05 0.0001551128171566648)
(-0.0003874564017219895 0.001359671894878332 -0.001423551564190822)
(-2.170375778719464e-05 -6.691781973642736e-05 -0.0001635749433523463)
(-0.0001025874415085982 -0.0001972045191648566 8.426335751188213e-05)
(9.751677122927203e-05 0.0003481086269386628 -0.0008825448433607989)
(0.000711446979181221 0.0002304832244568002 -0.001313974189659434)
(4.205197359120284e-06 -1.824506000785352e-05 -3.603931560755043e-05)
(0.0002049109781238777 -0.0005245143962691574 0.0005046645758986194)
(-8.470291427333479e-05 -2.7708361599929e-05 0.0002851238154515259)
(0.001459980879390128 0.0004202623543825486 0.0001620063789715726)
(0.0006083507210693187 0.001780460721021527 -0.0006503174367891315)
(0.00173775270448636 0.0003066477209862543 -0.0009154898924945508)
(-0.0008067330169471183 8.761319978226434e-05 -0.0002110849739203781)
(0.0006224312366914253 -0.0009639580213759895 0.000231971126941077)
(-0.000963790470529125 -4.790908259670081e-05 0.0002037356477093092)
(-0.002800238851958411 0.001916412139544947 -0.0007373597055567062)
(0.001742173928257972 8.332630861112217e-05 -0.0005302468720009693)
(-0.001156034369061932 -0.0001918656992432969 0.0004270368485877182)
(-0.002123519935334814 0.001655301712368446 -0.002197836768440754)
(-0.00240784656677356 -0.0009631592591275189 -0.0004924123336547654)
(-0.0005872534278779454 0.002074008061146326 0.0007650073851041349)
(-0.005642242362614438 0.001143539307498853 -8.280334425941394e-05)
(-1.280718385939455e-05 -3.078430082085607e-05 5.700184794707551e-05)
(-0.001392752916344171 0.0008733647736297193 0.0001466312516631115)
(0.0007350920468440929 0.0003216370911681356 -0.0002255076406774047)
(0.0001468263514005852 0.0001650831353814003 -0.0001052916027327705)
(0.005459574836917965 -0.0008783485111821406 0.002174860954894165)
(8.967636427447147e-06 3.135904601937295e-05 -9.932177019037957e-06)
(0.0002943386055525258 -6.589783320352471e-06 -0.0001889835860480501)
(-0.001752972622012123 0.000519276094870724 0.0003671603764166971)
(-0.000188331272058366 0.000293664263352881 0.0009386002277468639)
(-0.0007421706373617531 -0.0003267857446584756 -0.001178847805669969)
(4.929876738604098e-05 -6.628369184482638e-05 -4.120021687426959e-06)
(-0.0006302414362948223 -6.066244156034856e-05 0.0004654810744756545)
(-2.254684327609407e-05 3.80933976068329e-05 -0.0001487549292919438)
(0.0001155925213214391 -0.0003499178578277994 -0.0006033649926367477)
(-0.0009159064243018732 -0.0003699101187323993 -0.0003056160190119809)
(-9.316653024219948e-06 -0.0003978307024848261 -9.845039294967785e-05)
(1.513049935236774e-05 3.549742587804669e-06 -2.216582531976191e-06)
(2.560666949671769e-05 3.729410568186277e-05 -0.0001199900738498544)
(0.0005494262005278709 -0.000214807874987971 0.0004404761226287971)
(-0.003124500828140657 0.005336199345601453 -0.005614342527800061)
(-7.187164700894244e-05 -8.889665276841841e-06 -1.477008095613896e-05)
(-0.003208576406491012 -0.02067331467478939 0.01752061644116789)
(-0.0003008270199669478 0.0005891859925461604 -0.0002833524067977291)
(0.004138534180639215 0.002620085889820381 0.002262414132188161)
(3.464737743957906e-05 -9.622978482585061e-05 -5.680570578139949e-07)
(-6.669552889724559e-05 -2.669089465775918e-06 0.0001469936690155041)
(0.0001548134992337975 -0.0001914251959152128 0.0005262176074000787)
(0.0001381710784848566 5.882858664859853e-07 -6.837127213438291e-05)
(-0.001575845995761153 -6.401041432680247e-05 0.0005136266907101966)
(0.001411305278654743 0.0002880903286430175 -0.002929020542150143)
(-0.0001208377400062047 -6.479411893746077e-05 0.0001712786685540701)
(1.647985477907608e-05 1.137118798094749e-05 -1.907897659037524e-06)
(0.02218463908756928 -0.01148682619758406 -0.006924288870545841)
(-0.0002191727222362679 0.0001605718704365721 -9.506581095264433e-06)
(-0.003286448067524357 0.0009755531991888706 -0.0002247788624989751)
(0.0002125649536412065 -0.0002697478698426926 0.0002253225329706327)
(0.002649178062706184 -0.003866626620300537 0.00448644075954543)
(-3.588635111727897e-05 -3.054369229041161e-05 0.0003053964630579512)
(0.001742663402062403 0.002418755598861211 -8.539912489152193e-05)
(0.001092609358786695 2.222894167996432e-05 -0.0005126600092474377)
(0.0006662236742080239 0.0004074494233849656 -0.0004990077054270765)
(-0.00171538237119744 0.0002418683920130512 0.0002180191033099235)
(-0.001403249387343494 -0.000719732872250822 0.002479799000645677)
(0.000149085762458459 0.0009157105270704376 5.185477753722086e-05)
(0.000542764867451271 -8.284536752279538e-05 2.545753280722371e-05)
(0.001454554670449203 0.0002174687539495139 -0.0003467162793662596)
(-0.0001584100681723573 -9.403958396933685e-05 3.558616218650454e-05)
(0.0003535388816664299 0.0001624648622743678 -3.957375933994167e-05)
(0.0005021644607467223 0.007341884034453763 -0.0009817657862451112)
(0.002698590647883513 0.000131104628084688 -0.0002534808457569021)
(0.0005003219621439539 -1.621604386227839e-05 0.0004190597933189445)
(-1.437179668528628e-05 -7.630841785084247e-05 0.002309827076793866)
(0.0004378976555644284 0.0002005246481718966 0.0003117401413663248)
(-0.0006809929947671394 0.003092190540795554 0.002056547425093085)
(-0.001816728431999949 -0.001256651673865955 -0.0007611738448904663)
(0.0004627448712763942 -0.0003046919371050463 0.0001789220027075716)
(0.003856873949993084 0.0001760173811980424 0.00171328619172083)
(0.0001656344165422463 3.795842426088927e-05 0.0001202078204620878)
(0.0001048583836556906 -2.220901484687188e-05 5.867000087435615e-05)
(8.833634816690815e-05 5.224925959919264e-06 1.996978242130879e-05)
(-0.0001073185847611685 0.0001022673007411807 -5.280439212766597e-05)
(6.427584864158618e-05 -0.001086169329392319 -0.0004919798556207412)
(0.000206603036243255 -1.664918596353625e-05 0.00017969494869046)
(-4.875921557725819e-05 6.846268773404178e-05 -2.57291516133875e-05)
(-2.989701347654587e-05 -4.242966608715133e-05 -4.3001724986982e-05)
(0.0001122068157359975 1.352732773059645e-05 -8.245808210842782e-05)
(-0.001064197333562845 -0.001357868005175996 -0.001658041546517854)
(-0.0001325567524232945 6.559446842979774e-05 -5.665588895339592e-05)
(0.000924125258416765 -0.0004569607754057861 0.002154533350207236)
(0.0002765773051394744 -0.0001296293063697066 -0.0008663509889194751)
(-1.288720681876596e-05 -5.629940269843751e-05 8.300698385327568e-06)
(-1.762581138838875e-05 5.853461387143671e-05 5.205204027839145e-06)
(0.0002234201550180657 -0.0002278335980783893 -1.228173945778089e-05)
(4.84332411284379e-05 -0.0004878658024227674 0.0001216641681235545)
(9.384576611611649e-05 1.118805097582142e-05 -0.0001548479302620989)
(-2.05913843679161e-05 7.797519537026707e-05 2.526607755741432e-05)
(-0.002614092940977729 8.569223297663345e-05 0.00213013501888958)
(7.581282806292294e-05 -7.281492495493525e-05 5.512358360724062e-05)
(-0.002550720200458645 -6.175455074535695e-05 0.0001088994622548101)
(4.009593570863944e-05 -3.786893198173136e-05 -1.779810748991348e-05)
(-0.00100074716844023 -0.0002511869159542851 -2.831895162590789e-05)
(-0.0001802991368250796 -0.0006951609117124728 0.001150068612668668)
(-0.001822457345906519 3.666581979316734e-05 0.001009803401549143)
(-2.89492919574359e-05 -3.076400804391295e-05 -4.62986381418174e-05)
(-0.01825278559375189 0.01100659773481437 -0.01449809216969634)
(4.101742762785014e-05 -0.0001342608897902522 0.000427783197690681)
(0.009526488110012502 8.055092395732382e-05 -0.001287436206984549)
(0.001856237129838799 -0.0003575758272103088 0.0005687186472812226)
(4.665255373587782e-05 -2.727580993942769e-05 2.60551568724696e-05)
(-0.0004192525036750176 0.005906578251780878 -0.0007763882663544392)
(0.0002531600430537796 -0.0001611398610514684 -0.0005518121707032065)
(-0.0001543404474128372 3.113331659830552e-05 -0.0005037203860447483)
(-0.0005863943389753186 -0.0004055780175216152 -0.001552687361076422)
(0.0001731765568458547 -0.0001102376797035106 0.0003968724667841887)
(-0.0005175834410382969 -0.0001456057346049616 -0.0001552232164022517)
(0.0001066475232347804 -8.268328511282428e-05 -0.0001197126162129076)
(-0.002759981486652228 0.0008672983156548172 -0.0001831237364878528)
(0.004115066027331681 0.002733108104497141 0.0005992405697114156)
(0.0004468178221617474 6.935290326895443e-05 -2.263823649042924e-05)
(-0.0006957740599603351 0.0003515763474888346 -3.925916334550955e-05)
(0.0001580075910380339 -6.169674695263153e-05 4.880529044533405e-05)
(0.0005509331000645248 0.000465220474388709 0.0003046556395817674)
(0.0005785370512444144 -0.0007689722810932072 0.0003132483163931666)
(-3.818175580123863e-06 -7.6354157066733e-06 1.472832414685652e-05)
(0.0005259126840044014 -0.000343703432380921 -0.0006746797313985909)
(0.001258010918672036 -0.0003070697723855504 1.963846877310595e-05)
(-0.003227513979000546 -0.002069763452498153 0.001494562087594531)
(-9.743219734924071e-05 -0.0001013831103241621 0.000136633918122552)
(-0.0001495004857815858 -0.0001403018635340019 0.0004209363717268535)
(-0.0001293903277285646 6.075864485305374e-05 -0.0001409153587795421)
(5.614291111024956e-05 4.990097380356708e-05 2.803648043720567e-06)
(-3.513685235010862e-06 4.570567191663085e-06 6.29500142585849e-06)
(-0.0004128519754758129 -0.0001457673338386942 -2.590079014006685e-05)
(0.0007678788211082539 0.0003198978477593298 -0.000186787541466962)
(0.0002036869261415853 -0.0006148201284141881 0.0001001529054270949)
(-0.002944862306231485 -0.0002981936015482477 -0.000324242873162373)
(2.216698835477671e-05 4.018634734443246e-06 1.543416122900125e-05)
(-0.0008344945333793533 -9.901352398592004e-05 -6.089622572338289e-05)
(9.149711965049889e-05 4.073956278093149e-05 -2.10924066427206e-05)
(-2.940081669223718e-05 0.0001037245661251664 2.365381299600084e-06)
(0.02601827999572431 0.000957641353070797 -0.005012479177178629)
(3.634813435587516e-05 -1.170926657114193e-05 5.173154751341327e-05)
(8.679288312554451e-05 0.0005095655655590637 -0.0002195299631007585)
(-1.25218329328595e-05 1.039402997433216e-05 -1.169340304852132e-05)
(2.978771910637359e-05 4.245788323998678e-05 0.0001629848263879762)
(9.191809661434771e-06 1.508974310234638e-05 -3.59581310204296e-05)
(-0.0006338470240849906 -0.002905268067373331 0.0002290070405897292)
(4.868586050056037e-05 -2.35970162227765e-05 0.000256733226020773)
(-0.0004294666127869476 7.178720529055132e-05 -1.084894766304842e-05)
(0.004516521637028134 0.0004807479613760681 0.0001980118194698344)
(0.0002084423218065802 -8.881214950004368e-05 4.179097974391477e-05)
(-0.0001257737988860475 2.583307420125068e-05 -4.446016491259915e-05)
(-0.0001555721054168561 -4.582308233900558e-05 0.0002124586745704523)
(-7.207078818543897e-05 -0.0001053204630789455 -9.604157528354316e-05)
(4.128981976812422e-05 3.246308195139138e-05 1.880797548861049e-08)
(0.0001364882161549715 8.516968370110169e-05 -7.258550476085578e-05)
(-0.004371288474505406 -0.00122292281768676 -8.912809255529069e-05)
(-8.135281674835251e-05 -5.755854488370091e-06 -4.371495845082131e-05)
(2.703683894653984e-05 6.273169690428975e-05 6.130391714122908e-05)
(0.001810333137460532 0.003888561996168284 -0.002386481931338586)
(-3.477085131643294e-06 -5.733545627194969e-05 8.693177757684209e-05)
(-5.495586753968091e-05 -0.002507803944981939 -0.001843777350749044)
(9.761781433921868e-05 -0.0001057673807972906 8.138745918729188e-05)
(0.0003832311946237513 0.002873613763337439 -0.0002933897282635931)
(-9.332788135548584e-05 0.000388009716803978 0.0001056601436392012)
(0.001009150444979598 -0.001056385676066658 -0.0004575096200316817)
(0.000320333071999322 0.0001246315087242822 5.878319756754132e-05)
(-0.0005295465139788314 0.001564463649029532 0.001091140990257733)
(-0.000146158108765369 6.854707966536695e-05 -2.624574127160713e-05)
(0.002102470439324369 -0.0007025594660424307 -4.277305598714956e-05)
(0.0002529991948338273 -0.0001300577900796121 0.0002580884523381502)
(0.006342470231045744 -0.003763095858866609 -0.001101292914206534)
(0.000726109091112474 -7.448309674257359e-05 -0.0001063608690165239)
(0.002032168396022804 -0.0002900530548404692 0.0005099423765857569)
(5.964152271116708e-05 3.740007223778513e-05 9.86741234154598e-05)
(2.274276504537488e-05 -1.78763310871604e-05 -0.0001169560695287498)
(0.0004706057105985211 0.0008124797483254535 0.0004322239139954324)
(0.001251979916878199 0.0003123275891906754 9.104437609979858e-05)
(-0.00466199254083626 0.001814440226056289 -0.0004981587344927549)
(0.0004214412397676361 -0.0001520780833822618 -1.900007286809223e-05)
(1.365349916831744e-05 5.667036806354081e-06 1.929342809335702e-06)
(2.886189066812054e-05 3.949139023318935e-06 6.333318735874972e-05)
(-4.568420709989828e-05 -6.746661166723919e-05 -1.282211263838828e-05)
(0.000620740332200582 1.633740728589281e-05 -0.0001148710807305952)
(1.746538735127035e-05 5.045505626065077e-05 -0.000184318566579951)
(-7.658004503441043e-06 9.541992209657726e-06 -5.06034524740625e-05)
(-0.0001216778684660445 -0.002542157607455523 0.002681661260769782)
(-9.831549941310416e-05 1.261600976495228e-05 2.154174445610184e-05)
(3.754331582622254e-05 1.586856248186364e-05 -0.0001683870268839138)
(0.0009612651613118408 -0.0001800758894799672 0.0004707112642602008)
(0.001272272396429174 0.0003555135433537882 0.0003851012782606171)
(0.0005404632733960224 -0.0001957434769528497 7.977273478712551e-05)
(-0.004273835436151451 0.0001792142833960253 -0.002065971033620423)
(0.0009757019830804839 0.001176857562742646 0.0001140592286875729)
(5.202949649532569e-05 0.0001347411987466301 8.963001386086896e-05)
(-0.001446117046435646 -0.001735401281694103 0.004919496432730623)
(4.381871435805015e-05 -3.901541716371418e-05 -0.0001847957886931193)
(-0.0001122187788937599 0.0001144111651269395 0.0001395775983779545)
(3.19055720358315e-05 5.957669239937865e-05 -0.0003632014500905661)
(-0.00209493479480932 -0.001044825798926749 0.002217461568560547)
(-0.0001739831928046169 -0.0001187602908796635 -0.0004726427137464792)
(1.894830122751042e-06 2.085509299014537e-05 -3.923752805231302e-05)
(1.005650446747343e-05 -3.886862149513183e-05 -0.0001493159003281398)
(-0.0001237403313267208 -2.95984070183816e-06 -5.931039190292544e-05)
(-0.0005434633814707891 -5.831946939128818e-05 -0.0002358631830421609)
(6.108324711038134e-05 -0.0005141736580576001 -0.0002766840451914811)
(0.0002349467529000092 0.002075854292570965 0.0004015246678784056)
(-0.0001355744766453792 0.0007079987694496403 2.799417281380536e-05)
(0.0001510560375888775 -0.0001114912295144583 -0.0004643116335591693)
(-0.004389196036729473 -0.0009967719005840297 0.0008475764738779992)
(-0.0001638960098087133 3.934502627712557e-05 -7.537967456285947e-06)
(0.0009417645714675646 -0.001675551457497146 8.131407168906975e-05)
(-0.0001275638629702612 -0.0005214202927192659 0.0003095219802579099)
(2.338946435061854e-05 2.880911203014242e-05 1.548455857094564e-07)
(0.001434789068708861 0.0003087999675755047 4.667302526925552e-05)
(0.001366629386107739 -0.0004146099495186036 0.0005766952550059734)
(-0.001803729690111989 0.0004592777842075931 -0.001414405721509442)
(-0.001341005483773974 0.0002857602618883401 0.0002156484843292392)
(0.02563578456104794 -0.03345612591216929 0.02604106332414411)
(0.0004746494716162792 0.001193941916403059 -0.000857845016830892)
(-0.004645100269799028 0.0004757412403180036 -0.001503545747208403)
(0.0007161257554134847 3.287405142483716e-05 0.000374274371954301)
(-0.0003563272103480835 2.276532545390417e-05 -8.433772700594331e-05)
(0.0001589469180259731 0.0002767975945500141 -2.127590069167602e-05)
(4.802090447513025e-05 0.0001189313831604339 -0.0001636175427161773)
(0.0009835465209726076 -0.0001699028935934472 -0.001996914720933609)
(-0.001098364010841702 -3.084689972881994e-05 -0.0002758598463366418)
(-0.0001153943727886299 0.0001411900108764597 -8.815671270360939e-05)
(-0.0008035271885293293 -0.0004135174653541205 -0.001665646568149)
(-2.235389743541306e-05 7.33020331653601e-06 -1.154788237584975e-05)
(0.000205581205893792 -8.599689428497501e-05 -2.507737076532621e-05)
(-0.0009084009629279059 0.0002776180922572812 0.000828264275567661)
(0.0001651971514975519 -0.0001435317358097411 -1.147457107803149e-05)
(0.0001181497226487097 -0.0001971960769124921 0.0002121479914676862)
(-0.0001234812971073897 -8.048415520560631e-05 -3.931306235379337e-05)
(0.005321800706649999 -0.01064598494946753 -0.001525874648943453)
(5.72019115223768e-05 -3.882946316252021e-05 -3.503516164725155e-05)
(-0.0001878708502106564 6.008778283002774e-05 -0.0003293344151447682)
(-5.162740846535988e-05 0.0001119769435906109 7.951163574125019e-05)
(-0.003331876090524188 7.633485375069173e-05 -0.001265166700725937)
(0.0002504197378115605 -0.0002665158110734327 -0.0004231671740038558)
(-4.9797928951518e-05 -0.0004243780797507825 -0.001110151069011933)
(0.0002761782098473555 -0.0001597005143604758 -6.239381785796023e-05)
(-0.0009450603331450728 0.00138810836789363 -0.0003446852055461668)
(3.512175315469276e-05 1.884427713322713e-05 1.807912195689493e-06)
(0.001815586645208691 0.002806805663522762 -0.00122388277773854)
(-0.0001094970759788874 7.659317230004786e-05 0.0002022104712379227)
(-0.000570525829907659 8.384297435029932e-05 -0.000710638081214063)
(-2.740459446698617e-05 -6.01923766335088e-05 -2.515701798180258e-05)
(-0.0008807889883395666 0.003070771558387566 0.001758177383594299)
(-0.0002134881907566862 7.417561368352415e-05 -8.007865867057263e-05)
(0.0001000464426975419 -0.0001674075582477362 -0.0001636640246161894)
(9.721225054082503e-05 -0.0002665845578804349 -3.017006492705708e-05)
(7.183346253738353e-05 5.566070988566006e-05 -8.171473686318861e-05)
(-4.24093539495723e-05 6.278341272331482e-05 -1.88525494652351e-05)
(2.611834487554489e-05 7.395813647896085e-05 0.001145596056223919)
(-0.0002985751827358498 -0.0002287968031643333 -5.646371116403374e-05)
(-0.0003073963251648522 -0.0001361640811051861 -0.0003093133324369094)
(-9.560189004166381e-05 5.179664210397928e-05 3.545138759096092e-05)
(5.141073492244829e-06 -2.385746098932121e-05 -1.002858747738573e-05)
(0.0001429600115333894 0.001320669889992315 -0.001162186404410192)
(-0.0003304955971205356 -0.0001017551129827024 5.092095632946544e-05)
(-0.0008084841973295074 0.0004466178565629927 -8.732355993536824e-06)
(-0.0005540040427721442 -0.0003945170808793502 0.001655958538163399)
(0.000240297602027479 5.83120014991021e-05 -0.0007816840640506918)
(0.0002381178656234277 -6.923536552559213e-05 5.816279804150291e-07)
(0.0005273512240881623 -0.003175942932798867 -0.0001464719851016651)
(0.0001857263498160992 -4.472706282994426e-05 0.0001389434034791479)
(-6.250175050161623e-05 4.894904524304744e-05 0.0001347127078394581)
(-3.316137657280368e-05 1.662923885129334e-05 -9.527491964671941e-06)
(-0.0001422302935155794 -8.987281847041379e-05 -0.0001393400530136633)
(-9.209179176846829e-05 -2.091815807215075e-05 4.453704954247847e-05)
(-0.0001557390440592919 -1.974570972275861e-05 4.940384431018814e-05)
(-5.297649132000419e-05 0.0001463136724312845 -5.12052831673569e-05)
(0.0002123170211617951 -0.0001550476868819108 -0.0001749382482902285)
(-6.747515719533466e-06 5.585629347440826e-05 -1.233516429300781e-05)
(-0.0001469831145799178 -0.0005684388699209173 5.46705356180145e-05)
(-2.68256557986568e-05 -1.466201007910747e-06 1.318388153492852e-05)
(-0.0001463147021801003 -4.488709288869242e-05 -7.142923031591387e-05)
(-9.456213719708893e-05 -1.661295790508631e-05 -1.797166769917055e-05)
(0.0008165377032345925 -0.002259232899306941 -0.0003593794148862011)
(8.302374966926324e-05 0.0001019412256224144 -7.042240484032896e-05)
(-0.0002032059832729565 -7.736482873568599e-06 -2.811799072596791e-05)
(-0.000231228858677756 -0.0001632211332738427 -0.0001325983094853571)
(0.0001435509747769842 0.000327217961994622 0.0003572463265427356)
(-0.001931664455233131 0.004884419550016454 -0.003981002617434594)
(-0.0001228802557480062 5.213173411140943e-05 0.0001193940487752077)
(-5.006944697916065e-05 -1.132378582909446e-05 -0.0001332199263629295)
(8.026503394978229e-06 0.0003909985585658076 8.7169801090562e-05)
(0.0003551151424229602 -0.0007081627945222677 -0.0003388065603330123)
(-0.0001474588830069452 5.66109321562276e-06 2.221667572486706e-05)
(-0.001444015491158035 -0.0001239208232350089 -0.00107672614871499)
(-0.0008966062692122486 0.0008345655735539754 6.924265980127114e-05)
(7.842365390393425e-05 -0.0001227441971523346 -6.113755304100384e-05)
(0.0002399698175163804 -0.00247551967023328 -0.0009627568505877364)
(-0.0007836774127343155 -0.0002140934265246649 0.0006707326902886306)
(0.0001037984323147814 -1.720661686776075e-05 0.0003246798245612967)
(0.0002086731184974373 -0.0002156022824592475 1.968599711053907e-07)
(0.0001563749903365978 -0.0006955446712598619 2.354977350967375e-05)
(2.205683005631714e-05 9.987103621184906e-06 -3.575640930599118e-05)
(9.954059899526481e-06 -1.05093663564795e-05 1.127339119329062e-05)
(0.0003677042365034952 -1.310915769268107e-05 2.874104849407085e-05)
(3.433042005961877e-05 -0.0003440954499007319 -0.0005615911190890544)
(0.0001325763901217513 5.91935562434965e-05 -2.549260676537379e-05)
(-0.003786815381615836 0.004232862770918028 -0.0004838005509427113)
(-2.30076810052548e-05 -4.570503724288426e-06 -5.040898631624532e-05)
(3.252200595928209e-05 -2.260052732862846e-05 0.0001780600443429983)
(0.0003251562454552464 8.297926748129799e-05 -0.0002097077672769873)
(0.0002896466736375218 -0.0004548425968598043 0.0004847968396881765)
(0.000253139346371011 0.0001855711724242015 -0.000149986439040143)
(1.71069832363587e-05 5.941263221813304e-05 2.123256557307117e-06)
(0.0002277078244820915 4.186286769034202e-06 7.67598024896525e-05)
(3.620903736917388e-05 -7.15658650066949e-05 -0.0001287377584346242)
(4.876750846486794e-05 -1.599840871984269e-05 -2.500599092715588e-05)
(6.498226711817423e-05 0.0001162106021186971 3.884797322817286e-07)
(1.212109129023667e-05 9.589662914014456e-06 -5.332778456865551e-05)
(-0.003981455021054563 0.003868029249285698 -0.0005451932584333296)
(0.001187506007253299 -0.00172753121796136 2.972848534117049e-05)
(0.0002394391464497445 -0.0002046002185014967 0.0002681517581671122)
(0.0001934194971696645 -1.135599706311759e-05 9.280131671600952e-05)
(0.001387012159815714 -4.440483341646661e-05 0.0001270076056758321)
(-2.405266754013639e-05 4.851270957979466e-05 -4.514887256253694e-05)