/*--------------------------------*- C++ -*----------------------------------*\
| =========                 |                                                 |
| \\      /  F ield         | OpenFOAM: The Open Source CFD Toolbox           |
|  \\    /   O peration     | Version:  v1906                                 |
|   \\  /    A nd           | Web:      www.OpenFOAM.com                      |
|    \\/     M anipulation  |                                                 |
\*---------------------------------------------------------------------------*/
FoamFile
{
    version     2.0;
    format      ascii;
    class       volScalarField;
    location    "0.8";
    object      p;
}
// * * * * * * * * * * * * * * * * * * * * * * * * * * * * * * * * * * * * * //

dimensions      [0 2 -2 0 0 0 0];


internalField   nonuniform List<scalar> 
19632
(
-0.05400437018615715
-0.02223510864575347
-0.005681936209498153
-0.7471773317397031
-0.0197973199857686
-0.01314548756350261
-0.04322247823599051
-0.00435531897411888
-0.03644435683702103
0.2222638981584606
-0.1435513312752204
0.02862463273065669
-0.02017878696154822
-0.02446027307979821
-0.1303205266215426
-0.00940027219392676
-0.03138488876264053
-0.02525185322730093
-0.01053236441833956
-0.01682528705068601
-0.1125547536606629
-1.850422159726095
-0.0901089712246602
-0.01390894607302432
-0.01455876552585627
-0.0103023654727037
-0.01305136440753805
-1.243532893608207
-0.0007194501584079868
-0.02233524587154623
-0.008960319671306949
-0.03475619327082917
-0.1793440588221904
-0.921843872915762
0.004902921173516242
-0.01953752800678468
-0.0182824309170564
-0.01289589147551219
-0.008166965576588078
-0.09428382238221958
-0.01051804354698369
-0.06047776335685335
-0.01596334184051997
-0.03737469119881991
-0.006843883990485853
-0.005609526889049414
-0.007062151358599246
-0.009590767133652381
-0.01494775433156075
-0.05733505369327732
-0.02696388450751186
-0.03752315515622014
-0.005633198869078577
0.0546329822815673
-0.006576229154814357
-0.03409669031294141
0.00128811374422749
-0.02092360659521759
-0.00959983442179717
-0.1841281107990509
-0.01262708743795132
-0.01239691667720468
-1.167577600264964
-1.413544213456081
-0.007553142394455689
-1.441388548958553
-1.908052795221512
-0.01196942006028828
-0.002858950177950508
-0.06446507325363943
-0.05077440042656597
-0.01139470400076142
-0.006381362341625891
-0.007874240681913402
-0.008352541496709933
-0.01110528537941987
-0.004419179864387157
-0.1668073045000643
0.02564641579098422
-0.1521223612599118
0.07772193868215442
0.1599648914240053
-0.01966949907598359
-0.01882542779400935
-0.003117175817344387
0.007073692263640931
-0.00940263045208683
-0.01335731452427903
0.01145538816983484
0.04870990063769207
-0.0689578727295331
-0.01606947044268745
-0.04796767747462073
-0.0567564054474562
-0.009125418336295861
0.01416249598247588
-0.03046109057170537
-0.01874666005971445
-0.007985451730992238
-0.01393984781549882
0.6351494191794719
-0.01030240591255726
-0.05251377187650436
-0.005387998019305375
-0.3118896372365162
-0.1539547400199723
-0.06897019985220366
-0.1801732705018617
-0.005963682903332124
-0.02215258821635639
0.1997647349361342
-0.01266995330152874
0.00943760669424447
-2.012460704921841
-0.018831786304573
-0.191807370939118
-1.899774642801856
-0.3443452285459498
-0.03749416686363496
-0.004298458462867662
-0.01805859775590544
-0.01834621177586063
-0.01726417111326485
-0.009302464555750092
-1.082123172845147
-0.2167627902430722
-0.009870946160976345
-0.02526434660039006
-0.0086708796547325
-0.006056061394658051
-0.0223105229324045
-0.01542266756652063
-0.2168940752235666
-0.00490395811414725
-0.0273290994399308
-0.1349705782103577
-0.01717979004837772
0.05199643897672218
-0.0146914005017184
-0.04745511062263309
-2.761624622936109
-4.191425515754936
-1.334106475196493
-1.610424127725374
-2.750236294746276
-0.004703248780645318
-0.01133843135308178
-0.021688157703367
-0.04235086184053
-0.009756746631777528
-0.04179843291331345
-0.04220505055058955
-0.03580353994787362
-0.0176471419319437
0.00390104355100578
-0.03737685852587112
-0.002939686895804408
-0.01573078746442805
-0.08154448126169764
-1.7430894154973
-2.721269120256142
-2.619987387858534
-3.19943547001189
-1.537199972888131
-0.02771922183722591
-0.01260785692193479
-0.01438688686726196
0.07336750446790428
-1.538224668469264
0.02639015086108292
-0.01584327395015432
-0.0541574159616209
-0.01108783439626059
-0.0173484741146406
-0.01819108034138944
-0.04157737904164647
-0.01093304054881534
-0.04644347685290805
-0.01158060517527871
-0.01242076972269241
-0.006048475716812635
-0.0120689854454744
-0.0110661681583767
-0.01935682807969322
-0.01331498710329019
-0.008145822862327009
-0.01203075601230954
-0.009348652827168607
-0.01280631112843231
-0.01065550754478429
-0.005251970723920862
-0.08154184831402193
-0.1663648943819388
-0.05576331061944959
-0.008275465790544849
-0.00409952389088184
-0.02915313545663981
-0.2522354674470183
-0.03934477017993063
0.0326336054261379
-0.01873782421800368
-0.06431424109445216
-0.008827729000846362
-0.04616841495575331
-0.008348567179741969
-0.04958463323085983
-0.01105543415096123
-0.03426671806647715
-0.008930970722252428
-0.0121454128893414
-0.04410675724121803
-0.003561775120179302
-0.008833852099810687
0.03586066662330913
-0.02209413228589084
-0.01075164737017058
-0.006565834269114442
-0.01269146524538446
-0.006407960182125477
-0.02700259416907129
-0.009568015378111017
-0.02145897780633509
-0.01593926891852294
-0.005957562766099706
-0.008751494585293644
-0.009733365892476489
-0.01808663477362745
-0.02979985355503699
-0.01388412686833829
-0.02013153363490307
-0.009823103309557624
-0.01646551081568227
-0.008706031904194013
-0.01748619656555107
-0.05378294167616065
-0.004411478465815009
-0.01426830561180681
-0.02397402034646756
-0.09981183029675014
-0.02122672726874214
-0.01493986080452493
0.0383728306684871
-0.07816956454956402
-0.009257155698315367
-0.01316457659543191
-0.008840972839954227
-0.02220422266033031
-0.07056153797747851
-0.006981784715719011
-0.00737333057508957
-0.005028974218185193
-0.01329660225203359
-0.01451395365222788
-0.05781463722462908
-0.04290090108840413
-0.01867586249720944
-0.005764420505275302
0.01857947051855395
-0.177737040513605
-0.03986323733831613
-0.04618068312230528
-0.0245165288743627
-0.0102061954336881
-0.01614089054855398
-0.03696017871558573
-0.01447812462491681
-0.01750883554584735
-0.00116025613871726
-0.01693016975871147
-0.01183390805944859
-0.01666088731843487
-0.008548806284223524
-0.02015465080271779
-0.008884385374005972
-0.01019649547100867
-0.02017823170365885
-0.0284066086828004
0.03665004307431345
-0.006389798417572963
0.03492116657842661
-0.01040325812352582
0.01539002207192855
-0.03551788898614678
-0.01390674145799893
0.4955515570756057
-0.02582855160511771
-0.02897154798151257
-0.05582269197312108
-0.04375596748876839
-0.05122673749165872
-0.01058423426624065
-0.0305795401281917
-0.0185454465351568
-0.009104443906273216
-0.009673133941020663
-0.01251059213874913
-0.01068969765702718
-0.03457308222043281
-0.01436003892944238
-0.0138473742006652
-0.1543444767170322
-0.0139419548186479
-0.01533459629679831
-0.0119909620348938
-1.575771758577162
-0.06734147162438375
-0.02091691397400782
-0.009319030310074543
-0.01287269529923421
-0.007952450881597168
-1.504161894004404
-1.173555275052343
-1.095042874579399
-0.04654428079703412
-1.730082290425798
-2.045786901454307
-1.28487533583985
-0.004019899379843977
-1.581281662357371
-4.732320981980395
-0.01067878378679914
-0.0097077752908039
-0.05554993533423982
-1.280244462211652
-0.01460272286031479
-0.04597472827145613
-0.01395292230508876
-0.7782438479083391
-2.714182797680762
-0.0182228383892957
0.01034377062498692
-0.007799431203267024
-0.009624490304639069
-0.02930878163661478
-0.01774461863215868
-0.007412727747964687
-0.02836104009079183
-2.692196108877639
-0.01843332933873065
-4.179774038331735
-0.03537794979885616
-2.128588340313575
-2.791453489322529
-0.03040947614644572
-1.248384082469001
-0.03237162136428044
-0.06388192127708009
-0.06723170270577859
0.06212309579854751
-1.255145087925242
-0.03748792109517001
-0.01713168548982086
-0.00724356200911177
-1.311652192075554
-0.01506748413747678
-0.01218333031298209
-0.007995550235081255
-0.01625612410624802
-0.01866291741143042
-0.02940554450132527
0.003070305628719293
-0.006789418620359002
-0.1521189287903656
-0.01642913664972447
-0.02016968098463855
-0.09022641745366779
-0.03100724992602034
-0.1343848056337653
-0.01939691072054722
-0.05372260774441221
-0.1003032575100913
-0.02504456530581698
-0.0148128179103535
-0.03317370545290104
-0.03448860546038577
-0.02767199665678012
-1.226325505586049
-0.006797367457202363
-0.006973291333440029
-0.03602225841671623
0.08742440575533043
-0.01575816112211878
-0.02607570896327379
-0.01143122472029741
-0.1064578508354291
-0.01491796389936784
-0.0103919451389196
-0.03610550100378852
-0.1564223155801547
-0.01593703726880918
-0.01349914898800918
-0.04075831239926066
-0.03391028618034297
-0.01397491098249832
-0.02556905968312176
-0.02610457401960602
-0.02733834079943278
-0.02736424386576406
-0.003914482765982416
-0.01854238597252636
-0.0217983349533247
-0.02352268892500211
-0.04822517213807105
-0.02262928153335943
-0.04819704919929348
-0.01308981885985844
-0.007397991833168331
-0.02285075144873377
-0.3080763893719785
-0.01397137435222467
-0.1198240812886301
-0.01383844756164671
-0.2826978284272679
-0.01367570704845411
-0.03283866903456122
-0.03401919067688955
-0.0301163117974999
0.07599914089484226
-0.03406658744656694
-0.02910203478599377
-0.02802828901228047
-0.02489178126496398
-0.007647623141511521
-0.0301908088103295
-0.01956097479322295
-0.009669794092269418
-0.0165781588310255
-0.01391277833731253
-0.009578684885172373
-0.4844595538070985
-0.01717510671254135
-0.01710068398645441
-0.0192914749278941
-0.01734083214016535
-0.01167295758662849
-0.01085529920381919
-0.01779840031780078
-0.02105394632712074
-0.02073113249524989
-0.02009720758225744
-0.03666409029103889
0.04014958475046665
-0.03704110847846702
-0.01937419113224479
-0.02898004714192704
-0.03217145417148159
-0.01044481055143119
-0.03254811338214217
-0.02129066558718071
-0.0226448444463303
-0.03553936852983799
-0.02737672344062723
-0.007526051087058642
-0.02928769762774829
-0.02367589698968577
-0.02869635893328138
-0.005619188795539381
0.01865219434142385
0.02334582455442088
-0.07549212832763315
-0.04275254562860532
-0.01946177810157214
-0.03148702914879543
0.02480812427280216
0.0164295853752246
0.004919750170164573
0.006215963925000466
-0.02819863251269846
-0.005864414276549786
-0.0112709828008438
-0.008728338980062157
-0.1246483234450881
-0.01773460222655689
-0.01388849938113033
-0.01414500039162428
-0.02716644132415794
-1.548649751206761
-0.0123832253571357
0.04913277153813941
-0.03540073538406577
-0.01378489186547137
-0.02727597653611092
-0.007981811990331352
0.02797355178479123
0.03883882929018155
-0.709100317202458
0.01516219930299087
-1.635217256100654
-0.01180302415975216
0.01888582143772738
-0.01298146252776603
-0.02621073426840475
-0.03023229329073126
0.01549677720265784
0.01492182023748926
-0.009979422327896486
-0.01805603405434824
-0.009441663613483517
-0.03444152719005693
0.8486559099310491
-0.01139139895859231
-0.01003612799976734
-0.0004429037622934776
-0.01664430718475604
-0.004801483160828078
-0.006965300699538704
-0.009832622419585543
-0.008953908906106027
-0.005154244524051765
-0.04754792267137545
-0.007781346263899474
-0.5114386957486581
-0.03719439648160357
-0.3834063623908874
-0.05582217192558177
-0.01158491595550708
-0.01004799966637814
-0.9983330171389424
0.01931671953638589
0.3459122557147919
-0.003507123923279483
-0.005526610429687004
-0.007844369038141091
-0.9838769482220744
0.01208788110233397
0.004155960397718894
0.003573826425138735
0.01211734742060854
-0.01247864470451449
-0.0420523157569322
-0.002934145840713164
-0.01003600587580233
-0.01392939969460026
-0.001978470196940868
-0.05520825818599769
-0.02393573932801119
-0.02536163161352225
-0.05195534472617203
-0.01127232443832443
-0.08476480200429612
-0.06355073835429439
-0.006089106191581454
-0.005517065457773249
-0.006010445580727456
-0.02235016165041389
0.00812589261658001
-0.1183676921810621
-0.01548519854681929
-0.01797473282877624
-0.01924230485920382
-0.04333663275360206
-0.01326470548563159
-0.01033151994661641
-0.01099708594877555
-0.02742598647287528
-0.905376585969883
0.001711299486742804
-0.01050231662125192
0.007937415240875144
-0.01081111093832266
-0.7818893715989983
-0.06110469562596756
-0.08975179758046495
-0.03419151894287312
-0.04367787464513703
0.004952475502593826
-1.285616893411285
-0.01283646696882122
-0.01121459873775827
-0.009036776652922851
-0.8376221542272633
-0.008645149701721564
-0.06846598932917361
-0.03916968228652228
-0.007936252306214879
-0.1042420659506963
-1.64311871801589
-0.2103346830382809
-0.1477377616690111
-0.006405889714784837
-0.003972780888297984
-0.06320895145379538
-0.2734659334542877
-0.01797060922711337
-0.00388829381269312
0.01768364796742659
-0.01547563582894534
-0.0142117902971261
-0.01561017240075403
-0.01766395751721527
-0.2760702500278187
-0.01625796622339786
-0.01389510834031755
-0.3111537925150751
-0.01081447271422498
0.01382016712105553
-0.01706425967667394
-0.01196662547097702
-0.008978665954983736
-0.04555020156049479
-0.05216950378150371
-0.02151331860691505
-0.008443239593573472
-0.03086256523495223
-0.03163062050111898
-0.008513090384117782
-0.02160533570264773
-0.03020280589758619
-0.02995227377925841
-0.04998309760451492
-0.009801764183101611
-0.008501389853421673
-0.007840844737076674
-0.002040630464110662
-0.01543245608057724
-2.141622815864532
-0.01467545026103314
-0.2289477438748572
-0.3472086528909071
-0.008772515557723348
-0.01486774193555291
-0.01579938883896279
-0.01253612863316231
-0.007674999406662986
-0.008076315995591251
-0.2588277108691325
-0.01290039889708008
-0.01272256980514885
-0.01042514128386069
-0.007548890457631736
-0.0127928776414534
-0.004329581446281009
-0.05065675341281077
-0.276787646931217
-0.01202652809735109
-0.01319275694267328
-0.01525787989402453
-0.0122456371626781
-0.05653831417192988
-0.007218612023282718
-0.01066018434827426
-0.01289566843092841
-0.03062528660023681
-0.03567059638768943
-0.7232302306969558
0.02439914252310438
-0.008631305161038967
-0.004180135029018945
0.00421593617124924
-0.008768563470148214
-0.03254818149451853
-0.008379327768680347
-0.007905120901826046
-0.007849567880473191
-0.1662552969822008
-0.07739181648912284
-0.008193885940115437
-0.008079984189777381
-0.01731697416212916
-0.01252134438160163
-0.4338153329214433
-0.003378054969018209
-0.008653957947991644
-0.03204156175154758
-0.03434281992420508
-0.008460132549873964
-0.7440633409548917
-0.01354732749348322
-0.02340846997131387
-0.01543640014824366
-0.03066776283894384
-0.01530314681314701
-0.0569848431353537
-0.04771191683206911
-0.01078466642351369
-0.3071437017748761
-0.5149998444167921
-0.03623106642609736
-0.0127372129854607
-0.02258312930217675
-0.03328517651356076
-0.01024546364615054
-0.03744022295567043
-0.0140173699078957
-0.05666327484261717
-0.01106848639899719
-0.02846210611990456
-0.01124213940888427
-0.01071518962289322
-0.4264550425419705
-0.01033755980831881
-0.01677371768954011
-0.0117839711908117
-0.01113445997017243
-0.009641055373944758
0.003012124133654965
-1.539974822961599
-0.00746768973226714
-0.00959654291231242
-0.329468260571975
-0.05424133774640239
-0.01022721340077214
-0.2847077015639845
0.7559736922515666
-0.03603273508528457
-0.009276510863624575
-0.05418197714877623
-0.006638335740782244
-0.02261129213560768
-0.05147924009827941
-0.00874174117418146
-0.05282600411790265
-0.04550708191581258
-0.008424746057859461
-0.01842791793821389
-0.008564506629736027
2.240866037726763
-0.02461145683700613
-0.117536498627127
-0.03843351506293426
-0.03594893461375585
-0.04460531300599207
-0.02147606576962265
-0.04228794605810675
-0.0285482721436293
-0.06129308108045464
-0.0175052226771406
-0.03116924354945763
-0.04136926141803145
-0.01074477712658208
-0.03343039604027116
-0.002963338059818814
-0.6719176402115019
-0.03511151666310659
-0.0114663414363553
-0.6090811054795799
-1.014782912470103
-0.01180830708195082
0.03210094463276351
-0.01049551993366138
-0.06761306252543629
-0.006237555976811826
0.004529845166058156
-0.9160033964299104
-0.01755927930804445
-0.5710247283828603
0.004587164568244622
-0.006258817136137549
-0.001430804869494277
-0.08617660984036311
0.0228922580644533
0.001628595599088811
0.04299491980622391
0.03454139276923306
-0.02749569524024061
0.01526634033071541
0.009909920019919843
-0.0104081738143151
-0.01205942484535755
-0.004460893211641838
-0.01208874720645359
-0.01062628630461597
-0.01039555280218731
-0.008305394811924641
-0.008705646183610832
-0.09894174514329382
-0.4397726266981355
-0.008894560427642714
-0.009487793887393601
-0.01116253106410734
-0.01282362955958715
-0.006204599346727352
0.01098785304041342
-0.01367688681909796
-0.01920426180576407
-0.005929088295486766
-0.00719786938409249
-0.01007795459426265
-0.01010435825579286
-0.01025054882274225
-0.01893325397217443
-0.009651469155109983
-0.07597599245164878
0.01362571717445553
-0.01118487162310108
-0.003748866230702175
-0.01267341935228891
0.6698041435285614
-0.3321328354321957
-0.01289811300621887
-0.01252128566176551
-0.05858627675991517
-1.748129990942346
-0.05194386509225575
-0.03311910273164792
0.08265239975690754
-0.02400365319653772
0.05557219876933883
-0.07161001143362344
-0.06721900975824753
-0.04195727424783165
-0.02077048218747055
-0.2816250514742101
-0.03343934352821049
-0.06641820768435606
-0.4413768194497369
-0.06836495177526765
-0.04655632495654567
-0.1241814550773151
-0.01660698754665024
-0.06536929540963371
-0.05563249256596523
-0.140645413423068
0.04711344912624725
-0.09959229369804261
-0.06121124692691925
-0.04884711584634525
-0.7995705821460298
-0.04492966150183176
-0.0267975693160758
-0.01089700724167169
-0.05455450085582392
-0.006722745169059761
-0.009606131234447689
-0.01189948450392827
-0.007132755962508686
-0.007720927578522514
-0.039471815942568
-0.08163131205032705
-0.05373120230285452
-0.06360934599633319
-0.008820423386880704
-0.07166937520922295
-0.04085328881934919
-0.01179980362470277
-0.02681566132515928
-0.1638553842601862
-0.1004797035815611
-0.1102805887965405
0.03006538281083563
-0.009459222150507804
-0.5771114211530628
-0.1911863445263318
0.03058291639206403
-0.01207207332224172
-0.009467567954640047
0.01508494281268885
-0.04599923173571798
-0.01079023459945232
-0.009841838927907692
-0.01383739596260695
-0.003700973953721106
-0.03786371057926224
-0.02324867550982554
-0.03569860029174019
-0.01068611043759127
-0.04086693094687606
-0.03632794158034665
-0.2750881823374591
0.05229488963879626
-0.008849833988484783
-0.03922309673661333
-0.03403264842320063
-0.0341441181619274
-0.02991366009499065
-0.04097525966287385
-0.03702205160631227
-0.04114626941398851
-0.03232417418686549
-0.02596098073695926
-0.02299817740256486
-0.02188476930227906
0.001524738273618436
-0.01948207863047287
-0.03592925767109364
-0.05511536411794582
-0.01150375435315291
-0.03118404231278811
-2.948490176569862
0.01567410322783105
0.01502456154720699
-0.02580684861806353
0.02417982533232292
0.02699527104057374
0.01053213144558157
0.01487051232256303
0.01556113074689393
-0.02581232904630238
-0.2617622222032289
-0.03005105549283965
-0.1227378244988399
-0.4253922441886632
-0.1842455090291988
-0.0290829972637384
-0.1090702395225729
-0.07588942889696482
-0.08771980771447217
-0.06535696908295621
0.01442719398201955
-0.01820478516341134
-0.01667778182181317
-0.08268634013745192
-0.0384650896985711
-0.06512956253378642
0.09073504680670788
-0.2642938777866679
-0.06816483125872022
-0.05449782700840813
-0.008909469121522328
-0.02258018441401637
-0.01554641260145108
-0.003257795251906487
-0.02454552055508214
-0.02136095319479628
-0.7734023339232399
-0.09855352236835216
-0.06163486829771851
-0.03528126251571007
-0.01757717747217229
-0.06926521999277599
-0.06052236318849104
-0.006989384940210964
-0.06274176754128992
-0.04665147232395163
-0.08462964336627904
-0.01920221139648796
-0.1345890891024193
-0.07913879841949943
-0.03081806751713599
-0.03229119952797025
-0.01274983162518816
-0.01342627187398795
-0.01157564236411974
0.1938929077143684
-0.01212383461678027
-0.01862989066248462
-0.01346078671524435
-0.01312111509452046
-0.01205100526529753
-0.7313136521668296
-0.01478188976354953
-0.018909324161517
-1.265896468617166
0.002456782251541592
0.006182052306123583
-0.01449734494198846
-0.02171288966604888
-0.001038198300559684
-0.04261811362861291
-0.1928250459365976
-0.03651121420905085
-0.2006247717197233
-0.04617216480841868
-0.04159827498918218
-0.010750257382602
-0.02516023840783818
-0.03219904886326704
2.570392741353498
-0.04360516952125836
-0.04665788442247818
-0.05049701237603346
-0.0514977618710826
-0.04989626651844875
-0.01251709331346689
-0.01286748966088508
-0.01086141852336671
-0.0384176417218336
-0.03386654521323409
-0.00874947378214134
-0.009397423320335187
-0.4953121462898378
-0.017941389722539
-0.03503379251249623
-0.01818892846440717
-0.002638758975561097
-1.478936991668763
0.02632108096407982
-0.00387819105530675
-0.04312428686425369
-0.003571160193901874
-0.004071600977998903
-0.004713921902940134
-0.004680108405965137
-0.003676247511639211
-0.2815117972603851
-0.004263890834738319
-0.003861066717516311
-0.1432163959867245
-0.006477526773124125
-1.415509511533831
-0.003133281860544625
-0.009166434762253367
-0.008594487992391651
-0.01429022406840988
-0.6493722616211354
-0.1129951517825039
-0.03447136697093037
-0.009017275083317329
-0.01709495910003185
-0.1061922873323053
-0.009072666667477407
-0.009651970583475913
-0.005232139488577897
-0.006620351654066943
-0.007315062404404826
-0.007816987711822413
-0.1156988427685943
-0.007616952326064353
-0.1457965841411905
-0.006643562874405056
-0.09603556039551089
-0.006013157898316534
-0.009657565760892781
-0.02002179713442842
-0.01127482746928518
-0.02819263604460543
-0.1978463593417749
-0.04470243239663385
-0.5756434616990059
-0.6413660526905633
0.01941855378850437
-0.6474887397176307
-1.418800587598761
-0.225569046683554
-0.02078116830835966
0.03044925105114925
-0.01631640238769743
0.2121400211504214
-0.1308469284388635
-0.03504969777816504
-0.0638791081514213
-0.5020871141471424
-0.2415107123084073
-0.1122126111702269
-0.1139138774522157
-0.03570271142816069
-0.001712078026724939
-0.1265275174943112
-0.2434324568785945
-0.5704220409347732
-0.02905312575501385
-0.2264374605775329
-0.11977672696368
-0.06637980374579099
0.01344862894368151
-0.4699897414522458
-0.0379348751645891
-0.04441018756989014
-0.1888803282688232
-0.2837134411312134
-0.08223999420636806
-0.6200566952945998
-0.1860429245475401
-0.1678860121738522
-0.09226887167952892
0.3249746537861429
-0.01097678082775761
-0.01419482475738765
-0.1056655519700081
-0.3305044519549374
-0.4039575846822135
-0.06087812194839692
-0.1429370138142773
-0.2969250758711888
-0.1221414433203571
-0.1222976879965313
-0.03578420397928579
-0.009134724464397585
-0.0099732694656012
-0.00867236163724544
-0.008531702686466693
-0.008558591203707196
-0.06466552793635769
-0.057153585712673
-0.3947803350353701
-0.1681450080625035
-0.02233859031869734
-0.2609321015252002
-0.1141941497364935
-0.08821087464450075
-0.04438522770959512
-0.0315396401230862
0.0006285426030032504
-0.1743479218114974
-0.02245538006515271
-0.003841766693112067
-0.04899355215974603
-0.04744176104003577
-0.1111994663604156
-0.01493883479532386
-0.01555720454781481
-0.02298957256954467
-0.03746258168489451
-1.271410528429428
-0.01452522770661733
-0.036824360586957
-0.05885834836288385
-0.08754984351759604
-0.01374303985275781
-0.01255443835824533
-0.01396678446014458
-0.01051974608665082
-0.1732901924616257
-0.01229823060993661
-0.08304880602666465
-0.04897186430428006
-0.06685533478754992
-0.01428058701393476
-0.0459228070062895
-0.06085992673285343
-0.03641570300228765
-0.04626703395452018
-0.07850557846995061
-0.03710718725741263
-0.1408116986192145
-0.1444361656983138
-0.07063760272921683
-0.06230334180173647
-0.07050640649692476
-0.01607423660456003
0.0006152128110128616
0.001143050638959771
-0.04744756689619375
-0.1067081899000274
-0.0782982099128275
-0.2107817285227642
-0.01757268141530494
-0.0354678055180259
-0.4532347681373608
-0.02049751326149259
-0.02465972366005319
-0.06430329101260189
0.07375753829256175
-0.02429421351636782
-0.3073354732601732
-0.1875043684247521
-0.005485086414118755
1.087249089782563
-0.004744493913206279
0.0002231080655712608
0.004245378200598914
0.004662220890316615
0.00330302348648811
0.001329790408976041
-0.00650096132866357
0.0006687733581638986
0.009473448222181607
-0.001902643326000009
-0.8402230335886307
-0.006020633256245632
-0.4011926839380756
-0.005725924138203257
-0.5946889217234218
-0.0003369624660696478
-0.5450708729385054
-0.004588381372330071
-0.003690474796707117
-0.004545564420398895
-1.99639494006122
-0.001470975232438436
-0.006961386629887689
-0.04354784777146681
-0.04402264062324624
-0.045870137455639
-0.04841024078342674
-0.01639775740435481
-0.01721226386973924
-0.02117668239297746
-0.02510416937456264
-0.02171004233757515
-0.03341818030122664
-1.000130052876733
-0.03277962982277773
-0.2948476996564492
-0.06054987546301076
0.02626161774883089
0.02378773780358913
-0.1693655641932009
-0.07796680850516453
-0.302428949616334
-0.2062347685608723
0.02025506909669651
-0.01097784629683842
-0.03881230579935078
-0.04003449626657866
-0.01272670461041698
-0.01101710061762189
-0.07101096153718449
-0.01860308222816699
-0.00891399228914572
-0.01349648831897191
-0.1408919215804763
-0.03393815555978695
-0.7533190794879497
-0.04144299321349475
-0.02481157534815653
-0.02610593565714297
0.003930986611164138
-0.0126413076684037
-0.03286623129866981
-0.005902363466821615
-0.03059989498091783
-0.1333287440811446
-0.01163706602662937
-0.6288840358284586
-0.05586609104814984
-0.004491350413336246
-0.1804055628092981
-0.1240404924875342
-0.006118525265187865
-0.00120634637939569
-0.5365466128419794
-0.02444450063714673
-0.002122815084070864
-0.08197163812291214
-0.08097535273510252
0.0283399480087145
0.01085041536187245
0.006865480941805336
0.009386935049998929
0.006143602751762778
-0.03705438149127217
0.005487083199227776
-0.05446731210760291
-0.1591683614911723
-0.07623458265934506
-0.5576749751245256
-0.02226911471528401
-0.04686683915720422
-0.05943040927318901
-0.02382993261300346
-0.04120577152838279
-0.02005048545259205
-0.008324263118991081
-0.021237640724573
-0.01422645092036492
-0.005317073357965221
-0.03304353826176508
-0.4066366457874477
-0.6408853222347556
-0.05382242072550298
-0.72879472828486
-0.004482883838419615
-0.04349698253639277
-0.6587408882339647
-0.02466070896061611
-0.007872863824136501
-0.009017390388170071
-0.006787093164928954
-0.08565550915510221
-0.01494014382557029
-0.01919328593975558
0.01192058080691266
-0.008155067730262264
-0.2116759371185938
-0.05630461430221007
-0.009864844463235985
-0.005979218731929858
-0.02591719859810212
-0.007392667656521706
-0.03785591628933532
-0.09536976442984824
-0.02188830169354424
-0.1115088877477512
-0.02131246051607631
-0.05224184115998655
-0.1213722693415251
-0.06466586219424407
-0.1426189677960458
0.5123010222284198
-0.08195058064035131
-0.04327402094105835
-0.157823002302204
-0.5241696350298523
-0.9534030334901816
-0.3784478262891232
-0.1863330031302637
-0.1378393978886578
-0.4357555300100436
-0.09499440467104324
-0.05489637665564887
-0.1091588263384167
-0.8034767574949123
-0.2824415551887886
-0.4925714620651531
-1.274111344118615
-1.421459844567296
-0.08015370576135714
-0.04512330751863192
0.03384215947437365
-0.1244110840504713
0.004203081128606954
-0.1563051455876494
-0.8832312949627642
-0.2560038619338565
-0.05174360089409272
-0.598883515588929
-0.02742974723668582
-0.007980239896101431
-0.8927376850435838
-0.007383516724085994
-0.00760948499610356
-0.04263087843093315
-0.05684382234003459
-0.01107542059937976
-0.03102538071773678
-0.007367636329102233
-0.07522885804743042
-0.04180170956359538
-0.3706647626785
-0.07875341517151872
-0.09445223696808415
-0.1709860997856049
-0.03238522899309695
-0.08551952980888242
0.02427777312095939
0.01906659601757054
0.002946999876981126
-0.05134402603254155
-0.05101452764939091
1.072712433369026
0.1101260923164302
-0.3537180215152324
-0.04670933162632043
0.01244731950348259
-1.541719324910614
-0.1420633189809664
0.009476619262958666
-0.5149231048273916
-0.007185854847192359
-0.01137754687710484
-0.007459928534199985
-0.02397715022570704
-0.04924355418049987
-0.02176830608454722
-0.01060731792085326
-0.05037852475218511
-0.1488836159752369
-0.01077507087126172
0.1900221104579565
-0.02334759306373045
-0.4908441701673708
-0.8235170829667464
-0.2074798378938495
-0.2751813788215446
-0.02401604242667478
-0.05379936676678596
-0.02452463325354034
-0.1090973900560145
-0.120691975653669
-0.1257502176705913
-0.3394775845730323
-0.1153926302448962
-0.2159993065909692
0.3658880624530704
-1.385225361232024
-0.4368500126974283
-0.7073974529283868
-0.1097681101052397
-0.02006421430916622
-0.0631213344709935
-0.008523356250732339
-0.5155748786238344
-0.2510029089287127
-0.06716815503672355
-0.3744659505372203
-0.04204257961327933
-0.6046178013398609
-0.0570305080586201
-0.06092636984771555
-0.520772380253861
-1.08384857599399
0.1719493533814793
-0.04230611236327626
-0.2226468245688375
-0.03750048648224871
-1.249289902643122
-0.03609703151142384
-0.5470574279660576
-0.1569540542617406
-0.5700941598201923
-0.6815048487269708
-0.2809466638611047
-0.06242012458841389
-0.02375378025405554
-0.1609629339539946
-0.06804602785301553
0.02667760468909013
-0.172997372397098
-0.01496892956221558
-0.0119714714470547
-0.03119329258403814
-0.004386466001739495
-0.01545691804062007
-0.005720133514998475
-0.2298931645398574
-0.131992000310332
-0.1077864064003134
-0.07248607366480236
-0.01056617712702967
-0.0130396043596123
-0.05609312339797448
-0.1689780605910508
-0.04462099635516895
-0.0947912330012118