/*--------------------------------*- C++ -*----------------------------------*\
| =========                 |                                                 |
| \\      /  F ield         | OpenFOAM: The Open Source CFD Toolbox           |
|  \\    /   O peration     | Version:  v1906                                 |
|   \\  /    A nd           | Web:      www.OpenFOAM.com                      |
|    \\/     M anipulation  |                                                 |
\*---------------------------------------------------------------------------*/
FoamFile
{
    version     2.0;
    format      ascii;
    class       surfaceScalarField;
    location    "0.8";
    object      phi;
}
// * * * * * * * * * * * * * * * * * * * * * * * * * * * * * * * * * * * * * //

dimensions      [0 3 -1 0 0 0 0];
oriented        oriented;


internalField   nonuniform List<scalar> 
37377
(
0.01706818511429213
-0.8062308259803481
-1.449820458184186
2.238983099043043
20.61980862690619
-4.648158316807442
-15.97127379747818
-16.56031580448625
8.220047265002119
-13.29056436839318
21.63083290787847
0.224405887546141
-0.007704165343440498
-0.04204631255958241
-0.1746554096337033
-13.91509874492423
-12.07839922912105
25.99384901502615
-15.07824726254117
-30.3551954623831
29.12805394844117
16.30538877648106
-8.944722141492969
-24.34746733188464
21.23994817632281
12.05224129703377
22.75620237806335
-22.15957254477668
0.5022202345750623
-1.098850067867212
-11.26992617968403
-5.807324328424716
17.07849959256473
0.1630965733665268
-0.4885011776356661
0.3902744623118255
-0.06486985801186337
-0.6980145607452259
0.5601693929815257
-0.6309769293472404
0.7688220971379714
26.58556996046034
-24.12968950602153
9.19159108913902
-11.64747154360924
1.511927229169839
-14.62300135266422
-14.3124605550067
27.42353467848944
-10.10278608422016
3.662372837825576
-11.81787203821198
18.25828528458875
-1.431389488120859
-0.6498274403730058
2.21195654785816
-4.878276747855277
-9.485606664573329
-3.427735371430468
-17.14166547489153
14.55245499592532
-25.4636479252913
28.05285840424716
-14.8824996032478
29.46132192274764
-14.57842570757163
5.336497441401637
-18.77992272499447
-5.077726080668263
18.52115136425649
-19.60295398032483
18.71824427620992
0.8850093636097081
-0.8216565593294718
0.3074414557985751
1.126148899023751
-0.6119337954653319
-0.2366752010290215
0.1636638882543675
0.2128709029964863
-0.1398595902131586
-14.06698491792379
17.89389371277336
-2.555826287956251
-1.271082506939242
-21.67404566479801
-14.97769467947368
17.0487863639463
-4.708703388440103
15.79210675778785
-23.88857176253151
12.80516839318235
14.84866339936445
-11.62103574455824
-0.3802264659813012
-2.847401188825623
-17.09354402369289
-9.022825409247593
14.70296800910377
11.41340142383455
-0.02813501854156718
0.0158657050601435
9.726297652247942
-20.25392047680895
-8.181022613130564
-8.444231272830837
32.55807639455461
-27.41632375885485
3.302478637126469
39.665878233218
-16.63523093726075
0.7783950118221247
-23.80904230778205
23.52887720225101
-16.29254743325431
4.248286362455453
-11.48461613145837
0.1610515803135681
-0.2651953602620832
-0.4834884096180415
0.5876321895913938
-0.1177885525551776
0.1037732307273288
0.01156437370594829
0.002450948129360692
-10.20504835605154
3.515313707971377
-11.99346860163985
18.68320324963063
-30.54088956992998
25.67408975121355
1.530967395956271
3.33583242275121
16.60948785690055
-19.01214566272085
-17.95773658193857
20.3603943877587
-26.5593792973993
-1.128171150954155
4.120260240228444
23.56729020812395
-3.482625607944299
4.907714417877838
18.21464397611785
-19.63973278605362
-0.9396299194308213
-1.521842280113619
1.352936831331464
1.10853536821174
-11.21891716278372
2.015319727703708
24.9497160582212
-15.74611862314117
14.27373813985246
7.285293803481209
-5.890062007888573
-15.66896993550117
7.324037652998949
19.97901699628467
-43.19074410470562
15.88768945542057
2.91836936677838
-19.36120427619019
-3.944784326978585
-12.71816436788854
-10.7726620179638
-15.57500129496886
39.06582768082122
-18.93660611734338
28.59569072491963
-5.703078764302028
-3.956005843277458
27.32118026467734
-27.16906761208014
-3.80028706087355
3.64817440827378
-21.59058033221609
-16.49631457893953
10.12446837743389
27.96242653372602
18.59537770365247
14.14008526868733
3.001210018847014
-35.73667299118947
-20.22592225707728
-6.319851077024594
28.07860447404344
-1.532831139987389
11.48607231060423
-20.38287953915205
9.05027885731822
-0.1534716287695877
14.5741626614406
-17.49051829433484
2.917158722385174
-23.26441461958431
11.40037813050383
10.94455071564671
0.9194857734333297
21.6085817463939
5.187876937456521
-2.031487282446387
-24.76497140138997
31.03879626518492
-9.154955295701162
-0.9259087131277245
-20.95793225636763
-2.967030563756892
17.54196109833969
11.34895842473901
6.692397597140345
-18.90893979629917
0.867583774361273
-17.51084174308115
-3.566459218203744
21.07767619147476
10.31993629298449
-4.163446924856856
6.501425103550251
-12.6579144716809
-0.4829237995235775
0.05743684916747883
-0.8943629179628431
1.319849868350907
-14.69419147682493
-2.095593602363362
16.79012100283191
36.66815789800042
-9.098062497846371
-16.74831510372239
-10.82178029643398
0.02569237026080163
-0.09608936276200034
-0.04739156004998853
0.05169163701839388
0.1206771774616205
-0.06859558374588214
29.21847529909104
-20.03655737442814
18.4658923976894
-27.64781032234685
0.1388931935130051
-0.1244237879824872
-0.002905031818517652
0.2153675094608165
-0.08898198658474372
0.03727836538204045
-19.97621432240231
0.003424987926351725
19.97302907471982
-23.79572757502921
23.96483631277279
5.816079123169749
-5.985187860908485
-1.557785314000526
26.58072621836786
-10.70145365490898
-14.32148724953205
2.288800531850558
-2.215472466478431
-3.681492212914417
3.608164147579197
-0.1435661011332934
-17.2855144368491
2.527641345481014
14.90143919251211
5.842829181145363
-27.4160972871086
-2.277733464939626
23.85100157090174
0.02086227676931032
-19.9969173624773
35.21720913024456
-9.092024825878509
-46.46835477456535
20.34317047019577
-7.245486037376396
-4.340126633681206
32.36322156691009
-20.77760889585254
-23.05799236367525
14.84815125169215
6.140852408580951
2.068988703403948
-14.40848871951808
1.010645814847443
-5.74806736741619
-18.4776868800365
-8.573653793231214
13.83018787745808
13.22115279577233
0.810043815109058
-0.5482354021030202
0.2052815797060276
-0.4670899927053611
-9.619975818525107
-20.27665872136263
9.261949534237239
0.07244023017298105
-0.1176485788931176
0.02700125921001463
0.01820708951917377
5.395938202099291
23.76773927976848
-7.65153935217366
0.0507823756745295
-28.53209210587289
25.79119508053851
2.690114649649263
2.397554242171734
-0.39299745437148
12.56989364990696
-14.57445043770762
24.21058078413104
-0.2578680806459989
-5.278868628479724
-18.67384407502153
-15.875405930369
-0.1687390376991116
-5.629900696731768
16.45572630588742
-18.38660396715368
-24.62850163613376
11.78728035734901
1.860103815811333
-15.06884735370884
1.42146318052047
-25.42787177698018
-0.5535091326628967
0.6542478953642524
25.32713301427744
0.8949367072008213
-0.947784873888792
-0.3241464067003956
0.3769945734025175
-13.11606232551733
0.220723234738641
12.89565911771726
-18.2492221146047
17.0834068422257
-17.07525360312848
18.24106887544983
-1.725628796703184
0.2442251514761082
1.456738101883591
0.02466554333424081
-6.397688394577275
22.85365880543483
13.00362872095186
-24.86748370619359
25.2989222666981
-13.43506728138358
15.69778975850577
-19.44037484133775
11.03907081993446
-7.296485737104677
27.80459629626492
-13.2639397418333
3.666352108596143
-18.20700866306267
17.65569048166491
21.89913690318721
-22.27519819408147
-17.2796291907743
16.755679517555
0.9003264506564878
0.1519269579853713
-0.006517671119372505
-0.08891761095526753
-0.05649167590120726
1.843805436651519
14.08508407710062
-10.87095274818403
-5.057936765568763
2.799507836847049
1.385301065654975
-1.425674560472387
-2.759134341970946
-11.6574306319793
-5.960862887465153
-2.598278191618709
20.21657171105912
0.007149558653137531
-0.1240365991037539
0.03410332562819335
0.08278371482971707
0.349097048542427
0.06984794597657641
-0.4135614401733861
-0.005383554336660309
0.01669670691187322
0.594258908666271
-0.6155226726042735
0.004567057035850559
-0.7660410557344941
0.6919768460073858
-0.5991550153385113
0.6732192251110471
-26.03405207889599
14.3774469535532
28.41228464289439
-13.8817618664886
-3.6081543485645
-0.02784899436666236
0.1532978625758146
-0.1263010780154433
0.0008522098133133644
24.20619789948162
-23.65125997209101
-3.521968491148242
8.002860175970648
-13.58415388649996
23.7697382625396
-18.18844455210315
0.02248156807455569
-0.04307778836574604
0.2359637297576331
4.273970224174476
-21.78439096946663
-0.3084326146267028
-0.2449249838015068
0.4162400893881385
0.1371175090573586
0.0212556648502307
0.1693291656846315
0.08498399989105136
-0.1296149866638521
0.05152222288534217
-0.006891236098537452
-17.79305569979609
17.28550061016219
4.548835007028502
-4.041279917388963
-15.79234580768883
23.34276369933206
-3.56643867812999
-19.77604116592358
4.776393425046434
-19.93453475843818
1.993365177362249
13.16477615615478
-27.28658178707659
-0.7002269962979917
31.60161105010655
-3.614802266738841
-6.580912536543487
-23.89787699752468
23.80631949524399
6.672470038818529
0.1057230756478279
-0.08132695653498687
0.001423702635639695
-0.02581982173980571
0.5078347291230888
-0.7266317156380805
-0.009435776116745733
0.2282327626568467
14.92496960202888
-0.1703214527747588
7.203290236605963
-21.95793838586146
-0.4487663107238073
1.084621908784392
-9.377135717444421
8.74128011936412
-9.639241309543783
-16.77998210816459
19.61409304882772
6.80513036887113
15.56347181534544
0.1026195984001587
-15.55033862702419
-0.1157527867220045
19.7666148384443
-24.19670690134142
-8.451439731452641
12.88153179435123
13.16356880089496
18.19297098695884
-7.824680101113709
-23.53185968674099
-0.2104137219984552
-0.5407569471594312
0.3480321890968302
0.4031384800698037
-7.314937187755659
11.12088241672901
11.60223734204914
0.5189843599177681
22.063130767473
-16.02087641886163
-6.561238708527442
-0.09952765192256664
1.430104034129068
-1.326117061972497
2.41653059742412
6.054014502798123
-9.721065580436592
1.250520480239637
-24.94374517395996
14.37404332124336
32.17828359914087
19.06996163094777
-8.148054359932029
4.003062331012236
-6.803767324501801
-1.401582264724163
9.521282036203512
-1.315932446926021
0.106084027746482
-0.1224640031991296
0.01637997545819446
0.07127341859393574
-0.1451692811107526
0.09111771604446342
-0.01722185352279898
0.08198292142546412
0.1024304788181233
-0.1307235174402396
-0.05368988279812077
-0.07298925341260581
0.1143974158052776
-0.0157157921266724
0.1273396925984953
2.905373612035707
30.42938014876813
-25.17002243093227
-8.164731329870357
-5.752357874842178
2.592405423696464
-19.39135208007988
17.07626877797325
-10.06965661857373
-8.316967956480926
1.310355797076976
-1.755095166384348
1.885337944073131
4.444944574095532
-4.575187351691778
16.01465984979351
14.20145263117267
-17.08694165157473
-13.1291708293934
23.88917536929783
-8.360166298252867
-1.224616284588019
-14.30439278648567
14.40078135612977
9.381884705129044
0.1065093080158551
-14.87596084454638
3.038169442809602
-4.512494175461589
16.35028557716555
-16.93483231087628
20.59221996149446
-16.37555201850722
1.812803559007445
-10.52675395343479
-9.382374328697873
15.47279460213595
-18.28801594899933
12.19759567554062
2.774574504813238
23.12078650472256
1.1693867203531
-20.46727874236178
-2.428098411321898
22.89571009730608
-16.95352423573196
-13.58462366291336
5.847842476923519
24.69030542166892
0.002523245357769748
-0.1120726972679095
-0.01487433606790046
-0.1426890852261368
0.000958051820144044
0.1642126014852918
-0.1411573792880257
0.06974171265810146
-0.07728293943073981
0.01409657974947503
-0.246470468681821
0.0163311028117475
-14.49365640697754
21.85125512206224
2.977854351738912
-10.33545306684027
10.48656154191839
9.269697689025595
-8.606679012835524
-11.14958021810878
-12.72506469753881
15.29880701748499
-19.07061348105957
16.49687116111231
22.34355650733161
-22.35922182805151
-0.2543198113907452
0.269985132099871
-0.1397073928512984
-0.004332597009861922
-27.0986389094299
16.42387534095786
1.942336071261614
8.732427497176779
2.341125174009306
-26.29575354703348
3.139683051755175
20.81494532126855
6.161734098502843
-0.9950990056762894
0.3468813796248581
-5.513516472372639
13.83596979455631
18.07104019897961
-17.33132665498335
-14.57568333855286
35.42132672619253
-13.28873568368242
3.239712105713131
-25.37230314822875
2.393558515973215
19.63978437255211
3.503720339276483
-25.53706322780742
-15.14299398762787
-2.789111406067625
-1.951547528885522
5.730699739604868
-3.11046505676564
24.15040160105473
0.5065858410288161
2.398298274358519
0.2292530452965607
-3.134137160607786
-20.70113454749664
23.99810150480812
2.433732782292096
-0.9898620545499104
-20.04262347051263
-0.1384930280160299
21.17097855307966
2.425458950763513
-13.06711446523393
6.667009381276965
3.974646133191716
-28.48799000364821
28.52760810196618
-1.029480152865941
2.503790178888762
-30.358955179438
7.812541530037386
-16.62307323276444
1.096150940799336
15.52733389355726
-2.324565236229282
-19.28390121384294
21.60875042967766
8.102608877655587
-7.835855271230311
22.03974691074044
-22.30650051716918
6.132231159742568
-12.12014770432009
-17.20746089869429
-11.56800918880012
12.0795320227547
-5.426506941138654
4.914984107182688
15.58004735373505
25.1674516669712
-44.83857674410938
4.091077723397479
-21.63051104299078
22.70310780374956
-29.56058676440331
-5.538826405990283
5.513212331608099
32.48330547279328
-32.45769139841738
-0.7111902883070441
-1.130332085722538
0.02361789564488755
1.817904478403147
0.3787779214300549
0.5850330071977924
-0.7183902251341067
-11.82137255959499
-11.0775826009604
22.90045246832338
-2.733867835743265
8.185360301480946
6.683834291652939
-17.07358505512441
10.62666570999662
28.41852998386209
-21.97161063872434
0.5685177101080346
6.670810740671337
-7.688094761571012
-0.2648443130563543
-0.1615973634109835
0.1927269023686858
0.2337147741150576
15.23252137694161
-8.466465413789226
-14.80445995737051
8.038403994212674
18.82312763094143
-26.93735404228661
-19.1785311549675
27.29275756629507
-4.197147288558702
18.68280181095215
-14.48521459152235
-1.888015044847253
1.670640538428554
-1.2971170014667
1.514491507917212
0.4984844059898543
-20.26160931638891
1.311952572713271
18.45117233768254
-3.99395466727668
-20.29295744785577
24.05732622269204
0.2295858924424422
8.22573983135478
13.83787115147584
-10.05596299295374
-12.00764798987718
-22.87670951684418
11.05666728877533
6.78067787397471
-21.17980805306743
14.2288087263173
1.70061858556043
21.9987408248442
2.465799840894821
-26.16515925130313
13.0549096859892
-33.60780696102621
18.08696073504886
2.465936539986612
-34.73083868793448
-2.036904536595828
22.58511079767233
14.18263242686544
13.45278659651849
-12.67084877405251
5.297532486607651
-6.079470308994114
23.74276578738887
-20.54248507314806
-7.213894050516961
4.013613336267786
30.25967498236073
3.415621389773549
-8.734624371874322
-24.94067200026355
-35.14744328329148
24.90460306133495
18.43377204897258
-8.190931826972744
-16.18309078684305
24.55049292289481
-8.366680457634828
20.77017437447393
5.947133211020219
-19.51401734888865
1.163794570179806
-7.145160310191655
-4.779327286465773
10.76069302660724
14.72663368539762
3.199148156505273
-15.5262307776834
-2.39955106422107
26.10475527372996
-3.604273572072769
-29.07735970125059
6.576877999591692
-28.80797015633512
20.09131474458841
3.840540765562189
4.876114646161897
-3.227094947966822
-20.36909784923428
3.209399162319717
12.52495658782212
-8.3918758672661
9.751790974320988
-13.88487169488173
-12.1977738774657
12.15631173064311
1.544580428939261
-1.503118282124106
21.44869722514158
-4.274922292425288
-18.39284513327899
1.219070200561018
-0.5406738701981123
-2.610912329774861
-16.2986614148642
15.07942709208622
4.732120755689304
1.346221742365628
-21.15776959014264
-17.55226918380609
11.35578570675945
6.664898486124146
-0.4684150090771216
15.11869516898849
-21.10304103580226
-10.66541177908138
16.64975764588246
29.37084402330045
-8.925087598619783
1.360440030709668
-21.80619645543613
-22.12002935906146
-15.08855144839256
10.77708557708103
26.4314952303588
20.25245028400375
-5.439316336923326
0.2662931450050053
7.584623660891602
16.43051628464774
-30.27808955636126
5.927341208686898
13.87295804432182
10.47779030335109
-11.13903720327724
26.51197945396089
-0.4819134180370161
-14.8910288326831
12.59596426783745
0.7357949300564053
-17.77527975577446
4.443520557978974
30.73893488618572
-7.236588010729446
-21.0561431636756
-2.446203711781187
12.68708210253295
8.436356564174503
-0.5637051792952016
-20.55973348741155
-2.963796826369746
-1.174861520348517
-17.05925406641551
0.8207282006255857
-5.156511725727094
-1.440258358394942
5.776041883654313
-1.281605341706467
-22.12842778001881
22.89324494525828
0.5167881764573312
-21.64394228685324
-3.42789138653876
3.683106257197972
21.38872741619283
0.4473103245834994
-2.196519800346004
-17.44116196781659
-2.442326044712155
0.04707638309584401
0.03542883839211719
2.359820823356701
-15.53367821261799
12.04753423985347
-11.71767260096092
15.20381657372308
20.11518318132579
-18.43066148524911
22.66189456361617
-24.34641625970538
32.61900954135449
-12.85283250253814
11.27261922636238
0.0157233007604359
17.5601326853112
-17.57538874330402
1.922933927265498
1.717743087263367
-1.803409684763025
-1.837267329696894
4.26536999839343
-3.539448309578906
26.01780179008498
-26.74372347890351
22.59282329612265
-23.33225612987252
-4.794848430470566
5.534281264215958
20.59786694288008
5.669404005915273
-7.042186155458849
-19.22508479334219
-14.01203653159645
9.121624751948218
14.10655122311331
-9.216139443466259
18.66710768344756
-10.9930167797121
15.03441754655024
-22.70850845028802
4.266358868820268
1.233995591788476
0.6613796379818957
6.539002710891833
4.68130986755701
6.183747288489367
-17.40405986693214
-2.204228573309739
-10.24121569910235
-6.635146767554802
-20.47006353246447
-15.30086808875656
50.14837857477121
0.02078391381525872
0.2790753056893545
0.3032524327472066
-0.6031116522121815
0.6258076569827894
-1.347279801054085
0.4451458608995822
0.2763262831947711
22.52658946837462
-28.64427251295641
-8.849092735186527
14.96677577976113
6.677541566347476
-4.864912302765405
2.51224964483078
-4.32487890845395
12.74127583244251
4.640346174693602
6.553504450805629
-23.93512645793068
15.01804565039383
15.67746254182899
-15.76424800956095
-12.94832481561285
12.26693738577322
12.80038448352126
-12.11899705368175
-22.9093761123288
10.67594075167934
12.23425210667875
-21.95926496613946
10.01661363415626
-1.005673483628498
-8.970607075893486
-2.582146539059699
23.81969100071551
-23.66491347942221
-0.4293776530759981
-0.5701864644631026
24.66447759692684
24.44266576738138
-5.403392511366754
6.991819414024053
-26.03109267004215
5.882184149675346
15.25619738186866
-21.29713921691287
0.1587576853666186
-11.28551247039918
13.19050410136728
-19.94985790206324
18.04486627109327
15.72612273896439
29.443168369266
-46.36865676196476
1.199365653732389
20.46115661436836
19.47171567598921
-32.60883463735961
-16.73179589379275
-0.3297314189740047
21.32689731115776
-11.16707573980677
-21.07899158823628
25.65298240171352
6.593084926317335
19.94935585048815
-1.344830182473679
-18.60397920753329
15.76128369676785
-0.6525951252948237
1.614157250711675
-16.72284582212977
-6.114041076597001
32.36804633354478
-22.52142367243549
26.4615091547483
-15.57498714349286
4.614630977037681
-15.50115298830044
30.09794254920565
10.77614505454069
-38.79880721221711
-2.075280391575626
6.041960494522568
9.47296042080003
8.447113951626161
-23.96203486695071
22.62333102650324
-20.84273650818823
-1.780875407303879
14.84462381726738
8.900248166595926
-10.3494909718519
-13.39538101202922
20.44277699613914
1.92289162733339
-22.31801801034397
-0.04765061312677144
-0.05852625599853725
0.08593192920889053
0.1438620265891439
-0.1712676997885046
-15.85139039336007
10.31953122251301
5.532338338196311
26.741513023573
-10.62473192710989
-2.101009769116556
-14.01577132734683
-9.608589452619997
-9.924703560440713
19.53491927415617
1.60006706220959
12.21368126158904
-16.93187546617896
3.118127142369158
-23.34010672151375
19.72086069074933
-14.87544888585429
18.49469491656977
-0.2529891714475097
-31.54624313769708
7.77683707660585
24.02239523252656
-16.26731954442766
-12.82994049449703
-8.137811653736478
37.23507169266452
-9.152605733701145
-32.40574740819539
10.62886819024871
30.92948495164546
-2.93025665727673
19.60323804057208
-17.64370303158072
0.9707216482861516
12.00008700806278
-13.85940691828744
12.40121629805272
-10.5418963878292
19.60622498392123
0.1960551544992464
-19.80204387655806
6.018042818523031
-6.23858016283256
-4.63406586412578
4.854603208434595
-4.077392158654942
-19.47061790704458
4.540221267388262
-8.494628147530298
10.46447263441738
17.4147703362867
-19.3846148231707
-1.727604185037506
19.57277579246497
-28.32069165779166
10.47552005036379
0.06232586965290866
0.8534689243063953
-0.2899871369532172
8.107006400538253
-7.709339849376207
-12.21360329241263
11.81593674125037
17.82821196984621
-5.816302400671243
16.94384297049809
-28.95575253967241
-1.654113170283643
14.42314587165992
6.663324699431186
-19.43235740081117
-0.010013258872552
-0.1578291525169039
-17.68610701590086
30.40205984175905
-8.796446804266973
-21.79256957353515
12.20227119817839
18.38674517961477
-26.86950381955848
-2.856063288554961
12.99377121431899
5.700024009406852
5.807403923663144
-20.47173602452186
8.96430809145094
-24.20011235730067
-12.81210742276774
10.14271596050761
0.09109004017122174
-0.07522433510887577
0.09886339320093208
-0.007773353027175169
-0.06075752298944245
-0.2418282540165206
0.1240648479308563
0.1785209290961367
-7.16328683487734
6.517537525103073
-0.08750055342377445
0.733249863264448
-0.02225029023062097
0.1920434048655885
-0.09507398459445916
-0.02486677324398228
0.07661310297121335
-21.61635941377357
-16.43179125403315
42.17894192686821
-4.130791259062443
0.1422220956578024
-0.1016161141290816
-0.02422600606561784
0.09207576786739882
-11.44100595435095
15.46638503717004
13.41326378858139
-17.43864287140315
10.07666592322385
-10.31233905528102
11.80023112731418
-11.56455799525765
0.9025948372619967
-3.846032131570336
-0.0007444600659451559
-0.07653847935997703
25.00077334188769
-22.57805578546388
-6.239230578223109
3.81651302179691
15.58818195664048
-13.20417529449898
-5.666778988612484
3.28277232660836
9.627435072123953
15.54077479150557
-40.70188807624921
-0.1414812363766733
0.0189250468799394
-0.02673833454647379
-0.0882760750896127
-5.57726306874768
0.9278459613949469
-15.57895946737296
4.555440253980514
-16.80442992907028
12.70826484504483
-0.4592751699450132
-8.671533720292281
1.511718420925409
-10.37989649231414
17.53971179168092
-8.242049887197428
-12.75802827157977
-16.45968286013886
37.45976101891203
3.551938649886516
-6.678122601425557
16.47196644640912
-13.34578249482438
-22.58196381648535
29.81178174185911
-7.229495560062731
-11.13517188473193
14.22319566588564
31.40756469701526
-34.49558847819191
24.12163713041409
-17.51312823156475
-9.777982278570139
3.16947337971206
0.002998216727060334
-0.09614586711161595
-11.97179478544691
-5.303956909483409
-5.181466619293722
-14.20581469019202
24.20302890584194
-17.38780945325425
7.390595237618014
-0.03143929307990141
-0.04154996032963083
-0.05817762762464879
-6.05628051648057
-0.07863259957669162
5.402573270489992
0.732339845578718
0.01476685715796423
-0.02646097980272825
0.1323713001117656
8.475274302577347
-12.85110231745052
7.850341704445634
-3.474513689560892
-1.053116864489387
-14.68486836013309
-3.658715011611774
10.67231409738662
-4.285333023385958
-13.61741109675013
7.230430022803189
2.665410825033059
-2.701802899959852
20.80131577658906
-20.76492370166592
0.0458018320628075
1.112783433184186
25.55566393044015
-22.1388808333004
-4.529566530374349
-24.54726311099999
6.4804275018886
0.2294438330852039
17.83739177602382
0.715980047008646
24.03440948626819
-24.75018223267766
0.1062990566545895
0.1632627316056725
-8.41368405037948
11.53022655223475
20.2262211974761
-0.6546742122515297
13.27054435927334
-24.57029144610877
11.95442129908356
10.32746232187292
-0.7401291452875406
-2.047311628565977
-7.540021548020921
-20.4576693302164
7.659368331628246
4.303672851061168
-2.735151595639978
-0.9992146182579221
20.99312550344909
-17.25875928956187
11.79321924492019
6.339640349372396
-18.1319609151987
-0.4676539044790637
0.00670584494187347
0.5126089998714493
-0.05166094031299805
15.22712388185365
-9.334387484168758
9.670735417659953
0.9763819939253916
0.1415095794655372
-0.004416518877925729
-1.113475054377319
1.228227320814401
27.40728365780652
0.7353330446264664
4.178937969119005
-1.258159482909054
9.381931161051934
-12.30270964727966
-3.907309903846243
-8.999784707794637
-0.4367833612834178
0.8898921114406134
5.198113967673248
14.21564406054862
-20.3036501396692
-0.4305004844756058
1.454408934956767
0.9399556211941834
-1.96386407160161
17.57914489193035
4.740997278363458
7.575492937324133
15.57286456088901
-19.74969639919106
-3.398661099021297
-3.69309015165909
-0.3716480694487201
3.311102360552337
0.7536358605588969
-1.376704318845895
-15.06516831763309
16.44243236207023
1.101482936006757
-11.10499794772652
-7.191831689247227
-0.5856691561268577
-7.863279355970493
12.50672638047397
-4.057777868386143
14.48297496608613
-9.86629190537208
-5.20235221684802
4.984188296332888
0.190745703737531
-7.487401484553466
2.312467484495607
-0.06706789949003315
-0.006151672263545316
0.03066254755893513
0.04255702419965282
-15.88283090137287
-3.027437848188975
18.17677773625917
0.73349101329899
21.17496971228802
-22.24289455002102
2.320083109809244
-1.252158272081167
10.95419603879707
-6.637531923238835
10.16631085052812
-0.4740056906507316
0.3752645174454023
0.09505897783835809
0.003682195419929711
24.16488629811762
-5.665530785572479
-0.9873272841016856
-17.51202822845084
5.020245696046352
19.15325744806596
-1.003755532680898
-23.16974761146933
21.93112822638395
-12.22536444110731
-0.9456044117748869
-8.760159373508744
1.251858512867434
-0.2023334500168978
-0.9747113856314878
-0.07481367719048508
20.95964955160201
-13.36099325383169
4.155958463354441
-11.75461476113334
22.85294697908665
4.232332197549561
-9.351494564848149
-17.73378461179127
-16.93356051706886
-15.48155614016931
30.7133972124265
1.70171944482346
0.3270067197743594
-1.009363588830647
0.5471435459665135
0.1352133231225207
13.69601141585124
31.42852443386352
21.79622288783629
-3.365805612900557
-12.99782923195423
-5.432588042990074
0.3702618039298577
16.54610432246833
-18.41392415082214
1.497558024395594
-31.34465348408434
15.4895195209944
8.19816023594699
7.656973727118867
-20.22978232403007
-25.09625951910368
25.9148049976331
19.41123684550103
-2.354858942256955
-8.120313887941803
19.4559028467426
-8.980730016544735
25.16855679864577
-12.38979127535251
-15.1336244655554
17.53627462674411
-0.5818788889712018
8.214161060866131
-2.617406918226692
6.62259090361202
13.53109064134908
30.4938849270476
-39.18669504538167
-14.36518224533973
-26.32062035426404
-7.582944281152018
29.69481628043343
4.208748354976666
-13.49395926369766
16.64003346032274
21.48057255194245
-24.62664674859818
29.01479976242731
-34.6851806191242
20.27694490879968
-14.60656405212928
-18.53944769231945
-8.349923295045748
23.00263110807496
3.886739879199928
11.4872063784474
-29.63298714587184
4.651821503659749
6.451773719852453
-10.85610462931326
7.000211656196608
-2.595880746600104
32.95925312892569
9.61114438948572
-1.658331366101548
36.35319723711244
-13.24390419420825
-21.45096167681474
23.20891809366155
-11.89403718127397
-11.31445393273433
-16.31268132313823
19.11671102746442
-3.059441836528559
-16.05694260552365
-1.058493981724901
0.559161089112872
-0.2648689225508195
0.7642018151466951
-10.9490639130909
-18.67602304749893
6.139099457812866
23.48598750279724
0.1625712161612122
-0.1761272337699584
26.07575858954041
-8.892413718654099
-3.895724350663147
-13.28762052021499
12.45796866904769
9.722914453849302
-10.69481081229209
-11.28919531041275
15.81006152363218
-21.38110625048027
16.86024003720866
5.433963702817618
2.841848542613226
19.02404531704558
-27.29985756248788
0.2907614021754689
-0.405918284518154
0.3160653356234348
-0.200908453242336
22.19404181124895
8.883542053859514
-25.64362016233079
22.41219865908258
-18.15833697445797
12.00252348455
-16.25638516917893
32.32502244873372
1.082900353977932
-9.538318177321942
-23.86960462537825
2.440281174140519
-27.78188901967141
26.51027498483111
-1.168667139320216
-12.2441230722659
24.39972266697633
-18.8800371802137
6.724437585507615
-17.17823556844593
11.92683542438203
-4.818256474524823
12.70453242561273
-30.63797873565088
22.50111650265587
-4.567670192613416
4.408068944834184
-5.17137743172329
-21.19462989897302
-32.78390286932492
26.65069861878692
-3.609619317053427
9.742823567586681
-4.560591633969231
-22.27195203571469
13.57357690496483
13.25896676471785
14.21169909654515
-11.92085953869343
-5.805196149701717
3.514356591849214
-0.2988527936089228
-0.7236429618810977
0.5720552293163218
-23.79924094656513
26.12426120237713
-35.10892312514406
21.71087237754781
-2.200564121991536
7.140390363226568
-2.900595118161664
27.99473651785067
-2.613321270721614
-22.48082012897345
-21.9576328721069
24.56489793033099
5.383579586025955
-7.990844644258425
17.11043435836943
22.30203148706448
-28.95826337104034
-10.4542024743855
32.33007591324622
-30.13619673906549
3.544129487366003
-5.738008661534677
24.29223439729958
-14.49076920335923
-13.99261237342027
4.191147179474516
-34.39120294250662
12.18751039259128
32.90858880443918
-10.70489625453795
-24.23254397945005
12.35106495966289
-22.50972392272993
26.85909537261961
-13.15965775086302
0.3030286339634324
20.14344550085401
1.603833783234065
-22.05030791805008
-5.886988296225078
-19.79145896122382