/*--------------------------------*- C++ -*----------------------------------*\
| =========                 |                                                 |
| \\      /  F ield         | OpenFOAM: The Open Source CFD Toolbox           |
|  \\    /   O peration     | Version:  v1906                                 |
|   \\  /    A nd           | Web:      www.OpenFOAM.com                      |
|    \\/     M anipulation  |                                                 |
\*---------------------------------------------------------------------------*/
FoamFile
{
    version     2.0;
    format      ascii;
    class       surfaceScalarField;
    location    "0.2";
    object      phi;
}
// * * * * * * * * * * * * * * * * * * * * * * * * * * * * * * * * * * * * * //

dimensions      [0 3 -1 0 0 0 0];
oriented        oriented;


internalField   nonuniform List<scalar> 
37380
(
-0.3777815163346804
1.004878140916211
-2.771415157226423
2.144318532647777
-5.162855870988472
0.8071506628862671
52.36996290128312
-48.01425769318134
-18.28058143485984
21.92015419107949
-22.79502632641479
19.15545357019955
16.79864808899008
18.25893813335481
-18.54201272290659
-16.5155734994382
-5.078911688718408
16.72704785082688
2.823934486605958
-14.47207064871383
9.39407426098065
28.05457101060347
-20.94985139845439
-16.49879387312748
-10.18874430709853
-24.86027897874554
44.44309754682565
6.967316143979132
-2.973724715668408
7.604391437140944
-11.59798286545747
9.644497723059475
0.4362778164973091
-7.434981466014213
-2.645794073538734
-8.907039345947391
7.607293481214004
-3.174920915179916
4.474666779895988
-7.543050505641133
-7.298015908567868
14.84079668845694
44.35006644681187
-10.62913806096228
-22.33883753544099
-11.38209085040737
0.8339472834181983
4.851995864990576
6.941752533776455
-24.12836786904109
12.33461947027428
-14.94163915331013
23.74734521625853
-3.417979963101614
-5.387726099848546
-1.497199357710743
-0.9665056367431882
20.4568868256177
-17.99318183114697
4.407420437552853
-0.01953425085734006
-19.32952534000576
21.12319068197883
13.41252015297943
-10.78836561869924
-14.15869524661997
-9.921021032035013
-1.582572315398744
25.66228859405591
-17.94685731157915
2.318944656538339
0.3114581022804788
15.31645455275079
-0.07186132827832223
13.58746363090326
-6.548286158652952
7.276049523197792
2.773601000080653
2.515354406803388
-12.56500493012947
13.57897235719842
-1.526240541330965
8.276375730889015
16.64678428384784
-3.79996933275533
-8.327585749376293
15.13373272983105
11.09730142802759
-17.9034484085034
-6.217426250278191
-2.195540886741894
8.849244953507434
-9.729132602209853
5.604685011961187
-6.397504799268289
10.52195238948554
-3.236330465299897
-15.90378440868847
0.7815151338360905
18.3585997401497
-5.0940003759117
-16.72889834022039
6.428150895063874
15.39474782106911
13.99425993582501
19.53525121014707
-0.9025505909345344
-32.62696055503775
-10.15151829262117
7.738132565479347
3.934735840656483
-1.52135011351399
20.81417783378318
0.3740654363258503
-24.42457373540901
-17.58585054225629
-25.34652372417037
19.07909172511115
23.85328254132373
-14.33445338646987
15.42341345383516
19.72521776641936
8.562254265345755
-8.747631489897177
12.97307164039584
-12.78769441584269
-8.059408254899287
10.61144976461965
-12.91084142892288
10.35879991920393
-23.74875585956293
7.414279676623714
-9.021833630773292
25.35630981374682
9.290857597139278
8.778340124456843
-18.06937267789876
4.579079315235687
2.628855112189002
-10.1816591431016
9.074240717955689
-7.309049935103804
7.525666814287659
-27.40091576320412
1.95671343731311
24.24415978907047
1.200042536816742
1.460936814398163
1.291573053654091
16.38490918859891
-12.80548502571325
-3.128568012006662
-0.4508561508783973
9.108131554532275
-23.36266980721612
14.86011130089991
-0.6055730482161061
9.209135542975195
-11.83655767805395
28.13105124208057
-25.50362910700053
19.30041459902676
-8.691614492274818
-8.235756298353541
-2.373043808388982
18.8747646363637
-18.96270310906959
-0.8049613649087777
0.8928998376212979
4.827704775342557
6.973469614441797
8.35982687512449
9.452330841348147
-16.69309308181876
-1.050844025420088
8.291606265894673
-1.892336569955372
29.90056683667414
-2.918538015809541
-25.08969225090656
-15.57773638364181
-9.504621886600981
10.26569220356238
14.81666606668188
-0.1413588362122254
-12.27621747307954
12.41752967181675
27.8618373118768
3.218699428750934
-10.75763581534478
-20.32290092528262
12.3127383411213
-6.314514186523716
-4.658668431203815
-1.339555723391335
37.09865388018363
-25.55091493880843
-34.52645531266291
22.97871637129488
0.1598366909152419
-28.50505526860876
-1.06006205812528
29.40528063582346
-16.11454393572432
13.55399180990598
6.850494579117876
-4.289942453311216
13.93621235468329
0.3508731837979766
-17.23858709971517
2.951501561244998
-22.21043681146751
15.41807286539877
9.946542241569219
-3.154178295496986
22.83134669910377
-22.0664453672482
-15.37957548039635
14.6146741485417
0.3894201986242466
6.645433068838994
-23.837715987341
16.80286271987907
6.200537245790403
-8.321876745552931
-16.82170660686085
18.94304610662429
-22.63969989664755
2.169443645665828
20.07238380679062
0.3978724441886418
-6.764816435796239
-11.49413830849672
25.64204914073515
-7.383094396441606
-28.97207707797951
-17.01218419950097
16.94886969782815
29.0353915796561
-21.77883878487642
7.0719348454544
0.5978433931054679
14.10906054631724
13.88354443882519
-20.99997177218274
-20.28448842985401
-11.08900315062697
16.29840208680438
-9.212631726137149
4.003232789960069
13.57938356316537
-18.67471514529348
14.90706250417332
-9.811730922041207
-21.87713937048524
30.75429004537268
-24.94747317549976
16.07032250061773
23.17704692073949
7.011738830554791
-27.7015514668018
-2.48723428449263
-16.79181691392645
-3.710018290842376
12.22589508680616
8.275940117964421
-1.326098309639021
5.212466787917455
6.166515089854561
-7.804862024902222
-0.09903869080349523
13.08082799213954
-27.27968064958072
14.29789134825309
6.97054124598344
-16.30994306586747
18.82811067102969
-17.14608838160375
26.87587383106752
-9.72995840740227
-11.31653974844598
-10.44154745846525
21.75692369575816
24.59171113033431
-10.46442091468881
-0.2437457768215248
13.54836862878748
11.33446589969408
2.622995574778492
-27.5058301032576
-20.93133986719427
8.152303134407513
6.577242887636276
6.201793845185833
4.427604757682258
4.842840187068318
14.41780822070707
-23.68825316545917
-7.855385599646857
-12.41251377197379
2.352505485329868
17.91539388631186
10.46059801042438
0.7814850503225226
-15.84612053597442
4.604037475225159
-33.11707110820088
-1.727930865289648
8.33707826967045
26.50792370380193
-24.37986231947623
3.874657164907779
-12.61186595363579
-16.20818437412166
-1.053655141255258
30.44154815085271
-13.179708635475
-15.43988933534233
15.93447463335498
-0.4948989430826092
-4.146733439449324
-12.65360470491146
18.44834914153544
15.5184367528929
-3.137106669718004
-1.416176154594245
-10.96515392858563
-6.602233303197305
5.867629230837152
-0.9763453927734872
-4.918810137711853
-0.7070777727200546
5.887019511094395
-0.2126954727725095
-14.55791060186023
15.03491549219874
-12.69913764661714
12.22213275627951
-0.8055323556309838
-7.704620142949334
6.227539727046871
-11.03366608086907
-19.34527249392697
-3.463121116380038
6.600209236185552
-14.25445845014792
-0.3036078020249841
-3.368555357959564
7.965365441145536
13.0869012539252
-17.68371133712653
-0.4343452196204623
18.54405675264546
-18.109797658591
18.95419506964437
13.2449188116623
-21.82572654670604
-10.3733873345993
-38.07303187906428
0.06850274061117584
20.9343269647993
17.07020217365538
4.401368752170163
-30.71928730665145
-1.863777016624076
28.18169557110727
29.20812389940211
-25.17548099568912
0.3687258484581976
-0.0784887701948748
-14.35855131580132
-10.76401368168892
25.20105376770131
-13.3926155100402
-2.597997415279823
18.28313309953565
-2.292520174215389
-26.79575958077222
23.42722163571468
-30.65302769034821
34.02156563540948
11.85354291317316
-5.758889151599654
21.19946193563592
-18.59127633415018
-7.69540100732307
-7.459348801849679
15.15451387990653
11.23770337451699
-13.51025822952507
13.95720387572975
-11.68464902071988
-20.17135326955972
11.55771635164125
5.852332800547328
2.761304117361323
-4.958344657914664
20.56111247377648
3.260509926157265
-18.86327774202161
-16.99960929849224
12.53817417891046
-5.137100199666412
9.598535319229944
-9.906351574413016
0.7875276777297094
-3.095344899505436
1.036460596104812
0.9916233702275832
-7.249606832461766
5.221522866130254
2.467097275601827
-5.912714764198324
-13.22958921406642
-17.67487950845324
29.31936849235425
-10.16850389881401
-1.475985085083724
7.061613410672048
1.198338322428713
-7.223491137002865
-19.53223591821738
-12.22407395260001
16.90152367490692
14.85478619591287
-1.719594007002489
8.155826317728415
17.77592183357871
-37.3131931781834
11.38144502687702
4.976337613368
-3.324972836161494
-9.164608514752727
0.3033102295897669
6.808449014326206
15.06165361415713
-14.13718155012491
-7.732921078361428
1.556884414053012
-7.558395106815687
-15.79798178618004
6.971290678511838
15.45546443038346
-6.628773322710408
23.13564969634109
2.756855482119864
-18.85599283619706
-7.036512342262465
-6.833759924028284
-0.5672598570024823
-13.53032008614279
10.77624410899119
0.7941391223491113
-5.738131769584975
-5.832251461763381
19.00353993643163
-18.38796782802044
23.11417259415796
-23.7297447025683
-6.077813696560366
-12.15863443486442
1.553183154412396
16.68326497701874
-0.2508551889710697
-13.09387094104738
13.34466296874777
17.284506592862
12.65777132375875
-6.98891234194102
-22.95336557471783
13.12017052826912
-1.797912178214715
21.67691417696313
-32.99917252701566
-14.50344262646837
4.263038824669942
-18.3579007811257
14.1203654680104
-0.025503511595322
-24.70496310129731
-11.80915811800559
-3.021289280319964
16.6633475306956
-12.84323421809917
-0.7988240322879708
20.67169331623384
-16.4363399003457
8.884817112382347
-9.056228411525375
9.13540187582703
-32.44160195693712
16.83804872602039
10.60612843876542
4.997424792151753
1.721399034762931
-2.547820572318787
0.3452598241586681
0.4811617133998158
17.56197521824109
-10.62326544838643
-24.69960526073271
17.76089549087836
-6.410793761249972
9.62564503726642
-17.6722245241081
19.61070544787005
-11.56412596102808
-8.702815595107982
7.683648366192607
-27.69678445349723
28.7159516824011
-7.716628566566932
23.54421539345877
-2.680980586362974
-13.14660624052605
-9.70833998608507
5.751066886162919
-24.25461123998007
28.21188433989368
17.96313085268815
-9.184958520696869
-21.11513846111998
22.22136911593238
-18.31932478166676
6.245849965890681
-25.72808154510605
26.09178385380331
-6.609552274590352
6.519572492986278
-29.95016905314748
7.881218671626906
15.54937788853404
-0.4570536302462206
-0.383658515109507
0.9198365082769101
-0.07912436296407958
-12.12521839143969
5.746123756498747
7.951292632947754
7.834208841217214
25.30481498984104
14.21139381497927
-19.64045771759828
-19.87575108721561
-2.109940924378046
1.375032549616452
-8.321320036769807
20.278517808994
-0.2746038419200964
-20.00396292964695
9.2258984647055
18.01478895729736
-12.97374316335076
-14.16060663188383
9.119560837939582
-16.56389632516687
-2.201219949856249
24.42140809333493
-5.656291818310481
-8.657824082141595
12.22105687537929
-20.12712911840336
-23.44359124078001
30.49256383621795
-2.774187868576965
-4.274784726863094
-2.681205387276495
-5.035128696823421
-1.644159940496611
9.360494024596621
-1.311785212566066
26.73386795242701
-25.42214055096173
-10.65501158098051
-29.73841185919188
16.94983219939353
-10.1346774810156
-4.883664508375865
-6.270796042005925
13.82557858894799
10.38875350209123
-20.84266899570565
10.45341692211237
-8.874046678499443
20.49840531759112
0.6237807453410106
32.50495652141317
-15.57833739348001
-17.55039987327263
-9.764602039911342
19.87898085665128
-10.11453174516004
-13.13319808732553
28.19380920548672
-3.631454988559786
-10.0788537845205
11.02910338579962
14.92566670555483
-9.896277862480627
-2.370900071615726
-2.65848877144181
-6.420275567936275
-14.3432528000904
21.67060789503175
-0.9070795270048794
9.378591735945449
9.18781615478502
-5.753886301980081
28.95802944303956
6.011114937503454
-29.2152580785839
-24.53343831855459
0.1384995718253944
24.39492894648575
20.10754569513687
0.7469211655453036
-1.535880836645182
-19.31858602403642
25.52101703451551
-16.99657165071984
7.126540368824807
-15.6509857526151
-4.103508173924918
13.52975148947902
-4.424363467917017
-5.001879847638747
16.71346143213421
5.94310197122635
-10.3394426229838
-12.31712078038104
-4.118893516350862
6.516121667012227
15.12037803033624
-17.51760618099716
12.44074713363539
-10.79999693237465
22.36587865908824
-24.00662886034867
0.02494973297994773
-0.03244884246098544
15.52432487138866
-15.51682576190632
3.1659823719309
5.925694867262632
1.684566869796766
-0.01378947692444886
-20.10470710573416
20.10076792280459
0.01772865985429204
21.71114750575589
12.86186348427544
-22.75487753990741
-11.81813345011899
-8.419618343402988
-7.639709935923876
-2.012709644197679
18.07203792352482
-6.439270315318384
25.17411430120393
-15.679916888388
-3.054927097492031
-11.31582686705897
30.63771132221212
-11.40188420579089
-7.920000249356515
16.20311600958474
-15.21987723892658
0.7279712941870293
-1.711210064840294
-1.921515030330673
-1.29415637001801
19.41878740993671
15.93618289086875
-22.13151489716457
-13.08737284351814
19.28270484981376
19.1215993656384
7.096977021100518
-23.69681751213556
-2.521758874600486
2.962022725911114
-20.02238606960497
17.06025854400627
14.3033901866067
-16.59662117205661
10.64982701149289
-8.356596026037055
22.35869128162144
-0.6299015261275909
-22.31185267446752
0.5830629189740719
-19.05305724742072
19.92586536866168
-2.794323151567627
1.583953628699383
-17.9364573794029
15.86824245478513
0.4842612959162967
16.73230167358594
9.197358757591747
-8.933690041973813
-13.09988415308375
13.16045420366678
-0.06055524659490082
-18.66660722964363
5.594137112132229
15.04241747212422
-1.969947354612435
18.95361268415123
-8.694957496107568
-10.26046190678374
-9.662619437761988
12.84325203833626
10.36110670866657
-27.57651621027462
-3.244789941020373
2.760776478685792
28.06052967262241
0.0221609506704603
-18.50849592139993
18.48625949596667
15.00389151635486
-26.43678131919846
16.82979422614314
-5.396904423298424
5.779047831717596
-5.467678330557984
-15.21214195770612
14.9007724565505
20.09997313574699
15.08453797392176
-14.9059933006741
5.776890547683244
1.724037780608644
8.698435013449259
-24.89048581080372
35.73841512655606
-2.809684274440846
-8.038245041305462
-14.61618400147103
35.7153264452875
-32.58090165832974
11.48175921451379
1.18551146431042
-21.70931542740283
2.999375756451432
17.52442820664198
-13.56647062995253
-9.100393046332877
30.79336653926703
-8.126502862984436
8.741395111797409
8.052879000081886
9.222992819332823
8.269521802917781
-17.4929085691571
-1.43434266605002
-27.38981733549916
29.43704539348927
-0.6128853919394668
21.78037866334963
-0.1419605860848353
-21.63840422578447
-20.02460388670191
14.20072754558939
6.508574051701133
-0.6846977106071218
21.06057812675417
-20.35076013943787
-11.68628883458201
10.97647084726576
-17.93558329146956
-15.31062204650281
20.12655704532113
13.11964829265144
-13.92150181031324
8.625210333034405
-14.84141119187836
20.13770266915708
9.967859862346589
-21.70999837143602
7.764027958194109
10.31805841485564
-12.2348096590256
-5.847276714023184
2.403961062720653
7.850038458333089
-25.60854794440734
4.953449002455623
1.178051276530476
19.47704766541534
3.843119008530807
-19.3149493050951
-5.634969068360467
21.10679936492254
-12.61942510969832
13.2362718686093
-15.14916606926553
14.53231931035845
12.27624433472707
-12.13290496862797
8.662014160027072
-8.80535352612098
-14.82487843214582
-5.60876807961597
6.249243701628037
14.18440281013755
-11.69567911626284
7.382830859909646
27.44849795269539
-1.672016651415172
-24.76290245221412
2.477147375223864
23.95777172840866
-15.50205726599922
-0.02052139748526667
15.52255585674526
-1.479133774015928
13.47663084148049
-11.99760817351247
-26.44386605161154
22.41572637497587
-1.091315710991004
5.119455387627538
-17.1619573269233
0.4910098630791708
17.4240088590136
-0.7530613951663593
-20.98270978710748
0.0698239901558623
10.77471423424692
29.24323838966396
12.45265485943093
-25.61193767007223
-16.08395557901704
10.21851653095559
9.11459974494975
-15.73544798430612
-18.36620592739639
10.79615442417229
23.30549948753238
13.44717187567888
-15.94504444863535
10.26190053115171
28.09740802220521
-22.27987699232502
-20.22414661300988
14.40661558313043
-17.58903074332296
-10.16243160444898
14.35502352273052
13.3964388250341
9.502926377433329
-22.24165273988345
-2.996721621852399
-10.31270508487896
-6.433610204119826
16.7461303060147
-12.74455166561511
14.96781283288581
15.60940344116619
-17.8326646084423
0.3857354859024917
-0.2388546746774835
18.68987080079601
-18.83675161202029
-18.8500810357369
0.1308442744314865
18.719055823818
-1.309763341881193
-14.93420844545996
25.74689816477845
18.73867921488673
-7.343298140966081
-12.70514441579591
-14.92884950008656
11.47904609449055
30.27890227314842
-23.0192691527427
-18.35416400131594
-8.587916329745873
12.00787188560383
-8.74578324899869
1.838732865865699
-7.073069256256277
13.98011963938948
-21.36769738851802
10.76423136753515
10.6030130471535
18.55421950412727
-5.855277924768692
8.057460782491654
-20.75640236184923
7.511545921694455
34.53734840006012
-3.029082483715174
-39.01981183805386
-1.00655135622747
-3.432450526487457
16.89822613820722
0.852080161003827
-14.3178557727218
6.128088091199226
-2.431109910471488
15.88991913866358
-19.58689731939613
-15.79061658026354
32.09543726526256
-2.155391198938898
-14.14942948605989
0.6339824553440494
-0.8619373940699862
31.20554347471794
-30.97758853598063
9.615341910194674
-0.5430185901122674
11.36035315392497
1.715005945966893
1.752153415782451
-14.82751251567168
-3.942557190644821
3.267433993644828
6.56214270809048
-15.61330925153524
18.68041815283709
-1.359609998454526
-1.707498902834025
-20.65405529528306
22.51030588229399
-5.734302137189228
18.53567026149857
-19.54063769222495
6.739269567918162
-1.439863920458197
7.112648639986677
0.6577236484276852
31.24920546975163
-3.279032816839982
-28.62789630131793
-12.31209667348311
1.020825565478439
13.61627847770167
-1.123598554294936
15.24158533526748
-27.73426525866243
-25.19030716572923
10.81450288343234
1.963196159378176
12.4126081229327
-6.890089302061511
-0.2740802339879858
-8.70924058668634
-9.750861900798599
3.863573793377003
19.82816472730687
-4.290333118832494
-29.54037525305324
-10.9566156996974
10.85739749043158
-0.2477124346798857
-17.17205222650414
38.87605412470535
-21.45628946351757
-33.26959579376871
17.80599185247049
-1.965237821920317
17.42884176321794
-0.06445595454992156
-20.25531248893349
0.05727283931320378
20.26249560417076
12.84924831683979
-34.89281034637821
12.76736329459052
9.276198734952983
-17.62414546206725
6.050116774047008
-15.28458717944607
15.28441024972888
11.45016621722566
21.97877970932393
-25.94920793725653
-7.479737989290913
0.08769087617254782
-22.61161607068863
-0.07631579592035478
22.60024099043834
-9.74339253153566
25.23573017288605
-26.14135350208697
10.64901586073704
2.877355082695118
-15.37966724785496
4.661940919803468
7.840371245363389
1.45114932615424
31.16131846974665
-21.16230157867392
11.99499855087537
-11.29062688313343
-6.573781534622008
5.869409866880785
-5.709089333361012
-4.040194543729392
24.56278469312337
-14.8135008160332
-35.54577752241551
5.729727169355825
2.529646061795911
27.28640429126482
9.390330206326109
19.34569336907382
-9.322441999045028
21.98100406451341
17.99349362398758
-25.68268909758401
-14.29180859092132
15.17132165408936
-15.49295122119887
-5.240364823255113
5.561994390364744
-11.51812328601482
21.37650158969335
-9.858580359838788
28.22773970869582
-23.07050484198909
-21.76031605512813
16.60308118845565
4.906765265554772
-18.99834336683687
12.44542171604811
1.646156385234436
-1.03376093458117
24.00919137825861
4.121531289409456
-27.09696173308633
2.134360673361578
39.71853140517475
-14.96818026157185
-26.88471181698729
-0.2634785560970706
3.014550401624366
29.06583337794509
-31.81690522345436
6.599062087525429
2.752148600492722
-14.70490089365879
5.353690205640955
-4.895266765883713
15.25480205177576
-2.196351664765993
-8.163183621093003
-15.97279416332452
-9.649002994873634
3.317555690899732
22.3042414672973
4.742768033424459
-19.72104715018068
-5.445367849599435
20.42364696635544
6.923701350923082
14.0911711856157
1.081995791217029
5.339005024600764
-8.530941740202442
8.680349627722951
10.86984108572969
-0.6700056638119049
-18.88018504963683
-0.5302514957956068
5.444535931267732
-6.633878442475607
10.5099912577554
2.937087533499433
24.48303473326694
-16.05099709272015
-12.48558099258391
4.053543352036196
0.7825386502612557
-0.8017794793533166
-23.50897443678031
23.52821526587969
-2.663985925537531
11.10961277996024
-13.12457438669234
4.678947532278541
-10.26117824189568
34.56827011226411
-2.595944364609133
3.968324611855407
7.672522828542705
0.07260303400780234
-0.08229909332035165
0.5815977362701865
-0.5719016769781012
11.64307347855769
3.671843242623252
2.834130036266322
11.18528856698568
-0.1610861370797049
-1.425667110673083
19.37557655386564
4.862745653513651
0.3194835843236069
-24.55780579172907
2.848026531286413
-7.4365321132646
33.15033824461523
-28.5618326626556
-4.907352926731805
-17.14666140154225
1.085971881660757
2.721289482450903
13.33940003743313
17.03471718388486
-0.8922357463959154
-16.14258578759276
3.539905582447209
-17.67865920161729
20.90811856826345
-6.769364949083935
-14.87929848033097
17.20048380733171
16.58806771339417
-18.9092530403916
-41.74466820508371
-10.32850931598978
24.44410873503024
27.62906878604835
16.50025799128731
4.586980664287586
-20.7234572621695
-0.3637813933851057
-37.28969522834363
27.87167841565203
9.623527011537274
-0.2055101988873865
20.13903851848185
-4.183707719584924
-25.04150239030047
9.08617159140451
16.98003874974643
18.88395413259186
-19.36373489101101
-12.05994617565143
4.931577245651626
-11.3654597307689
18.49382866076968
4.305901095119934
-3.65421591284553
-1.735876390446311
1.084191208125397
-34.26083656455435
37.49355444425428
1.373052554344763
-4.605770434045285
28.97489807669711
-21.62672621326446
17.29122409064159
-24.63939595407211
-15.24726430492911
7.556311238426893
24.67099181626783
9.964284121633312
-16.27485579754962
13.52913116208901
-7.218559486172022
3.413228391709359
-27.0764587009915
16.83000437187411
6.833225937404131
4.765206009620248
-3.688318441255411
-14.04044999990973
12.96356243154282
-12.27514136711091
1.61485772647237
18.95558646215813
-2.689428239881684
-24.08614197186244
7.81998374958563
-6.932040833212949
-20.22929670617079
0.06563829672131317
27.09569924266355
7.328471638445159
20.67747694274493
-9.05036211902854
-14.32478613573053
1.90159499528075
12.42310218638006
17.58543618956236
-18.51623729916721
7.405617135396251
-6.474816025789286
-24.03033081723247
15.73803569957596
13.29948526884675
-5.007190151191159
-3.673908096256096
3.064495269262069
-19.25407405360493
19.86348688060176
0.690912566140189
-12.16198775691307
6.598174127108236
4.872901063665656
-15.66760619878815
6.514938278393619
10.52753577587993
-1.374867855485435
-14.47529149722196
23.86964698110798
9.981221069974787
-10.09253852983759
28.05237303174708
-9.525136493930656
-8.434698007978319
-5.269628263012751
4.025679706147352
24.460493931429
-23.21654537455979
-32.09405333827524
8.291277859065667
20.66078933540074
3.141986143809064
-24.34653665695451
0.1327354802431017
-10.15738301864906
34.37118419536791
27.55181783811126
14.94291645850383
-14.465838750193
-28.0288955464184
-1.566841602979939
-7.685634912422298
21.56701194952132
-12.31453543412163
-9.506960331092879
31.5078935924154
-21.3900873651504
-0.610845896171509
11.73672785246931
15.50681525402035
0.05777326693562471
-27.30131637341958
1.661163565457318
-23.41431772616643
-1.572233810670427
23.32538797138006
16.16777782805966
-13.27660376573125
-18.79495847101767
-0.4443792087451448
14.26715876235228
-13.82289215907573
-22.15301178658035
11.00345372976698
11.14941305542718
12.12247751824983
-22.63058048740653
-7.728953280332357
18.23705624949539
-16.72066769146859
13.86980011887588
2.850706517448619
-9.078458890870236
12.42919780866808
18.07690130635949
-21.4276402241499
-15.99138022058979
-2.810324391267601
17.50754824184488
0.7989960299956962
11.92221913116287
-24.3064211183187
11.58520595716158
-17.64507228933281
12.74022930857381
-11.08653723982585
-2.990103404760371
1.249401747672809
-18.42523957029386
20.16594122738633
5.78295952243817
11.84520461604644
12.9969719351145
-30.62513607359543
18.7498960295755
-2.130725523265776
-8.170962639157379
-8.448207867157656
7.4998135114184
-2.470558401082056
-21.39193569621558
16.36268058587939
8.91220818407321
-28.68154093872682
10.69087386378853
-4.794684224183322
-13.03942027812619
-2.719525952408446
20.55363045472633
-8.002194791795711
19.09164279373972
1.887501370489183
-12.97694937243149
3.019356842193224
13.85509344126106
2.047133814384824
3.933483232828949
-23.35646900000486
15.15989396992338
4.263091797254121
18.79173427188047
-15.08489178204494
1.558617569107476
-5.265460058943134
-14.46348478103385
1.14614164091884
-2.055935982796772
15.37327912288037
17.39831582479968
5.840591755247967
-19.061129114506
-4.177778465539706
2.650897805969798
5.132440594349585
14.46313181515623
-22.24647021547841
20.6617733602288
0.1865174612174619
-25.45931716366234
4.611026342164872
29.34778629566263
-18.76905295334238
17.99644131011112
-28.5751746524398
4.608661864362011
11.40334730025507
1.777749208787877
-30.02082470841125
-3.235887576054186
20.45677805182804
12.79993423264655
-4.143884985937659
0.3549034287552472
19.24121140777438
-15.45222985059143
6.920763759953223
9.38806400431049
4.801628621203945
-21.11045638546619
12.147007374807
-7.089375337322236
-18.07289123754991
13.01525920006944
-18.49377770800293
10.04190114130131
16.12750715989907
-7.675630593196618
-18.56731536488682
19.88326991231635
9.088817185203922
-10.40477173263443
-7.963344292751319
25.56326998853346
-0.391286433804842
-17.20863926197975
-21.07877772081314
-3.373909582156787
22.78294226978182
1.669745033190433
-2.332982293795297
19.31298730196457
2.822981426364566
-22.39430048237532
-6.817706340555239
3.603458878515525
-26.91832483884214
26.25411166631374
-13.81107832470235
0.8933601350207045
-41.85497598228091
6.877067937871912
-18.67147711782818
34.578370715799
-22.78396153584184
17.70945144190572
-41.64737450095387
-13.70097028263578
37.63889334168543
26.44208460911734
-3.630758398394463
-22.39908886556012
-0.4122373451614668
4.330888021290426
-1.434058754079231
27.70399354241783
-30.60082280962741
24.2142772660202
-26.40092434038992
-1.14190320576004
3.328550280130111
15.54720847659536
-12.50466603999956
-24.43286912527198
21.39032668869821
-5.595749773047216
-12.91519571705702
14.29794336706939
4.213002123034868
33.37900976437266
-16.97457132237993
-19.77806919134881
3.373630749338217
-11.47054853126134
1.624571487354761
12.46199966829506
-2.616022624394504
8.003467946126117
9.725619864324505
0.07191417703220836
-6.278930912394215
-9.834021980624966
30.85842065361492
-14.74546776059476
9.917983366429182
-20.30761922727052
9.019939086177239
1.369696774663757
-19.44560854581496
25.25305866024029
3.440507314043457
-9.247957428471894
14.29379658788209
20.46825973409678
0.8250130154881851
-35.58706933746786
-27.20608773327682
-8.568656899723676
-11.61575341031014
47.39049804332523
37.76163633593394
-11.31630200744212
2.566566217024063
-29.0119005455101
15.6294483370729
-36.03022190308931
-8.399484105542742
28.80025767156194
21.47752991132313
-12.39790517919418
5.986730884208877
-15.06635561633529
-20.32997900337454
0.1174952342576633
-3.004588622583846
23.21707239170338
-21.24615753964179
0.07953633479538902
7.469192261742275
13.6974289431059
-10.94747034265508
-20.10882381094457
18.78962009230368
12.26667406130473
14.02249055017774
0.232497871898584
-14.25509552085629
-14.44830524756337
18.78455445911974
33.42538712437572
-18.05941544622048
26.0198484623238
19.37698259803122
-27.33741561405799
18.90196157500506
-0.2250499289354263
0.2772834235751224
-10.63470824697146
-9.695972194931684
2.446563694362869
-23.02832352530243
-6.624327902332563
-21.1556238141717
10.51836882678103
-0.3102153552608796
3.467001531915536
14.95700591875019
-17.23849598635337
36.97990355287941
-16.94132071309386
-15.0848740910066
-4.953708748754389
-4.206116470370451
10.89744506935207
-26.80015240992088
14.21689083608438
3.804392626715024
1.698577471895839
-19.71986093469039
1.291483825322138
8.784169982859062
10.57748517558732
-20.65313898378419
2.260192590400481
-3.669294312323816
0.5428756576947543
0.8662260642311729
6.404884373632107
13.00554655056248
-1.270657041596781
8.745962596945498
7.969355391333205
-0.3304087996798182
-3.648673634286379
-6.716920416994776
20.16772961874944
-9.80213556747287
-42.68051244855803
9.544920954456556
15.07617604792341
1.653630594548624
-19.68596671216909
0.9292766077961079
17.1030595098378
-10.83516355330468
20.94385105744127
2.360910524609311
-12.46959802875173
27.00947979299248
11.54511202496102
11.15957266003455
-49.71416447797991
11.33942476056598
5.469820818635528
-15.80911453052629
-1.000131048675595
-23.53073201975087
-5.92973789438633
1.333440711346441
28.12702920279514
1.217670980051438
0.5855404573965689
-25.33394345719503
-15.29217875696887
-5.592955830870569
-8.038695392083602
15.43100253850992
-15.93409133104469
2.156719387099336
16.232144460355
2.758226808696374
0.8589084571286774
-19.84927972618135
38.53827933346903
-20.81242205715505
3.584374445334862
-21.31023172164833
20.43259997174586
-27.2235796391601
6.79090800377207
-9.102532196988754
29.68557222254471
-1.453577997224255
-19.12946202833113
-17.34785414301374
-5.428433958916611
14.9358627109376
7.840425390994581
6.841904084643132
-6.65931762845506
-2.535523837182843
18.29107209034787