/*--------------------------------*- C++ -*----------------------------------*\
| =========                 |                                                 |
| \\      /  F ield         | OpenFOAM: The Open Source CFD Toolbox           |
|  \\    /   O peration     | Version:  v1906                                 |
|   \\  /    A nd           | Web:      www.OpenFOAM.com                      |
|    \\/     M anipulation  |                                                 |
\*---------------------------------------------------------------------------*/
FoamFile
{
    version     2.0;
    format      ascii;
    class       volScalarField;
    location    "0.1";
    object      p;
}
// * * * * * * * * * * * * * * * * * * * * * * * * * * * * * * * * * * * * * //

dimensions      [0 2 -2 0 0 0 0];


internalField   nonuniform List<scalar> 
8464
(
-0.07507151930439378
-0.1130486527048082
-0.1191196829102955
-0.1168169305673067
-0.09502753680930717
-0.09730431108901502
-0.09804799124357184
-0.1167535176995841
-0.07785421912446706
-0.07863878484291312
-0.1270362145939158
-0.09020015147690751
-0.002998253202899079
-0.09221059332491698
-0.09213476840544035
-0.09576599046951741
-0.1339248250056578
-0.09683056098651929
-0.08991277324103358
-0.09095368868513772
-0.09262609434378122
-0.08811504361306192
-0.09340818544828852
-0.09114376493045782
-0.05714428092037738
-0.09268439071017281
0.02605294699908301
-0.1047497605848168
-0.1073831204742112
-0.08275187896294084
-0.1267192104758755
-0.06427630815741425
-0.1040040554826063
-0.05456113350955537
-0.09951002209460402
-0.08542258839327588
-0.0940335623888726
-0.09090760085249981
-0.1075736833674132
0.1968121320906167
-0.1232271282279494
-0.1168826078217103
-0.1205581640563984
-0.1191850154955826
-0.1008360073688641
-0.06467407138367719
-0.07029928248442545
-0.1040685236895316
-0.104859174097354
-0.105476902658332
-0.3666134626721284
-0.05144690425734132
-0.0480992256649726
-0.1213809936482528
-0.1103516783610486
-0.1078700452092431
-0.07057774571732715
-0.08730207325624667
-0.09587654484732397
-0.06821015395078138
-0.07364545877551165
-0.07357913739876702
-0.07513956329012848
-0.1029478351626578
-0.115809199529344
-0.1311286365207064
-0.09260814336373981
-0.06731477485012491
-0.08422355882364334
-0.05092558526113077
-0.1358694341896537
0.07368752094808255
-0.05993706664666675
-0.1473725649272573
-0.08628275626654448
-0.1072970281968859
-0.09789475754523566
-0.1131590373520601
-0.05259901852828999
-0.05424082170402648
-0.05393462540122211
-0.06497267659748271
-0.0756509742245781
-0.1089443618041921
-0.05168015823330703
-0.03052174167173154
-0.0425609934913676
-0.07695012914245981
-0.0821881409716486
-0.03601959862671977
-0.08447443965718859
-0.0957241890591697
-0.0899526929517898
-0.09393283597458825
-0.08173678080052708
-0.1543191729998246
-0.05211401660579009
-0.09441630710565301
-0.07722435607551102
-0.1317133618777152
-0.05943371431243508
-0.06960116987853854
-0.1190795216857527
-0.07560015742263804
-0.08135218137043557
-0.1043268274896821
-0.05681375798701505
-0.07767006421847018
-0.06988178887433795
-0.1033398987689225
-0.09452527220161934
-0.06002406342497813
-0.01979402750517004
-0.0645546407046613
-0.05985054961227916
-0.09308524913720535
-0.02531308052975307
-0.07222919390491585
-0.1223731695257699
-0.05669357751648037
-0.05997192152386991
-0.09828626088151229
-0.09103626540337791
-0.09115378052705143
-0.09683873467279114
-0.09492248742871644
-0.1103041969129355
-0.08971102357658411
-0.09667301928900478
-0.1015770293441977
-0.06161837381145711
-0.09228444163245275
-0.02388325042339445
-0.06590251041397029
-0.09964974568238197
-0.0854658174673595
-0.08756248359360429
-0.1092731893661652
-0.1488042961167181
-1.212338352570124
-0.05777384638668246
-0.3616739661212495
-0.07848846160596439
-0.4776414752195821
0.02260792351411245
-0.1774893359840065
-0.088829031464733
-0.09364778659321803
-0.05304950103933333
-0.06607353969245129
-0.0686731684160282
-0.0691432082613123
-0.09613600250111587
-0.09408971867168635
-0.05310809885583472
-0.06616404318221181
-0.1186893845653819
-0.1216101845055227
-0.1175738241994825
-0.08183948264354358
-0.04149236307400176
-0.06299676495842726
-0.1191004146359731
-0.09119153041312392
-0.05771957881990887
-0.1242015940881006
-0.09540172294743475
-0.079287309038159
-0.05436162741681431
-0.117257146931017
-0.1176259335933662
-0.07536238698887213
-0.1310811475976326
-0.08163446700681405
-0.08105272482293537
-0.1114149572036577
-0.0825727366092753
-0.05475055249173477
-0.09689968487350688
-0.07754022976134108
-0.0674430961033254
-0.07320481441079853
-0.07486980204594051
-0.07700399661447452
-0.07559409438094163
-0.06189553645105561
-0.06403540213705325
-0.09293424143240571
-0.061469070718432
-0.07539255850333731
-0.06725734134593594
-0.1118757820454302
-0.04420018569292344
-0.0457487300572367
-0.06004312791852504
-0.08954814042243311
-0.04231230314471637
-0.1710249277799401
-0.1100289217580165
-0.05060959629016094
-0.1131445264091023
-0.1475050997668829
-0.1860271757794326
-0.03376536615327447
-0.08365379263512965
-0.05154406949005531
-0.02656428745302275
-0.06798293084869227
-0.02177835774245591
-0.09734022874272789
-0.05436455315264208
-0.1610785119225893
-0.05438750922524165
-0.06932670685703277
-0.08883322959492887
-0.08426056176971743
-0.05458382212211044
-0.04944542017409007
-0.08120030705444584
-0.04947363744712718
-0.1004922304092955
-0.06660469647213477
-0.05399481770998013
-0.05388215530493976
-0.0937713207684827
-0.07550591438901796
-0.0888438601381708
-0.09520748898738791
-0.1229485736277501
-0.09121635740654346
-0.1291244648814503
-0.1592589028092785
-0.05501458877464727
-0.1775064546133769
-0.1186059276092811
0.09048474701212743
-0.08977029300528303
-0.2381500415980391
-0.08002015851047668
0.01798889046043262
-0.06499858920048815
-0.6888304591017369
-0.1290724292920992
-0.2550853862820278
-0.09036411166050649
-0.1671058987671356
-0.07807185195261142
-0.1748166330214867
-0.05036062132887034
0.0120305739728219
-0.06884749420457696
0.4054859033881565
0.778235293343174
-0.2736489175146754
-0.1277243186657501
-0.1325716966542933
-0.1638506030882903
-0.1081647673029908
-0.06462381875725433
-0.07332276122868843
-0.1110413096172849
-0.1133479605301295
-0.105372371732508
-0.1205658580746964
-0.07194881403287126
-0.05681888293052462
-0.06178145182591833
-0.08881013372755271
-0.05398319317742561
-0.05071071793039043
-0.1124432323591545
-0.06422267592318817
-0.05658775404055588
-0.1362425180211678
-0.1249031548010113
-0.166010898259187
-0.03275627727627189
-0.09702602360989199
-0.06998736698767184
-0.133121671607516
-0.1348371914045068
-0.1100132993626237
-0.05914208928259934
-0.118955721962773
-0.0849312262931986
-0.0636022362393541
-0.04330423705059962
-0.08747414705013465
-0.09001678852626936
-0.08704585141745347
-0.02625834065256369
-0.07597203536836408
-0.08226001938899946
-0.07684628175325318
-0.05470346442105594
-0.02892846478970055
-0.07701755535657274
-0.05837481598333768
-0.01775180689311456
-0.06854252991501854
-0.5006856882900936
-0.1233095973561663
-0.07364234610246682
-0.04951910065421166
-0.1006151929459082
-0.08550093188891376
-0.1048098462209611
-0.1281137671957585
-0.05625568652477296
-0.04597972704261374
-0.07072404941868188
-0.08524822995266662
-0.1003384992097952
-0.1276978946922044
-0.145254511959847
0.08343210178470994
-0.1103796978446411
-0.1226872972788553
-0.05081086078858033
-0.06405286722040887
-0.1377052756792771
-0.07677553670425218
-0.1264915403831396
-0.1322879642653305
-0.1338311332142598
-0.04372150526348919
-0.05133855280292421
-0.1163487952634787
-0.0897292140534615
-0.08691990039677666
-0.1230233303434873
-0.03364956972931109
-0.1813040676990841
-0.09605416023902673
-0.1050093991621239
-0.1310347762393198
-0.1184662730748924
-0.05814024804670716
-0.07490871253615561
-0.08735938306686399
-0.1733578385179474
-0.1304832771501909
-0.2168796931185455
-0.06057062285807051
-0.07267733867485539
-0.2256387212658854
-0.05947169168569822
-0.05048816579992977
-0.04156951201971285
-0.1066599033922176
-0.07795396560525851
-0.06078294318045136
-0.09017606040652118
-0.05541351598897165
-0.2158159941234702
-0.1728806516726815
-0.05603550321553124
-0.05193280770445799
-0.06550069256520186
-0.05749603182043379
-0.04774671914487071
-0.05734586651565496
-0.05712654325765242
-0.08332157890581995
-0.05644473020159409
-0.09153881440398755
-0.06906075690353888
-0.07762840298864881
-0.05850155147602358
-0.0474745403285432
-0.0591741834437334
-0.1652825425803121
-0.1220070587546297
-0.05227426586366039
-0.1026288373752558
-0.06372587889715479
-0.06572979195513355
-0.06738769165955895
-0.05562738369955621
-0.07013428612650201
-0.0546949571363105
-0.05396874592295484
-0.05333622630165941
-0.08997377871435057
-0.05082447986396881
-0.04824114770202705
-0.05564601584769759
-0.05083966048366139
-0.08128153972755016
-0.1621331140900578
-0.06975421881656879
-0.05998414292552665
-0.06106259553172929
-0.105490617917741
-0.06002457636841888
-0.06763703487450083
-0.04534577159396972
-0.06114348803216701
-0.1035788009605902
-0.08860399806000582
-0.09548134982800514
-0.06895469871312519
-0.0580643797636629
-0.06600323559017419
-0.05295661583751046
-0.05396907045294172
-0.0581163972954719
-0.0684155455717366
-0.1051665122583873
-0.1590774643390537
-0.04339721352806011
-0.1004691937490211
-0.05784992004692927
-0.05713820417078846
-0.05768799807969733
-0.05727481538133206
-0.07032320537397928
-0.1050274341950064
-0.05223299097338915
-0.07251715798101865
-0.06129752874921927
-0.06099589767952023
-0.06967357802598118
-0.07227234339296365
-0.06166099701367794
-0.0974572649220391
-0.0686308164194785
-0.06579756040465916
-0.07364526137758119
-0.07505601269377375
-0.09707469160121959
-0.06895638374065273
-0.05769436064359851
-0.1017190548824986
-0.1143584270626514
-0.08541320384275869
-0.132621353618966
-0.1081655270764234
-0.06577643352512103
-0.04578383773300736
-0.1057037931463133
-0.1149649866389275
-0.07995097602280306
-0.1095163438040436
-0.09920617071736255
-0.08229441836824693
-0.1221454865931857
-0.06094821251924894
-0.1319337802088281
-0.07820356933602826
-0.0644267366442377
-0.05882892823705147
-0.06838259739815886
-0.1041316262266695
-0.02946592925381334
-0.06617989720594245
-0.108499988567769
-0.0786582683643242
-0.09348336002833627
-0.07126193037227556
-0.08162971983600632
-0.1105941354190523
-0.08598859988673327
-0.06478960534915416
-0.05153749136597704
-0.06540197285557588
-0.06089403790492348
-0.06156596652213718
-0.08757637234881102
-0.06523860406127073
-0.05571839879651364
-0.08085815374335895
-0.1021604322359057
-0.07932433581066962
-0.06098559370243931
-0.07215888545713518
-0.06150412265667496
-0.05919873166411958
-0.08881535740353776
-0.05753522736971708
-0.09841752018271091
-0.08504282826466109
-0.04999871755431246
-0.1069223860443552
-0.07791263956165427
-0.1168158928245837
-0.1039673627563845
-0.06271620599200411
-0.05468500069901866
-0.062528048978508
-0.05909032311645664
-0.07296285260283783
-0.06469253506806413
-0.05589515049230728
-0.06109888819903646
-0.06489582622043379
-0.07608760506032576
-0.07295120280340936
-0.06954648473903309
-0.101135378914168
-0.07400984040136924
-0.05460935596199667
-0.05504887308739973
-0.09202317638195097
-0.09399940162997948
-0.09731474950999099
-0.07915951781754021
-0.09699070194053981
-0.09796016144182138
-0.1220187176327704
-0.08933469784364019
-0.05890916869774759
-0.07037859559195866
-0.07102726738469156
-0.06739605041061712
-0.0403049587644884
-0.06299575992314595
-0.08746197822668803
-0.08363894755002603
-0.06130880844244391
-0.07644056487174135
-0.05976372650970391
-0.06985638490499693
-0.09367849254911283
-0.09229899152983198
-0.09566450519310644
-0.06945528350573618
-0.07190101910426228
-0.06285827039389075
-0.09161566061098728
-0.06162619311357737
-0.0937869189583828
-0.1642795583731366
-0.1151274978944456
-0.1159511180505568
-0.06257407757044262
-0.07434124214896771
-0.06111464596088212
-0.1182219671236789
-0.05370014647405125
-0.07023136538258842
-0.05469717921496851
-0.09481950918465432
-0.0639076431597838
-0.05780716553422444
-0.08287634821130604
-0.07456757713851545
-0.0447374924563678
-0.1037894298177256
-0.0636803066813226
-0.05989393720571962
-0.09671046705596492
-0.08934756131060118
-0.09301621938795263
-0.05931603596467433
-0.1181527404489446
-0.07383983819459231
-0.0913372039572376
-0.1123523682699082
-0.06237310868144832
-0.1333900968528013
-0.1111654568457807
-0.05435638712971491
-0.08468793578695891
-0.1427812739359892
-0.07590309854603965
-0.1320959967028383
-0.06646528131032861
-0.1068672531429885
-0.1058122614605412
-0.06961601830691241
-0.04522972350561374
-0.07518444254375668
-0.06121197878012802
-0.06519687552708946
-0.09200571107983228
-0.1134559245101745
-0.0725459182293083
-0.0835081602662654
-0.09964643758309744
-0.1087650423230914
-0.07898154042091135
-0.06530358266409411
-0.08073258264046147
-0.06385520634640811
-0.06915083037306008
-0.1042458942298671
-0.06747466951237729
-0.04971332839173897
-0.05929587431957897
-0.05947155689825541
-0.06198451532585528
-0.05801818412505029
-0.06575722111201443
-0.08405094882274482
-0.06752983441593594
-0.0724235836510462
-0.0567849912521011
-0.1137814831554385
-0.113558127392443
-0.1006778093040111
-0.06642969097632109
-0.09993176573657089
-0.114127579355807
-0.04860850979556292
-0.0576287718445462
-0.1178329192432658
-0.07164091541754035
-0.05841522140289998
-0.05624559360613022
-0.07030098886417756
-0.1005181172291464
-0.0700458077400809
-0.0728665832699875
-0.08694345695399217
-0.06285180011133217
-0.08881368305798992
-0.06209294001216673
-0.1073087911554781
-0.09905061049550189
-0.09828977350887548
-0.05859653403548
-0.09981955000588727
-0.07773974627481255
-0.05779390301504321
-0.05480080607561327
-0.07768599939530364
-0.0729693243792454
-0.07515698129202315
-0.1213678694850465
-0.08913838979041605
-0.03079658717214933
-0.07818051844884705
-0.04466085688951393
-0.08607788901025246
-0.03907202892272327
-0.04586091446783767
-0.06476106476413152
-0.06313311309110058
-0.07069313425288409
-0.09019552501914772
-0.08641060643793004
-0.06484195281976553
-0.0922047091747597
-0.06089477928750478
-0.0670679240003037
-0.08951099678633904
-0.1104576494717602
-0.09046745312048927
-0.05324481912713557
-0.08902162808485536
-0.08236718570048943
-0.09468715892299873
-0.08792267767102512
-0.1021699358960697
-0.072177723770667
-0.06033499815760175
-0.06176022152061278
-0.08780951636993278
-0.1039759554120185
-0.1289574556957436
-0.06597505926350294
-0.07517692597767754
-0.1230521545184029
-0.06505345352723672
-0.07825422180802395
-0.1172517501202288
-0.06640397061468731
-0.0637461545795204
-0.1168903623571855
-0.1176136544964336
-0.1240825812216883
-0.06692144995533544
-0.1214327822828252
-0.07162102510910889
-0.05959201613078342
-0.06441485859557843
-0.06270209214893814
-0.09846200285812623
-0.03992263853223009
-0.09213273322326464
-0.06290235901930238
-0.07319444759825813
-0.06521615077924363
-0.06566001906441861
-0.1173470224014915
-0.07763389139989306
-0.07364843415627512
-0.09739478354981719
-0.09226266785441511
-0.09010626626800336
-0.07911151347218699
-0.10219007674677
-0.07694414551319184
-0.06104908876563765
-0.06522985349858018
-0.07469968146082032
-0.09454585961683719
-0.08529425811671985
-0.1061568210441517
-0.06322009990711752
-0.06708479801721642
-0.05726972978768245
-0.08754319928229212
-0.08841472424391296
-0.06263627272516974
-0.06918407217498546
-0.09157172352124993
-0.07396495925502948
-0.1041007510797971
-0.09115378460793754
-0.07679194771993184
-0.06339144408910415
-0.06305413203536828
-0.06738949399974638
-0.08589557473154905
-0.06974447076076018
-0.06727136646385265
-0.07128049587210372
-0.06460956749300739
-0.09973871313191847
-0.06965537231096218
-0.05600270984913661
-0.08659592587003066
-0.08154565521100721
-0.1024553587902005
-0.09109320166644251
-0.0746585929105371
-0.07099261895675801
-0.09391683054456196
-0.09912029707329002
-0.06512528464647585
-0.08647522851931816
-0.06912807362789755
-0.07041453143001009
-0.09400396860995591
-0.07524235108128607
-0.09167017227307649
-0.0645613284459764
-0.08694620135641808
-0.08714588958509895
-0.08708881823910959
-0.08884146752822085
-0.06589099603728757
-0.08526343747291679
-0.0834693431888707
-0.05667449221672793
-0.08103620893818805
-0.05400250681869341
-0.08329040049637766
-0.06442879689338474
-0.06524282961297449
-0.08712593360933779
-0.07123613612418606
-0.09565203884917428
-0.1021604656509634
-0.07841633188918462
-0.1195744548012047
-0.07493747767900334
-0.09603865349698817
-0.08864991158081517
-0.09282126718056301
-0.09353298283521423
-0.09773492600623308
-0.0956292488600274
-0.1146893907779549
-0.07181555842158399
-0.08152382828704725
-0.09158914016170444
-0.1266025727465301
-0.0155377664594421
-0.2216097597351534
-0.3697366968074737
-0.07506091397904337
-0.104402594803461
-0.06613557257941323
-0.08837464931730316
-0.0620207915827478
-0.07568703034821322
-0.08356605578284342
-0.07648312011041367
-0.09254370981120258
-0.1052307306261935
-0.1069604813666115
-0.09261753446405863
-0.09132951443172736
-0.1029944412574135
-0.07691891652929625
-0.1070832653027145
-0.09397161055009183
-0.05969254250303571
-0.09479903516731442
-0.07845172898423963
-0.09201268764704239
-0.08289757704364181
-0.1121084327680337
-0.09006110702622082
-0.09800160177876809
-0.1015848433360138
-0.06943860111561106
-0.08441051336868262
-0.07323151179036895
-0.09459970493366886
-0.1014435828167793
-0.09331474254446838
-0.09037096458588789
-0.08491718566968028
-0.08589883442321899
-0.05923051623067174
-0.08580296836184984
-0.1179031561441868
-0.1158486049635995
-0.08116754086220217
-0.06956649954209969
-0.05302909850683834
-0.04978754417971181
-0.05441457128670579
-0.09971438249333624
-0.07322944021118406
-0.07169115437201462
-0.06672055821054093
-0.08592599758032267
-0.1260692213793327
-0.0842789157589863
-0.09497606583437723
-0.1002675999186254
-0.06727796493979901
-0.09292953587815368
-0.06223104939409006
-0.0862781151759902
-0.1002037093297356
-0.07713463809427683
-0.08830252110184202
-0.05753315008558477
-0.1289430503633804
-0.09426493227867881
-0.2207158465961276
-0.1012439558740471
-0.07605498886673781
-0.09393533965732603
-0.08156401250833856
-0.07742002272282907
-0.06326641650220233
-0.1202687286651756
-0.1275706989080371
-0.07507980331711388
-0.09789450862167051
-0.1079484209854497
-0.04250800651625172
-0.09549210893938689
-0.09387279731639912
-0.1210170738879873
-0.0615051506730514
-0.0957008801734201
-0.05688177687703777
-0.120116544892633
-0.1448689106720792
-0.09885364597204735
-0.08538000928840504
-0.1134726044866376
-0.09684918568490621
-0.06659162254374729
-0.07300650375433849
-0.08053521492487835
-0.08273073470060892
-0.06689529120365505
-0.1051744071998526
-0.05409158898245595
-0.05108431382337891
-0.1286845236453495
-0.07086387094443686
-0.08391869335385194
-0.09209458675846537
-0.1187589682236263
-0.1150029234674402
-0.2084738591193094
-0.09360405186577855
-0.1315186124091306
-0.06370049647840773
-0.060735899616778
-0.112763215095569
-0.09209241234863756
-0.05024181441378354
-0.09066481568148627
-0.08776113877407658
-0.05691625477222131
-0.0527364598676475
-0.1052545991532025
-0.0942710406210869
-0.1042434996603099
-0.08996078888118013
-0.0996610815164945
-0.05856640570325689
-0.1268258076309428
-0.09152417508551444
-0.09735768857102338
-0.09738751104342418
-0.07714234456396239
-0.06382525687847566
-0.08693969265188632
-0.05483112823792059
-0.085009645418454
-0.1021635989307544
-0.1397860153346406
-0.08016453047872214
-0.05487259205225215
-0.103894623262074
-0.08321924023649803
-0.09049566134039946
-0.08309055652872818
-0.04631310044580777
-0.05874922569136519
-0.09880010578871674
-0.06338567575682984
-0.09569728733001215
-0.09378476454732915
-0.0705845322337635
-0.1181075384121903
-0.0585129752609294
-0.1217553615132147
-0.08223563531686827
-0.1003893441280793
-0.1275472167576122
-0.1323296778815346
-0.05657678383367187
-0.2522468712596397
-0.07021487119278796
-0.1004492236568
-0.07938198406232495
-0.1088520295213805
-0.09852057712504639
0.07296457203668068
-0.1034583938965883
-0.1010089927999604
-0.05885491150184557
-0.06114885187468269
-0.112583621323136
-0.1222916151583662
-0.06829541435533906
-0.1130596708696922
-0.07728994782446234
-0.07648490472443956
-0.09104648801762541
-0.1116575509415132
-0.1350675448205894
-0.06803247731030113
-0.0904683354411316
-0.07091140428707285
-0.07245789326341373
-0.1323825429431336
-0.08881066777919981
-0.09741811151870981
-0.4056649391073925
-0.02185529052210758
-0.06382622933826342
-0.0953392948306384
-0.08772411252046936
-0.09471005303064929
-0.07514732511848589
-0.08878907684195066
-0.125035631031186
-0.09312602355102527
-0.05893447435483517
-0.05455528554082163
-0.3074118970629515
-0.06769661692778639
-0.1330316649295275
-0.0629082887334424
-0.1569043781794895
-0.06822390854220825
-0.1413932104028708
-0.08962194357544712
-0.1061617577602326
-0.1072594319999294
-0.1286374460496397
-0.09652252342984312
-0.06831932728267139
-0.09281028158935896
-0.1260210814997545
-0.06391411166622729
-0.08736860092169711
-0.09192908449538865
-0.05947789800581529
-0.1300660954387842
-0.123386074252932
-0.08587108188763214
-0.09724664096523587
-0.08794771284587136
-0.07512857947583143
-0.09527046759711272
-0.1271036353558977
-0.07411681831126685
-0.06723483151449607
-0.09312297097201599
-0.07841411993249356
-0.09721134308845585
-0.07877550666338061
-0.08729562185678021
-0.08897572076273494
-0.07944739714386176
-0.07224181778796954
-0.07143149928276792
-0.09706770599683817
-0.07872069293492386
-0.09587741075040453
-0.0977015558341193
-0.09189504410173864
-0.05789463954195204
-0.08121067793235685
-0.1047396963196585
-0.1230638473653291
-0.08279432788536395
-0.1211841532930364
-0.104778958052141
-0.07673535087765646
-0.0628605652832559
-0.07264666348454506
-0.06618599569483052
-0.1051699255377683
-0.08915989626555791
-0.1076639854032472
-0.04728982118701715
-0.05737995078894936
-0.1311863933396249
-0.08101923700182151
-0.09993109866345934
-0.05657776887092058
-0.06206765001047522
-0.06670588601480154
-0.06200696767276617
-0.09793235597285978
-0.05632808816377642
-0.05735384956974111
-0.05858204572945419
-0.1674129279050323
-0.1112142155843026
-0.04701661772034685
-0.07411278543448591
-0.07386973360747913
-0.05461719557945414
-0.03922577394438498
-0.08889148270929274
-0.1268984093594125
-0.08714652145545469
-0.04961705145778005
-0.0888983234138504
-0.09427943445449491
-0.09187515171165668
-0.09208320158920801
-0.0837717238513966
-0.08837424023761775
-0.09317593054728097
-0.07018280220688027
-0.09003419537741818
-0.07784136768908462
-0.09663960136271979
-0.05988678659801871
-0.05546016619455511
-0.09996448065911961
-0.05020938625692674
-0.09318014201988319
-0.05638225560298652
-0.06732435055610635
-0.05748029745747519
-0.1351230709478966
-0.05739866373412424
-0.06508270023723127
-0.0502201522072151
-0.06308960422104723
-0.1381849467431107
-0.142119916573414
-0.06303972387550186
-0.06848646913119381
-0.001992372551530625
-0.05863456530426277
-0.03778714920950778
-0.075226865995069
-0.05978903428291288
-0.06844226055250055
-0.0901928117327592
-0.06600679703554364
-0.1097921586908955
-0.0821091446545848
-0.08365135902445293
-0.08379129285551028
-0.0917093074274794
-0.06748365150966938
-0.06715537282870643
-0.05134756986160785
-0.0724051170773914
-0.04703010218838175
-0.05816577151110947
-0.0506531176356377
-0.1044172811888835
-0.07162215459989876
-0.07864272584135755
-0.06560628713251217
-0.1183515607176566
-0.06842291702134164
-0.188180776943905
-0.09205493293212182
-0.08933188828294694
-0.1065502173786941
-0.06984866909098861
-0.07713694505398491
-0.0633646331574501
-0.08286880039925743
-0.1001830033659181
-0.08598458522795367
-0.1284204353428765
-0.0579204505093709
-0.1262572304828197
-0.1433661162919711
-0.1266234693287085
-0.08705889261258146
-0.09720330048790832
-0.07255222768184011
-0.1309042801479997
-0.09751125813281636
-0.1334646176770969
-0.1040616390619357
-0.08677057644229154
-0.067791438722741
-0.1120154171455971
-0.05525775721860855
-0.09802303360180499
-0.05470062523404594
-0.1082047330770643
-0.08117860371335978
-0.06669609873168113
-0.2498030712916456
-0.09549025053280873
-0.08339388278419561
-0.06108169968730612
-0.09780411321960988
-0.07398671076767929
-0.07246659740861233
-0.07641811596347318
-0.05932806500768109
-0.0757248269346302
-0.05495891281386775
-0.05459368419863381
-0.0545794083937741
-0.0980503288291497
-0.05514724010575307
-0.06246830797441442
-0.05342715341481363
-0.03089495416228682
-0.09627249660769961
-0.09688078184797708
-0.095016264820644
-0.09167019743639267
-0.09265858096978324
-0.1149222101685873
-0.05734832496553296
-0.06849045986236904
-0.1268781979749868
-0.09151681879456661
-0.09316089998609464
-0.1654052389419701
-0.1316007084513788
-0.01541847062576306
-0.08035601570250531
-0.04737616326233141
-0.09361387138744713
-0.09402754507366121
-0.06284417357961299
-0.09310922642622023
-0.09529288713365253
-0.06949945547349247
-0.06950052939459299
-0.08165002141674924
-0.06586742393949195
-0.07587167643852674
-0.135388172612676
-0.1277084230680632
-0.1173178692839942
-0.1082103816993449
-0.09388455218435461
-0.09571378781811515
-0.06576151413796778
-0.1017320173053784
-0.09558035591465755
-0.06519959183364933
-0.06624942192347505
-0.06695924419890778
-0.07785915763701129
-0.09281883278614857
-0.09656823434669047
-0.06872828697253504
-0.1027328580280207
-0.1237857885486343
-0.1432457879393008
-0.06221835265313539
-0.06201210535299944
-0.08805209940655621
-0.07064075019011767
-0.06305163340588472
-0.07077235333898474
-0.06337281359293194
-0.05884367496484075
0.02052189912209107
-0.08662245738219918
-0.02742035651899055
-0.1056734935088442
-0.0892255513448319
-0.05435623677452632
-0.06026807536795149
-0.08360586961401016
-0.07163398761194147
-0.1200515971920819
-0.1143619201727673
-0.1220452073186849
-0.09302713981651289
-0.1053058306674555
-0.05690823146258119
-0.08635852150779967
-0.04663285733624997
-0.06054690632128808
-0.05782414511066337
-0.07943416566285358
-0.06235427916461843
-0.07222827114880798
-0.08309893512262831
-0.08064786095276499
-0.06026438062978151
-0.05492793800959664
-0.05407850902911547
-0.192559875309308
-0.275589856925954
-0.115382549774778
-0.1092307055375615
-0.09659118205417688
-0.08639366461123853
-0.08981063799139993
-0.06584405247104556
-0.07523111495695535
-0.07777718595745664
-0.06035589067843795
-0.05675894076109757
-0.0660282059032188
-0.128327048642595
-0.0870322553321058
-0.09588044561445927
-0.0750244253600692
-0.09529208806708364
-0.06641862339693268
-0.06347052312232514
-0.05052351204438617
-0.08336229870174498
-0.1232998017506621
-0.04414777796601395
-0.08150265450311873
-0.09141840814757513
-0.08976806741735653
-0.1481601537215347
-0.09737575069477028
-0.1283204535353838
-0.06094935942004668
-0.137938946997441
-0.1067436616265238
-0.07858683719230379
-0.07784794936359761
-0.05867780192999003
-0.06017179711991336
-0.08940632088783984
-0.1187021666638357
-0.0729863993701341
-0.07369878752357105
-0.06569831616103029
-0.09287079538853354
-0.07441210319647967
-0.05329813711749525
-0.0806475261902916
-0.104050070084391
-0.08150532418795285
-0.07301551390934004
-0.09284763182895295
-0.1239080837276144
-0.07622596295647592
-0.09252905609256583
-0.1017749994717042
-0.106494102677764
-0.06836771298690709
-0.09258155980478656
-0.08685854842644249
-0.0921400170887027
-0.07205753377451016
-0.09730417354308223
-0.05768382057806661
-0.05229333211650238
-0.08085726042956125
-0.0649796003758036
-0.122174805285057
-0.06987232562791067
-0.06637827043618121
-0.08209835792782273
-0.04861151737087813
-0.06470291622849021
-0.06659651165142894
-0.05803777057794941
-0.05392715957667209
-0.05790549090755832
-0.08334721370074009
-0.0753684107362535
-0.09473502051995555
-0.06748823070619335
-0.07219154003008359
-0.06977255865595318
-0.07542290468752114
-0.07970537693202517
-0.05946422424325269
-0.09306985539013132
-0.0519075170032255
-0.08872828498323522
-0.1674430192149613
-0.09114347226120766
-0.08924714155129856
-0.09244666754816362
-0.05712610795100585
-0.09719823386376494
-0.06255878500085613
-0.07948830436430433
-0.07951091631237872
-0.08499935430867771
-0.09692748365252592
-0.0539635921418676
-0.05562375983114514
-0.1026323369325231
-0.07925604929959922
-0.107052018040368
-0.08375864025534956
-0.05368541234342648
-0.07664310228492667
-0.1239032766082404
-0.05181335829042276
-0.1304682512118002
-0.05949022248425367
-0.05445955177192984
-0.06951379390876758
-0.06014159960694828
-0.116103916067698
-0.06693431782987858
-0.07921005783759778
-0.08890820512623468
-0.06791256531614399
-0.07300190911614891
-0.107580836967356
-0.0598193643939274
-0.05888569770329879
-0.06210527143881339
-0.08444495276089416
-0.08355284557467707
-0.09631702014570076
-0.08538348256100527
-0.094448024802517
-0.08100481275776923
-0.0763459411520418
-0.09226554217510853
-0.0737896755334686
-0.09556621216598712
-0.1106340799973714
-0.114035305039941
-0.09936340154234183
-0.07595112384478138
-0.09709897249234135
-0.02238970798165371
-0.07492427173262664
-0.09183506759562131
-0.09749027549256431
-0.09435029607861058
-0.06882245740431062
-0.03016177328974162
-0.07762785352908913
-0.06696485532210568
-0.07913446862963706
-0.07774705830703504
-0.01386622686694878
-0.08771794265995048
-0.09708032178240766
-0.1131648874555426
-0.1197703605997263
0.03051019641030846
-0.1193747901895796
-0.1089930540494375
-0.07566278406482585
-0.1128711793275848
-0.1538036667312006
-0.03886203984686117
-0.1041159738851734
-0.06100068017859923
-0.09977250913252736
-0.0530599663474068
-0.06283355487098846
-0.09542568956970462
-0.04594685025396435
-0.06474933705439057
-0.1055580332055969
-0.06554631722612864
-0.07363589679151945
-0.05586086046208005
-0.06393266215369968
-0.08331371592290841
-0.1040379555051708
-0.06320613199853839
-0.118362927019663
-0.003570677759485321
-0.08449860008277513
-0.03656752939881764
-0.1480119224232783
-0.1010154801639624
-0.07692573047839806