/*--------------------------------*- C++ -*----------------------------------*\
| =========                 |                                                 |
| \\      /  F ield         | OpenFOAM: The Open Source CFD Toolbox           |
|  \\    /   O peration     | Version:  v1906                                 |
|   \\  /    A nd           | Web:      www.OpenFOAM.com                      |
|    \\/     M anipulation  |                                                 |
\*---------------------------------------------------------------------------*/
FoamFile
{
    version     2.0;
    format      ascii;
    class       surfaceScalarField;
    location    "0.1";
    object      phi;
}
// * * * * * * * * * * * * * * * * * * * * * * * * * * * * * * * * * * * * * //

dimensions      [0 3 -1 0 0 0 0];
oriented        oriented;


internalField   nonuniform List<scalar> 
16291
(
-1.53586230637579
0.0239306485221675
-0.05138010705770469
1.563311764911456
-1.109974463649655
-0.00588880047566448
0.5615220710686624
0.554341193056806
0.1628322646146709
0.003378870365680072
0.004910416393031736
-0.1711215513733185
0.1703703954491633
-0.1810327678570673
0.1734946370226363
-0.321215287441494
-0.2521119456861583
0.321258656623102
0.2520685765046149
-0.1025735309633599
0.1309147319611775
-0.07335865207737058
0.04501745107959931
-0.1462916024130588
0.01703676759802731
0.02668130385170466
-0.3062236739437526
0.2364147125420341
0.03605603381643919
0.03375292758537991
-0.2685348495517227
-0.08564463575116937
0.1043457102402592
0.2498337750627277
-1.60580669011965e-05
-0.07199312962813305
-0.1965256618566425
-0.01320803562809541
0.03044644030938974
0.1348305159326835
-0.1520689206139442
0.08688905257697521
0.004850481737160186
-0.04897967689461891
-0.04275985741945993
0.0002456481317089909
86.84735636947062
0.05779661805255041
0.05851736020325563
-2.576058914715568e-05
-0.1162882176666167
-0.1101508950681731
0.113090522928521
0.05485699019224353
0.1154696837801939
-0.05693537120609948
-1.695237081068585e-05
0.1656428220386582
-0.008672856707546257
0.53572528709602
-0.6926952524270582
0.01007111746525116
0.0193824825860473
0.08601608372892386
0.01346422587489065
0.09446936012640351
0.003749839907870403
-0.1116834259090952
0.2367932419233864
-0.02218896132419747
0.2317646174655101
-0.4463688980646349
0.0004917689025596685
0.101598078272795
-0.1070470506312441
0.004957203455951265
0.03912506180643434
0.2315521233906387
-0.2572129593220921
-0.7415233295950074
0.2267067391571544
1.33398509431357
-0.8191685038755649
-0.02663316607255747
-0.02961758108621245
0.1507201072852209
-0.001106069526604111
-0.7727538921802416
-0.9133924519811086
1.687252413687886
-0.1135240512576032
0.005969024957976952
0.108046795202234
-0.5827367727571635
2.636732703539521
0.08512235401488089
0.1877642490774173
-0.1069962846755276
-0.1658903184167087
0.1768519308377984
-0.07576274651864862
-0.01596683030422569
1.155449212411752
1.070944541142742
-1.437423851166325
-0.7889699023879455
0.07368980294456935
0.07206428101286649
0.04633389030590173
0.3977250064084991
-0.3851668744199754
-0.05889202229435812
-0.06214392798590503
0.4687210107898335
-0.7375408980469653
0.9494509953931538
-1.824769571329378e-05
0.08213892083924267
-0.09033100082206129
0.008210327678569065
-70.59083586461304
0.09226091032657835
6.135084309922582e-05
-0.3331441770618428
0.2408219158921214
-0.006544668407951973
-0.3985436957721567
-0.1453806725943858
0.5504690367745673
-0.1412879647493444
0.01857604801804204
0.06362956882371466
0.05908234790764069
0.3646070480083511
-0.03774319297997194
-0.3560074087815039
0.02914355375325798
0.09892616423537805
0.03578032213001988
0.04377560691279925
-0.1784820932781333
0.007911368095794931
0.04753963096587419
-0.1253353460476308
0.06988434698600361
0.1041786571113821
-0.1746492434246152
0.07838195440908277
0.09524373442396426
0.05122206077731244
0.1550433682854906
0.3912000395717031
0.2375958794490443
-0.7838392873061313
-0.1892526615204327
0.2533082370098403
-0.1029987152094159
0.03894313972012558
-0.1390482339972689
6.0989377297368e-06
0.2207911010474972
-0.0817489659878838
0.1509499481682647
-0.3065925025369831
0.08164355206935034
0.07399900229944213
0.2888398398450845
-0.3516871910310535
0.2178907194715132
0.0508540703001461
0.005775674460430329
-0.3116140530260682
0.254984308265654
1.676212884436704
-0.6309946838031493
-1.045218200633431
-0.4100850385558835
0.5902304766759429
-0.08859441073759017
-0.09155102738231671
0.04977871943932383
0.08570699602215576
-0.2743838960806081
0.1877667877240227
0.02589923311824211
0.06071787523845074
-0.1375695426797888
0.1105251275585557
0.2038963459591046
-0.1578188853859108
-0.1166930398077024
-0.01712970854121446
0.2916416337349325
0.9239223400963833
-2.17617032266553
0.7786567842982217
0.4735911982709898
-0.03732456741340467
0.1845468519159756
-0.1365550448459715
-0.01066723965653908
0.2519786700789657
-0.2456198550459677
0.03516332422032099
-0.04152213925324853
0.2863140612044434
-0.1622335955280723
-0.2631286996735881
-0.3066357390336406
0.2155306022775861
-0.4781453044714519
0.5692504412276165
0.3546071292813022
-0.5642852297072488
0.2116039626410992
-0.001925862215088445
-0.09536666226989388
-0.04401177401619698
-0.1247976068416074
0.2641760431277922
0.2917231342999368
0.01827767578180975
-0.02116097023661037
0.09920705185174014
-0.1205666504758862
0.03497738545091334
-0.01361778682672569
-0.00736508485120415
-0.1086391690922773
0.1185455122805456
-0.002541258337019959
-0.2765955353587202
0.003322301305857351
0.2781465131043922
-0.004873279051487236
0.04447644640210884
1.009981552821409
-1.064468495016321
0.01001049579288482
0.1331757826843759
-0.1608317394222125
-0.1075635990916301
0.1352195558295281
-8.338524092581119
-1.724750673112573
-2.690902289509015
12.75417705520291
0.07068570678970411
0.05006938419492241
-0.1244812012170256
0.003726110232420244
-0.5503113155927057
-0.4455603515002021
0.3760765034912062
0.6197951636017757
-0.218851217685025
0.2296507366229285
0.1479854433461108
0.1589434263019514
-0.2362431628583267
-0.1242630076718296
0.3513046787674005
0.002363198748602415
-0.2294048698441112
-0.0330417261498987
0.2760665347774711
-0.09503936528143167
-0.5209476822485193
-0.05560438917900661
0.2694709102759986
0.3070811611516882
0.7133455436700828
0.1705643985433123
-1.057604063605314
0.1736941213920908
-0.08848852514218991
-0.05083129417666756
-0.01084292304248818
0.1501627423613455
-0.1895683039432942
-0.1152558744430502
0.1898945325319213
0.1149296458544333
0.1862028598580484
-0.1063302087596385
-0.07597550845420345
-1.262994200515897
-1.980012355013156
0.2296064337767467
3.013400121752216
1.211077167780252
-1.696937617563154
0.3469441713106723
0.1389162784723727
0.1504613447511337
2.990762748592911e-05
0.05548031045076765
-0.2059715628294263
0.1215892323150515
0.04798120425699428
-0.420608959650942
-1.15011025451826
0.3918242674509211
1.178894946718528
-2.972678283717068
2.552069324066109
-0.4718322378876689
0.4577460065307039
-0.5075124243606473
0.5215986557177499
0.5272100271719954
-0.6112842569739786
-0.2438587016685271
0.3279329314706027
1.598507506433241
-0.6970076315047992
-0.6089006971379268
-0.2925991777904701
0.1715226731934956
-0.3097348656392584
0.164609399333084
-0.02639720688722776
-0.1003521301284112
0.005528703911084752
0.01621613965408893
0.07860728656329023
0.009020969887651447
0.132019520854612
-0.08357526073864474
-0.0574652300035725
-0.06270487872813726
0.01070416985675853
0.08888370658722795
-0.03688299771581308
-6.274127617490828e-06
0.4811776910708195
-0.1497791211033146
-0.3313922958397447
0.00208842356306853
-0.1259139945874708
-0.008785060422544459
0.132610631446982
0.06933102471835936
-0.1111217331329487
0.0630609346233769
-0.02127022620878834
0.06257310103586801
0.1446969771576867
-0.1755556773007374
-0.03171440089273567
-0.6222977003011324
1.369322253787114
-1.08252305092559
0.3354984974396509
5.394599988051112e-07
0.08753427433088228
-0.08169989957699904
-1.835950812172429e-06
0.1201529525291245
-0.03845121700129727
-0.01783406652402631
0.02501376652339168
0.3020773713986348
-0.3092570713979247
-7.80760416645631e-06
0.05807545673353917
0.1131099406730918
-0.171177589802488
-0.4548885093527897
0.05935936553503415
-0.1258693872214947
0.521398531039336
0.07888100965087823
-0.06465720172150614
-0.1630207259282503
0.1487969179989368
0.08893605446601452
-0.1258027630612347
0.08223788597493478
-0.04537117737966563
0.1926024648503394
-0.1724385295141114
-0.01640136112399545
-0.003762574212227247
0.503337777655021
-4.446695823361683e-06
-0.02263556123875285
-0.4806977697203458
-0.1466320093984995
-0.275127609759292
0.07284919862608848
0.3489104205318215
-0.05368733836798675
0.09375172082833083
-0.05883935319104645
0.01877497073074213
-0.2427359790677359
-0.2755262584251689
0.3431549623613859
0.175107275131623
-0.4705239260273636
-0.3995369134175017
0.7371367118712835
-2.361429574339748
1.256672633177034
2.749616571422909
-1.644859630260283
-1.197465046093474
0.01352363130790331
-0.06193406838585887
1.24587548317155
0.2417763260589566
-0.2113663844466121
0.3000209500007862
-0.3304308916131127
-0.1446351157741537
0.01130546362467091
0.1586536380429968
-0.02532398589349734
-10.59316183991137
69.65031362575603
-0.1569962279203391
0.2940955865594196
0.5305811229212244
-0.6676804815602697
1.317334051221535
-3.678763625561391
-0.0618438800820219
-1.267483156656777e-06
-0.04423562996961571
0.1060807775348081
0.9060861200337583
3.179376006329793
0.5553329318633338
-4.640795058226984
-0.03091504641780465
-0.0388374029611355
0.1323255504148542
-0.4660482100640495
0.2280128657286966
0.3827323214931249
0.2072601452824056
-0.2442849424994587
-0.4290234128469383
0.1243814024403177
-0.07730311633844029
-0.07799333251961335
-0.1203308578694265
0.1149079058406521
-9.355001047253312e-06
0.005432307029888533
-0.1388479018022842
0.0247535611119514
0.1426802107823138
-0.02858587009192049
0.06040930028168641
0.09695607314775079
-0.06662286844975732
-0.09074250497963218
-0.08661037492350369
0.09066091949442022
-0.1877065173699356
0.03992546878512911
-0.0667502668625171
0.2145313154473296
0.5109844503280049
-0.1790479566691038
0.04237832130688655
-0.374314814965828
0.846606029543842
0.05902445954285987
-0.207016942149311
-0.6986135469372416
-23.59567298403568
31.90553247646586
31.31405634700175
-39.6239158394319
-0.0229172518784318
0.1143198672194042
-0.06438104533493652
-0.0270215700059803
0.1517160393741427
-0.05378228014011466
-0.6148498150656742
0.5169160558316955
-0.111455789798073
0.1386612213432494
0.03485619111938502
-0.06206162266450208
0.1181018476781157
0.1239709727296213
-0.04953760683109025
-0.1925352135765755
0.883088655753949
-0.7656583455522139
0.0342857291724321
-0.5818623856206678
-0.2515193673014707
0.4902803268636413
0.3431014260585915
-0.1097361434460917
-0.5210162892058626
0.4632422546323736
0.1675101780196563
5.744495279317266e-06
0.06061721545469566
0.1338110273906412
-0.1944339873405715
0.1638303096799388
-0.2732450397929296
-0.0003214133330572002
1.434418226747516e-05
-0.1070651570143599
0.2377765781812482
-0.1307257653491043
-0.4534108630190553
0.07614542068633001
-0.1437508468730957
-0.4057977763321185
0.298525345825562
0.09519611997909151
0.01207631052753793
0.8409696962183074
-0.6192681217160527
1.093959082498853
-1.315660657001026
1.072698274648554
-1.462124267303814
-0.7913109269521994
1.18073691960775
-0.2194471899584755
0.5236963511631203
0.7684491134441045
0.1163514409805074
0.233942116109773
1.248213949343018
0.4628918217541922
-0.4748703398520202
0.05089251609036374
-0.0389139979924492
0.4101316497609331
0.08256197621382592
-0.02980180422049556
0.1502669998752147
-1.443641723931758
0.9857289924620969
0.3076457315943659
0.3953169330331079
-0.1101384671410995
-0.006750784958742264
0.2553587988190443
-0.5698233013017311
2.365260928141826
0.03812207893040807
-0.7364899168812769
0.1609419863687579
-0.5194608852402335
-0.2158507102848694
0.1998737101226566
0.0007579793413030843
0.01521902082094339
0.1180205455243923
0.1373868248521821
-0.2417967652077988
-0.01361060516872052
0.0202466892724372
-0.05143946678833244
-0.09097946170613139
0.1221722392220683
1.762764316931914
-5.501784758216828
-0.06509945266994255
3.804119893954953
-2.345108572655173
3.383093714055819
0.9032082661749835
-1.941193407575632
0.1313759770934866
-0.1218231818232696
-0.07478365611069621
0.1498014011724014
-0.2644517752634742
0.0829228994410604
0.03172747465008956
-0.2529665856730688
0.1489082123731056
-0.03840541589218927
0.1424637891922438
0.4330377066180237
-2.010179724240312
-6.761382074958641
-0.02337457117823488
0.003959378991233661
-0.1028373820909845
0.1222525742780121
0.292238564842055
0.03351723741669359
0.06956113077438625
0.1347860956638301
0.2195386629557124
-0.3686454829986323
0.01432072437908506
-0.01687135840850282
-0.1377104223250941
0.03925840970305323
0.1153233710305484
0.02268834725899526
0.105933466245011
-0.03202072073636175
-0.09660109276760662
0.06317402395789713
-0.1629547890186812
-0.1014503598868035
0.2012311249476588
-0.1505282913765377
0.4368617661418858
0.2170043028897375
0.08390905742010595
-0.08845615877591567
-0.01882746982240878
-0.7361006482610514
0.1232182607489908
-0.1146090869887509
0.7274914745009186
-0.3485868388332323
-0.2595834203124985
-0.1279303891152706
0.2637857162816362
0.2326994518803112
-0.02586240111224528
0.0800140445625341
0.04460484231477477
0.02921722413776654
-0.1538361110150105
0.1812157721306747
-0.02941466409365154
-0.2914376513620149
0.328180893902409
0.2000499993830391
-0.6057036473435634
-0.04595929137974221
0.7748811994724264
1.063825560050164
0.4720187099240989
-0.7344827747128568
-0.8013614952612454
0.4316820305868941
0.02127245827976924
0.174262630664815
-0.6272171195313573
-0.5459499246404089
0.371928307883809
-0.3302387657435578
-0.5642979977300608
-0.331723126358329
0.1857566167972463
0.2056050441479715
-0.05963853458679793
-0.07704940615503938
-0.1855779933903359
-0.6218146035175006
0.61530239920261
0.1920901977053992
0.2128907303055994
-0.03410394365524132
-0.003239054734053326
-0.1755477319162422
0.02985706142513557
-0.1170971160891005
-0.3641608059695515
0.4514008606336704
0.01885478268302547
0.4485909077375906
-0.624441918340934
-0.02252216904796257
0.3754778646117726
0.05228985865308319
-0.4052455542168583
-0.099342652156935
0.3308028117037805
-0.02547915962547233
-0.205980999921317
1.135279898466871
-0.06937832797598992
-0.815182840628315
0.2454887948310269
0.4891411216473059
-0.08492100014138741
-1.473538238366623
2.052328779297982
-0.4938695407900894
-0.09740467296675889
0.1098057618441688
-0.01181764039140964
-0.0005834484859574864
-2.254784527507812
-1.611452078922354
2.147735000709447
1.718501605720757
-0.09285823029465372
-0.180494473362965
0.2977373345295879
-0.02438463087195764
-0.1752825953496827
-0.1681261873632107
0.4375724883349831
-0.09416370562204154
0.1400773070919035
0.06514191563999627
-0.08833231396366631
0.2584807787850301
0.03493555789330025
0.3123243239409832
-0.60574066061914
0.1030720871331045
-0.12596863732259
0.04013468039444586
-0.01723813020492955
-0.1240755211881025
-0.0613840180654323
0.09260130895887113
0.1638354849978337
-0.08621760210602043
0.02545420424131738
-0.06029775641611547
0.2070026926534712
0.01713054876051601
-0.07859564846677415
-0.0358040417247262
-0.02556296071414228
0.1399626509056487
-6.896567349388914
-1.447289136479055
6.566223394240497
1.777633091628307
-1.503914522787936
1.514898250037972
1.458924125874702
-1.469907853124566
-0.2176844213356438
0.2369393549630652
-0.07955269004349487
0.08200584940400343
-0.02385821184684002
-0.1080186906884095
0.04987105313131585
-6.39278806322638e-07
-0.04017148094724701
-0.06287073071451432
0.1030428509405799
-0.03455670273072468
0.1730443419702633
0.06851505341396556
-0.8872659516262221
0.04003772482089216
-0.06291527468418766
0.9101435014895822
2.032023363237244e-05
-0.01841902595491676
0.6506431110992807
-0.6322444053778505
-0.2302832632859959
-0.3988446390420264
0.8729648415498954
-0.2438369392218156
-1.747071563990919e-05
0.1072463151099004
-0.2186846341923005
-0.2746482470483662
0.209236368488455
0.2159966185011879
-0.1505847399412582
0.0240748950850676
0.1210226206712983
0.02126795000958874
-0.166365465765882
-0.9752815707515557
0.9369140147769321
-0.3306194411603286
0.3689869971350005
0.2097938150988141
-0.2996024976695005
-0.5151681094781948
0.604976792048927
1.230999799546299e-05
0.1973818075325488
-0.2199774417688529
0.02258332423831699
0.02892128836525837
-0.2055530176088623
0.1458739631417251
0.03075776610188896
0.02203871843829621
0.02924331173857753
0.07030720213815804
0.05622427882200669
-0.07924649890523458
-0.03994149928770716
0.06296371937092986
-0.08628149087928796
0.1833479578125493
0.7495395626106517
0.4968176226206776
-1.321832193497011
0.54858645864513
-0.4856301263009187
-0.02680387432703611
-0.03615245801715312
0.2345575125019228
-0.308380041935691
0.06164231594276526
0.01218021349107117
2.776671449880808
-1.696466634734475
-0.702861193416779
-0.377343621729436
-0.2916931540772477
0.6099963494364076
-0.1794273732558527
0.0957484833652435
0.1194592120206978
-0.1351409521527601
0.09099088755507634
-0.02449480780130741
0.06864487239901579
-9.935817823862287e-07
0.0323950948270926
0.06685059820568282
-0.09924469945097689
-0.9338820420800323
1.601246637285854
-0.6673645952057936
-0.4749880172199031
0.1737095688239041
0.06818940831452003
0.2330890400816844
0.2235893465145221
0.2807716227725331
-0.3253689809490478
-0.1789919883379646
-0.4428186320731538
0.7216978260468365
-0.067269581944384
-0.2116096120292044
-0.1444817764628031
0.2402382910534917
-0.01790590322581666
-0.07785061136482883
0.02399769221917258
-0.2295012415200257
-0.8978575820497035
1.103361131350729
0.2516755574429559
-0.04621151346315289
0.01812530253475595
-0.6307176753643194
-1.758140399002127
1.776612830302376
0.6122452440641105
-0.08436410082835623
0.2840646095118075
0.04218835896920897
-0.2418888676525981
-0.02117387701949098
-0.07481409334668661
-4.788402009649661e-05
0.09603585438628172
-0.1746266621036878
-0.03372840192694221
0.06944382583112663
0.1389112381995696
0.1720130386823508
-0.254341840598766
-0.245969702856172
0.3282985047726057
-0.03432257910824005
-0.1364238316475624
-0.00388025134785092
-0.002754987683330302
-1.263106930029758
-0.2700003886626059
0.427240362413278
0.2373698585954422
-0.2647468192465301
0.05218653731420653
0.1797183923228144
-0.3181001628467164
0.08619523320973831
0.580091181244595
-0.1558454745321674
0.1625964519268651
0.2449245800483087
0.1249261482403763
0.232311314892504
-0.3470080865459368
-0.3387140913655614
-0.1309332050122284
-0.001492395558457634
0.2962559102506611
0.03182445469515161
0.132617680030456
-0.1288254945847451
-0.03561664014080765
-6.067508260654243e-05
0.009312656424690964
-0.09468373073241923
0.08543174939034971
-0.1392170747669318
0.0936526566059028
0.06248607118292766
-0.0169216530218068
0.02349946100830283
0.1342687470402057
-0.266306700579975
0.1085384925314674
-0.1317636088856258
0.6518262610304411
-0.4254564270947623
-0.09460622504987118
1.10519737029425
-0.01612275713897823
-1.065143964633148
-0.2509352602292255
-0.2493915367030621
0.2487339560873888
0.2515928408449802
-0.1442804476064745
-0.02937446920179474
2.257571073025053e-05
0.1736323410975132
-0.1921873765979896
0.02549535241336263
-0.09003578649626484
0.2567278106809036
-0.1116710080083763
0.2455633573499349
-0.210887490681619
0.0769951413401108
-0.02503499623161374
0.4324096440855852
0.03514156856486494
-0.4425162164187434
-0.2695913606284978
-0.09102461846880809
0.3524278192831182
0.008188159814188977
-0.4758727033592091
-1.803206847834074
-1.112341156503301
3.391420707696797
-0.2361357212301007
-0.0425351476712446
0.2916918017728685
-0.01302093287145922
0.006014454573896806
-0.1486775808075624
0.1147796352453644
0.02788349098830565
-0.1639436691442498
-0.1795081493224862
0.2770178789764137
0.06643393949038691
-0.1860064794533376
0.2154968564228668
8.542097205107818e-06
-0.1539230985449497
-0.06158229997509405
0.006945373948988604
0.2862719738503751
-0.1385051353947709
0.02234261242227584
-0.07520967108396941
0.1913721940565548
0.1767516541641897
-0.004668301532655378
-0.001183509943076309
-0.1708998426883853
-0.1575836029871126
-0.1422167025607331
0.1386400109394203
0.161160294608409
-1.743802433609725
-2.452625638572558
2.603541501742013
1.592886570440146
0.1536967841063267
0.01475581772305423
0.006440844095723397
-0.1748934459250887
0.09337388765901362
-0.2336528490643974
0.02118437410285394
0.1190945873026222
-0.2183964815752805
0.2772156119513474
-0.0498937327139348
-0.008925397662067727
0.07231423108363182
-0.2118478497871603
0.001028483308792658
-0.0247351346095493
-0.165907676035046
0.1837871248065249
0.006855685838101825
1.179894658832452e-05
0.2330011388792678
0.05492276076518793
-0.2879356985909694
-0.2159570111810431
-0.1042385118682393
0.2444100641164672
0.07578545893289379
1.515506238219828e-05
-0.2444069871609101
0.218228829207062
0.02616300289155422
0.5913968002583493
-0.6387465352946752
-0.2571770546275456
0.3045267896640597
0.2610328632166621
0.1984051966268227
0.06956097695680323
0.04288541668102971
-0.143088168413998
0.03064177477621587
-0.6121180423863556
-0.3096048350738821
0.28927083401822
0.6324520434420803
-0.3368918640125135
0.0222979475609661
-0.3596917219718312
0.6742856384235882
3.233936127091928
11.61544843686059
-11.9019503667414
-2.947434197211295
0.2992728961526768
-0.200567343476379
-0.05623057385086355
-0.04247497882533127
0.02160397188792711
-0.2578900352530349
0.05355193147133484
0.1827341318938627
0.1524764418674563
-0.4038548282070062
0.5210270589618572
-0.269648672622059
0.1187221995576551
0.06942206092233731
-0.0518843252641946
-0.1362599352157734
0.864705513411599
0.9713714307124326
-2.256426557143467
0.392995363945575
1.415558965835408
0.4478722273624594
-0.120635382156562
-0.1253798436677012
-0.03185377704328418
0.2778690028675534
1.414632793381945
2.080751603251481
5.333974506338651
-8.829358902971935
-0.353468168894374
6.012575593495516
-5.659107424601308
-0.4316642755553718
-0.4971345436785727
0.3311637336364789
0.5976350855976524
-0.1390006841911483
-0.2761035945520255
-0.03239661685335883
0.4475008955966737
0.858756747833273
-0.86915755954392
1.221477979490899
-0.2383854770020533
1.34939880421338
-0.9012195121124928
-0.2291902968818748
-0.09250310682900388
-0.0268382812718858
0.3485316849828612
0.0666311715240475
1.96440353149785e-05
0.06990712835264988
-0.1365579439119697
-0.08031200454122625
0.07999586148331971
-0.05239824736196463
0.05271439041990055
0.1094856452672059
0.02210632416927422
0.02772932510597685
-0.1593212945424678
0.2292865483055741
-0.0452994583941599
-0.2132472304524228
0.02926014054102479
0.2528067634071252
0.009805754305917978
-0.1524244579710061
0.1317181077076381
0.08650878374558722
-0.06580243348213537
0.3509188488001959
0.1215634202978178
-0.539121224057632
0.06663895495970855
-0.06228513575153918
0.2141519526019417
-0.1125838123436025
-0.03928300450677432
-0.05976612774305276
0.04412147767418585
0.1251302953360679
-0.04828341004261583
0.02615442043331445
-0.1373546666688901
0.1594836562781652
-0.1910358191354104
0.1553998449398116
0.2200320256253318
-0.1843960514296843
-0.2638739702299037
0.01290339173158007
0.1137861496348363
0.1371844288635553
-0.07887905391799359
-0.123853048397163
0.1906526609252019
0.01207944138995863
1.482609926388747
-1.397083528273884
-1.103436664057041
1.017910265942112
0.0905252707187499
-0.02978809476434962
-0.0001038758057929753
0.1108509058677013
-0.1110009467540697
0.000253916692151037
-0.1218874774115492
-0.08853431833830631
0.09276417501928674
0.1176576207306547
0.008320716767977574
0.2305406464056258
-0.2127349031619171
-0.0261264600116469
0.1449213790026999
-0.01398072026436513
-0.1907067864813863
0.165174277344481
-0.01193218157379466
3.020764042554839
0.3327649625365105
0.1426360113880727
0.2024673928955019
0.01750934264882576
0.04670453425867946
-0.2666812698029586
-0.001434587872377388
-0.1008762825714779
0.1052825811661495
-0.002971710722256166
-0.02353455109784831
0.09055663692277982
-0.2616629178066908
0.1946408319818151
0.05668087019657626
-0.1651749037548798
0.01108936059158485
0.788122108602311
-0.1718010109014947
-0.2473135648904606
-0.3690075328102854
1.709138338740388
0.07326472797198404
0.2934100651932384
-2.075813131905568
0.1112508021307335
-0.2179563092102704
-0.01737001410857906
1.291247574371793e-05
-0.2127382634791194
0.06809023522923265
-0.02118430223304434
-0.123277495090136
0.06869905080456648
-0.0001467444773371818
0.0001200970107221453
-0.1151857094309795
0.1152123568976127
0.4231040650461828
0.3106301382236794
-0.02286370784219219
-0.7108704954275373
-0.1192014342001048
0.003257938473804855
0.1844960950285697
-0.06855259930226509
0.09003832821938376
-0.04121024052130139
-0.3499949872006993
0.301166899502662
0.05324569824470369
-0.09982865528221464
0.1069985911852812
-0.06041563414772549
-0.02386239002421608
-0.06944199370996879
0.5164084487804453
-0.1536654286628676
0.3064141005078591
-0.01124736404603447
3.518615078602267e-06
0.01055299053250069
0.06922439930454373
0.5767217373134194
-0.704287478157678
-0.3188783433303387
0.4464440841746948
-0.01200603405322637
0.06293538392403242
0.124178852075651
0.1787010872960038
-0.1273099121587206
-0.1755700272129064
0.05890524471381081
0.02774156793347654
-0.1077507420713465
0.02110392942406292
0.4365545983491266
-0.1918280675244241
-0.04918280367656905
0.1086910036958778
0.1323198675051222
-0.1737229665763103
0.3568640922624257
-0.4719031142258298
0.2887619885397861
0.01936619291533744
0.4607625083255869
-0.07821584854773571
-0.4019128526931774
0.01080448623302115
-0.07440016891520218
-0.2129998526765147
0.03677594638687072
-0.04868642098551888
0.05680689643366596
-0.04489642183499144
0.160148532181899
-0.05431961276070185
-0.170641487588207
0.06481256816702803
0.008855245927851495
0.006518474243612048
0.14477481201044
0.05666823997857438
-0.4544055302030117
0.2387783861213365
0.1589589041031357
-0.1081882103217436
0.3454190065724796
-0.6461584315959948
0.4089276353452741
-0.2019873854006618
5.695858846812346e-07
0.4074497392160668
-0.2054629234012424
0.194304977335891
0.2219111038394358
-0.4328736554896127
0.01665757431427307
0.0003650667526751246
-0.1895145984440382
0.1413762287066355
0.0363401074878907
0.1445634893928978
0.04838295142480021
-0.09476302426652884
0.1232646507873527
0.07820611938070078
-0.1067077459015094
-0.1833922208517833
0.6079854711985792
-0.6320756440283998
0.2074823936816512
-1.326794990914061e-06
0.07592405814601039
-0.1210846008445621
0.04516186949355649
0.02547326702409751
0.01507995841970677
-0.2477366558264649
0.2071834303827155
-0.0821913631845083
0.7011982890161033
-0.3945961108092595
-0.2244108150221715
0.7175133722726311
-0.1649970232583377
-0.552345154793526
-0.000171194220651114
1.512399139157759
-0.4417695860600604
1.966908527879917
-3.037538080977337
-0.01411161812389943
-0.1808924457651091
0.04537781332574735
0.07253545343419265
0.2838262533535814
-0.1145853807287956
-0.01275315268696595
0.09706313152725204
0.006199157215365605
-0.09050913605563317
0.1514015732749047
0.01132716477366382
0.2280751598866481
-0.05013904944993555
-0.566353767835666
0.3884176573990101
0.2205802654711053
0.1616087518492017
0.03602025796836779
0.01329818219822319
0.1628292372993332
-0.3671761628949212
0.1042820401610041
0.1000648854346737
0.4888369927176842
-0.01685292079798692
-0.9434497585280931
0.4714656866085376
0.006140989678698002
0.1646321960706899
-0.1423664792953815
-0.02840670645399421
0.02486253509462854
0.009575211478810153
-0.1096597345099528
0.0752219879365856
-0.01596645110984799
0.1121324426884692
0.05186099182378236
-0.1480269834023916
0.05712208616492641
-0.04349833565461671
-0.0709075371419918
0.05728378663168757
0.3863186326487402
-0.139308636198322
0.1102842241481553
-0.3572942205985015
-0.0005184701399175098
-0.07929366821466637
-0.0189102418979725
0.09872238025251789
-0.02134158743088009
-0.2311320876463224
0.008612182967739039
0.2438614921094678
2.944507276656166e-06
0.09060029250116737
-0.0562251958557454
0.02690915809580995
0.3784876481486561
-0.3664423842851326
-0.03895442195936439
-2.212414888078798
-0.5065014396279194
1.183348244309961
1.535568083396912
-0.03063420202634273
0.1438920407222404
0.0158512050473641
-0.1291090437432477
0.05288743309130391
0.157704512965332
-0.2946482987092916
0.08405635265274021
-1.53532892535562
2.726562085702618
-0.7804939239981895
-0.4107392363487795
0.3675412515206389
0.2069582778883462
0.008000730256878382
0.1352587975290002
0.004806987005132442
-8.71791295998568e-06
0.1682806202730909
-0.05230349400245454
-0.171971627682611
0.0559945014120133
-0.1140480880940456
-0.166836976572532
0.1140472317616829
0.1668378329049511
-6.132536978076256
-2.639528929430514
3.10943745483295
-0.02046967689605449
-0.07621704042058657
0.07621847619133897
0.02046824112531357
0.1820094846521009
-0.01882932233810046
0.1846811104012715
-0.347861272715177
-0.00992374143517314
-0.3163673172177403
0.06592158021361981
0.2603694784393408
0.04306402502211956
0.3818855400004217
-0.3740954947222697
0.05002385193126693
-0.1640632648784186
-8.675146865492082e-06
-0.1248369132134604
0.124835906471379
-0.0790390244574494
0.079040031199551
-0.7859593552191174
0.3751760061480159
-0.09037898037630468
0.5011623294473888
-0.1274940016419856
0.09346833776731192
0.0171543054661784
-0.03032749083570447
-0.09403548660738612
0.1200683129794692
0.1061419925418511
0.04807669543638337
-0.154212943482921
0.3439099717237011
-0.2230660104215293
-0.3348110972869897
0.2139671359849277
-0.2810218526304847
-0.03828757214427643
0.006472076406397785
0.3128373483684942
0.03427543679970527
-0.2699652976858013
0.2473321211343334
-0.01164226024812629
-0.05929622501789896
-0.1102179355679409
0.005550521488480847
-0.1709352904463823
0.1606223354338975
0.004762433524017246
0.1061351393442612
0.04484602963383794
-0.04483917643622331
0.1464507044743779
-0.04031289221329219
-2.672916800118725e-06
0.06985625537544651
0.07659877072490236