/*--------------------------------*- C++ -*----------------------------------*\
| =========                 |                                                 |
| \\      /  F ield         | OpenFOAM: The Open Source CFD Toolbox           |
|  \\    /   O peration     | Version:  v1906                                 |
|   \\  /    A nd           | Web:      www.OpenFOAM.com                      |
|    \\/     M anipulation  |                                                 |
\*---------------------------------------------------------------------------*/
FoamFile
{
    version     2.0;
    format      ascii;
    class       volScalarField;
    location    "1.3";
    object      p;
}
// * * * * * * * * * * * * * * * * * * * * * * * * * * * * * * * * * * * * * //

dimensions      [0 2 -2 0 0 0 0];


internalField   nonuniform List<scalar> 
19631
(
-0.2710997991452113
-3.200667350071787
-0.3984401604895741
-0.5836689166305695
0.02588160041761163
-0.3289153425652253
-0.07978296647234225
0.1169668090746588
-0.05992423415705189
-0.09075467348212471
-0.0981257369352511
-0.2076664155364282
-1.809825474715314
-0.06863791207850244
-0.06155145096267592
-0.06247061925210483
-0.9348607809883271
-0.07665515185919801
-0.07831737303275711
0.4094512672262721
-0.0316025471777649
-0.2915842169404858
-0.01437962302206749
-0.5247359396922715
-0.08848962982166296
-0.05719960140080313
-0.1887502602315151
0.3110891752231625
-1.189322196577568
-0.1717952746198952
-0.1156847884800302
-0.2370524541666961
13.20668190448215
-0.09291524725900996
-0.5418116287720766
-0.06109657602075179
-0.273276739965817
-0.02505335238577202
-0.09238518368282224
-0.03722149985018815
-0.367495339280883
-0.8970681243378215
-0.2539530360008217
-0.3820077794585853
-0.6064032645723243
-0.5983986500138435
-0.904021997650081
-0.02573957652852565
-0.2282667986622206
-0.01874379788522278
-0.3771866158786127
-0.1803668835433263
-0.002873068698588096
-0.2435280810778134
-0.03997687612720027
-0.3700430439327382
-0.1556805088897109
-0.0867236707784229
-0.09410658744453121
-0.6014512412872978
-0.05002403319513919
-0.2908729897101581
-0.5935053497544549
-0.4133801355771695
0.5356534787713131
-0.06129816073720374
-0.1250846546888364
-0.1396357386187926
-0.603369789766099
0.1008463949952353
-0.4138578500009927
-0.3937378297338688
-0.2695282969541472
-0.0971125662532918
-0.1453873213777553
0.1539603203503767
-0.186762010722392
-0.8236448145947164
-1.303178744520186
-0.1360930014042351
-1.226913910991175
-0.3893414864479265
-0.01730339593120412
-0.03923479093198311
-0.0714806742211799
-0.4303299792149159
-0.4326697446016217
-0.3228482522273692
-0.7357893251926807
-0.9911103400771814
-0.6275912108451611
-0.005781476340492668
-0.4356214218801015
-0.6928210793756759
-0.3505415682461283
-0.6006230764967349
-0.04065684302603971
-0.0354644589366079
-0.5423581876848304
-0.1948434341120056
-0.06672691779905927
-1.613388396747057
-0.08974796409820547
-1.651092356249156
-1.067924039792171
-0.6070907187566305
-0.1543438819672165
-0.3628038777302021
-0.1001760843309674
0.002295028488200387
-0.5906719861968468
-0.5313867654820824
-0.06955661289861159
-0.3217747327419003
0.3811175564124449
-1.024278595771138
-0.8794887801785404
-0.164101548251212
-1.325513765409281
-0.01684472581988325
0.004766492050459639
-0.01502966702884359
-0.1241347237885684
-0.3279905430149586
25.89669197959312
-0.07630672674085598
-0.3427958684444968
-0.1006707815413226
-0.06633767194048253
-0.1263083762685487
0.4077243331082454
-0.5208735754620029
-0.9177413748850316
-0.6408161217193151
-0.1349887841906098
-0.170135476304019
-0.2855482758923374
-0.1363369632583413
0.1195005869056926
-0.273587090104442
-0.04155914065831723
3.554970020483019
0.1081596518096802
-0.4878030566786802
-0.1769458635596957
-0.2220984856934864
-0.09296633680499737
-0.1053942758183527
-1.028662298944594
-0.2510173303425476
-0.07656884766188156
-0.1758365292618111
-0.1450874755966166
-0.1489776782610346
-0.04561280080104806
-0.1494032658140131
-2.401515824062924
-0.2517534942221629
-0.3290834483733711
-0.09259090953846856
-0.238416622494619
-0.04366129347388792
-1.038465723227272
0.1879153026388273
-0.1013282598963501
-0.1106987219333106
-0.09399048343769344
-0.0708278693623043
-0.4292354176625281
-0.8170731961118205
-0.6574366940658815
-0.8519047853681515
-0.7435140150421127
-2.754961887918373
-0.2163712247277476
-0.7465492525962225
0.05725975896180487
-0.6663420072670259
-0.1047631961744692
-0.07800550174004164
-0.1971528987483609
-0.1382664548931327
-0.06949219714934793
-0.08875215494074597
-0.4692191382995716
-0.9932242882723171
-0.2363315237185925
0.01447578302098704
-0.4979020762288262
-0.1150717058969569
-0.2050081228791776
-0.5400835539187715
-0.01048298151908133
0.01138881238484492
-1.428378728402619
-0.8243478060938967
-0.1098992757180895
-0.5289598543714913
1.531244477188727
-0.006883537582957028
-4.390353289163333
0.1032530811362896
-0.5128614059102745
-0.426541551208555
-0.07564913461547138
-0.08669382567412021
0.07843943673059553
-0.9265459524721659
-0.2125847651048129
-0.2725058775144665
-0.2121917380948878
-0.0521592668273549
-0.1479600134900572
-0.433896702165425
-0.2453701202829031
-0.5139465821605953
-0.6823538033699933
-0.422662169643307
-0.05932990300268714
-0.2668623648349512
-0.2361450052871076
-0.2466505388571048
-0.2333470974157289
0.3539264203043226
-0.07651071880930338
-1.647204627045403
-0.2736875050424539
-0.1770060922751692
-0.7815269661625456
0.05455098329119656
-0.4066991817109128
-0.1907848864451572
-0.9784238055086732
-0.3402076740128141
-0.2848093207240871
-0.07708139530894099
-0.2350730506476615
-0.4734433319029607
-0.9148671172388443
-0.276509443928282
-0.1499372685610619
-0.1028781171087948
3.377387143897628
-0.09371869050905049
-0.9235125243350139
-1.150671016455226
-0.1554724034087039
-0.2475056530901724
-1.413907618362959
-0.695106647402231
-0.3712030820180092
-0.7379167965566674
-0.9091808010257745
-0.5538970727417464
-1.124513631409179
-0.143128695230954
-0.1723116099380645
-0.9244750467007756
-0.205681581879531
-0.4066787655131851
-0.1156449172795674
-0.6050571310212873
-0.4237137738871554
-0.4229829885739435
-0.511675225084137
-0.3258543901057224
0.04037841584342117
-0.8659984085495662
-1.527598058090561
-0.4310012962935887
-1.190781400545387
-0.3250445913026135
-0.3598210626798527
-0.10050934234947
-0.0550960865342952
-0.3053717354377295
-0.7363951969106324
-0.6607702519869013
-0.3294323040792059
0.2893373369836778
-1.714564111088627
-0.5385244641356167
-0.2385417853308682
-0.3532022149151691
-1.593360210721861
-0.6025011833832851
-0.2271367696626757
-0.3414485163694092
-0.2515844564871061
-0.2599429831015331
-0.009629433613032387
-0.2833482364110756
0.07610736112111353
-0.1141005299621684
-0.04958565090982554
-1.568451423328911
-0.3807721303415697
-0.5098146179099476
-0.1366877531285366
-0.5302323907032169
-0.5828406823061961
0.5132505318826779
0.1233215019475861
-0.680026791159085
-0.8077534650279775
-0.1618518665253068
-1.430633487490977
-0.6102217410688001
-0.8200880526709253
-0.07541493354737126
-0.002260992496727822
0.03095414206316015
-1.000602894290243
-0.2662910006880418
-0.1082763229944268
-0.01777427934670133
-0.08965868450775005
-0.08846192194323733
0.09916285719915603
-0.03382793003745511
-0.4646811942711665
-1.398788752369233
-0.3788513273326947
0.06311784201766273
-0.3837508842395783
-0.1742802824396239
-0.1318018804294318
-1.573184191413172
-0.5492097952454523
-0.3919424517508768
0.2452904319817706
-0.1508181362260966
0.03477571544838325
0.1367259236415321
-0.3860119882855627
-0.09840831328518727
-1.743045641033748
-0.5543677777619226
-0.04926944892604218
-0.2292700589932415
-0.1009537237851874
-0.927028337843491
-0.1898198173874143
-1.278633931452295
0.9520911973612628
-0.1462308514177766
-0.4678217003757009
0.2045155567188086
-0.2040359214554688
-0.449895868459893
-0.3410310689213944
-0.5167192587972296
-0.4072018166312273
-0.01789888693431278
-0.2053130430485703
-0.6605739189134932
-0.1840571621221054
-0.3460074530129149
-0.2959237705480844
-0.2641248160995742
-0.3500311934146782
-1.261648068321724
0.2259012512338148
0.07925865065962256
0.4877378458260151
-0.2136762173325379
-0.6861895584550021
-0.3769692701856814
-0.2556674990596012
-0.5046373071044848
0.06707640524150259
0.05319666628091501
-0.3642668804821859
0.07663463675834606
-0.382639086494761
-0.084782466947802
-4.492625989512929
-0.08407452958835354
-0.3067308514874309
-0.01210349548099582
-0.7462619971705271
-0.09185192987979759
-0.04903376286956532
0.03026726567268914
-0.9313219897835111
0.2268801645506466
-0.8140798658615088
-0.6052306451773626
-0.05763495251778221
-0.3241246573357953
-0.4075094596090905
-0.1582816252572548
-0.2537810644065996
-0.6157647017390263
-0.1541299964437676
-0.1085780420766351
-0.07354421876547666
-0.3604937738756153
-0.00129234835132131
-0.08674874620640577
-0.2881147031619684
-0.5738078111995835
-0.1624842226599832
-0.9242970795928195
-0.5159714896515063
-0.7193817125930976
-1.173792420195734
-0.3992866477370194
-0.3425276518918065
-0.5512265984922109
-0.6890686729706649
-0.7374768988917944
0.3002243303505778
-0.4969180629493543
-0.4081832494605381
-0.4785801015817436
-0.6391864477162315
-0.2750406963472667
-1.852590468408345
-0.4487230095152365
0.04887830688535948
-0.07187846869012621
0.842350014048464
-2.313044259597817
0.2260698216604967
-0.1339428130549635
-0.5074320723027936
-0.3751363277246764
-0.0616631642640795
-0.1761896039260068
-0.04481447140325249
-2.481292925177798
-0.04111228028263293
-0.177936001558356
-0.1025572191755577
-0.4348670602489872
-0.0497627168035432
-1.357545900249375
-0.2495177877453806
-0.5329272377604798
-0.01946896201091449
-0.4316809615694646
-0.416405672862337
-0.5919121551079487
0.03561742052664442
-0.4714679664935482
-0.007531629256193261
-1.190234855876521
-0.8771255217564654
-0.2119729101141008
-0.08672868950034991
-0.2418627535017375
-0.707987104435527
-1.194187440947957
0.04468082415711718
0.02056858615757649
-0.1308907522930061
-0.5891435446811063
-0.3210299698909004
-0.2716025907413167
-0.04752197407653354
-0.2880657278095731
-11.85859527769838
-0.1391653026913322
-0.1765477025092758
-0.218083724853484
-0.3555713432012901
-0.7963676445281174
-0.1849430060691319
0.0001233073068288332
-0.7465514198605366
-0.5778668227780176
-0.04706409580289215
-0.01381976114557579
-0.3448771601247567
-0.4451618259179068
-0.2260010508244521
-0.1590965801997714
-0.6731341528872622
-0.4499896055924438
-0.6812389765637864
-1.416234295074636
-0.01812709474619725
-0.7378838768351973
-0.7433150754068479
-0.33663037122033
0.07084027429679815
-0.2157286065338984
0.09804326687525673
-0.5793327401771513
0.1532714735186747
-0.4129306912900036
0.02048108152530573
0.02061738044305198
-0.5841640838827151
0.02328815417049574
-0.5695627315601318
-0.4262693427497804
-0.5521029603038238
-0.6778957088752946
-0.3066458911390257
-0.1583850795586518
-0.1315148762948951
-0.0383739161145343
-0.0764506185618421
-0.2743499315664132
0.6376734423754775
0.01003751878124786
0.1114861304090263
-0.06900933567497573
-0.6742495834944404
-0.2622010256500613
-0.3791256435920153
-0.07327822361444356
-0.1057149466148992
-0.09094092894511482
-0.214335195647005
-0.03475856614102198
-0.4259957413895329
-0.4861065597845136
-1.41157927957648
-0.4943215949710287
-0.4425366390366168
-0.2240819634381236
0.2177557374924549
-0.00525093355381195
-0.6322500587844829
-0.8426316582055395
0.1095276146625488
-0.08721541668688719
-0.03733046747284124
-0.06273797820263136
-0.07714469448403566
-0.05866189964447566
-0.05446865042322169
-0.04687131329734707
-0.3641956255290498
0.09878553044648665
-0.4394577170648383
-0.2835383417537451
-0.5260860771940877
-0.3015616467538222
-0.127923383879111
-0.8266639082344359
-0.198872139642997
-0.5399818565490282
-0.1140992874219886
-1.337431936055516
-0.3405414757289364
-0.1859655795984081
-0.5230994559410606
-0.2456904008967787
-0.6586092417033111
-0.07905875383167855
-0.7013123990926031
-0.07274375376321787
-0.9491115483642605
0.6618997330420393
-0.1098842767398837
-0.575295262153947
-0.3943213209756788
-0.1887432951092623
-0.8403393711203494
-0.6418665379170243
0.06833586049141503
0.03446072057836112
-0.3165043115555115
0.2606314322916993
-0.350236629473191
0.003466303319008128
-0.3441894534799538
-0.4925986555919539
-0.0985508783120948
-0.01432353758717952
-0.4551638046354006
0.04220043697773834
-0.4757736515397668
-0.02157776011263912
-0.9135527061939763
-0.6050085486171987
0.3039797422435452
-0.9991622416101206
0.1736240748469881
-0.1028778260959718
-0.4300574211633029
-0.5150471513010937
-0.6251008471724027
0.004618269819550012
-0.005563096710000159
-0.3519092272495525
-0.2253285819814404
-0.1814977026608812
-0.6978903140938136
-0.2689346715331049
0.3402250707291409
-0.1388285465598561
-0.3512383644297157
-0.4149151786583594
-0.3214743013831105
-0.4116354126381662
-0.73320097512229
-0.2416482531829344
-1.269520999054675
0.3110341757095677
0.1130006830342023
-0.3922160414808468
1.30801924767208
-0.2100329173992354
-0.1537833208207457
0.2191111996583941
-1.512786655707313
-0.03608127985387692
-0.5703225052820478
-0.2940802515548465
0.2573086611981579
-0.3013295100474355
-0.6258746414523335
0.2185119877587473
-0.802408052856192
-0.6091209858675811
-0.6259801119999275
-0.4709958549915891
-0.2354834518683428
-0.1202273476448945
-1.830118685227403
-0.4094604741120508
-1.184928613141779
-0.1688409351174531
-0.07571176016838127
-0.3068847591565115
-0.6633281345521432
-1.069268584964717
0.2228168659328044
-1.763723134438481
-0.3036713628101929
-0.2158493176915227
-1.013076357800086
-0.7544307733437092
-0.2180486024153191
-0.1809562410897714
-0.2130367593732376
-1.238631733199286
-0.7013076186514201
-1.638920778040175
-1.63290475953094
-0.7630607043489541
-0.6959496595802011
-0.03960911414067147
-0.486660707182882
-0.3308009609068427
-0.6413246547740042
-0.4833913088399001
-0.5229358948096164
-0.3753142436484556
-0.2396945923834039
-0.4814905512601897
-0.540463550868747
-0.4405326049649599
-0.4856815465142986
-0.2712649415645613
-0.2102532962075539
-0.01146511374262284
-0.4811339872035445
-0.5728964490253644
-0.4963699959434197
-0.3850948092034034
-0.5982617142816169
-0.7189105503900688
-0.1328393198344934
-0.8624832870783784
-0.114051644056447
-1.190387158761764
-0.420110365721806
-2.153449749340888
-0.2465173446692656
0.628711084089033
-0.4533243799023876
-0.2669783597248424
-0.3823429986258046
-0.5547024679806599
-1.087992159575886
-0.7819189652678601
-0.3925647244334332
-0.1538092354402827
-0.762484335986919
-0.5078240361876484
-0.1755639850206951
-0.7307010164119756
-0.9082731763630538
-0.1858356109283603
-0.2189004820283438
-0.6213566574878802
-0.947110159029205
0.1322211995383727
-0.5562479020600266
-0.4942329213992052
-0.4717519046002183
-0.9533807649152232
-0.1498347676551369
-0.134552374852332
-0.5728418288484782
-0.373466164028859
-0.2578264599570844
-1.170295050770586
-0.6371011242645698
-0.7030718308215026
-0.5439668878959316
-0.34825523931069
-0.4823784561490403
-0.2486607466564283
-0.7494155191343281
0.4707005165967002
-1.581398324658803
-0.4096465967972157
-0.5545264483780146
0.1711914993562422
-0.6834730409470011
-1.13418115595352
-0.2012746292663831
-0.4382807096687388
-0.5568592956054579
-0.4015459092952275
0.09761480143656694
-0.7401285298006059
-1.015599891112943
-0.8951409251350386
-0.4762880939712366
-0.9142330173694833
-0.4945364397936906
-0.1929718839596937
-0.01604457273737075
0.4982284154810054
-0.3170795706622293
-0.3458621597770743
-0.2984651140125021
-0.5277329955088129
-0.2919423983826369
-0.7018758040547405
-0.623470119989989
-0.1233028914799235
-0.04891762064258767
0.3931790211552005
-0.6921961773107222
-0.2683121664777234
-0.1687425157976929
-1.114792672068021
-0.2014746164527128
-0.5286434874366903
-0.3577620196535047
-0.1919959312877512
-0.5863124137634534
-0.9770602909830244
-0.3670350406248295
-0.01532274933604588
-0.4573565636920394
-0.8404027249108138
-0.5066650091413688
-0.4954989756501654
-0.5401282785533971
-0.1135264184692486
-0.7875048907670886
-1.131119490351671
-0.5693928337538536
-0.3995731553282897
-0.8743327713844855
-0.2797506747697948
-0.4984352659784173
-0.8702744082859769
-0.6516833222699535
-0.2256981662751071
-0.2913863400134324
1.673401824406541
-0.05001487626505866
-0.6064834283379167
-0.1476728478953517
-0.1139827466196889
-0.6202544428815429
-0.1647569773255488
-0.5803055338767588
-0.07324967416759767
-1.15705619247126
-0.3986994595793961
-1.456219380652807
-1.739837886644108
-0.8251176993810186
-0.05634169575314708
-2.099600783168306
-1.689271519023285
-0.166395069917133
-0.9591450123731147
-0.1921752461209023
-0.09830421622656456
-0.2095254069409001
-0.3494330361967026
-1.03295357936231
-0.3350630445331299
-0.9355280398315046
-0.6088269089210333
-0.1044188667041759
-0.5135525304826005
-0.4812600402242596
-0.5999125040294664
-0.5272602618545199
-1.646600353656278
-0.799151387846571
-0.6858230472787974
-0.4011880166666581
-0.6429837095091958
-0.4483497306535742
-0.5194952458926642
-0.09512947643150547
-0.4726075713013273
-0.07961481897228589
-0.133378198491737
-0.8015664503818521
-0.5207776914549208
-0.8976619372952342
-0.6257500729846246
-0.3376669147415726
-0.2974266719172981
-0.5024286136834407
-0.9670632054776259
-0.5082338865050907
-0.6739706540282813
-0.3908209206967855
-0.9263794085382749
0.1257653524516672
-0.1461299360967845
-0.2871646677330625
-0.9372391455681319
-1.455121248565494
-0.4611627900367872
-0.7802833864721787
-0.763735006375482
-0.1412834969379495
-0.06788959327287336
-0.3115592258983867
-0.3524881924714873
-0.02571979113900303
-0.06943110989709438
-0.2552478001158163
-0.1243418358150948
-0.880837830422022
-0.2855095730945622
-0.4349412224799321
0.1329235835526913
-0.3602211649207984
-0.0283613813596471
-0.07093164631382429
-0.04980138375616436
-0.1917764214521443
-0.02673472757736788
-0.4376043085010387
-0.1922630560742164
-0.1299029123493022
0.001571886295523456
-0.2551618686993449
-0.5703731590780855
-0.3937350004468435
-0.6735112588215381
-0.09550320226943099
-0.4904989273007246
-0.5165665269636364
-0.4158508865524672
-0.7906269759279604
-0.4636224413500191
-0.5118437966877849
-0.1517114963882263
-1.286738455605901
-0.4907274541566415
-0.6795131269379976
-0.07900721195928363
-0.9402561515876218
-0.2522888564248658
-0.4975143306674276
-0.3754089929869764
-0.08530551705700282
-0.6081999037440445
-0.005631243738093754
-0.5532103993783954
-0.3377280526164338
-0.7810974229248071
-0.08410980151237581
-0.4194426402405883
-0.5414569326262221
-0.1644633816865301
-0.731677203054538
-0.1938506520355481
-0.06695012275746205
-0.5249541622451407
-0.9958087328799577
-0.4756421733741757
-0.3811396152659791
-0.0600081035989966
-0.7422791250953763
-0.8130403436951437
-0.8158230707776041
-0.2518958201177988
-1.104256766182105
-0.2851168442416263
-0.8109921015068908
-0.6507077680271902
0.3156995839631547
-0.4416930987379761
-0.1385483301725061
-0.2542160428674496
-0.3109547938908059
0.04411145058350922
-0.4160319656955625
-0.5884550554486426
-1.000185729457981
-0.103480145025154
-0.5936763955087929
-0.2102546218464697
-0.6975678420668656
-0.8435024296964236
-0.5158400804647539
-0.2250944737512492
-0.3144605299102783
-0.285603962802446
-0.3352663898590136
-0.5747591702444352
-0.1027255022628171
-0.7058131042345733
-1.150203893374315
-1.019901679512425
-0.2147421440215983
-0.5434167940560575
-0.3754292610282143
-1.103515776014522
-0.09268891069092303
-1.123307651306789
-0.1852225603369879
-0.9546886482881071
-1.621155869203414
-0.1011120031911991
-0.3609410799968938
0.1510806503351693
-0.7999557136028261
-0.8959644939915726
-0.7668576354952659
-0.1703658963304352
0.4992450873768092
0.02194033018168374
-0.405932203204223
-0.4272435519189715
-0.6103336558590738
-0.3635836954275609
-0.5126386789510331
-1.25195397203588
-0.3290957279482031
-0.414948976369552
-0.1051121189368137
-0.2892661965330262
-0.08548537351596712
-0.3841229288006741
-0.9011477274422064
-1.201832445088386
-1.428876898658492
-0.3920509812768883
-7.744331785217135
-0.2539656646409876
-0.5406264725611862
0.1150061128549539
-0.0602619580016687
-0.6326362790145795
-0.267831415292191
-0.50861074366687
-0.4689624857808759
-0.9471188773487365
-1.436600501670543
-0.6026230039840335
-0.7616242043901745
-0.7092131754294777
-1.867375391084904
0.1170126799654353
-0.9245425040127051
0.160726982572157
-0.1901149334058675
0.01810936979591388
-0.1194974687314617
-0.08005154459029469
-0.7804448677177029
-0.7820703023040855
-0.3682094760464763
-0.561185748973318
-0.2314083135164979
-0.2986449402887297
-1.163063390860413
-0.1819294741085212
-0.3950000958824125
-0.1457832288965269
-0.3462369136777251
-0.51659446258367
-0.6231814480246646
-0.4215076953994143
-0.4300851148080317
-0.7283840801570645
-0.4790044535647995
-2.418753391627532
0.03069993954452693
-0.5124552649838536
-0.6053880816569327
-0.0776015352121175
-0.2388775064176768
-0.6079556138831042
-0.0807335665621866
-0.08482073104283205
-1.214858708744155
-0.4753366236649467
-0.0681045630010509
-0.1328816883025878
-0.08723027904582183
-0.1357636036986359
-0.51011827874052
-0.1519224661386678
-0.1151143524892773
-0.2310124198722456
-0.06417414891365268
-0.4107804866028264
0.421351660288026
-0.07049658572932771
0.01324331497575683
-0.3804847456648521
-0.08213256800696414
-0.3699628419458446
-0.6549149995498916
-2.850028688964026
-0.3315903629355209
-0.06030580696702748
0.07587793799917167
-0.4034257441905684
-0.08999038305874152
0.008310326687979538
-0.07475564450804414
-0.1430596231034281
-0.138727029973111
-0.09413653313156539
-0.8434206803979737
-0.4589741550637128
-1.261929715744341
-0.02583286005767586
-0.2983469071399534
-0.3216295182235754
-0.2650432837427277
-0.09946776539248886
-0.1087546159480568
-0.2518581160592234
-0.1627327695951282
-0.6547465898718848
-0.5452848185312008
-0.934189224737513
-0.7580922672836903
-0.461535905541148
-0.07412509752604414
-0.2513908582301445
-0.2149898198893662
-0.2440554996304894
-0.8349220255964277
-0.2196165353901379
-0.187674594996042
-0.003289877541954403
-0.28965631629185
-1.461681495269102
-1.494491150288311
-0.1660999843829997
-0.196716852545673
-0.1215565915648913
-0.5996870741145983
-0.3738841110854146
-0.1135341093297446
-1.560085947698975
-1.113089731144304
-1.082303800750029
-0.2125079204964335
-0.1017661984531797
-0.5426464835676126
-0.5227890623940107
-0.3549234437273252
0.06848970960671619
-2.030690390772393
-1.249695461782909
-0.05411287031477147
-0.9772991802326847
-0.542925013491925
-0.6656963566081177
-0.5463803441056042
-0.6648143411840375
0.02392310446678013
-0.07079734157528167
-0.1562659940094372
-0.1307896158083739
-0.1331544268811978
-0.2468620991615823
0.02984751818467055
-0.02969035242956049
-0.6171075501648152
0.1087009910574117
-0.1070067254659268
-0.06465563986681547
-0.7361089458746458
-0.4907259313396979
-0.6695659394442431
-0.9404253826984683
-0.5941116821840747
-0.420539404333743
-1.115326559295838
-0.8220927604510088
-0.4217445023612882
-0.1342713146674337
0.01721660520488738
-0.1867280836624843
0.02410645501483626
-0.1341462568619236
-0.7502863506295433
-0.1295766338362653
-0.3124180204132421
-1.461975129728353
-0.1035398356791727
-1.213053974287037
-0.3650195005815866
-1.069432039767769
-0.01092531000697187
-0.1595664213209716
-0.553983556439086
-1.358174196303907
-0.0730820587673601
-0.1564883875756519
-1.513766741185733
-0.1146912908509351
-0.3766967702352169
-0.6784988472803822
-0.3022645944690563
-1.299976861531819
-0.1688613284570021
-0.2205113925605194
-0.04781994067854792
-0.7262928975674118
-1.27260925580353
-0.558800682131954
-0.7320622512443089
-0.1130741820942114
-1.814134528953256
-0.556888603578105
-1.658231290084878
-0.5671189066382317
-1.112402408180417
-0.7409955291594275
-0.4722289724866162
-0.3517156842636545
-0.09423683706872214
-1.881012137521936
-2.843743404927147
-0.6773904357593118
-0.2167812677005667
-0.05608926644557535
-0.1427885528461562
-0.2768907140508836
-1.411710338285123
-0.1214288921956834
-0.2340282550668757
-1.087918574165363
-0.101883267880335
-1.14808513610154
0.05517332854012326
-0.9947484472180577
-0.5228489876001617
-0.1993334025260812
-0.03980167887422414
-0.7122603073580532
-0.1635388701251037
-2.737359523534034
-0.7036722237850264
-0.2387096546265353
-0.1167699195838518
-0.04514910712717458
0.116904917167687
-0.223021009770557
-0.2982748899530371
-0.7750846833896352
0.1342299024055211
-0.2555013261301428
-0.2666700108379069
-0.4743656915448729
-0.8514562832913316
-0.1062738557681579
-0.9301968668280501
-0.7763729660235056
-0.2512685733294611
-0.08912950650124882
-0.2456100634446614
-1.453532331949158
-1.651458953311849
-1.461311276601788
-0.4100274260156194
-0.07381427296406437
-0.07607176366732625
0.1309568186565727
0.03217554575125667
-0.3995982451119776
-0.08229605791551101
-0.4513976561544834
-0.2211117840642739
-0.09636026786012232
-0.1788714666843401
0.003363320897681262
-2.420440393349695
-1.050004827188698
-0.111046372854069
-0.4212463429755868
-0.1606279478142913
-0.4329058437319587
-0.07260580536551373
-0.1886106065462597
-2.305124895023289
-0.7405234390894213
-1.110324528639487
-0.5762152627739843
-2.631132125019872
-0.4820122192340355
-1.562964220303233
-0.3658910156689626
-0.09604406047144673
-0.03878728873742125
0.03915083308230307
-1.344972338789566
-0.2549396989935783
-0.1331394827253084
-0.4223700832421565
-0.03672932037508285
-0.7625103424471038
0.003936329559719356
-1.798944899970659
-0.04387158118221471
-0.463772269194349
-0.1246926413423456
-0.1381736787972268
-0.2330871222987782
-1.291829460339797
-0.2812259100683719
-0.9258429793930828
-0.7565623376788352
-2.746839720090967
-0.4888159189050966
-0.02897976331370099
-0.7135332619468842
-0.1565078463890809
-0.3954938179568683
-0.2017532987761496
0.07475385719519761
-0.1331796593993732
-0.9911638307883389
-0.4205865665142071
-0.4380562895100465
-0.4008888536826347
-0.4806202811954613
-1.173848977380005
-1.527636700566523
-0.9308842928438269
-0.7621245446916287
-0.2897016464265749
0.2569155903660924
-0.2337682646067505
0.111494317544957
-0.3492502481436998
-0.5152182033539698
-0.2858996183535729
-1.177602887909561
0.5022939181739315
-0.2309779768595643
-0.4555875612788295
-0.2590756375100308
-0.1561374140614168
-0.4159223036649926
-0.7389235088679109
-0.09437184649343776
-0.4528776507992023
-0.6177006234639412
-0.5937642462469646
-1.71313917701131
-1.324286200698336
2.463133630362672
-0.3807436651982253
-0.6589582602133007
-0.1237552217170596
0.2378652986809968
-0.3462852403159248
-0.2152836985100857
-0.2437205794787389
-0.2118795270426593
-0.2956942525531962
-1.772447939030179
-0.542314683408574
-0.4936125406793588
-0.1595111162060062
-0.6216539305824783
-0.7106178200150026
-0.1866799198618904
-0.351048595338639
-1.495796935761583
-0.2073804266562624
-1.170180529419982
-0.1722932079027201
0.184479022341283
-0.4376469409923967
-0.4579518632050558
-0.027442358816285
-0.5605553662945871
-0.4556773491128876
-0.1351689282231022
0.190163055771172
-0.2531275128453868
-0.004033802408330022
-0.1259808249174596
-0.1368555009825035
-1.590274335033375
-0.3804731079499416
-1.595576833993492
-0.207533259575286
-0.3399259048248722
0.06982976464736271
-0.3070851741846007
-0.02723242601267217
-1.166014061955098
0.126263084843696
0.4984704849235317
-0.1261155868512078
-0.9723103264926678
-1.25914023517915
-0.036129946166486
-0.5607136001777958
-0.2683478163707349
-0.2120867205627805
-0.4709217822895884
-1.085975849776404
0.2219293625345265
0.01973184712130962
-0.0321772992179325
-0.2293937867681618
-0.1064362796976263
0.8741363552529969
-0.3433339397310153
-0.2412807585795263
-0.7375224273817313
-0.4519237179497012
0.3617833459006414
-0.158606035955081
0.7632716352204209
-0.6334205838044638
-1.330531829112539
-1.189198546425528
-0.04715034284057288
-0.1868131033389098
0.002451507880009303
-0.7716869636585411
0.1912759061830136
-0.2707323792005463
-0.3574227526205717
-0.8785960943571709
-1.35647521737521
-0.0633279535605038
-0.1957669517388279
-0.1063599485489818
0.04585233016768443
-0.7565454763088851
0.1520371601264618
-0.2627745892949421
-0.4029982543147776
-0.0320378281959115
0.1253698907528892
-0.0532910352635874
-0.9970126002864789
-1.104099276550802
-0.1550821041568824
-0.3561183805637935
-0.2312371268929825
-1.044509446606521
-0.005842725368804274
-0.797031938913724
-0.1237294672492429
-0.02115829102334285
-0.1152366518360334
-0.2309528407714762
-0.1261058737502319
-0.3514996274587595
-0.1105859168896474
-0.7648660838999503
-0.2402251894126253
-0.1152237082409993
-0.1112683589247861
-0.4442647820609332
0.01971925093560922
-0.7128105955817724
-1.202690732171426
-0.3472507377717108
-0.1495205991349733
-0.456010922977596
0.06798002953328182
-0.1265876560393271
-2.012442387319847
0.0514499116906769
-1.564799798561275
-0.2743562607214915
0.02560323451212526
-0.4249053667540838
-0.06847049564925346
-0.4826559515194921
-0.1406163017832659
-0.05611285229988513
-0.4646177332108378
-0.4021710571013923
-0.4570308411695749
0.02568058644082955
-0.8777719822434045
0.06334803934905221
-0.1384860362516841
1.108943558921401
-0.9614303003068913
-1.84912712008878
0.01831017582284648
-0.301778760050218
-0.3241498340804064
0.06640897456721284
-0.2668205281689568
-0.7490158207194895
-0.5042700807478765
-0.1964606152397979
-0.1765862891690468
0.2377724110384392
-0.8741243658495557
-1.767918519892477
-0.8876547938903393
-0.3774192666276853
-1.454885361168857
-1.155082871097175
-1.041605712388012
-0.1635935327070254
-0.7300449937446634
-0.1503928157171543
-1.189150162054609
-0.5524794067773191
-0.231593836922088
-1.059214731060457
0.1978150456517732
-0.8294852591408526
-0.1479624052545304
-1.487942576795185
-0.8169281871882327
-0.8201390201131661
-0.653351548274876
-0.07249409071675877
-0.03331210597093014
-0.1126612288390356
-0.4632900999410818
-0.7918326565777269
-0.7684177493129429
1.055461403738193
-0.3971906328132089
-0.4446476378325362
-1.574428034063685
-1.105969331614127
-0.8964729223969521
-1.230900906812385
-0.8102965960119356
-1.02212744754519
-0.778939464888344