/*--------------------------------*- C++ -*----------------------------------*\
| =========                 |                                                 |
| \\      /  F ield         | OpenFOAM: The Open Source CFD Toolbox           |
|  \\    /   O peration     | Version:  v1906                                 |
|   \\  /    A nd           | Web:      www.OpenFOAM.com                      |
|    \\/     M anipulation  |                                                 |
\*---------------------------------------------------------------------------*/
FoamFile
{
    version     2.0;
    format      ascii;
    class       surfaceScalarField;
    location    "1.3";
    object      phi;
}
// * * * * * * * * * * * * * * * * * * * * * * * * * * * * * * * * * * * * * //

dimensions      [0 3 -1 0 0 0 0];
oriented        oriented;


internalField   nonuniform List<scalar> 
37503
(
-7.332717633093057
-10.99459142465493
26.10036369155867
-7.773054634122032
-11.66025937545556
4.922138823430132
17.2542232012639
0.05795022591566313
-0.5636377724970473
0.8631850628977454
-0.3574975163065526
-0.1028262273051765
0.1274634765946483
0.001467440704108348
-0.02610468997389869
12.35677132455266
7.207296905611877
0.6028593035278905
-0.02410987841280341
-0.08453707243257824
-0.4942123526467708
0.08207123755369289
-1.616054421278936
1.579488897030837
-0.0455057132151538
-0.4200701028938342
14.44077960151632
-14.02070949868921
-7.795937140524278
-5.737701942970646
-7.803211207282191
21.33685029054036
1.79725660348736
-3.130252997506876
1.480749842007331
-0.1477534479068083
1.500250512525466
0.1851727822417419
0.397169464229195
-2.082592759040399
1.705489894088742
2.119941655733515
-2.720145806940322
-1.10528574305057
-0.02284516540565806
0.003253681496859592
-0.0278965415958718
0.04748802553282704
1.092412188492034
-3.577118515786792
-1.013458085810893
3.498164412806682
-0.893643889030041
1.974779038322329
-2.777993009560995
1.696857860081545
4.330379687156729
10.50825446922144
4.581807813651601
-0.01647698870361278
-0.1564775958968706
0.1359712528526705
0.036983331797689
2.096818055800106
-4.625607866549324
-1.996575018079694
4.525364828563495
-0.3412395220922327
-1.268138421398123
-17.16602443628185
12.71788521921242
18.54714971896027
-6.602544418021957
14.14458481459573
-8.101957064706856
6.871515279944644
-7.97070451855168
9.20114630320885
20.13603620674644
-25.64606794876941
12.03156737651284
-0.06232919316139013
0.4576072908327317
0.03478637693183965
-0.4300644745830603
-0.4547878301678367
-2.185134059640846
3.732334078123428
1.399096241124132
-2.676596186853594
0.3838560565665893
-1.442918405501481
1.925664766990002
2.210941706062927
-2.693688067793099
-9.738340065863849
-9.502492359186718
0.2305444174486626
-0.2861803807614923
-0.05373543325361278
0.1093713966384829
-2.32423108967725
0.4526024678915877
13.12505760107162
-16.19812839829532
-23.77374998541437
26.84682078288698
-0.1481707773390899
0.1344345164890983
0.06998841954340727
-0.05625215865694189
28.29082864562535
17.1186417368313
-17.58090020245318
-1.552290640043379
-1.000286670110371
2.097789479754072
0.2346537552720991
-0.01086321327062683
0.2006298988327744
-0.4244204407773075
1.333903837167654
-1.168434466410696
0.5089725238856596
-2.06585586599911
2.72531780833995
21.4385435004338
5.067052969060206
-4.444262480258653
-22.06133398951157
0.05023317480308189
-0.3094273986795124
0.119545209324461
0.1396490146121679
0.2962282935279218
-0.6218056619694007
-2.132115046867848
2.457692415428233
-0.03834543357830936
-0.2210711385670913
0.375718137734883
-0.116301565544376
-0.05443236070150576
-0.05027772144753256
-0.005051797663265406
0.109761879838153
-0.4978978092598864
0.4511723366687728
0.2979513287448603
-0.2512258561007057
-0.06719581130959719
-0.3538489123530495
0.5563478669884468
-0.1353031432269818
3.775859496638533
-2.501936089313375
2.401420623912999
-3.675344031236435
-0.1255412472202235
0.02401138905506696
0.02343743513631676
0.078092423059326
-0.04366738332978019
-0.08078953982660399
0.03637912392807047
0.08807779926395271
-0.02310136857327112
0.115648037158063
-0.1397830985876528
0.04723643003142496
1.964936582748575
-0.9873006828737282
-0.2485504297902369
-0.7290854700566375
-0.6623020734512943
0.1832530072541717
0.3243043041351186
0.1547447621972548
8.749813163857169
21.034227840051
-27.24346182353522
-2.540579180396363
-1.267136605297807
-0.08409790269953162
-1.368911299018565
0.4415015640787757
-0.1141739322839701
0.07896099522768896
-0.4062886269950738
0.8265967454936273
-2.16567628693601
-0.9851515483556004
-0.210611911230633
1.515418672632085
-2.092401717590364
0.7875949562978343
-0.1617432795354976
0.211594593543956
0.01128492899587862
-0.06113624296650924
-0.2335718235085253
0.1213094780711642
0.1705633380854139
-0.05830099260555728
-0.9007795485450752
-0.528303243165213
3.164929498529407
-0.04770810640308765
0.3263538719905991
-0.3196570770045266
0.04101131148868842
-0.007510586107902013
-0.1040928912460882
-0.02431306473303564
0.1359165421373015
-0.008917027431342071
0.05860655310864317
-0.07408282373476287
0.02439329808985889
0.006818323546551772
-0.1350891949094317
0.1201058030902872
0.008165068310312521
-0.07280527490890341
0.07348287921861896
-0.02899492810951904
0.02831732382000319
-0.2367074704202614
-0.2335073569982565
0.4598512661530325
0.0103635613409245
-0.1205775020961676
0.09656985891657761
0.04138437536540904
-0.01737673215258285
-0.1076546028285237
-0.004464161333462421
0.09750670934327486
0.01461205485205904
-1.939345725631083
-1.166304299599531
0.08821965265856439
3.017430372306069
-20.03668120148393
19.27030743579492
0.7663737656473472
-0.1498383792619631
0.05393981868415283
0.07335491727273627
0.02254364334294627
17.91592118557315
-14.76267662594326
-15.21940254734668
12.06615798744631
0.08464918117736675
0.02694646093859702
-0.08330924946363702
-0.02828639260043947
-0.1541037606872605
-0.4894871638763286
0.4373413772269278
0.2062495473948274
0.1274537467615824
-0.5856544246796931
0.4862046843118737
-0.02800400625708165
0.1496420693912263
-0.0855839949047941
-0.0720403001810169
0.007982225744704322
0.1973117990404023
-0.2218389197364223
-0.1552755936210209
0.1798027143883359
-0.05615337420098463
0.1414628276155083
0.1750763374687666
-0.260385790838315
0.8486988487714248
0.6104980685531098
-2.195858301823816
0.7366613845648652
-0.01416301031000086
0.1215372378814336
-0.05151874716759257
-0.05585548036236505
0.06016925806572165
0.01331172772964919
-0.0395400161726289
-0.03394096958450824
0.8198918920936383
0.836298789584899
-0.04731923502260674
0.01831248566775495
0.02900674936887357
2.930820675776833
-1.698013266957643
0.8534964565416731
-2.086303865305889
0.2322025100826225
-0.09972946569562352
-0.1139420954393748
-0.01853094888504805
0.09841397017547192
-0.02685186399813623
-0.05003035950996576
-0.0215317466333218
-0.07610241720542728
0.4412355851190979
0.4037575958871459
-0.7688907636824354
0.257003011808222
-0.1858386588310395
0.1578544305009376
-0.2290187834504073
0.1145063086313916
-0.1674152571908324
-0.2477384416126321
0.3006473902270369
0.05941191985122227
-0.1233904709325082
-0.02207438292810813
0.08605293403720453
-0.1002535462874833
-0.01752160970885402
0.01494892870409483
-0.06185205012628953
-0.1095493911339608
0.08403607421109499
0.08736536708790504
0.1912195723519106
-0.1113820201947735
0.02155373030800872
-0.1013912824503688
0.9172787993351397
-0.5701752708710968
-0.3814687534555234
0.03436522514304355
0.07260467025165496
-0.2851834437557664
0.2953359126677092
-0.08275713908825347
0.2560893657033179
-0.03790576770987884
0.01932516026789141
-0.2375087582059022
-0.06737636391325123
-0.236839244290374
-0.181231427883606
0.4854470361078275
-0.03900243777919757
-0.1941725530305769
0.4142942158851038
-0.1811192250371775
-0.1230876751956873
-0.2551708621398505
0.08314439154464517
0.295114145824502
0.02933274541717518
0.1457849773915799
-0.1964908649969823
0.02137314224341241
-0.1001342314876805
-0.08560773167424263
-0.2547365559762427
0.4404785191752156
-0.2026679629720795
-0.2850393897634887
0.3423430788619932
0.1453642738875186
4.806737094162307
-1.498054218747302
0.04694917140118003
-0.05002269251673631
0.003073521139342325
0.9924157242502208
-2.218050837099529
-1.450961074119282
0.03326139528103271
-0.02445030528735577
-0.008811089979011533
-0.1940257389367993
0.04976832076765172
0.02160366975163475
0.1226537484546604
0.003000054548136947
-0.06782253549115135
0.1599806504043901
-0.09515816941589669
-2.328609833342985
-0.8168597783656599
2.609213843106827
0.5362557683965746
-0.04496042306189565
-0.0815839941448346
0.1388670713342857
-0.01232265409767696
-0.4361369977188402
-1.183727138044951
-0.8603298600467705
2.480193995771439
21.1035624774874
0.0275478425265235
-0.2632978726232868
2.838391364030754
-3.743527957869057
0.05540190946300119
-0.09982994251245844
-0.02954339295507942
0.07397142602708257
-3.04388404567875
4.875804009366656
-0.1499917872805456
-1.681928176162973
0.1017752103848991
-0.05942330255434266
-0.2684816554857312
-0.2767796065426885
0.3778676692140505
0.1673935928639612
0.1796966916000306
-0.09407780651362302
-0.02439678478049682
-0.06122210027878465
-0.0696012891557098
0.2358616095995801
-0.2337480779956857
0.06748775764023272
0.1836240248653704
-0.2898238647178739
0.3020520533513323
-0.1958522134391664
0.03007594355876697
-0.01614098376259785
-0.04407630578900015
0.03014134600870825
20.20557218474551
-18.64969977034792
-0.4853051883934079
26.77825392112312
-26.7130188357473
-3.3582118058261
0.2449723971740038
3.841125786110496
-0.7278863776532825
-2.045263525018136
0.3435573131172928
0.916652538442178
0.7850536734599001
-8.043490482221239
-4.820453187926812
6.950047116043264
5.913896554628326
-32.28489359291815
-26.50732463353626
58.17205908164359
0.7574940913510412
1.590539761446019
1.384300225167374
18.79494160403566
-10.90423259646957
-7.890709007540443
1.196391359198292
-2.364825942763353
-0.06885801145169894
-1.716719273865696
1.137616132246874
2.326376704055721
-30.72888932514959
-0.9750557862526015
1.493018587426639
30.21092652369509
0.1020598013967499
0.00377319970230309
-0.12331793638677
0.01748493533367446
-0.1641164524388528
0.008462749778390505
0.1556537026884893
-0.09627346529643777
0.03177195693450083
0.1007958010503007
-0.03629429265324856
0.5421656335798156
1.427493731980445
0.5339882057319145
-2.503647571553362
-0.612404921367336
0.2094598550203844
-1.771572164410842
3.107141433629112
1.928624048297547
0.7565851835498958
-3.472508182229141
0.787298950483319
-1.903929877331566
1.862347460354724
-3.114642334805758
3.156224751457007
-0.3774902367062883
0.178254540705931
-1.951319252359225
1.675771661664636
-9.04176312414083
-9.788810373127509
-0.05496228221301335
-0.149997571568291
0.1152851301270154
0.08967472370458221
0.1169081899419814
-0.3408048127807987
-0.3551521842199826
0.5790488071771516
-0.520313384484907
0.3607423793776847
0.1208168979486779
0.03875410729169044
0.4578722117292406
0.2155257150409041
-0.8246778485669731
0.1512799218625263
-0.3542144533268333
0.4854772794292175
2.206019379666146
-0.1465335090672081
0.05959358342419714
0.009415519837167248
0.07752440582031538
0.00603707288945768
0.01958495738327365
-0.1189153385858547
0.09329330833093537
3.126430233012977
-1.077608935147627
-2.596514102537887
-1.164532607570918
0.5908385996383485
4.754552326266404
5.576095834955874
-10.92148676096222
0.1897534704222613
-0.8774459916496451
0.511192817596859
0.3662531740684615
0.07315403170076361
-0.2780893368831734
-0.2137822721666036
0.4187175774107179
-0.6440905754050106
0.24513705144439
0.5511082945751595
-0.1521547705477046
1.798680643350551
-26.16784476401163
1.769733819337629
2.854021828455744
21.54408911612126
-13.89534723012125
7.778230812919758
6.707955016583345
0.1913816753971023
-0.05169781172654388
-0.1515032623399395
0.0118193986996829
5.07043107473625
6.225698708152598
-28.70729589888608
17.41116611563175
1.654756210097913
-0.779340580197333
0.2827874759820816
2.679744424972225
-1.766140541913057
4.076463391838214
-1.736000394719298
-2.958465483367005
27.59919714602045
-13.60321185917791
-13.9959852870473
-0.08763543256022713
0.002135299441843627
0.09746335009755733
-0.01196321694415533
2.421498264913996
-3.669947685897891
1.986832164137561
-1.915014127249475
2.766573326977148
2.375913544831973
2.258926716842332
-2.213341996898842
-19.11385772604182
8.364039757223821
-8.174459344988186
4.376327248708567
-1.547811236103426
4.245758880901673
12.6069933187158
-7.791955906674991
-4.257316715237598
-0.5577206965983897
-0.01682444433312242
0.07940265328881563
0.004569223829423369
-0.06714743274761341
-1.287784778706172
-0.7404215603489391
-0.4642946674194784
2.492501006619576
0.3797878872693988
-0.2131371910242361
0.1231870878115221
-0.2898377839999325
0.04551858755385067
-0.06424674234354605
-0.2148436686834952
-8.092586854109012
9.070207175582155
5.243917616970045
-6.221537938499832
2.652149773611016
-2.02343015344517
0.7441822671480783
-1.372901887118935
-0.06542143096185839
-9.18419711828594
-1.720537169429534
10.97015571929406
0.2358598350166948
-0.18215515243622
-0.05370468256550775
0.09815098058781045
-0.1745963334644299
0.07644535290861262
-0.05802737094530798
0.2895946975535291
-0.05738851902541587
-0.174178807544433
3.703281869404295
-21.70904681999629
-4.080578284837056
22.08634323523589
-0.1499586444827238
0.1417186865456276
0.163889889847492
-0.155649931842241
2.631621840750985
-1.264478181266417
-1.80328065725125
0.1937216374268661
-0.09557065681362012
-0.1478077998291059
-0.0580545870216269
0.2343523817354035
-0.02848999482264435
2.946102943947132
-3.515847427117774
-0.04655954960581266
0.6163040330178648
0.3654587776696858
-0.02683339247729187
-0.02002868072856394
-0.31859670430479
-0.005928184392553724
0.007777544231155883
0.09060808619254349
-0.09245744599454091
-0.4367243259745262
-0.1110508956476144
0.2681253963513377
0.2796498253636129
-2.305074088146244
-2.112287477577497
-1.456366238489171
5.873727804145335
-0.09216434151967197
-0.1623296560328614
0.1085051040089268
0.1459888935673296
0.05385080048941682
-0.1508737338855208
0.09702293343116895
0.06938970139920572
-0.020602108049096
-0.08514370510196818
0.03635611178896874
-8.26233656160189
-0.1342140642617391
0.005965770144680008
-0.0152756507383869
0.143523944898243
0.0202333502838629
0.04066207791081218
-0.0608954281576393
0.02915434048350391
0.06156388471273969
-0.1087596501749777
0.01804142501735044
5.880899453970554
-4.030637750513809
-5.327465063415908
3.477203360258198
1.967481272639021
6.103705616580431
-2.418366598504194
-5.65282029060003
10.21312914862881
-6.594750306671002
-20.84260941321432
17.22423057103619
-0.07668625057706842
0.05805924611435338
-0.08719402119172466
0.1058210257053685
-27.95117622172615
14.99226800961067
-4.207116224201178
0.7143934668630736
-0.3618194360662384
0.7119040692471159
-1.064478100090795
0.7268294917396321
0.1481348859348941
-0.7190363486575195
-0.1559280289617259
7.74033041378099
-0.9925784950633835
1.900175882397598
-8.64792780102095
0.0951223156781628
-0.1251638419605242
-0.3310437776457909
0.3610853039742698
16.93289465466675
-13.36967528267684
15.23172223205685
-0.6375066950267808
0.1855297390341871
-0.05790096473437999
0.09801528046505127
-0.04011431571067808
0.06542408949768853
0.1223454597871587
-0.1680720279477331
-0.01969752130655612
0.1077771753718001
0.03166827470880267
0.01931202598341355
-0.1587574760034863
-27.12280701932902
14.83740222245885
1.239151852023027
11.04625294447
0.3211999602002872
0.4524992633471436
-0.3800289604850539
-0.3936702630173984
-12.7459705865145
16.41582104904272
0.08045346912782664
-0.3742267027368577
-0.1070551533035266
0.4008283869962447
-31.87447664232305
8.955988700054712
7.539956931464495
15.37853101065805
-0.1616270734845012
0.03735298040297612
0.05667737853661606
0.06759671458529139
14.44339179931346
0.01616226462413805
-0.05745837630962432
0.002895796631258526
0.03840031507866053
0.4452188796100377
0.064998812141847
-0.5490046576667996
0.03878696592427731
1.433796665602942
0.1570576551332133
-1.021674495159019
-0.5691798254363786
0.01126332588820903
0.3964961590957854
-0.1191184885893607
0.05443768937562466
0.2040221718485019
-0.1393413725764013
-0.08185115961477354
-0.1250408781132058
0.01447917333532546
0.1924128644119993
-0.2117367292858439
0.02062680144396313
2.344694285509355e-05
0.1910864809510356
0.1429375741821217
-0.05002811545508096
-0.09290945868770574
0.02091406517914293
0.04572903241646618
-0.06664309756938475
9.734862350943439
-14.15309400140709
4.418231650545453
-0.06099587406527962
0.08214014466883698
0.1801786298131392
0.2174271733855792
-0.1399142985426048
-0.002772626703118024
-0.07474024805811758
-0.1013918058974009
-0.3025285623214827
0.8353751052965127
-0.4314547370378141
-0.1317879651948602
-0.3745552578819033
0.1845516061601351
0.321791617014255
0.2115540298341278
-0.3920111072712135
-0.3729579658758239
0.5534150433402762
13.58642027445811
-26.20874020531105
-14.5004870887747
0.8842252169343816
0.4574774904187732
1.765193764315236
-3.10689647160918
23.3355665320102
-25.37845988536474
11.11100622694459
-9.068112873716853
-13.19070322683621
-16.14409590049776
10.16103324310073
19.17376588396118
0.1383572940875486
-0.04984263936777352
-0.08851465467273115
-0.0247957951331872
-0.006925081845514558
-0.1037296116460268
0.135450488689669
-1.258657447142175
-4.793402187244086
-1.00997837375946
7.062038008176737
0.395660123854702
0.09260861363524062
-0.5697881781336371
0.08151944065746013
-0.04883185093066238
0.1487532015117916
-0.02221606350129184
-0.07770528704008403
0.04462572754330296
-0.0128082567685016
-0.07945743624571122
-0.02550790601645656
0.06058032604800915
0.08784982406071506
-0.1229222440234222
-0.04887248704431052
0.1099781875606162
-0.06110570049205288
-0.04422746847560661
0.04644336357674166
-0.1342867521397346
-0.05441439900428629
0.1969863469687953
-0.00828519576049834
-0.04838092085048332
-0.04340831571460096
0.09178923660767306
-0.4484469983716471
-0.04002168852883393
0.4146575300259582
0.07381115692866655
0.1998076738195703
0.1780751485149301
-0.3276496474916393
-0.1399545973275903
0.08741992528318093
0.07465730249947557
-0.02212263040832904
-26.30797072614617
25.37647922592581
-3.7048877297306
4.636379229635782
-0.4738936874049358
0.1015329031755969
0.2962817858300261
0.07607899848413315
-0.4306727246295842
0.1716949089356509
0.5497928773854399
-0.2908150616378463
-0.1660846483448363
-0.01702422103269728
0.108283222536669
0.07482564687766437
-0.06784251858430426
0.2787654010448885
-0.2445119234248808
0.03358904102009188
0.07170047207310259
-0.2212681471070937
0.04297595102568928
0.106591724055033
11.5260549700832
3.350202881406986
-1.512390759361212
-13.3638670922334
0.1161753841403237
0.02260074727147887
-0.09565522963592402
-0.04312090172927785
-0.07744351698351297
0.2093605496815849
-0.03491299598442764
-0.09700403666010333
0.1221472797442667
-0.1278358347730867
-0.1689077784005923
-0.0451126904416962
0.03940086496886919
-0.0453060614642692
0.05101788696377351
-0.06043611509304269
0.4352784052865686
-0.3210568485806332
-0.05378544157567038
-0.004373030962370972
-0.2470646466456832
0.1772710762426127
0.07416660142052207
0.1467203470827965
0.008772195872608517
-2.338245883826984
2.182753341084171
0.1309302794477283
-0.01812123679199142
0.03065636456303686
-0.1434654071813318
-1.381436478320484
2.069433765903719
-0.2323089953549593
-0.4556882922160121
-26.46572896430039
1.212977828534977
26.91272468945732
-1.659973553832954
0.07501445859967051
-0.3191896982434617
0.3333506107127173
-0.08917537095924076
0.1150189230816729
0.02343233437919895
0.07728298461227193
-0.2157342420280632
-0.07300026876734836
-0.01690392483953012
0.06376302488984342
0.02614116874509169
-0.5302438740037125
-0.6090264309274604
0.5954725073813822
0.5437977975708785
0.0559476364658611
-0.2585099892673494
0.2048384098456453
-0.002276056971650358
-0.143751432381483
0.03203080807114431
0.1923457067368092
-0.08062508238754201
0.02958179397958269
-0.1070839707386064
-0.01303657450664761
0.09053875128546533
-0.38227618392202
0.3654648683936145
-0.6582173217578504
0.6750286373777669
0.264911211616995
-0.01498889535660516
-0.6537697493043488
0.4038474332463795
-0.06128505054587053
0.1421480181800408
-0.05402203958836192
-0.02684092801236073
0.1353979529456752
0.2797567872390385
0.01084211970198701
-0.4259968598474814
39.26963538675833
-25.21976374385614
-18.13735800710474
4.087486364111119
0.3503270726888978
0.09984164652026553
-0.1658008010859869
-0.2843679180654009
0.00864320747816894
0.01308960957074445
0.2074177263161245
-0.2291505433100375
-0.6584593161682786
0.1286746689242098
-0.09408146533683749
0.623866112649397
0.09226617536492061
0.04148861365183473
0.04626596450400407
-0.1800207534865684
-0.05409341216543109
-0.04049611879851318
0.01541395512740531
0.07917557585888714
0.0418610761365015
-0.4120393429683953
1.717562013392354
-0.8502122004319361
1.278741942578502
-2.146091755368161
15.53558758379577
-10.95826434785772
-0.04157880950774208
-0.129725587496714
0.1268371849137864
0.04446721212820647
-0.0004249596129746326
-0.1301425712797358
0.02401733517650236
0.1065501957456643
-0.1413393883995628
0.1359806652299388
0.03572346621568844
-0.03036474300013446
-0.2334369575607349
0.1054397763043974
0.3194804524962755
-0.1914832711860849
-0.08018313844890086
0.02858811025707372
0.02336294404702425
0.02823208417614529
0.08369342360362719
0.03218830513607986
-0.003478813693099106
-0.1124029149972648
-0.07264480370002688
0.05773682942368051
0.09535743722149606
-0.08044946290979779
0.4471601367154376
0.69358116116616
-15.12710782133826
13.98636652302177
0.1594732796866953
-0.1693025399404469
0.01262851313792054
-0.002799252844589647
-0.1663048497940784
0.04273871520042078
0.04357540934397917
0.07999072530449224
-0.1900288530777161
0.3419655493760797
0.1327807565903373
-0.2847174528148026
-0.04153075373525358
0.04995051777291989
-0.008419764011670234
27.7255314723347
-28.4983428712716
-8.405998145311834
9.178809544364276
21.4341666896863
-2.712728796616275
-21.8193616390925
3.097923746033191
1.955356997024463
-2.180855788459339
0.3222293259634974
-0.09673053437933492
1.836762908726973
13.04087895616237
-8.347070761097561
-6.530571103758441
0.1545354311993309
-0.04453980606800402
-0.1099956250850465
-0.003243129024607029
0.00683559362965449
0.08416769005232706
-0.08776015464187191
0.2790479798708596
-0.1210547649936308
0.4399124546738714
-0.5979056694957963
1.82791192117323
-0.1426847052573395
0.2889967110782009
1.207684268074508
-0.4722406823494761
-2.037401632061367
1.301958046401538
-7.314802961970592
-0.2666969150782256
-2.435091841145538
10.01659171777501
7.637734359624733
0.8937496520647447
-8.212003936252104
-0.319480075280809
-0.3141102116669064
0.1305677333161794
0.1273891041878747
-28.73766252917435
22.22889540566156
4.516391143922883
-0.100710005045587
-0.1680126832285448
0.2297202505149946
-0.00367252510923601
-0.0222371575522717
0.0259096826748727
0.09448559584404426
-0.04709408920403518
-0.1469419098155724
0.09955040320361175
2.731654444976392
-1.726811355332609
-20.01841865246001
19.01357556252741
0.5540386020638464
0.09830344872672367
-0.77416870386172
0.1218266531424219
0.04952882032216379
-0.04526707912393161
0.1372010864425377
0.3580013284873317
-0.04106594987519981
-0.5105552492488113
0.1936198706671834
0.1397892922478382
0.03619166403557215
-0.07636448372136709
-0.09961647253404593
-0.09287686786236153
-0.4150587999626077
0.1978104445959077
0.3101252232606335
0.2730081541960732
0.01701204888398047
-0.264393531736366
-0.02562667127970852
0.03524326200786471
-0.1950462047610076
0.02880923451172305
0.1309937083204248
-0.03600989228338144
0.4689759546578286
0.2612159805347693
-0.6941820428467502
0.1997655860553093
-0.2530955717340808
-0.2695267435880727
0.3228567293544011
-0.06267119332296531
-0.2872088537481297
0.3017170621695544
0.04816298501491668
-0.03879512357363275
-0.1451238244259151
0.1839189480384803
-16.86261318686249
15.59241228605192
-2.59546677957985
3.865667680746075
0.08480713615715485
-0.1236022597157485
0.1128495958197719
0.0845708013170957
-0.07294698515280663
-0.1244734119497741
-6.824819355116762
20.05680760824119
8.20655524709111
0.7185261784346896
0.01824178814070811
-0.4577199866820894
-0.7981305207321279
-0.3185966634691434
0.6585216127337239
0.4582055715900873
-0.03359300352200194
0.1168307592286179
-0.08117875072381257
-0.002059004944294708
-1.062772791501344
-0.402158709047044
1.354287572543708
0.1106439282441827
-0.002089913978928544
-0.01217918149382407
0.04434503904680377
0.1307187217841368
0.03100240375165857
-0.2044984510404758
0.04277732553604922
0.08016640109468171
0.1353594568595595
39.14270209310553
12.39408139180731
-37.35636093151503
-14.18042255364693
0.04529917842615461
-0.08690122345857028
0.0005019785909273103
0.2843716598015197
-0.487541601339302
-0.3489898535480751
0.04906739535140191
0.350524920142684
-0.05060246186707566
-0.2687428209299479
-0.271514660419133
-0.1739418287517874
0.7141993102169161
-0.1333658450689375
0.1774046860890958
-0.08330669670364015
0.03926785571522354
-0.5646873099220349
0.4581429508341985
-0.01677591441420491
0.1233202735437531
0.08207566703323145
-0.003120413845594654
-0.02285956463925189
-0.05609568849310476
-0.6581093169823503
-0.1062091310074885
-0.1433657767762514
0.9076842247506961
0.1205177328459065
-0.009685880771607496
-0.03588889592414061
-0.0749429561113637
-0.3632911248270256
-0.1113674489791049
-0.04565481059796471
0.2453245870238104
-0.1741012845814608
-0.07122330240916115
-0.03824227150033163
0.02208811885059001
-0.11828043031215
0.1344345830075646
0.03289626989802658
-0.1162381148062722
0.1048350903636657
-0.02149324541048915
0.5363839579895263
-0.7401084457288327
-0.121193933624561
0.3249184214397661
-0.0874259499914932
0.09603006573551684
-0.06539061904753113
0.05678650336810952
0.138504251166585
0.06920112479100768
-0.001164305049460453
-0.20654107086434
0.5841827523718397
-0.3679900696702649
0.03003444246590061
-0.150842080449064
0.1093807177233949
0.01142692030937222
0.04313216580425062
-0.001317752095318187
0.3389775206319108
-0.3807919342675277
-0.08983519934608092
0.01110227501946325
0.005732655576144332
-13.74276144483338
-2.441178734776826
-3.562871703891494
19.74681188342683
0.4637026038104272
0.07836992560781612
0.001445279650256551
-0.5435178090545272
-0.05680012383472814
-0.1824569507615441
0.1808184002755782
0.05843867438544225
-13.31434717325289
5.354746956338776
12.96602297723439
3.302656058508692
-29.5830262090197
-0.1324192170604176
-0.03869931338716757
0.02331073066026037
-0.05041913028507233
-0.0900084248224456
0.1798919901197142
-0.03946443495018175
-0.3697527339043103
2.287580949537639
-4.291383812818925
2.37355559707495
-5.630699136094298
15.82112069649749
-8.353658651728022
5.532724209260373
-7.280478999218336
15.34475885505872
-13.59700406516804
3.234089676803396
0.03981833405229358
-0.6784656968151639
0.7731531222704852
-0.1345057594371146
0.150857173039072
11.00597588113514
-4.692723259837048
-6.46410979437446
-0.1140443838854304
0.01211461954613477
-0.08533025275055377
0.187260017168176
-0.6372541230639918
4.060066333089967
-5.158812604635149
-7.71866296740026
3.309448389669973
-1.168320442207699
5.577535019958904
-6.654071431602233
3.928021034358873
-6.840779333152513
9.566829730611648
-0.01120550442943147
-0.1549767192702089
0.03916707674122165
0.1270151469962236
-0.04683483001913027
-0.3204176462852616
0.3679285250796185
-0.0006760487183007291
17.01995700300319
16.34729116142936
-12.55541859987036
-20.81182956469078
6.084130323351987
10.93582667956045
26.2509146086027
-6.74373542455649
-3.159888022721896
-0.03793483451852663
0.1645146581022741
-0.06028437193970355
-0.06629545160090244
0.1461832438998815
-0.08904524947037966
-0.09507282890822362
29.79094330133162
-40.52322271626754
3.012418854534706
7.719860560322718
-0.05656250341539576
0.05345053448349169
0.00289978718852991
0.0002121818031892084
-0.03240409750914498
0.07958090509129492
-0.04717680755409714
0.1427158948251869
-0.1788719880217105
0.3261816445463844
-0.2900255512657771
25.80000714516127
25.97814896830702
-0.0946401366012046
-0.01310176481730013
0.1309580849253774
-0.02321618346966545
-14.29628540298545
14.29633156576798
0.1249213269906406
0.02046235051240633
0.02547790639423654
-0.1708615838465047
-0.03272587759229491
0.01373155103594995
0.01899432658327367
0.1664776547410899
-0.02033087712364759
-0.1741382528301231
0.02799147523830607
-4.687200139797835
4.914818815730477
4.734307042367901
-4.961925718389094
-0.0183196008289651
-0.05394847738988965
0.02081775331860065
0.05145032493648426
-0.05452389231138099
-0.04833749547015188
-0.03735976750984218
0.01904016669183295
0.02047036455866594
0.05919941032091801
0.0124429269617357
-0.09211270181351794
0.08763978447038734
0.1134260394603193
-0.008393282431529566
-0.02896648506437459
0.07238432966739307
-0.111604072973427
-0.1063077250707532
0.1455274684163247
0.0458343786232094
-0.01756155564388854
-0.02827282295817257
0.01628904081207814
-0.08242557669394178
-0.09782292010373976
0.1639594560457819
-0.3022906856530247
0.1258361492662852
0.3148161392309664
-0.1383616026918164
-0.7342391969785376
0.07198794598610289
0.4948676692246509
0.1673835818132314
-0.1098765099446333
-0.2012860956437995
0.4261093721132881
-0.1149467664174862
0.3095619956138286
-0.04161080823736212
-0.492716318227665
0.2247651308605866
0.07752644856499992
0.02322266361330609
-0.01531620494211015
-0.1389852721539472
0.32799885964264
0.09666656050232084
-0.2856801479045017
0.07556077659579268
0.06957237342070215
-0.1451331499982376
0.09212748523572252
-0.1149291683216173
0.07113829459019952
-0.04833661147531704
0.7905092608845086
0.01035534243436954
-0.4628059533392925
-1.266536003718373
-1.296249973265469
0.9347337467476269
1.628052230258842
-0.1068409127728209
0.02663594197708417
0.1102394132861116
0.0754616616390827
-0.03922701756589589
-0.1374011431369946
0.1003912405971049
-0.01577885045220319
0.05278875304872564
-1.172644314791599
0.7467290705533212
0.1898324689816773
0.2360827753755326