/*--------------------------------*- C++ -*----------------------------------*\
| =========                 |                                                 |
| \\      /  F ield         | OpenFOAM: The Open Source CFD Toolbox           |
|  \\    /   O peration     | Version:  v1906                                 |
|   \\  /    A nd           | Web:      www.OpenFOAM.com                      |
|    \\/     M anipulation  |                                                 |
\*---------------------------------------------------------------------------*/
FoamFile
{
    version     2.0;
    format      ascii;
    class       volVectorField;
    location    "1.3";
    object      vorticity;
}
// * * * * * * * * * * * * * * * * * * * * * * * * * * * * * * * * * * * * * //

dimensions      [0 0 -1 0 0 0 0];


internalField   nonuniform List<vector> 
19631
(
(0.004141746459692003 -0.004231973981947264 0.001953566077757076)
(-0.5558265837767451 0.2829108873488995 -0.4897933255209451)
(-2.945368335944441 1.36951507709454 -2.395352658186137)
(-0.6087039101377598 -9.008235754671736 1.523340282914841)
(-0.004631301539453264 0.02553700638638867 -0.02118625642722183)
(0.04522594426982162 0.03993787734961047 -0.04633758041977726)
(0.03378235618320627 -0.01409734912616619 0.0181657330119589)
(-0.2061478658337487 -0.2312736358062067 -5.609310394269813)
(-0.006963806878022278 -0.007473772355938402 -0.03228478176909063)
(-0.039803955258213 -0.01878929929043758 0.01350216805240353)
(0.02723817086168134 0.002629452125338438 -0.03911361431805992)
(-0.03128623744258153 0.02748599608337296 -0.01872295142201412)
(6.162357861703391 17.84613480695361 7.166048300325803)
(0.03871376428388315 0.01683181956126439 0.01766008472138036)
(0.002948717989028762 0.0008447085643172696 0.002528078530512211)
(0.07232574101409581 -0.06531156226132223 -0.05912994452054082)
(-0.3904051472495239 0.1622136823854762 -0.3813240494766508)
(0.01089506799539099 0.002318449987729365 0.01348093611406814)
(0.03508042852048354 -0.001121674540519246 0.00272765666773743)
(-0.2595821314094935 -1.10701854757097 -0.581821084998404)
(0.008216817507123317 0.0009232135697227223 0.004586129424857106)
(0.03683176948820081 0.188851105011959 -0.1044311849732554)
(0.01366526384069965 -0.01385846209040208 0.09860753809018796)
(1.444703778412638 1.49579473491028 -1.675200361140646)
(-0.01639546629819982 0.01725103899993129 0.0008388187832868181)
(-0.009502330007123869 0.008021992823866767 0.01251541502846757)
(0.05203764834092223 0.0215668373210035 -0.01250821201641098)
(0.0207468766875882 -0.08765532080487948 -6.069944474298508)
(3.454086319912127 6.704119554772763 -7.086634732460886)
(-0.0333301515688082 -0.001870751213560153 -0.1146075925545345)
(0.003338162114312824 0.0009446369084731038 -0.00647125831326672)
(1.201225596255612 -0.1581387972458749 0.2830012480232216)
(1.99009490336526 -0.4258539677307106 -2.09297339797396)
(-0.06539818088912383 0.002293399669621203 0.003111321660434842)
(-0.6170283028772601 -2.036820153689003 0.3354382299478031)
(-0.01444381091763849 0.02140362842129768 -0.01493826212965334)
(0.0001037999272302942 0.0418824354584366 -0.02949983886053908)
(0.03199442754897714 0.009609336535079532 0.01012377845886297)
(0.3138348059533906 -0.1877623770207665 -0.1479109475909723)
(0.05414700205697501 0.3933777884740655 0.3135437570427926)
(-1.042583260418467 1.623709091617727 -0.4169623989186303)
(-0.5731937403065117 6.441583122647464 3.012030397464109)
(0.1050364474110589 0.02537818331699981 0.03224857100587051)
(0.3103326336569379 2.218558502487388 -5.865814452316309)
(0.4384486864158626 -0.2148755405729125 -0.954012135533445)
(0.08496519511677753 0.5301162052402691 1.353516554546422)
(-2.11614152904171 -3.48125745541724 2.379232916385274)
(-6.389357319990956 -0.2356261364389272 0.1099169278895213)
(0.03079342203957433 0.0317966096001981 0.0047258999515168)
(-0.08985112062107586 0.004941695854068208 -0.06571051789675879)
(-0.01332292466451908 -0.0003579464763333853 -0.02505573202467539)
(-0.003125290034185246 -0.03304882576181049 -0.004616786933606475)
(1.748186747521408 2.355570136352747 1.516866557603072)
(-0.1469250138107572 0.004850785534898795 -0.06494052460530617)
(0.002036849326835183 -0.302957695673828 0.0844453790139007)
(-0.2300840274160366 0.4349001829224581 0.6279910004124735)
(0.3167113644478032 0.7170380655719624 -0.1908768981901689)
(-0.01073691316790209 0.005721304480776081 -0.001785039949971705)
(0.05805811590104681 0.01314442442953077 0.02644308576852973)
(0.3223295037118941 -5.232764785142829 -0.9364659537589077)
(2.340538809640055 1.2307777519843 -4.240340168540582)
(0.09742666066511541 -0.07391842296139392 0.09024485286007447)
(-3.381089659934704 -2.438018561379892 -0.2645024384462493)
(0.03826400203043564 -0.01715448390094132 0.1214081105214206)
(-8.543387333716362 -4.313634680548605 -4.34873561195405)
(-2.593318986781877 0.6398968529559755 0.1266878931079949)
(0.1123504119699246 0.0132078433198115 -0.03020282129354241)
(-0.03675047046844759 0.1429112940885134 -4.750861329211727)
(-2.200469617207047 -5.841547449067749 -3.546615278191044)
(0.01203136077015247 0.0594179951127192 -0.003353680861663589)
(0.2862398131515507 7.03932483854841 -0.7642696639999008)
(-0.01163606540440978 0.1394166074816617 -0.04667506377331283)
(-0.07558857295274216 0.007850097508611677 -0.002230445877902436)
(5.909061022111699 1.096484682274853 -1.104071194230917)
(-0.1234827851474671 -0.1111387006017627 0.08794229956412881)
(0.7406922947768068 0.4229346465549216 -0.7318226386194333)
(0.01608780766863374 0.00365143944152219 -0.006989336736175128)
(0.3215204092650987 -4.003104727520206 2.058540457627275)
(-0.1143497081482818 -12.32414240277561 -0.1283420376360189)
(-0.00272211068989231 -0.04222560264731952 -0.0081317277796399)
(-3.538892592142865 -35.12615380066561 -2.190424438719401)
(-0.4848744149664835 0.8266535215254942 2.080094790447691)
(-1.125868069403751 10.03374060898181 -3.307446268444683)
(2.56160496503388 2.268618079077241 1.208060359037192)
(0.03300138534319828 0.1263422514039924 -0.1290471712890927)
(-0.01475859722386773 -0.1112786662910505 0.1836510922777638)
(-0.08638166406804551 0.1676767175558657 -0.066875477832746)
(-3.336233463351806 -1.60870191652078 2.38885799697408)
(0.1827258069458024 -6.905371745773899 1.236080947989668)
(-0.7048890740084701 -2.127279992183168 -4.16995658360433)
(-0.3928869617173711 0.4303385628997748 -0.01649783106381502)
(0.6847208512133169 3.214853935503378 0.2503891626612824)
(0.8183160455538102 -0.5173870713514966 -0.3269296525100042)
(-0.6710113452950415 -0.3750517769992806 -0.4099138093009663)
(0.08573008985157773 0.6928038674564599 0.248407060499968)
(-1.477646170771564 0.7772572896564265 -0.03300981234576938)
(-0.2032469905272251 -3.779047775373811 1.761213164891952)
(0.2758877593169075 0.3719541741781138 -0.4525903374590438)
(0.4858604403325978 -0.07481571845343077 0.0676722215529301)
(-0.1041063509930953 -0.02393555098547919 -0.04592163321426762)
(0.02671973486905638 -0.008147560812607967 -0.01290147601045321)
(0.8752454792319649 58.38938516814921 9.327339825986613)
(0.003930575851010712 -0.00671527990782857 0.02454748215917409)
(4.517153399427687 43.78700059116079 -8.97562459184519)
(-0.6612794771751913 -2.989316928487374 1.697845014478781)
(0.06319432738044531 1.403650206959479 -0.5326532713213892)
(0.1484358210422458 -0.008688709426119949 -0.04073649193234448)
(-2.538815176556228 -6.176402076993218 1.690363821805527)
(-0.0344866345568603 0.00606755537099763 -0.006140895630009705)
(-0.00448680796891282 -0.02991385513779023 -4.560726929421017)
(-0.03000720272278534 0.1162476231581762 0.004834218642875754)
(1.052616233816572 10.97512628752015 1.155969120638229)
(-0.001615778942536954 -0.007506898990488669 -0.0007228917028602928)
(3.865567555800609 32.84467926330458 3.156076883706069)
(0.8586443291673854 2.77814676217887 -1.939585749874786)
(2.055874766359518 1.994160038519193 -0.03577591412404008)
(-5.616488102165262 2.699961097038333 -2.15595845842115)
(0.104404365052736 -0.0147377699007155 -0.04214631812648947)
(-1.206299943537819 14.38277049554407 1.81205477041866)
(-0.00810657195648129 -0.001798219050940256 -0.005429879365632998)
(0.2048694862038218 0.02130412345956054 -0.06315841270937003)
(0.119122102029013 0.04253330860648427 0.05063534132346961)
(0.007396497068297769 0.0008996583671660677 -0.001813547405365616)
(-0.1375508610032579 0.2255966466573497 -0.1856571315400437)
(0.2482758735247355 7.009170105773911 -4.325096470306883)
(-0.00382354612278981 -0.0110011844710357 0.01913815826582814)
(0.04475823393105438 -0.007081519584327782 -5.428899936915575)
(0.003940935778482278 0.02209614183549844 0.00125939562215142)
(-0.01046893185561844 -0.003196759338306977 0.01161419664503483)
(0.06728599460555018 0.01915712904490079 -0.01998852287623142)
(0.1804074723241874 0.06595839044250068 -0.04224904189999258)
(-1.2119563663889 1.610615042308269 -0.7871460007702697)
(-3.583565543830433 -36.02412886181908 3.677771337511829)
(-5.460050482796468 -6.218024714878004 3.91735982485695)
(0.006854303218354361 0.0002838471102927089 -0.002660561459689772)
(-0.02741230776386381 0.00924803737619727 -0.003768164580102235)
(-0.1503212283855553 -0.01888576949686339 0.07920522093383914)
(-0.2829319636531396 -0.2125982188258495 0.2265783588994253)
(-0.3812929579959452 0.02422013703526057 0.04114277411741302)
(0.1271251883969468 0.07034066878686591 -0.003513160849598192)
(0.01500356896370295 -0.2053455339618813 -0.1869361796458105)
(-0.05924214966082914 1.040351574008123 -8.672742354719777)
(0.1629254991938847 -0.222633194204029 -0.2687203698880682)
(-0.162646811569341 0.01128145899945161 0.006497048528826468)
(-0.1923614744164474 0.1001657563522457 0.07538317866839847)
(-0.07838094323847568 -0.0778169086942261 0.0252202410945088)
(-0.05536761629603544 -0.2367782319226527 -0.04612968872678179)
(0.05972296812728418 0.0229349850433321 -0.02278805499799664)
(1.767673475885302 -4.16185424277781 -4.679176736671899)
(-0.4897276600588943 -4.780666477824511 1.90924563896491)
(0.01150746827087692 0.002023259601570983 -0.002867925928474007)
(-0.0319854458039348 -0.02322746931656022 0.006724779292333958)
(0.0254030854689912 -0.005520936580352425 0.01409008982196031)
(-0.0444994140774786 -0.07503655852052457 -0.008939359235903952)
(0.01240823795264626 0.002520086544077075 0.0009233682174463638)
(-0.1059554774264405 -0.02581729038209289 -0.1231416772874906)
(1.515243064314172 1.527075854993655 -28.66510517808409)
(0.1893220508838493 0.03799953350713738 -0.02763299080892291)
(-0.3055658303072901 0.07718235727948985 -0.08268963807295741)
(-5.858588528536574e-05 0.0227448378911481 -0.02801068078629883)
(-0.002799150078521336 -0.0222125094178245 -0.007838342161060302)
(-0.02028214118995692 -0.08516459190589701 -0.04235996664861862)
(-0.682645559956842 7.150358972752686 1.154629695649005)
(-0.03265847088095074 -0.07939578399179713 -0.0512526135797997)
(0.008297923717972432 0.004907363060946194 -0.01430286318199364)
(0.00288965160995374 -5.991977583430117e-05 -0.006318110951702715)
(0.004169870182662619 0.0003426176942801047 0.01293642191551005)
(0.04831923603832056 0.001508632288069548 -0.01119274124177509)
(0.005931638982711374 0.0009136019915455865 -4.209744002181557)
(1.289682516651693 -3.845697828960888 3.601256723937079)
(-0.1641394868011512 0.03369094611836001 -0.4649516012084617)
(-0.0457377019264108 0.6489506468797585 -0.9031793942512856)
(0.4711641482338896 -0.1019750121180278 -0.599621345245868)
(-0.2442379704904876 0.6099258010675992 -0.2449517357195067)
(-0.0167776347291978 -0.04442211017750915 -0.08736988566506891)
(0.0686078728828225 0.2851204025507935 -12.96169786658667)
(-0.03344982033864505 0.03624919934446974 0.0189224701370505)
(1.819897502887341 -3.984422888062615 -5.903949205614701)
(-0.001053748405648097 0.01326554937407632 0.009172931683448887)
(-0.01270137533530885 2.052000081234921 -1.149376797731192)
(-1.143660087959046 1.17759764176351 -1.033326994445572)
(0.001069303980032113 -0.006288477245761731 0.004095125846010397)
(-0.01823925759047514 -0.192607038394337 0.02968269771449818)
(0.0481345139805042 -0.1052128645164902 0.05929282704300017)
(-5.46461854460606 -36.0607850717896 1.764668508119103)
(-2.304449769116464 -26.56744156814304 3.400183248444185)
(0.7096823190536392 2.318702354701775 0.4432197269572343)
(-0.005603628904390956 -0.02226900727673197 0.00220767672718572)
(0.6924879421580576 -3.996305614248434 2.448631916233558)
(-0.02321686584496532 -0.01327640393875336 -0.004651871875490512)
(-3.824328575702804 -17.28616350151324 -7.841670603278979)
(0.0295886940941269 -0.08394302061795311 -0.4524294107460031)
(0.03886733155019076 0.1364222720858765 -0.4744951464401541)
(-0.08708810555404679 -0.005458520773178769 0.04415435881807548)
(-0.9631658660471419 -10.63110348690536 -2.852243350090161)
(0.4379673007694038 0.4079943415174953 0.2188221887535374)
(0.02700683466556285 -0.02051283912416561 0.01224332758348023)
(0.2407234541379016 -1.378522289753576 0.03987256921374838)
(0.2212396632104969 28.89804911098403 -5.594414938675267)
(-0.761638100826323 2.440975898594408 -1.866043280965837)
(0.04414504340419595 -0.0774142182926566 0.09868403154720733)
(0.5532219662607788 0.4006369059819653 -0.385565515639958)
(-4.545110536587842 39.12402206397855 7.205041163604342)
(-0.991018758890141 6.648622906027175 -2.09240900531905)
(-0.0197306182837154 0.02220740788022678 -0.01352178331077368)
(-0.007344300462570872 0.005573933619245377 -0.01222057115872292)
(-0.03832315874099964 -0.0293447383213324 -0.04212754747591398)
(2.10381256445599 7.889154792504476 -3.979924808797461)
(-0.05397066323666969 0.09060963515103083 0.04962334834214087)
(0.02896752877593036 0.04408037269770602 0.01234445779455996)
(0.0808737515486212 0.001181656159384491 0.04209481043617828)
(0.04472155500583785 0.1418602766057981 0.1649430182158417)
(0.2813826202854781 0.3905576358610095 -0.4087338918061465)
(-0.02177714177072995 0.08717090240371271 -0.05641959389598145)
(0.01236173361347171 0.07597126239134544 -0.1129359613811616)
(-0.7502144199451399 -66.42835313102381 -3.33079386194041)
(1.291699988825658 2.231672298039219 0.4496475941926363)
(-2.461594020086806 -3.376311771693327 0.3848515873885879)
(0.02012630558201417 0.05128033002084841 -0.009783559484942084)
(0.3362518282989225 -0.8820307099535338 -0.04226969128142823)
(-0.003000381759172179 0.001192434388331836 0.001276212783325497)
(1.402764373911842 -1.237148674972957 1.777918893179446)
(0.001603475745139742 0.1615550104289685 -0.4431037364839523)
(-0.6824261165642687 -0.1857638465065942 -0.9737404675520244)
(-0.02491304304075595 0.1586055501567257 -5.655061604564555)
(-5.559188434545947 -0.3009941174719464 -5.61080429624633)
(-0.01356162631970618 0.01755811304223343 -0.06489448215136594)
(0.0178489168516813 0.01063106390663275 6.072016283197382e-05)
(-0.6640237176651856 4.58459787830979 -2.235312830782851)
(-1.104366067977516 1.4465208154548 -0.3201897941767494)
(-1.000838593973914 -2.941985755449782 0.5200241056196295)
(-0.1292623439823061 -0.8868119751082906 0.1665609685965819)
(-3.987582187929148 -32.22953804546492 -3.614557080669524)
(1.121403128299202 53.4224296847138 0.2679686862382804)
(-0.01091667829023521 0.09895374532594686 -5.925442288018031)
(-0.2300616870471267 0.1856965109001121 -0.08717156324463191)
(-0.2294754092012911 0.01357809083526701 -0.8417373285546228)
(0.02156946559088799 0.01188775379288863 -0.0244806279130136)
(2.876300435450363 -4.245157840870425 2.857489946665475)
(-0.1307194779798205 -0.04158532067282149 0.06544264826282209)
(-0.0134064641668086 -0.001506461335452834 -0.001564528848992996)
(0.08458020741434662 -0.02876665334166739 0.004697157775636049)
(0.6032859363845565 -1.011605726750638 -0.09144347797117058)
(0.0002727374819931098 -0.004696018581227229 -0.008386878713769754)
(0.9907406694664114 40.90126552469563 1.273810183674276)
(-1.803467900768191 5.593340387005457 0.4933259681614288)
(-0.002989821684425007 0.001746477508430094 0.009504824559137343)
(0.2519770478813634 0.07429598522272479 -0.111928326832756)
(-0.1009648305948315 -7.765852293826036 -0.4528990434794971)
(14.14541555291696 16.88624800943926 -6.436872758233406)
(2.165569601634323 12.83919998119767 -0.2934152360156298)
(1.960565576816431 -35.30258565302337 -2.873552623680814)
(0.5744694418942129 1.013481963530968 -0.1383036996010275)
(-0.2855254418113393 -2.208992240799683 0.1937802137571553)
(1.271493191972905 27.91456069179948 4.552981680395399)
(-0.9512669874059793 2.734921081906123 2.275615763729673)
(-0.4296252387432303 0.02208245062185438 -0.3410224253394295)
(-1.758247504022512 -8.845715647227145 -2.00515480824205)
(0.007584803581065568 0.05691495898065407 -0.009222317905199381)
(0.5419917365749384 0.7465129549937104 -2.341739517050179)
(0.5869487529392501 1.350105589585444 0.08559690124721439)
(1.260163037971584 0.6498423413737944 0.09457076025121956)
(-0.08041980642723702 0.1198061656005454 0.09201633749643354)
(-0.7028140040836139 0.04884512722040213 0.04265132465608679)
(0.3180004621148379 0.05102581745636613 -0.34070254071983)
(1.692632800823665 -2.724904008430205 -2.88249882577732)
(-0.1045302671251838 -4.854663163671379 1.889769214658006)
(1.861229749212085 -9.466698976492999 0.5605943144791126)
(-0.2643639491555536 13.73115003610413 -6.507692983951191)
(-0.2378458912710086 -0.7827500276542884 0.3510237545683358)
(3.755087630103184 3.29317233983662 -3.086075078626489)
(0.2084931062533568 -0.5146205648614559 -0.202087790270756)
(-1.755937433043478 -6.216470757927253 4.598030194646954)
(0.01736411998521103 0.0005495178943266451 -0.008564837061999212)
(-0.0003777123353142821 -0.006835177237026273 -0.02231673278858417)
(-0.02741728621486919 -0.05849048415367251 -0.06570574893917686)
(-0.4912590427336019 -6.358328508112224 -0.2292842901258277)
(2.406917916043473 -1.415786308437037 -1.140391894684878)
(-0.04156767305022867 0.2933559658206478 -0.04593311066717356)
(0.3665630396316443 0.4102858103551281 0.1593703557887895)
(4.310720264242489 -7.728394326559416 -0.7298324621502257)
(-1.572480795714469 -8.025803881154008 7.51048182532729)
(0.047495432840125 -0.2492157842212203 0.07977732591810296)
(-0.7411016113013613 -0.1381845740397454 -0.3193325725759393)
(-2.307880905801418 -3.536667637540259 -2.575331170101542)
(-0.04624588676193168 0.1456639515988494 -0.217599614208848)
(0.002203241853927142 0.004484558612359723 -0.01448023320709507)
(0.3124616388536194 -0.1613368845212725 -0.2021689201247415)
(1.049573490786275 1.967859309290061 4.019288152828031)
(0.02878503363289883 -0.05848641601056162 -0.05293676371665459)
(1.096207726232759 0.2751317429632677 -0.6117434096241868)
(5.128842160223518 6.419757384071561 -3.452512507395656)
(-0.07515557256082046 -0.0619001236838127 -0.2501210137670045)
(0.00307366177502795 0.0009201262089635724 -0.01330625323667524)
(-0.00259224006978406 0.000256169939242266 0.006055608536675148)
(-5.285060639560062 3.153172130522529 -10.99362279830765)
(0.8575096649638813 -1.123639629512122 0.9271273810842287)
(-4.574747767036762 1.092439859315223 -0.9861545869922245)
(-0.4663281969287209 -2.753393052477764 0.2019044096937956)
(2.142439604248094 5.962705566932935 6.18275092125938)
(2.460693659364027 8.076274654892732 -0.7176842339933186)
(-1.06832593905415 0.02394036524135057 -0.06591114613267285)
(0.04758338409511458 0.006441938803929948 -0.1304293276527024)
(0.8181094632792454 1.287281107930787 -0.7951772420813804)
(-0.3199173132247538 4.127757800908145 -0.1916006521191889)
(-0.01216583964954962 0.07609205165862917 -0.03050429287810444)
(7.786014791561174 49.5940954593876 2.506111132930531)
(0.01717048520542847 -0.06860861767685589 -0.04851542754353303)
(0.00169695007032317 -0.01124213808276099 -0.06249040541855606)
(0.012582570231589 0.05318167384988395 0.1381877569450762)
(0.01972310702645826 -0.05786114647203296 -0.01516144314150212)
(0.572771696804131 33.23115897302839 -2.211945765805932)
(0.6122550483790052 -3.091976241695893 0.7661420563084123)
(-0.01025616841472676 0.0306081321758424 0.01564699673653987)
(0.0004841174455957366 0.02401172968815755 -0.008540905095969185)
(0.003760689559382754 0.02767879257375219 -0.003439387916467052)
(0.000646287264639174 0.004432119237464078 -0.007005957717123553)
(-0.004305134803892646 0.003241896181401232 0.001081512753598437)
(2.201679817934302 -1.500379084929135 -2.155480011262306)
(-0.0008173601803719846 -0.000855060412665587 0.0001369187044157058)
(-2.022290928638935 2.029301347932035 -1.071583458297494)
(4.708304835221374 41.10835811950732 0.2403448350444007)
(0.5965348392350973 0.7596612099999228 0.2714184119261253)
(0.04813431587078063 -0.001236013694184854 0.3069102801805731)
(0.3555150688129296 1.008598620087482 -4.429641939995261)
(-1.198112969543667 -1.564391708083983 1.228065474219947)
(0.05237853270414095 0.4952688746483307 -0.0681013425509481)
(-0.707549860951292 -13.79968071269725 0.3010610149344188)
(-0.0653947505615291 0.1063109043466996 0.07121387560175922)
(0.2423140304330426 0.6482329049104888 0.545208890862721)
(0.1155349005213052 0.3002842188513486 -0.3047375164068683)
(-0.05312762368151418 -0.006775163805825317 0.05007448981528805)
(-0.02490603983989017 0.0326122749118871 -0.04007669163390602)
(-0.07461029888324743 0.04755039844321514 -0.1860628062201283)
(0.3943172147899894 -49.44985482469361 7.521493292557198)
(-0.07063725791458383 0.00391715904320606 0.0213697648458125)
(3.025709327945656 -46.14562235732895 1.507009425182022)
(0.04590860953889653 4.266027169364284 3.0642839760929)
(0.01868255649983017 0.00563452679901972 0.003352818068658192)
(-0.08635510252835883 0.03776895773491624 -0.04242183607491878)
(0.05588301523209536 0.01779541815504646 0.0431483831538766)
(1.801162340620976 2.885480940243097 1.035975577869701)
(-0.003870577741102096 -0.01034507166180097 0.005168081019874203)
(0.8010924205552026 18.7886692471334 4.530614894123146)
(-7.872179855636419 -4.974801205838083 -1.484530571848229)
(-2.398443467033635 -10.26519925386052 0.6887652577595658)
(0.2488881330274268 0.09775461565342704 0.02497805742436965)
(-0.03556784609163932 -0.4293132794782653 -0.0612518946681795)
(-0.03715632470699168 -0.0142516420198896 0.08231676947965755)
(-1.654116815664979 0.05624286801163499 -0.1092093074014479)
(-0.04576607326970748 -0.005588340135225557 0.03321465596576804)
(-0.8947255089651777 -0.1428722995560341 -0.491774725133321)
(1.734281033864574 1.187217032262271 -4.562930245096769)
(0.7738688373117919 6.905804436293391 -1.897438909994269)
(-0.0694932801019027 -0.05392069894470897 -0.04802280684023579)
(3.581527457960392 7.538839970899764 0.1062650989706935)
(-0.06989323033860162 -0.02533649941012996 0.04374273999651088)
(-1.718816322450512 29.78552255909572 1.001647957994878)
(0.4054457638255612 -0.4760836937141245 -0.0610473908866869)
(1.36256407616644 -0.4418248351436802 -0.9917072982015793)
(0.0131207643302948 -0.01205054229454484 -0.02404937208971384)
(-0.09595349667163289 12.02876319312481 2.164304703791081)
(-0.466780340048191 -0.7231038086984658 -0.3923030567695956)
(-0.03131582448078753 0.03590146120818927 0.03942073438631588)
(0.1912670837956347 -0.1165183265295548 0.03376801312211022)
(-0.01750910849601655 0.01036200189443598 -0.009530187881695257)
(0.6579360613650279 -9.675166450335659 -6.670867136301283)
(-0.1055561025133928 -0.02516569672147981 0.1140930387485146)
(-0.03015110692100183 -0.01209942328892022 0.000876479348811317)
(1.892947855515728 -0.1385322287501487 -3.804281532663981)
(-0.008224154274118444 0.0004213023961125066 -0.002191075863715849)
(0.002570807145609123 0.0007923734846679398 -0.005408345996743896)
(-0.4040149527240881 -0.06122466788307655 -0.3645673424879883)
(-0.410319602182235 -0.2441846633947657 0.6453442582140214)
(0.1477796107272923 0.03800309659267931 -0.02726075769154504)
(0.003104146204108258 0.0007339066240768543 -0.01421464632286294)
(0.1858424533875644 0.4350456434643265 -0.6634104977467545)
(-0.01859712009847444 0.0222674041282243 -0.0009899299648613562)
(0.04197678641290196 0.02724682839639803 0.02458813310518824)
(0.0110902753272799 0.01844552304270583 0.009053807839877408)
(2.591570724915652 11.31063806652199 0.5959075287863361)
(-0.01345569007960496 -0.02628663245539411 0.003400956893796518)
(0.01393276461417798 -0.006539424931860766 -0.009941979390606918)
(-0.025188421375104 -0.004321227593658066 -0.02279681310205791)
(0.6033124797500398 -1.646768567184426 -0.8067790553618767)
(-0.6010315759143134 -0.3587086614265921 -2.522378260409966)
(0.1005876595763592 0.04211053244977226 -0.05538004200874819)
(-0.07555891973200451 0.1671973564418721 -6.800715174019541)
(0.07338757088459688 0.03244263057518433 0.04414464799701566)
(-1.870767030101229 -8.779847017404 -0.1779414528755042)
(-1.507037258063506 -0.02043571117711096 -0.5947041404885048)
(0.03898243029440911 0.01445650485716343 0.008899781644773062)
(5.366872562778322 -4.182401743203238 -6.186241634331635)
(-4.751904973259835 -38.47167346827742 -1.214946015411247)
(-0.1686748973893323 0.1835921828136675 -0.03093090809088719)
(0.002248794465658099 -0.006083135003708197 -0.003244796611948124)
(0.001471711823970752 0.003683713232758675 -0.007384488023355671)
(-0.3588540350939876 -0.6173658140108242 -1.667350366279925)
(-0.1690444395388045 0.1648239739493296 -5.652345457035019)
(0.08109256840380985 0.3493679640751262 0.3346512972343396)
(-4.725728912502707 -51.30670221391878 -11.18400619922746)
(1.139754858741234 0.9432087330862405 -1.448596234418638)
(-0.4195708194568232 -0.3015532270277907 -0.1423189177617548)
(2.891259756668072 -18.02219478260198 4.633930478937119)
(-1.48217934539026 -2.023297872106382 -10.61600819207565)
(-7.307127591283232 -50.36474235084962 5.168476197365584)
(-0.3935554091637588 -0.02085073146097738 2.013888344181743)
(1.283088527510151 -0.5974772082370098 -1.390437342634279)
(-7.422190701147946 -52.25412703201919 -5.872643521290472)
(1.195417010342672 0.1823734686969585 -0.01735879207302449)
(0.4685725463082206 -38.3336610655041 1.07474546898033)
(-2.738004691193326 -1.75634345089192 3.212970708294238)
(0.0511487983457313 -0.4298015774494076 -0.0856995757025146)
(0.3753930792573453 0.5347599624202463 -0.3754681232925337)
(0.1419631609549591 0.06264770774763891 0.1154272395371796)
(0.117239583576506 0.175050867633843 -0.6997019151729182)
(-1.750566243949595 8.199262850068145 0.7523991612765339)
(0.01299723203855894 -0.07563306477567913 -0.04075466571328565)
(-1.33236481809366 -45.19254777429078 16.65669657208837)
(-0.7284571548422172 3.515819630748972 -1.001636309077849)
(-0.009705366202896276 -0.005039068581246298 -0.007460183043740551)
(-0.01562657817421772 -0.002533292092394127 0.007737279910704239)
(2.967400689093226 0.8929735462721118 -0.9126177450702643)
(8.355203431361776 95.02449413345863 -3.792167748326591)
(-0.06918928794916848 -0.632889210775022 -0.4149782699400552)
(0.01246728494697319 0.01662332712789479 -0.01717104127488369)
(-0.3224801495376681 0.08498774339020379 0.02890827200038826)
(1.305184964879478 1.221706847806392 1.306229306631133)
(-0.0419379816565701 0.017048160281398 -0.006322384690083296)
(0.009858630478938254 0.01480971336360505 0.02491828997202253)
(0.008632758994879941 -0.07272369391952563 0.0559503102485095)
(3.165590422060237 83.68007191507571 -3.177158914645436)
(-4.522047397538508 -0.1663596314104518 -2.221552564905334)
(-0.009168234838200949 0.03276746023963394 0.08138759993440857)
(-3.457590041499602 -1.109588246328242 0.3953640063486245)
(2.572848189801971 13.1126127625338 -0.06219993471975727)
(0.009215913992158285 9.445138992680784e-05 0.001233027474380093)
(-9.758003379117902 -15.00075269656438 -2.252729146729927)
(-0.6511669130823403 -3.208248897309052 -0.3446315249068416)
(-0.730380218959658 1.994071815383562 -5.489535473827066)
(-0.001391711663035298 0.002396327259081562 0.002617475371401321)
(-0.2225504981255982 0.312370108975474 0.3509535966513438)
(1.544077567779612 -5.141636822775387 3.578847128246641)
(-2.060659178404267 1.395404235789051 -1.196659596232605)
(0.01132258176185101 -0.009404540363108923 -0.01554417734456566)
(-2.140332607551042 -4.679676155063026 2.769062899522483)
(-0.004351457627544075 0.001132727065008971 0.007059361930766632)
(4.528740093395507 0.666415847115403 4.900829163095533)
(-2.752300417655612 1.44394342176178 -37.3937749026552)
(-0.02431566783847662 -0.004729735181654145 -0.01201692411248708)
(0.1400714713737842 -0.3735123347212591 -0.1861432062862778)
(-0.1006392284746161 -1.114007542290002 -0.9061676105701246)
(-1.778906751666508 10.44544927952048 2.22410302204994)
(0.4892948185012665 -6.038258110903547 0.8617434950563584)
(0.0002030287868189974 -0.0005822087834790853 -0.0005823430840647533)
(0.0004174164450877436 -0.002070847171741941 -9.950727987561192e-05)
(-0.01604514848731093 0.02021793468608364 0.006925471564511151)
(-0.5226173793416592 0.1468345785295295 0.3798489618144657)
(0.06319606269779311 0.218484809160976 -0.08749417315699394)
(0.1515107802217739 -0.04120415767212531 -0.2357084531279512)
(-0.1722169138282868 -0.4017083918154027 -0.0200914892366605)
(-0.0004370042745203082 -0.03879289681266147 0.01382087400070494)
(-0.5279135002490138 -0.991993740298879 -0.1821010140717061)
(-0.004003965921622905 -0.003952569108764343 0.001791849100004812)
(0.5255216459581769 4.300930805603396 1.069985406134339)
(0.0493378011126339 0.01753819827700853 -0.01189521515726422)
(1.795048515486391 -0.02552318856854385 -3.430906848602238)
(0.005619846767436376 1.445830798070813 0.5463048998146183)
(-0.01178044316815665 -0.03199090075198185 -5.949407500233028)
(-0.0102564013158436 -1.960493857755853 -0.1567668628903635)
(-0.2658588188061379 55.4763339800296 7.554313948857812)
(-0.4857073113088941 1.018892716840099 -0.5361733948232559)
(-0.006813789855159918 0.001775416626771535 -0.003104144113644625)
(0.005624161983780442 0.01325748256701255 0.006763887921678856)
(-4.365138263875505 -56.9163166060779 11.00645797327199)
(0.2249026395896291 0.003450297837903869 -0.05114879673142955)