/*--------------------------------*- C++ -*----------------------------------*\
| =========                 |                                                 |
| \\      /  F ield         | OpenFOAM: The Open Source CFD Toolbox           |
|  \\    /   O peration     | Version:  v1906                                 |
|   \\  /    A nd           | Web:      www.OpenFOAM.com                      |
|    \\/     M anipulation  |                                                 |
\*---------------------------------------------------------------------------*/
FoamFile
{
    version     2.0;
    format      ascii;
    class       volScalarField;
    location    "0.5";
    object      p;
}
// * * * * * * * * * * * * * * * * * * * * * * * * * * * * * * * * * * * * * //

dimensions      [0 2 -2 0 0 0 0];


internalField   nonuniform List<scalar> 
19632
(
0.008548175264119268
0.007151937214833695
-0.004159587699347817
0.005598046910192451
0.003768111275052154
0.01837664454894742
0.02097482406253679
-0.003041172579624547
-0.006857361579253839
-0.01404824589187679
0.0121280637247195
0.02093664436359573
-0.009253979479008929
0.004650050647614975
0.01088007817445286
0.009825159954393035
0.01069945013527268
0.0105584472183454
0.0003616563943849506
0.05427966620116523
-0.007057099865796648
0.0274552025887041
-0.02510607498631829
0.009455084851621288
0.002120574242530493
-0.006367029695033426
0.00250568762809945
0.01290774593681706
0.004866290538402952
0.004089665616369035
-0.003840413954696059
0.01221331171128849
0.009002432336159509
0.01326588434903262
0.002811029077618321
0.01138702355576617
0.01740057589479236
0.005965614713241478
0.0004225174225844059
0.004999830582633384
0.02290261365361382
-0.002600854530767182
0.02295557434776168
0.01787503320063755
0.003533591382302497
0.04432549272134872
0.01803561642264405
0.04015742362507724
0.03125536722771099
-0.003188047505545234
0.0363345907753119
-0.001818510860834777
0.0123044182749727
0.03705861309849365
0.02451042204494847
0.02981079168938728
-0.009546701316319675
-0.001510844396453225
0.03333351317960372
0.004967079186038698
0.005254090078066095
-0.001297999089635494
0.001590466264670025
0.009687510034225395
0.02086513616057789
0.003341797586402589
0.02503913265778172
0.005422047342347899
-0.001642313038870363
0.02302873330974428
0.004441717337672817
0.0489842454992242
0.06092863586891987
-0.00260013351122995
-0.006417488766811885
0.006168416709174655
0.007570863965756918
0.05457913087818401
0.02744109681327535
0.02436807111115385
0.06005148220771914
0.01341203601931661
0.01509738262961302
0.01816811915423448
0.03879261012078365
0.04087531171518134
0.009455362521644856
0.01058005092496923
0.08484625166254135
0.01605025358308329
-0.005776830933092922
0.001956895068421005
-0.01388816118583143
0.003974434438164432
-0.004010304152047141
0.0004979034640920213
0.01274167791778641
0.006689477995347646
0.04600637467871865
0.003792146629929529
0.0009695284790878002
0.008694042285402567
0.007258166490035344
0.007128128153479023
0.07852641702386901
0.007471893594488708
0.004657424727947907
-0.005956769355470284
0.04284297059262916
0.00670047170935699
0.03281544521492355
-0.01685355507031128
0.02133542723474596
-0.01289319819640886
-0.02388600067926704
0.008371551378572041
-0.01161990109125848
-0.01218869225396819
0.02511876424495949
0.005410278701115127
0.0432657253792381
0.003529211689963672
0.003891573766225263
-0.02253792441297963
-0.027720904754282
0.01570875724323157
0.004213936092598766
-0.002006400990448523
-0.001443857520983358
0.06019605023004759
0.06686738353409101
0.0001627480151256551
0.0155379990613477
2.306585121540097e-05
-0.003120208467265915
0.007022323563203182
-0.02095764957437255
0.003453098593766013
-0.005745272386956944
0.01139233291803654
0.008307847886310865
0.0175921023248902
-0.003136708242121531
-0.07507309242854283
0.004504540491415022
0.008341160904320338
-0.001844554459029744
0.016867087859812
0.01065055045989699
0.02067018679119209
0.004899175852033804
0.04349533373597068
0.01811664654901707
-0.0004473107297220044
-0.02498246023216101
-0.01004846336142014
0.02051219165950401
-0.002599245811045714
0.02186056442745057
-0.0004206990363872639
-0.02031669277859553
0.02081507804357988
0.02065564880667727
0.02787150194297763
0.01808017481969709
0.06754145300298689
0.001305947485497965
0.02712569635094467
-0.005131702754147103
0.03352563615589405
0.01900987601584001
0.02884650211349979
0.02436792071214319
0.006554531771993348
0.02274593269602767
0.05586444730366354
0.04361511477317104
0.001958569878144007
0.02946966308993052
0.01787099005720576
-0.002682265001443574
-0.003943140411049242
0.002431153362370601
0.05709413786511667
0.001530676577348075
-0.003095814427632595
-0.004322143052495763
-0.0003279834604021413
0.06725913303330079
-0.00327257971272703
0.08537312489996968
0.01193083919410268
0.0004500272665499177
-0.001326898234456681
0.004215463240502137
0.004143994871942332
-0.003216622612738486
0.00255955031041686
0.00256098715522703
-0.004746762929160083
0.00172780317405036
0.003895919711628054
-0.006647203481148326
0.01357255146418509
-0.004185868016437223
0.004063699676848595
0.1772031231221743
0.01142339818301091
0.01462414720356451
0.001640725867341312
0.02016734287640982
0.003929043706868508
-0.001285380976440599
0.009546448923712069
0.01143619219101658
0.005573638781043644
0.01784604627344335
0.002547110597878514
0.01822503167448917
0.01587470640881059
0.003644780106142918
-0.00462574722716063
0.005609214371047356
0.004011597132809917
0.00545359056700252
0.0006972610108753962
-0.01554433806222918
0.003246613104482881
-0.0297419798970452
0.02470960312114572
0.01290600657559025
-0.01150777714102257
-0.005015233099629502
0.004907073420003461
-0.0009544619730382874
0.00197421461666176
-0.002526128371890792
0.005644182008837869
0.003505846861772795
-0.002073468313801955
-0.01400297253888766
-0.002994252915281543
0.1778522065285718
0.008734627808021169
0.002532709154510887
-0.003701345245704623
0.01047445422372901
0.008552662826951456
0.009538032328368633
0.006409519776114723
-0.002641442009316789
0.007348972095161668
0.007435165408371062
0.006993482699007744
-0.004548020237874854
0.006012005162451561
0.007281615195338725
0.00938709017598654
0.02105265549669118
0.009318162364205976
0.005075474992848212
0.02453057558611049
-0.007641586182131822
-0.005731157911335428
0.01058800565711015
0.01416870481045356
-0.002745938483189613
-0.01060193560974613
-0.007100894092127843
-0.0198092848232247
-1.554298233930041e-05
0.06094015440630168
-0.004745535253529289
-0.009180770696534619
0.002719261239059767
-0.007457457893036377
-0.004458871559289411
-0.006384313647004814
-0.004890224903227696
0.004351290209578704
0.005304690845045713
0.02000067125435613
-0.004754761336713555
0.001603454373420745
-0.001435167450506469
-0.001819120280942348
0.02773606168794822
-0.005005059020137642
0.001628282857152483
-0.0006958290858314709
-0.003029280170629973
0.004193196976022791
0.009892375389825158
-0.001175588464971495
0.004499280697140244
0.01732670468181116
0.004001504279288005
0.04137277994075785
-0.0004923782982501379
-0.002933389057873517
0.01046149749092439
0.01191982312476313
0.003585128213709349
-0.003881314001563846
0.01042628463909006
0.01395947733742002
-0.00383970501784496
-0.00936037375035639
0.02119385986608112
0.008780777452997166
-0.006538833111153436
0.02142869521298655
0.008775491558595729
0.006607421694879914
0.004804672770443783
-0.00602402252752915
0.0001027533335235504
-0.02513646492659261
0.06238767261014281
-0.01263881140366143
-0.00860486569317747
-0.01107492606577509
-0.01263972448513856
-0.01318076628907982
0.03828424438305099
0.03684284840406968
0.04050924992407741
0.001458223692855182
0.0003332214071916784
0.007174902510218527
0.001095070753626015
-0.005766413825666432
0.04034296800745291
0.04178623737094736
0.002503576578938278
0.04019224995678767
0.005605039629760165
0.02177939165980437
0.004078865806183459
0.01447000581353953
0.03838281849765592
0.003825380465216977
0.01248366316425885
0.02875500262041668
0.03803559981911121
0.03605300624782685
-0.002273529660163744
0.02223901501023698
-0.0003355111595724784
-0.002199016113435558
-0.002137386160185429
0.01106966500349
0.002456323288145309
0.005033779972974722
0.03622964023430951
0.005355870921415551
0.0002047945086785077
0.01004160509864824
0.04615433495736829
0.007496922978044655
-0.001184643805374849
0.003610110646110858
0.01628864416526845
0.01919487079585212
0.01249741743153486
0.001768228758594236
0.007416264194206876
0.01230406797391971
0.009427069906204628
0.009492560798503842
0.004763954564239802
0.002490866643080725
0.005532961739436889
0.004375900252450613
0.0006218787729387662
0.01252003965871536
0.004056131055154688
0.008842551801064641
0.006716014200301706
0.002322941892167218
0.02127087319632815
0.004817331150377999
0.02251618749328888
0.01318227637688474
-0.003290193739042478
0.003765846662767735
0.0007842340385735776
0.04131886552508703
0.05247701082139322
0.01322389212294691
0.005703468921249264
0.02023673883240687
0.007601217595674029
0.003732353434746414
0.02199761691727661
0.002337823639814594
0.01554137886775509
0.04984408555597895
0.02633956813585967
0.03591036768886328
0.02440486106690122
0.003341545274535712
0.004621923636039882
0.0003686864216323376
0.009090083674260445
0.002581700828097042
0.03869676516760405
0.004289979676169498
0.04039136226729917
0.01514843048124283
0.01686859246943824
0.006516493537962796
0.002736190756355521
0.005358485108090353
0.003975301153083698
0.003423460094193434
0.001908086792566741
0.005454211504534909
0.03161480431636336
0.02541817584708624
0.01090575741147243
0.001045780936531515
0.0001276881145323682
0.0009036913103005807
-0.01488492185210952
0.001329490256532407
0.03502645454225668
0.003633574308876736
0.001021478026187296
0.01792956380426294
0.04736149069040724
0.001559407003233864
0.0168059524882084
0.04108320912899403
-0.01295691861952973
0.01978041448036353
0.004818184526741603
0.02080491690613542
-0.01424304121826288
0.002943006667938494
-0.003549360983486628
-0.004643886172739457
0.002224650779982934
0.003346471109138663
0.004096431585759663
-0.01718147957552819
0.002872003418260409
0.01220048803805084
0.004150524457398195
0.001230622094962997
0.002052317286940149
0.003958312987698812
-0.005389952439482083
-0.001495594783682804
0.002442115202966771
0.009696511463217048
0.02107683624796301
0.006266420194723638
0.00107359234315348
0.007215356260491565
0.08925974952028118
0.0146744369827389
-0.005617442464777241
0.01627839465822551
0.02844790858415356
0.004330123802608584
0.002703570038437643
-0.004886814304494142
0.007264296916696138
0.009768724719466377
0.01910752432465318
0.0142894293808289
0.008091722777450426
0.005867123526676635
0.02458118647934808
0.02903302044088548
0.02609098836942845
0.01096648045553768
0.003665707953373997
0.009608037277766391
0.01418063670345406
0.00882180855482868
0.01059201283198002
0.003785834117433465
0.009969698692346981
0.003848271742756738
-0.004803950013621166
-0.001561181134909459
-0.003393587516334193
-0.001419663849794753
0.007354302893461508
0.01229744588948034
0.005028195862379081
0.005549587930828708
-0.002906746007681905
0.003086141528430947
-0.001413939529404202
-0.004826781996421147
-0.005831470162477567
0.004957013700795392
0.1075549466520691
0.001190457976238096
0.01139269095950163
0.009816469405744783
0.007760198605848053
-0.02955562271530972
0.005939399861147455
0.00998446024939894
-0.005733748751511828
0.008631970192567949
0.009070896131859876
0.01029799904740765
0.00199348784787617
0.003131950515415719
0.001238757133313238
0.04926161404736398
0.008036999927565297
0.01094444263827899
0.00931168831503694
-0.004653133554515389
0.0009502227188311823
-0.005928458653584222
-0.004261308563887089
-0.003448784253712647
-0.003088732860942886
-0.004679481921411712
-0.005864478926584647
-0.1074789013937888
0.01696998424407656
0.001032618331419111
0.01462546113918513
0.02176000461430946
0.02112556469052417
0.02387001520550211
-0.04018546291724026
-0.003535993288966376
0.006785876272449681
0.00617615058261036
0.02439364325256328
0.006311472284088393
0.01851854846088081
0.0241001326436796
0.03336794739007537
-0.003986950621694745
0.008630109050600165
0.01928554052894196
0.01752092298926904
0.03050613974401811
0.03088826525025259
0.01706366256440725
0.02297576423359735
0.01333336102358441
0.01361363906298348
0.03129051655960162
0.0132140863406566
0.01304368818628616
0.00236714985429555
0.0146591081619122
0.0136422640173361
0.01613804770637305
0.01272891124821659
0.01512788152439811
0.002555239001947106
0.008678803430570804
0.007312514304123178
0.01072842709530234
0.001363759229797596
0.002014778313082163
0.001896832300586336
0.002261296593537114
0.003385498948596034
0.01092820062241572
0.00216737706091743
0.002689642291078905
-0.008423337050965301
0.009156946706752052
-0.005083054612081857
-0.003816051511196959
-0.004513252777757791
-0.007525710515576587
0.01105917373154552
-0.04579593258353896
-0.003017425854309287
-0.004148241932778388
0.00590376794485483
0.01053154415972855
0.003736816543559933
-0.005597607067808065
0.002758524527252003
0.002925912978074975
-0.006141083111971778
0.003029426171003479
-0.006032823001672106
-0.006212128206047742
0.0006559265787205236
-0.01410301727095098
0.002895152534464986
0.06418359290078697
0.0009387345574359157
0.0009349539817363939
5.624772901258667e-06
-0.0009054689151729144
-0.0005285624674796173
0.0002084284582397109
0.01667597392074438
0.0003733321917866132
-0.0005799154094412668
0.03798400100958862
0.01035019310445763
0.01231067891043262
0.006798150975358544
0.007763200960498891
0.04688892571353884
0.005778784768813736
0.01325523325174957
0.03947931216022815
0.01049189569770524
-0.01496794845618041
0.006091210602061915
-0.01022852781682606
0.006842544765581536
-0.003642724720717476
-0.004336780145534349
-0.004666395169997722
-0.003280988843194151
0.02150892915440672
-0.002066243450953345
-0.02694827902818412
-0.006353395180028636
0.003798194886889954
0.003531408042752949
0.00506739131606564
0.005478027730485164
-0.006470395873517104
-0.004121105190014301
-0.003345311063482957
0.004521394905644898
0.02022999702753695
0.07885147492337739
0.08782309610756502
-0.003552034338608015
-0.006311904717124995
-0.04169875047865586
-0.006866998809937018
0.01089101668272903
-0.006129303758550444
-0.00583340257723884
-0.006389384240135944
-0.006525055307849578
-0.006950071592159515
-0.004493459834166796
0.003871904641445436
0.004168686987416174
0.04592863373575177
0.03146490690215797
0.00313094674576334
0.004052490725620662
-0.002962540534705349
0.004023047651780468
0.004196133497069141
0.004023147276292179
0.003691865088374834
0.003642420567559244
0.007623381645988667
-0.001117249809758196
-0.002967875621514776
0.004250784533430038
-0.004751397271234851
0.02555396937713146
-0.007573544177852157
-0.006678441921282514
-0.006642167142880893
-0.007928697526876258
0.005203713012983233
-0.006908145292743403
0.00488236281825498
0.005327870925695026
0.005489318941923392
0.02301616135795993
-0.00409365309566063
0.002466745063736543
0.004923885807007024
0.0045579794723418
-0.01544363275601437
0.006211601975930861
0.002295828716897157
0.01264147409443527
0.01785694922056489
0.009632954380860743
0.005208701955127607
0.005954768908913279
0.01966262254801444
0.004677122423537276
-0.005960350552665676
0.005468491427897068
0.001446188459644748
-0.001894781081542865
-0.009433877091557512
0.001622013122702694
0.0009941199431904391
-0.001321466978374575
0.04119607649396007
0.02036355421895687
0.002223118957940917
0.0002288048660985149
0.001617693588723667
0.001577969832308232
-0.005209794734418569
0.05003249363634248
0.02091935479287029
0.01353973138148517
0.02022804753798079
0.0007490721143966657
0.002679440564089887
0.002821776278685172
0.00377725303762819
0.01450431923067483
0.004409354198429078
0.02973533662466745
0.00602594951345889
0.04946901957273505
0.006512241085704504
-0.001867402074099461
-0.02847703138043419
0.006201762043732836
0.01709615311854092
-0.002949254109160845
-0.004143568734907605
0.005596598245811903
0.03201910943058459
-0.002757972331319047
-0.007492910396795978
-0.004782874067579092
0.02551652751694736
-0.005457451986947451
-0.001942164314924134
-0.004769218018756419
0.01741204779525593
0.01461381754180397
0.005645931028021724
0.04737202003598553
-0.0102575153351129
0.003082746383449016
-0.000899298048432578
-0.001705108293032068
-0.004943327550280113
0.01824566625179086
0.007236825382719581
0.01413464947247909
0.009730200905950155
0.004184482422312048
0.005562231583038073
0.0004914665634237206
-0.01456736374180065
-0.0007510835860356834
-0.001798185751197251
0.00453263177316521
-0.006756677488155621
-0.002156645563357735
0.09135190420563757
0.004273617448621546
0.005272061057017469
-0.002685451801098076
0.01424516972272982
0.004313062116388251
0.005050886811830304
0.03465001969427367
0.004059152556345162
-0.007273862369807416
-0.00709995452467193
0.04588567316310339
0.01918104166023358
-0.003564227236524524
-0.003643681848509524
-0.004075515413987314
0.01599004863653787
0.003649905540416323
0.003476707332500202
0.003712565957562732
0.003589115983308052
-0.008696257627336364
0.002299373695670887
0.002048914285708391
-0.02351750818539354
0.1345461802523907
0.05431436407850988
0.05243198325176699
-0.005734002561613941
0.05149462074564962
0.05598565861735093
0.003987594195408429
0.119359266407761
0.001962184743815089
0.05457803000739646
0.02498645213969232
0.007775288207734599
0.007317636486739765
0.01760481500894652
0.03522735027494347
0.009037234284007033
0.06044699285004437
0.01776044250975043
0.06077339336491539
0.01827812345009304
0.01848253779752958
0.0008594694654224347
0.006912751917736604
0.02280572371797759
0.02251169286164689
0.0203368051839769
0.0142093969549553
0.01944874405224545
0.0277200023633136
0.001168839051995137
-0.03189174451312347
0.002124865164442966
-0.01981640867936555
0.01614405844451665
0.0204685365913268
0.02892686704667599
0.0253376594875269
0.006003676501696096
0.03193920862107748
0.03292477468504559
0.03948217722109591
-0.0108884950782138
-0.02751633493053064
0.001075115190482284
-0.02789939055101685
0.07683815905267576
0.03428075215699305
0.000141920954977671
0.02717432031087336
0.05268115779047253
-0.005948054018377399
0.00162111420087497
-0.01883530881638015
0.003481497828794199
0.008332945204753556
0.02582657176771355
0.006212597606474667
0.09289909087734349
-0.03260369460674505
0.01460545687604204
-0.002912387418699698
-0.002474001480054224
-0.003718781084893503
-0.001558495612211856
-0.00182544294592614
0.09188959531124972
0.006152540882199604
0.003313301337597604
0.005018259283877293
0.005522945064984713
0.005121882510397121
0.02745276435650825
0.006900568728639912
0.005764739839005538
0.006193822412320156
0.03234938246249119
0.01535311398469056
0.07740182458956148
0.03114392825532688
0.08918856509970155
0.04324043270561721
0.01897658125282545
-0.01351336188195042
-0.005993779918308505
0.02908218449742823
0.01350923603971824
0.02364110865543047
0.01104321621000052
0.0352240779618166
0.03600866290539859
0.03578539145164801
0.03328383313070259
0.0007238135041803512
0.04159378886879136
0.0145747533680105
0.01900867754848296
0.01648468565006877
0.01041652795963709
-0.001206875640474865
-0.0006240022133281507
0.01957374220137862
-0.02712871334249493
0.01711540491425668
0.01665868253438753
0.003523677810326471
0.02033891904684449
0.008057084591361067
0.006803501160165769
0.06195214752027651
0.01201583829208778
0.01001092202333741
0.004093322896154334
0.003014659890006981
0.004047146381774712
0.003975517610829133
0.002150076678718841
0.001986594426381604
0.002189182764473352
0.002410858557974119
-0.02429639756744851
-0.006053838803214882
-0.03161429224746028
0.02583153208571113
0.05027932316069408
0.1036493115547604
0.0315702945124654
0.02228613497433974
-0.003356056887588104
-0.06512106457035152
-0.005538332784853829
0.001568712487350166
0.01368887077162748
-0.002786934613879142
-0.002549314368897665
-0.0119790481845795
-0.001924680948329366
-0.00213892929594437
-0.002058248439699934
-0.014401108567925
-0.002497579083155764
-0.04232766856764671
0.0002679884561965344
0.02491994090801818
0.06989759196785141
0.006559215734913683
0.02794443937840922
0.02434956118024196
0.008470440817542037
0.002901057863982556
0.004388732044408896
0.003847353672783823
0.003777973024331195
0.003906614171924111
0.005109292448915029
0.003663632389957832
0.00366651899550637
0.002753000277975463
0.004477970320868874
-0.004065522961056309
0.005178837305744436
0.02275901601848312
0.03840836294913313
0.003448461152174754
-0.009380564521696163
0.009664479304271252
0.003772792186209051
0.01737370798837922
0.00793018478028145
0.01658340418266705
0.003893084353256342
0.004034268351525176
0.004035286315035687
0.002733010143085302
-0.04140944886673548
0.00280513874215592
0.002993232791164611
0.002657250139578175
0.003121093762423184
0.002511687220822285
0.048491605635737
0.001858025744925815
0.004812406732683319
0.03290409487734239
0.0009067015765766717
-0.0004234774190764578
0.002641063765317167
-0.02128266692546418
0.003346696064601787
0.0002681401927643093
0.0003682630913992095
0.03913612521965254
0.03448865640775955
0.001494780353148606
0.03945129061234919
0.003069063090009439
0.03440438331049996
0.003472914011140807
0.03602446367803098
-0.01627386697229497
0.036149142251308
0.0242758551481371
0.018021796291075
0.006487095482626983
0.02505723524276027
0.03711351224474378
0.009605457574545931
0.035577955346901
0.000530600294865117
0.002266300927754166
0.0008539875189063964
0.003755589768502314
0.000197299957599313
-0.02544486209534321
0.0006214235247287578
0.0009459221343461848
0.01308465406724824
0.02183246483104276
0.002736302247036849
0.03027072114130098
0.036028330664453
0.03138644321808987
0.003149423193020782
0.03094802966266647
0.005736258402062005
0.02575296556088517
0.003019909014856834
-0.009432523900175641
-0.005603313699168825
-0.00757727218341392
-0.002209583090614146
-0.003198015040053163
-0.01508463015870223
0.02292127982720415
0.00074410151714084
0.09377001824651322
-0.01212586954351405
-0.01150557054964142
-0.03068262103379745
-0.004038935960542012
0.009786533162503571
-0.05168681550131229
-0.003139615514850689
0.02298080341007259
-0.01172305844211319
-0.03581978011110632
0.0004019398909450713
-0.001131832681348339
-0.004359929348912292
0.00340549838883033
0.002592525403937043
-0.01044017910492418
-0.008466475754222815
-0.009264422936134399
-0.01188918418214101
0.04902042717065101
-0.01749659488270494
-0.01555010484834203
-0.04567372846849111
-0.002603359523807564
-0.003220476106396451
0.002721335120982016
0.004134547571090084
0.001233414021093981
0.006357066984064304
0.0008557434720749518
-0.003964369503967846
-0.005820179052043961
-0.004662476702608763
-0.006976237219445196
-0.006074312906461645
-0.007822402928541658
-0.004014286136376458
-0.00558238665385502
-0.02456148129159211
0.01820632706733607
0.02490018499078879
0.01968563353548694
-0.005684645333127763
0.01150852737028278
0.01267434229803865
0.007410943613097992
0.007810453589308433
0.044305411428612
0.003245650663635919
-0.007399521823849131
0.05407727548772205
0.004161531125782045
0.004173971050729582
0.004237325757408707
0.01358349602769712
0.004423362444317484
0.004180437227495206
-0.005558783829442328
-0.004292237473033019
-0.007299028734116634
0.004073232103825273
0.01943268366724949
0.01477107147530069
0.01477186318188812
0.01293284127650094
0.01282599320934817
-0.0102252003362944
0.0134643089399186
0.009936869084576316
0.003347282476163152
0.003986879278254358
0.000616567117226024
-0.001103309989075272
0.0006583285217465176
0.002511622608058023
0.006414546093220072
0.0008009629526971032
0.001082462984758282
0.004854686375450322
-0.0004707627630575506
0.001344152939263293
-0.0173720362198146
-0.0009111364308217765
0.009053516760379958
0.0002041248670104932
-0.005562638237239517
-0.006042087802008921
-0.0005386362000704308
0.001047875625059577
-0.0002532914346811213
0.006138887964240495
0.006030651651474091
0.006665213300867718
0.004047051829217808
0.007671223040006035
0.006560817491037972
0.006803642812714205
0.006154936087243511
0.01423118723097648
0.01633410153717734
0.01479129102140661
-0.003627105420635472
-0.004249435804152445
-0.003643029869260208
-0.005657864059688536
-0.005032957711562368
-0.005545466631416838
-0.00121727928054891
0.03484078657318557
-0.00193268889923539
-0.009296909665105196
-0.004225958995002345
-0.002572963978481644
-0.003135063032691652
-0.003606953995100451
-0.002650034710313659
-0.003387739919005183
-0.004841051532844279
-0.004384874409750501
0.002112001891656747
-0.004690988264386942
0.03285307208373612
-0.003997782059613918
-0.001505313198905684
0.0026239576622384
0.002602766645661087
0.02977759230538412
0.00746037942513317
0.001196796863077887
0.0016343449885858
0.001465424873319126
0.03131712789928597
0.04302172342617992
0.008737303643568778
0.03372754025428867
0.01566449701931022
0.006675853651117428
0.0186029683621564
0.04439750971899244
0.04440823966204253
0.04845017322631869
0.0466896727675068
0.04147560098438765
0.007723898601428985
0.0370615768370721
0.03914423122886117
-0.007951256947768227
-0.005063021381966948
-0.004725160878435835
-0.006077812058635969
-0.006229132113445528
-0.001707978483720385
-0.002644555405035457
-0.005424275897519554
0.002636848202239718
0.01597271557071645
0.01780829536614371
0.0044419736454706
0.01603906087768811
0.00128614213444522
0.00274646467396509
0.001915970704663399
-0.003645391165208568
0.006485635561514545
0.002589210034944794
0.001158889734882398
0.005725792052775762
0.004154596427423899
0.001571460341048979
0.0002519721558216996
-0.04449931955422906
0.03376964657467629
0.03170901155150956
0.001661624945002266
0.008562480671075547
-0.007788693589684237
-0.0008141470868389619
-0.002498707700281771
-0.001162903380000216
-0.00251146471768385
-0.001595250989709101
-0.002282823125521086
-0.001638037893587431
-0.004456688198809121
-0.003890407976594963
-0.00114497432389825
-0.001914981895994775
-0.002314232582879076
-0.009864535976063488
-0.003853609192986151
-0.003534109720296121
0.0179679014957808
0.02098446774350427
0.02192992890740954
0.01842237487397866
0.0179000915669296
-0.005981269261051518
0.01702383374405087
0.01665691391922188
0.005775989682236197
0.00688042563964965
0.0121093537892218
0.0156789268129034
0.01469538239255622
0.01813374122725208
-0.01405353039499752
0.02055874630195602
0.02165162902444363
0.02097583057847842
0.02464494185585396
0.02348702652114846
0.03308881981307892
0.0326221008953787
0.03623875014726622
-0.01257172008191613
-0.01268733349754181
-0.01575973243522718
0.01593063791372494
-0.001873742315203336
-0.004478089531064381
0.003652123415827151
0.002506898245075976
-0.007839054962808036
-0.004275243688629128
-0.005142871115274021
-0.005284214218459765
-0.002204450364280369
-0.03533151777055656
0.005939108172886708
0.007859471842955322
0.005588615661369156
0.005289914201603224
0.004078680351506369
0.002602657446467284
0.01682560042391234
-0.003043916781616909
0.003585219604047637
0.003367568464785173
0.03909605641130218
-0.009146267835392944
0.03083368984591836
-0.01866576593426642
-0.009668411601891625
-0.004774793355725083
0.008596275197336696
-0.00332963623229005
-0.001968946774665282
-0.008818823907999688
0.0167411403256705
0.007352278508375814
0.0002660626322707294
-0.002878051472681384
0.009306297636713552
-0.0008219579976128264
-0.004494821602221755
-0.004937103697004522
-0.004109011433216431
0.007451971358939783
0.00903897745934042
0.009069830209171244
0.007149347359633245
0.007644558012515671
0.008145981484349881
0.01209143950849564
0.011681123566707
0.01073969244510769
0.0107033489742484
0.01195099720652451
0.01205022476947076
0.006496873094303055
0.006261089240556719
0.006531193022947654
0.00599516401982508
0.005106784224269805
0.008208214846243331
0.008375321967565717
0.00516874105674451
0.004836997428658186
-0.03001159887117807
0.00732879146773873
0.007139777394631403
0.007926141961373234
0.002778671074764861
0.001766287211799554
0.003244267398483395
0.01832994291876376
0.01605388324442928
0.0163228572103442
0.001769902235900172
0.01585659833818098
0.02698119236210704
0.02712971123193087
0.02933694540935771
0.00731385113271711
0.008303872297742489
0.007915505797808054
0.009634637970303278
0.0119077619774452
0.009785684143917039
-0.00336228101804219
0.0006706387518870569
0.00177602019167842
0.004440841248095856
-0.007719420554844363
-0.007489543410929411
-0.007692922649702595
-0.002607728555688444
-0.008096054223842852
-0.01565222541440695
0.02021716757684819
0.009400003655882165
0.01045697574236916
0.01065316135969547
0.01061910980038697
0.009564356170344696
0.0106907628657335
-0.07621208040512849
-0.002856688908283093
-0.004235567010294474
4.09892528402889e-05
-0.001588838002434182
-0.001229393305188273
0.001227308751124563
-0.0007535356753720623
1.605664082100483e-05
-0.03705496324326183
0.004477827330349826
0.005731702822793581
0.001850217359620406
0.005484258680982112
0.006505976381684606
0.006086115986615683
0.006752592510336551
-0.002817942433130776
-0.001987483261600525
-0.002641000619339737
-0.002258805767039463
-0.003496312626706618
-0.0001442042402979005
-0.002443956160746503
-0.00158646358443329
0.0003324278473261865
-0.002555321854435135
-0.006058128262378244
-0.009444818330684567
-0.009189532107678344
-0.006788190547947626
-0.0301303815193302
0.01266710125031655
0.01004381115983407
-0.006023155300409344
-0.01221201831942921
-0.00590140101379296
-0.005947322123758568
-0.003297576563163154
-0.00254114589417188
-0.003239786302330218
-0.002942923941118046
-0.006666505343243574
0.02533689412767511
0.005046493063572667
0.00361268383130907
0.002919787080716987
0.001835127353856647
0.004034900102456399
-0.00144798379048495
-0.004984227215286388
-0.005696586710482009
-0.004544211364360077
-0.004258888825619472
-0.001113507830237349
-0.003865383722479256
-0.008006801202256959
-0.0114414234297701
-0.008462662005726519
0.002535927669024528
0.00354616001431741