/*--------------------------------*- C++ -*----------------------------------*\
| =========                 |                                                 |
| \\      /  F ield         | OpenFOAM: The Open Source CFD Toolbox           |
|  \\    /   O peration     | Version:  v1906                                 |
|   \\  /    A nd           | Web:      www.OpenFOAM.com                      |
|    \\/     M anipulation  |                                                 |
\*---------------------------------------------------------------------------*/
FoamFile
{
    version     2.0;
    format      ascii;
    class       surfaceScalarField;
    location    "0.5";
    object      phi;
}
// * * * * * * * * * * * * * * * * * * * * * * * * * * * * * * * * * * * * * //

dimensions      [0 3 -1 0 0 0 0];
oriented        oriented;


internalField   nonuniform List<scalar> 
37380
(
-0.3775516208288303
1.00316419463249
-2.77293534912696
2.147322775326221
-5.162552200328433
0.8059211342735092
52.37038222121823
-48.01375115516377
-18.28107996157805
21.92063932922901
-22.7954514683777
19.15589210073147
16.79832452139217
18.25951602543494
-18.54211054543811
-16.51573000138887
-5.078948726701688
16.72718889448103
2.823462571754941
-14.47170273953364
9.394577134074742
28.05305202146852
-20.95079938464814
-16.49682977089263
-10.1901892326398
-24.85913353789959
44.44389990461515
6.968076661899454
-2.976540712163531
7.607245958124148
-11.59878190786732
9.64826975916808
0.4358388497562452
-7.43493006635124
-2.649178542569449
-8.910382208868244
7.610196369961891
-3.177335282410916
4.477521121298124
-7.541619868182093
-7.298147727473823
14.83929939909542
44.35079432452095
-10.63204488998222
-22.34045393964118
-11.37829549489623
0.8361310771296184
4.852722068135168
6.942386749948487
-24.12889527998222
12.3337864618988
-14.94155833201488
23.74731912232014
-3.416688895210539
-5.389071895096623
-1.497263581663245
-0.9650549129616536
20.45628532942427
-17.99396683478124
4.407582961943117
-0.01826563943873081
-19.33087565451939
21.12456476244869
13.41274182738437
-10.78998746751241
-14.15936766995568
-9.921368885737648
-1.581859431018434
25.66259598671412
-17.94922264324334
2.316325504779773
0.3151866819493007
15.31771045650377
-0.07582619512152958
13.59115643463402
-6.547253577621596
7.275768067653157
2.773377963349018
2.516968348865572
-12.56611437992066
13.58467241442631
-1.526799922125868
8.276184446811733
16.64719385921619
-3.798813543576418
-8.328668910429139
15.13469842034101
11.09836990310894
-17.90439941304367
-6.219286567409977
-2.198211708399745
8.853337125554676
-9.729708788856515
5.605644608362296
-6.400635749818905
10.52469993027933
-3.234766098206666
-15.90409019445094
0.782333930568001
18.35652236208677
-5.093616510541251
-16.72865264026209
6.427664221814759
15.39460492898956
13.99442965543562
19.535217929635
-0.9033435517255743
-32.62630403334525
-10.15176663199381
7.73835853127963
3.934696533770701
-1.521288433055797
20.81387125610045
0.3755847197375777
-24.4242220740448
-17.5874004229744
-25.34583283874078
19.08025686683834
23.85297639488569
-14.33452729283272
15.42377442006362
19.7246241288711
8.562321576296856
-8.748001778431934
12.97336105096148
-12.78768084882451
-8.057001673389959
10.60799963491502
-12.91247628129761
10.36147831977409
-23.75299522089861
7.418634866491305
-9.022358382328619
25.35671873677328
9.289995872479977
8.777955454932364
-18.06813613489649
4.579274424006684
2.628815294561685
-10.18463043074213
9.073958708243071
-7.309918251137924
7.525955415375121
-27.40350452466496
1.955748467576366
24.24319318557089
1.204562871513905
1.460143208773045
1.295097676287194
16.38511864189325
-12.80379040221634
-3.130257071178264
-0.451071168497988
9.110680300982898
-23.36365228046293
14.85896405100733
-0.6059920715272327
9.209629891132533
-11.83649077248459
28.13123801367426
-25.50437713232082
19.29959012206431
-8.687238224039318
-8.235343459196164
-2.377008438819378
18.88140094352384
-18.96437834138415
-0.8133339742560136
0.8963113721235956
4.824559108752385
6.974683254977168
8.361504727924215
9.447609161238239
-16.68861099301925
-1.053694837193405
8.294696668978791
-1.892278636539151
29.90116887729623
-2.918549282830309
-25.09034095792395
-15.5758486284711
-9.504398721519809
10.25828492847049
14.821962421522
-0.1409769023805066
-12.27656808486204
12.41759703252605
27.86071158115341
3.220306017478769
-10.75866904286501
-20.32234855576678
12.31368054725407
-6.314739712854843
-4.657177556895867
-1.341763277500605
37.09686634033137
-25.55195882885954
-34.52697247277532
22.98206496131114
0.1576284134112903
-28.51969288666345
-1.051747792202211
29.41381226545938
-16.11848983327279
13.55585243179798
6.851446128660779
-4.288808727199489
13.93679889115838
0.3515947251617261
-17.24018893150167
2.951795315193519
-22.20340956794446
15.41799758598012
9.94272013288183
-3.157308150913701
22.83187538323369
-22.06669123818079
-15.37961230608999
14.61442816103809
0.3897059505801425
6.64604574733004
-23.83810023056666
16.80234853265789
6.200398667206557
-8.321765938302628
-16.82234433627981
18.94371160737685
-22.64018267610355
2.169808602720309
20.07278878685086
0.3975852865296658
-6.763213701863316
-11.4930775392407
25.64244366374646
-7.386152422641813
-28.97676857291408
-17.00972286303751
16.95168594365519
29.03480549230049
-21.77886313673763
7.072170656351719
0.5976790670899086
14.10901341329674
13.88205712412089
-21.00252345169443
-20.28303819709936
-11.08824447342478
16.29824673336521
-9.213280618356283
4.003278358416208
13.58028193345041
-18.67527320353861
14.90732525873122
-9.812333988638681
-21.87079525717664
30.74967557262809
-24.9401544177613
16.0612741023156
23.1776427351971
7.011320928934983
-27.70184771997173
-2.487115944160501
-16.79237751161557
-3.713783009379556
12.22328288245571
8.282877638541278
-1.32485138488002
5.210085143489071
6.169390303378674
-7.80940244678833
-0.09914463264966485
13.08152825219722
-27.28105461288267
14.29867099334433
6.975337391210855
-16.31269663852929
18.82846101271296
-17.14702018610734
26.87662639698312
-9.729781671903533
-11.30972097979298
-10.44027399011871
21.74859080278318
24.59256198336215
-10.46732457403991
-0.2431802852026013
13.54640250810203
11.33780659836185
2.623044924946459
-27.50725403140772
-20.93139058208064
8.149580242810179
6.576700456732245
6.20510988257402
4.424399649894894
4.843046237592909
14.41629727076772
-23.68374315825721
-7.854525134133767
-12.41402552911722
2.354210483971555
17.91434017930113
10.46087396761023
0.7830278127132584
-15.84651715432352
4.602615373997498
-33.11801100376154
-1.722791221869124
8.336621426835169
26.50418079877597
-24.37705164472482
3.871756007047356
-12.61271536608771
-16.20793736545798
-1.054133504056922
30.44218464669873
-13.18011377718298
-15.44252718883713
15.93722085859216
-0.495102820387496
-4.147873429988998
-12.64836339855725
18.44894011945238
15.51907441994509
-3.138700255315504
-1.416097821152228
-10.96427634348275
-6.604984135779785
5.86691563613511
-0.9727276929038856
-4.920266248240549
-0.7119901946451246
5.887534520906419
-0.2115326777690397
-14.55790801224559
15.03521161585383
-12.69911437055037
12.22181076694308
-0.8067734891511733
-7.70447038599464
6.229964255489011
-11.03607902727585
-19.34540636245398
-3.463133386307675
6.600602383303886
-14.25478212077214
-0.3033342875462046
-3.367919188568377
7.953957653608773
13.09447104449323
-17.68050950955089
-0.4338502136565043
18.54379222101731
-18.11002119485087
18.95402705990417
13.24544710839949
-21.82576740412449
-10.37370676417775
-38.07117986191405
0.07001539780348701
20.93160849505253
17.06955596905977
4.402263619211103
-30.71927146382408
-1.865437593373925
28.18244543798893
29.20935199382446
-25.17494201243063
0.3678536378183779
-0.08784237607739424
-14.3654975095551
-10.7540125006816
25.20735238633155
-13.39111083487526
-2.599192059120628
18.28309506213495
-2.292792168138802
-26.79544366411747
23.42784399864881
-30.65394806990006
34.02154773537274
11.85599378741271
-5.762429679159266
21.20437057524517
-18.59008396612304
-7.694275159438133
-7.459032303601023
15.15305965595118
11.23949281092868
-13.51196018914664
13.95579729081891
-11.68332991259902
-20.17753548228766
11.56131956661847
5.854181466474937
2.762034449182892
-4.960024960775271
20.56242304091206
3.258610466081155
-18.86100854622066
-17.00354453427066
12.54229008322318
-5.139722971660569
9.600977422687226
-9.910040154504168
0.7875090734174236
-3.097664768001603
1.03772415727745
0.9956119265909029
-7.25258194912856
5.219245865259738
2.467573321528666
-5.915265424012722
-13.23244103946602
-17.6730998248043
29.31928530196133
-10.17104354305489
-1.475141934098567
7.062139955475013
1.199978618664404
-7.224394416870542
-19.52905321317289
-12.22295868930476
16.89996948916543
14.8520424133148
-1.719990184216536
8.15633927145603
17.77566781312561
-37.31361752659677
11.38161044201596
4.977785377758608
-3.326505965667813
-9.167729357850215
0.3032107249979582
6.808208664956383
15.06235987862808
-14.13644042771723
-7.734128115870471
1.560786786214229
-7.558044162076738
-15.79860015940261
6.971388264001877
15.45618072581288
-6.62896883040687
23.13590912800058
2.75729553511689
-18.85670099942951
-7.036503663686409
-6.834722358166029
-0.5707941328442331
-13.52587409104933
10.77536588762837
0.7901803857110593
-5.74022619222992
-5.825320081117785
19.00370221193208
-18.38869488573846
23.11459181476862
-23.72959914096132
-6.078088655703038
-12.15792573990435
1.552108080105854
16.68390631550837
-0.2502623074404037
-13.09402423220202
13.34428572801172
17.28615316275102
12.6600452227402
-6.989917623927016
-22.95628076160465
13.11973213950282
-1.798407546506591
21.67704103787136
-32.99836563086558
-14.50793639558455
4.264037159842545
-18.36009655118537
14.12104086599047
-0.02498147469135387
-24.70561368257329
-11.80955308259368
-3.021961754884897
16.66452684871675
-12.84484286601316
-0.7977222278308745
20.67149352171773
-16.43656119792679
8.88479981571337
-9.058345411131892
9.135720806918689
-32.44228602676424
16.83826667055664
10.60645857264972
4.99756078355836
1.722629421452198
-2.551472233139337
0.3469948560181159
0.4818479556699725
17.56215024726514
-10.62360532838342
-24.6996192376964
17.761074318815
-6.413829359212215
9.625913843391817
-17.67242475684686
19.61097551662572
-11.56446460317035
-8.705657416395017
7.685623717101341
-27.69890421808367
28.71893791736482
-7.715837267658589
23.54367067144468
-2.680419532137373
-13.14741387164568
-9.709461019833409
5.749105422307514
-24.25522507841333
28.21558067593018
17.96174934418099
-9.183946004483223
-21.11577085628605
22.22600581932648
-18.32322605432365
6.244062012411757
-25.72842194466729
26.09236161992422
-6.608001687671306
6.519677297982153
-29.9507073609772
7.881214860697034
15.54981520229775
-0.456828136679448
-0.3854625030115642
0.9198284285948705
-0.07753778894749105
-12.12988152061245
5.748886609815066
7.950799655407955
7.833874948995931
25.30847701972921
14.21385445540794
-19.64122693933706
-19.88110453579426
-2.107309499437799
1.369821343476152
-8.32085725517801
20.27896568577223
-0.2745203727631134
-20.00443500352397
9.228742191848237
18.01118600424924
-12.97319470105589
-14.16145476802276
9.123463464831916
-16.56225496441446
-2.204409179060882
24.42311307814188
-5.656448934665075
-8.658866033743909
12.22398895672152
-20.12737788739075
-23.44538063123152
30.4925614893236
-2.771677316162748
-4.275503541931617
-2.674468301513681
-5.041939144187826
-1.644462767903652
9.360870213603947
-1.312069207074094
26.73469073231852
-25.4226452341436
-10.65555097748055
-29.74087677350121
16.95104711975148
-10.13492139744691
-4.883643114660511
-6.271020319914236
13.82364864237229
10.38425755956249
-20.83701484353737
10.45226505663409
-8.875046274989366
20.49428573830072
0.6217032037223512
32.50896365393609
-15.57787925792775
-17.55278759972903
-9.764415371387047
19.87832046469754
-10.11409044048895
-13.13520954309336
28.20013316805029
-3.629437041340359
-10.07940111055204
11.03436985037297
14.92876664984384
-9.897774931674709
-2.375410650284008
-2.655581067869821
-6.420352715793535
-14.34224162179825
21.67030349118361
-0.9077091535916093
9.378821056538836
9.18651313960962
-5.752427183051828
28.96077566655043
6.009463944865843
-29.21781242838693
-24.53396132985305
0.1385836420005111
24.39543082921919
20.10817408457704
0.7468258698470104
-1.535953587176538
-19.31904636724687
25.5213778675419
-16.99724207433086
7.126637173599224
-15.6507729668044
-4.099912558999095
13.52418668057268
-4.427177851647322
-4.997096269928037
16.71457739023929
5.943957132503485
-10.34087895742656
-12.31765556532096
-4.119041221686689
6.516405616409355
15.12060474624777
-17.51796914096994
12.44086200237078
-10.80019617304744
22.36646746292021
-24.0071332922432
0.02488393393161032
-0.03268700415831103
15.52485222152258
-15.51704915129445
3.169129257460223
5.924002020739551
1.682234609427697
-0.01407026816856024
-20.10495734159761
20.1013399160111
0.01768769375536376
21.69533016111832
12.87327308167049
-22.75295201629134
-11.81565122649212
-8.418940267975644
-7.638689637332772
-2.012855169173625
18.07048507448235
-6.439174087766097
25.17460622226038
-15.68033506507094
-3.055097069417346
-11.3163169091172
30.63850526802084
-11.40201680292038
-7.920171555977022
16.20319469528917
-15.22162760000344
0.7285997662879945
-1.710166861568471
-1.92100785418709
-1.295317420190438
19.41951996967025
15.93653688293417
-22.13189281006206
-13.08760102039827
19.28295694752595
19.12200320203676
7.097414478853377
-23.69721897936826
-2.522198701518716
2.962845527063591
-20.02253794825668
17.05961849283424
14.30412848864294
-16.59737788858661
10.6501076643608
-8.356858264410704
22.35884496030657
-0.6305592680794184
-22.31193156840221
0.5836458761754754
-19.05310504904303
19.92696114854625
-2.794863953685973
1.584244208838257
-17.93721392791945
15.86852960530022
0.4844401137787621
16.73136311993312
9.197323736825375
-8.932919451095918
-13.09994203449035
13.16086974495049
-0.0607747470574874
-18.66657063343686
5.594543229470302
15.04218648922958
-1.970159085262609
18.93640513346362
-8.687152534214141
-10.25427578856681
-9.662289652289914
12.84304623082696
10.36091404793832
-27.57948119412138
-3.247296386804316
2.760498574259152
28.06627900668115
0.02267114509405598
-18.50879396503242
18.48608166734889
15.00393238691818
-26.43905020039
16.83006904301794
-5.394951229545057
5.772248815645409
-5.46800876642499
-15.20771737107203
14.90347732185592
20.10045281080206
15.08478037664389
-14.90626750167301
5.776736697114488
1.724091931908801
8.698429125925644
-24.88723000285912
35.7377272500075
-2.812338902316748
-8.038158344825185
-14.61801707267821
35.71598915452394
-32.57956181998992
11.48158973814474
1.186595920199603
-21.70961624263848
2.998414580819906
17.52460574161998
-13.56772177540621
-9.100922697907071
30.79501128353255
-8.126366810222267
8.740991949948576
8.052580026440586
9.223866265778041
8.266197550557138
-17.49060604662617
-1.434148629674201
-27.39027256779272
29.43706284328619
-0.6126416458185966
21.78109546500781
-0.1416251320769239
-21.63940150786089
-20.02561086246152
14.20223559184542
6.508392431845832
-0.685017161249627
21.0600439613364
-20.35095176458963
-11.68630028253634
10.97720808578962
-17.93501382497126
-15.30931147089249
20.12597282104824
13.11835247481572
-13.92184006660097
8.625282155435347
-14.84163653953251
20.13819445069799
9.970191198607846
-21.71609314499088
7.764213541744291
10.31768456275744
-12.2354424600093
-5.846455644491392
2.404436638832398
7.853729809944475
-25.60966308487188
4.94988293043121
1.180045177525759
19.47973497690862
3.842214418528006
-19.31474741115054
-5.635896526266775
21.10842951888693
-12.62047632094261
13.23762272073712
-15.15059150846228
14.53344510867193
12.27668140527722
-12.13317951003995
8.66219548403221
-8.805697379263862
-14.82571656638091
-5.608170108597307
6.249450727821459
14.18443594716091
-11.69597679220672
7.383137411396879
27.44874850881162
-1.67075350179351
-24.7635922675637
2.476877334227666
23.95746843513305
-15.50201832659883
-0.02062314361588359
15.52269410452692
-1.476949808929177
13.47484359836148
-11.99799854784484
-26.44417623961124
22.41621256148679
-1.091234656851534
5.119198334976912
-17.16208433420805
0.4910748532394709
17.42447554241447
-0.7534660614425499
-20.98480621497101
0.06985541623541155
10.77565760563594
29.24536246970119
12.45320402219563
-25.61389483391719
-16.08467165797373
10.21610931028762
9.110258485918999
-15.73479327560536
-18.36789061078385
10.79512050834592
23.30756337804546
13.44809383381481
-15.94412541114236
10.26024511907304
28.0980777678824
-22.28037989563997
-20.22462127331169
14.40692340107005
-17.59079634566271
-10.16188623420548
14.35647921465525
13.39620336520507
9.504552509652274
-22.24240107022356
-2.996944715030208
-10.31338823233036
-6.431566461983833
16.74473552245463
-12.74674296823669
14.96874626467413
15.61188220916142
-17.83388550560489
0.3856822589882964
-0.2389656695322517
18.69030153698947
-18.83701812644473
-18.84980890449335
0.1302173969811714
18.71942284003214
-1.309803449708145
-14.93360001483213
25.74795597419681
18.73955714626153
-7.344731388077957
-12.70462920788539
-14.92917908192325
11.47885351178397
30.28011141049038
-23.01940777600273
-18.35472161144902
-8.587653398817727
12.00877499543674
-8.745541397062146
1.83847914929322
-7.072596812215717
13.97965905998487
-21.36987557785009
10.76828429289898
10.60108274131836
18.55490584158709
-5.854142183659454
8.057246430010661
-20.75801008793728
7.513880559678838
34.53884523180457
-3.030770882431815
-39.02195490906706
-1.008394993772522
-3.432754745412268
16.89903487759928
0.8523153353627828
-14.31859546754782
6.128749979885814
-2.43227987456607
15.89007637057013
-19.58654647589503
-15.78916469692432
32.08969876522831
-2.154635858497134
-14.14589820980661
0.6331527241413094
-0.8620835918699147
31.20723253422534
-30.97830166648445
9.618418042690411
-0.5468974393911303
11.36167124176201
1.714992641723364
1.752212074404934
-14.82887595788747
-3.946731765579099
3.269423146314953
6.564843140166392
-15.61423252922599
18.68149743432513
-1.359178443376041
-1.70808646170874
-20.64626770247238
22.50840542583039
-5.734454359322642
18.53640980660334
-19.54133015585726
6.739374708579273
-1.44470397259538
7.116390249683773
0.655442399983911
31.25326906230795
-3.278576936533661
-28.63013452573499
-12.31426003266872
1.020509589203599
13.61690846163454
-1.123540182420251
15.24236590643912
-27.73573418564096
-25.19175490953718
10.81516254457806
1.963266814634016
12.41332555034021
-6.891069266324844
-0.2746339426608719
-8.710017869419065
-9.749926183716889
3.862970036286796
19.82804699386534
-4.289874445206384
-29.54106147589848
-10.95675457354454
10.85791249060398
-0.247161579715796
-17.17264661128936
38.87714426563416
-21.45733607462491
-33.2701877399619
17.80632300346435
-1.965476927885438
17.42934166438236
-0.06452011150388184
-20.25594555084991
0.05743170621246182
20.26303395614191
12.85222018750097
-34.89408756150387
12.76665522149935
9.275212152509045
-17.6252008465216
6.050354398626953
-15.28408270564492
15.28398806023517
11.45069874268601
21.97923844669227
-25.9501203687885
-7.479816820587453
0.08746533965614524
-22.61185655586384
-0.07651302887096591
22.6009042450807
-9.743392075698853
25.23590166561998
-26.1412845368137
10.64877494689307
2.87661841115081
-15.38185551110014
4.66430113902015
7.840935960935618
1.452056298923096
31.16173938653953
-21.16309694277519
11.99432495459017
-11.29057114634442
-6.573496384482679
5.8697425762377
-5.707834124033871
-4.044363227901409
24.56419511390911
-14.81199776197406
-35.54541599535717
5.729503066941961
2.529247408369187
27.28666552004714
9.388502083721095
19.34539298163108
-9.321013999458563
21.98231649244656
17.99498559157479
-25.68481937476469
-14.29248270926144
15.17159430229566
-15.49339383216174
-5.240316218425013
5.562115748291229
-11.51554451249916
21.37757737592186
-9.862237731501402
28.23036864464139
-23.07156828571917
-21.76295453780764
16.60415417892278
4.906796882841757
-18.99804221934603
12.44544646623972
1.645798870265042
-1.033766609585871
24.00981779453541
4.121544691958631
-27.09759587690754
2.135432654773391
39.72073476963254
-14.96794322043079
-26.88822420399944
-0.2652696509345223
3.016848471814985
29.06741088999935
-31.81898971086017
6.59906535552581
2.752278771606661
-14.70524151443892
5.353897387306798
-4.895296519749166
15.25756986580808
-2.196994819448077
-8.165278526575589
-15.97508969347248
-9.647498353649425
3.31778293326349
22.3048051138572
4.743680757135603
-19.72091816038505
-5.446852406134098
20.42408980938328
6.924193595630812
14.09547469690814
1.080533281646659
5.342554041779764
-8.530396822872557
8.680977482073221
10.87092702392041
-0.6711961566672442
-18.88070834932223
-0.5332613667954451
5.44795832484769
-6.634687142270955
10.51063723946952
2.937338344009436
24.48382320782077
-16.05162539549148
-12.48574593427411
4.053548121943822
0.7806587978709455
-0.8012032883596358
-23.50966146037632
23.53020595087289
-2.66522429401433
11.11443117717869
-13.1299533054182
4.68074642226308
-10.2643163781654
34.56521623860201
-2.605569699314564
3.970294276074458
7.674166833566122
0.07370404702263979
-0.08259824592439632
0.5815422315723485
-0.5726480326923784
11.64618528669266
3.672550326016074
2.833911989013853
11.18833709123197
-0.1620601747683331
-1.425299493773479
19.38070814765046
4.864597082007589
0.3153806029667032
-24.56068583265274
2.843767003033282
-7.435717985633405
33.15536615409684
-28.56341517151652
-4.909054287434392
-17.14682924468418
1.085686923087055
2.720564890516977
13.34057743108287
17.03535736170662
-0.8918300265463599
-16.14353629616443
3.540458328336752
-17.67991862205287
20.9084828635426
-6.769022569816238
-14.87970534775501
17.20059390835054
16.58775169023416
-18.90864025082611
-41.74612913823563
-10.32883384990867
24.44488291732103
27.63008007082886
16.50024176677706
4.590156038375564
-20.72595236357572
-0.3644454415555599
-37.29076917653094
27.87228779080879
9.626324119209102
-0.2078427335310083
20.14031866105925
-4.183671039767101
-25.04241743778415
9.085769816493045
16.98331116637186
18.88358568144941
-19.36665508100189
-12.05952127815413
4.93193894885688
-11.36603229061705
18.49361461991538
4.306844357582342
-3.659468346654081
-1.736574818642145
1.089198807663701
-34.26188025719888
37.49382156407417
1.373479408708155
-4.605420715584062
28.97402182105057
-21.6276165778382
17.29200253781759
-24.63840778102765
-15.24659683912042
7.558568546120968
24.67133945939155
9.963692233415452
-16.27509337817454
13.52951306627349
-7.218111921513674
3.41324391113656
-27.07700541879516
16.82821086319214
6.835550644462246
4.767934235606702
-3.689734946838011
-14.04069083010872
12.96249154133779
-12.27204547320029
1.615604672458443
18.9511183780504
-2.686621510288395
-24.08433255717189
7.8198356894095
-6.932251643472941
-20.22983062064192
0.0656009009760186
27.09648136314006
7.330768664089301
20.67532859215195
-9.054978878187105
-14.32472828511089
1.902211830456941
12.42252971202092
17.58601847787392
-18.51695657960822
7.405732134574358
-6.474794032837778
-24.03145325472544
15.73879390640059
13.3005439192685
-5.007884570944681
-3.672460991777236
3.063300816087057
-19.2527904429723
19.86195061866552
0.6908885943130199
-12.16201550662999
6.598246786300245
4.872880126017834
-15.66779687821081
6.515219379628848
10.52717707416098
-1.374599575579056
-14.4753249317332
23.87214485751593
9.983888221862513
-10.09212402642332
28.05141223754341
-9.524777567315297
-8.434510643804233
-5.269780895151774
4.025616958181256
24.46108522474283
-23.21692128776819
-32.09379932713679
8.291582619820787
20.65954666435522
3.142670042961087
-24.34718342503875
0.1371680342900181
-10.1621741658117
34.37218955656837
27.55260897748147
14.94188356922469
-14.46598550033705
-28.0285070463651
-1.567019886269752
-7.685493106083703
21.568147409297
-12.31563441694636
-9.506693021620228
31.50804250686897
-21.39012847332646
-0.6112210119216119
11.7377726696752
15.50694278384909
0.05599260446003698
-27.30070805797811
1.662587499180892
-23.4139798137628
-1.574533251656528
23.32592556623895
16.16706552483792
-13.27705024480377
-18.79410547448596
-0.4443492106474497
14.26648792922909
-13.82220309944753
-22.15223077424315
11.00306115644977
11.14898063558983
12.12331199170726
-22.62993121016684
-7.730734981762343
18.23735420022884
-16.71934751995364
13.86876291238037
2.85033580721421
-9.077238153216316
12.42980601972535
18.07702310440848
-21.4295909709096
-15.99246580107807
-2.810581714292463
17.50773009518598
0.7993400615450573
11.92220368441065
-24.30673057274856
11.58518682679443
-17.64545473800122
12.74035122722662
-11.08736229029811
-2.989650151426774
1.248977228979103
-18.42610762159557
20.1667805440485
5.783363115622671
11.84558268129454
12.99686346641082
-30.62580926332403
18.75069542003379
-2.131600577535999
-8.171627476301559
-8.447467366201868
7.499499671727813
-2.470721259297197
-21.39158012505845
16.36280171262799
8.913035541349407
-28.68181204802823
10.69153835346797
-4.793732298178674
-13.03940130659105
-2.721389891850471
20.5545234966292
-8.002171869149585
19.09218878520789
1.887302386000216
-12.97731930205671
3.019313769892911
13.8544275119436
2.047508423847464
3.932893006107128
-23.35639626785224
15.16035634226853
4.263146919478279
18.79398937293869
-15.08524618514874
1.555921144587833
-5.264664332377917
-14.46421043382414
1.145039614001863
-2.055012062774183
15.37418288256326
17.39893928791675
5.840567049471161
-19.06180154282358
-4.177704794562195
2.64824081209338
5.132487517266025
14.46612299776682
-22.2468513271297
20.66536724861887
0.1872621461721856
-25.46181391547191
4.609184520625762
29.35151720947446
-18.75962178384889
17.99370095234451
-28.58559637797898
4.609078858298549
11.40319068931379
1.776918767095011
-30.02344213419306
-3.235289831672904
20.45930928376025
12.79942268211538
-4.143536402613699
0.354556062575248
19.24095183935442
-15.45197149931539
6.918933494639943
9.387739575276971
4.807030961900241
-21.11370403181555
12.14871156437177
-7.088061163957458
-18.07540763526744
13.01475723485773
-18.49396576440108
10.04215586485284
16.12776151795073
-7.67595161840158
-18.56947549570053
19.88251951991353
9.09264901694249
-10.40569304115659
-7.962090352026692
25.56701801364008
-0.3958584397569532
-17.20906922185948
-21.07584988053926
-3.372397971586336
22.78343405401639
1.664813798111689
-2.332806080984924
19.31055063033003
2.824598140871226
-22.39207526195372
-6.823431713288941
3.605843890362541
-26.92337164499334
26.25563029268694
-13.8075835794363
0.8958876351757804
-41.85743839282798
6.877462109119218
-18.67173734403165
34.57823112303756
-22.78395588812418
17.70900727944751
-41.64836182625155
-13.70060806045767
37.63996260726332
26.44214760200593
-3.630754206335101
-22.39908316036597
-0.4123102353034662
4.328505393640463
-1.43394825638779
27.70413207327089
-30.59868921052179
24.21488608239814
-26.4011344633644
-1.142250400208384
3.328498781175006
15.54728434530329
-12.50737457386087
-24.42773531697093
21.38782554555249
-5.595615190419234
-12.91536092091578
14.29773402658897
4.21324208474608
33.3830993795216
-16.98270218804498
-19.77504711671559
3.374649925219849
-11.47075550594283
1.622644020732486
12.46395895413926
-2.615847468935369
8.004279697250713
9.724739963039385
0.07181329499416403
-6.279056891203351
-9.834389053464346
30.85840442196791
-14.74495847729917
9.918229815363116
-20.30802289488772
9.020015434784188
1.369777644740055
-19.44677457897845
25.25387333557127
3.441693193687744
-9.248791950283872
14.29354747266297
20.46816696236194
0.8244832399373585
-35.58619767496314
-27.2064946638609
-8.570056127374885
-11.61581076987763
47.39236156112933
37.76236089804465
-11.3158266697801
2.566711938253206
-29.01324616651156
15.63034218816119
-36.03043485110955
-8.400493473680848
28.80058613663222
21.48031590888379
-12.39623575753506
5.983726972647112
-15.06780712399307
-20.33047505597075
0.1183541482322847
-3.001113585767046
23.21323449350827
-21.24754106086087
0.08116415012388607
7.4692069771544
13.6971699335845
-10.9474418840209
-20.10999967807735
18.79087648283983
12.26656507926787
14.0229749608224
0.2322672906637207
-14.2552467165051
-14.44965885732509
18.78496354623192
33.42705620913578
-18.0607566313976
26.02389585119319
19.37923099033786
-27.34237021005327
18.90282189540977
-0.2262859115086984
0.2774910760035024
-10.63580729310659
-9.695688982795559
2.447365152058557
-23.02862129949632
-6.625238516418013
-21.15637612355858
10.51912519103596
-0.3101909514944665
3.465125790872841
14.95951300240332
-17.23804287307455
36.98958794141038
-16.95193069150808
-15.08906433009354
-4.94859291978201
-4.206270422500199
10.89725186116858
-26.80098111674001
14.21544934623784
3.805934711243724
1.698465749483118
-19.71984980695941
1.289037928007034
8.78922654269552
10.57790902876067
-20.65617349947993
2.260287023265425
-3.671638379686906
0.5430771727584814
0.8682741836658158
6.404379909866027
13.00573383145773
-1.270590015753167
8.745887171019412
7.968848773313613
-0.3296173024397897
-3.648565505410456
-6.718300499993147
20.16705225547452
-9.800186250075742
-42.68763210173727
9.546225188484991
15.08065028189897
1.653361305466617
-19.68671481118187
0.9297103952896222
17.10364311044007
-10.8354017370291
20.9443931148274
2.361031753054943
-12.47002313085953
27.01053865518961
11.54500172194446
11.15993225635673
-49.71547263348199
11.33979113960552
5.469770666172474
-15.80951189925039
-1.000049906528022
-23.53179993144071
-5.929639704781925
1.333829038152886
28.12761059807449
1.216754561959719
0.5859883179739935
-25.33454281137032
-15.2953981349656
-5.593659091023384
-8.04034866254614
15.43153625599208
-15.93520273868551
2.157027788177248
16.23411061721384
2.759078553591497
0.859692581911505
-19.85288175271821
38.53874627531398
-20.81239519335737
3.583995983666604
-21.31034706562264
20.43280082146145
-27.22370557440782
6.790878122034187
-9.101504282057329
29.68501635786824
-1.454570883286395
-19.12894119252391
-17.34811482432852
-5.428563792881534
14.93648894665468
7.840189670557279
6.842379674316401
-6.65957459691725