/*--------------------------------*- C++ -*----------------------------------*\
| =========                 |                                                 |
| \\      /  F ield         | OpenFOAM: The Open Source CFD Toolbox           |
|  \\    /   O peration     | Version:  v1906                                 |
|   \\  /    A nd           | Web:      www.OpenFOAM.com                      |
|    \\/     M anipulation  |                                                 |
\*---------------------------------------------------------------------------*/
FoamFile
{
    version     2.0;
    format      ascii;
    class       volVectorField;
    location    "2.2";
    object      vorticity;
}
// * * * * * * * * * * * * * * * * * * * * * * * * * * * * * * * * * * * * * //

dimensions      [0 0 -1 0 0 0 0];


internalField   nonuniform List<vector> 
19631
(
(0.03629959304788846 0.00348250925317013 0.02227482951842667)
(-14.16418853753997 25.48912104194144 3.893069823109253)
(-3.127127822051764 -0.8352071567713391 -3.795870519634583)
(0.6593615082894771 -12.44010237652431 2.106680931749698)
(0.07323639290294721 -0.05522130291044942 -0.02291681736556311)
(-0.02891696338806232 0.07353587001876823 0.1805384158388238)
(-0.005805519023500599 0.005401055629845082 -0.005693496330734927)
(-0.9000528952475333 -1.245337620780687 -6.110487715113177)
(-0.02227356005879405 -0.01083850310519432 0.05448745670068756)
(-0.1477096463104405 0.04176181818035331 0.01051614810167551)
(0.2213341846326507 0.1094858381413387 -0.2011933176050447)
(-0.2354490191597718 -0.03281700823577397 -0.05007776339601037)
(6.134852235406595 13.60752396744627 3.431849306749418)
(-0.01529481546666744 -0.0004985283174130384 0.1128879438571861)
(-0.03056722968916754 0.005326115894815546 -0.004406127339807516)
(-0.132666507550253 0.1067651047229885 -0.07438909037921564)
(3.807424233335847 2.432719669966564 -0.1328456293550172)
(0.003569706745732795 -0.004863459669380362 -0.001228862516922489)
(-0.05850853763437062 0.1191243479511604 0.09074829169492815)
(-5.185816430358025 7.454055687458734 -1.852695246916475)
(0.07747370974626436 -0.106009923950813 0.1080014915973962)
(-2.90742305944361 6.694279128637841 3.746564866358732)
(-0.02620278136291754 0.09773037597691886 -0.01626375214587011)
(0.5009004411640664 0.5606723068187961 0.7401700289458318)
(-0.03929831552333461 0.09504400276620573 -0.0622466615952496)
(-0.01772549787833153 -0.01205860345209534 0.06722305876976248)
(-0.06123237904475858 0.06390298435976362 -0.06465695085195912)
(0.4938989531373612 -1.390594768657752 -9.062878794454591)
(0.5520417744155908 7.349221655675197 -8.720129487680577)
(0.2582453181669346 -0.02501215275399178 -0.1430821379114114)
(0.04233331582314502 0.02139871746636513 -0.01949328664322593)
(0.1893616192255845 -0.7695856177378592 -0.7036111951589559)
(-2.126880333678493 0.5909664751366849 -2.208690682469919)
(-0.06205763618955319 -0.04192397800645882 -0.00443853739599274)
(0.1205118614682702 -2.58096792840264 0.09043601954436345)
(0.06368681901558385 -0.02894038683327033 0.01508024637905053)
(0.1474701454791096 0.06266360854525482 -0.09726474151790651)
(0.3862904794429057 0.2459091317319694 0.06952190788067557)
(0.09104047888403945 -0.04567850639702725 -0.03866426059212143)
(-0.2672492893136003 0.5496963781434198 -0.9429277302112549)
(2.826539951999025 0.3497816238747018 1.032323204129858)
(-2.916605197884197 8.759702367601015 1.15722463681184)
(-0.01989455715538786 -0.02452754237201592 0.08104771300699921)
(-0.2814298550280858 1.301101240631745 -6.302066567487855)
(0.3104182826369212 -0.3672424930017052 -1.030587812291079)
(-0.2352423741879952 1.083924470526904 2.728332216929395)
(-1.546675161463223 -5.906657289049752 0.7114568964498176)
(-10.37110818112075 1.133328626449548 1.146436148774396)
(-0.05270070197045927 -0.01556434877497831 -0.009298504246725054)
(-0.05949907149369481 -0.006611332505798565 -0.00321091696405326)
(-0.0125667073673116 0.02072935119032111 -0.09209717968786134)
(0.07053861329293057 -0.0099886694845931 0.08069781626913397)
(-2.113960992694926 2.950493268609384 -1.093446733940515)
(-0.1333793619652582 -0.01418477361189158 0.0127006877045332)
(-0.08532176389761328 -0.5412877240693552 0.1306319462809643)
(-0.5279163434308883 0.9620228691628258 -1.119445737289633)
(0.3916850138093665 1.386737306369606 -0.2896722324639695)
(0.0008641490991084642 -0.007057051726485205 0.01830988726389661)
(-0.9040818256426197 -0.1071280411222978 -0.03367769783758657)
(-1.552163968505605 -5.01613074000767 1.35178319021135)
(-9.452372041260109 12.18828531436705 8.330927331663441)
(0.4221306013097852 0.3338602362969644 0.07669723029362852)
(-0.4165457127833211 -4.491892867734649 -0.4457877582566392)
(-0.1123224079472159 -0.004773791270019312 0.009047546576190771)
(-0.1875582549291575 5.094217861301603 -5.951246184347637)
(-2.702260779908988 -5.47939935571927 -1.389121086457398)
(0.0774234079747729 0.02208894963251445 -0.0554942552771126)
(-0.122785838957177 0.3754330362579108 -4.588017749369179)
(-1.531266130904925 -3.313016900728893 3.483389794906794)
(0.01599749818874476 0.001350707799989873 0.03238701677169208)
(2.890808238752079 11.51059330934829 0.1972358105465136)
(0.1319695121620678 0.06933739980425603 0.005505582454219917)
(0.06335083877338099 -0.1508374113451527 0.01051650737308142)
(-0.8628856819219026 8.31968494708244 0.3740047586663993)
(-0.3481437189838941 0.05728992795181691 0.09230729554586951)
(-1.075210411500235 1.087589513770554 -1.429173537881474)
(0.1452515589257507 -0.120116098591323 0.04205426125384758)
(-0.3107832803126833 -1.804630077196516 0.8720695602009173)
(2.053109435177937 -12.73035005843004 -0.4888760858587298)
(0.0362686089760567 -0.009667053364598104 -0.005228164355820603)
(-5.901919053207719 -27.20549378648956 -2.062651783530665)
(-2.05189363659885 -0.5416387895289652 0.6848789581106223)
(-1.277571688778141 10.360052608454 -3.270593228211826)
(3.981960149532731 -0.6861421527802904 3.899503988003767)
(0.03366955446138618 -0.2963666531337731 -0.2603992354118427)
(-0.3572019934616205 -0.2902270896421725 0.3081557330173169)
(-0.1225751150823136 0.3772575260266077 -0.3511759333806247)
(-1.258977007621909 -0.453935716929954 3.353132067686275)
(0.6595196489249374 -5.365701996041103 0.6046200167532978)
(-1.893949503482201 -1.030470108706208 -8.664516273136009)
(-0.482673349970522 0.7908761261967926 -0.3402504997922657)
(-1.205893128820233 5.162200410724697 0.2402205643112597)
(0.01597834053456604 -0.4901417718494564 0.9915870215161685)
(-0.7990303860572868 -0.7568530746294569 -1.194401188800646)
(1.222104311523839 -0.05767416750575824 -0.4095214294755289)
(0.6538815843039285 0.4954452670861459 -0.1620066861870339)
(-0.2407171720329162 -4.275041571470886 -4.079088515046191)
(0.6152906845953228 0.2359252394867474 -0.4903448317810795)
(-0.62618616902737 -0.2178966344261934 -0.8749480896651479)
(-0.04833257707844117 0.03465197787228694 -0.04328915236890893)
(0.09181223568882808 0.01612674147589301 -0.05628960298486647)
(-1.97916084060595 59.93264235496412 8.587919554685763)
(-0.06217694280334145 0.07930854760485341 -0.01097419833204494)
(2.017855039611277 36.64380959277312 -7.969509176473446)
(-2.712497070000257 0.1481745195670028 0.7857443177030546)
(-1.434423925773409 1.367109936169885 0.07547306521300023)
(0.02853278620808204 0.01937240464142213 0.01524554585461882)
(-1.09883441954886 -7.761328358579024 2.725265596703279)
(-0.1840579452124961 -0.04029493650207461 0.03683392267175902)
(0.1312431085079194 -0.06944701562606859 -4.529908501232488)
(0.1777172852499972 0.3585063854423362 -0.3890303997492526)
(0.7435886171545012 10.37616853330382 2.128153538040103)
(0.2497928425935835 0.04089603319338382 0.05679375780514718)
(-0.2612534038454559 28.65901864932682 2.194140731777304)
(-0.2195893274077318 4.581113320317759 0.9121181310132062)
(0.60682818593883 0.8813594470437209 0.3560816283657833)
(-0.4571374030742646 3.484899918092613 -1.696729846592126)
(0.03320260835267667 0.1937369015320864 -0.2365396005337143)
(-1.450808644662371 9.519583506032317 -4.373220612516769)
(-0.01415182569615995 -0.0202214367646572 -0.03077993455777006)
(0.364482139256112 -0.3721704061438765 -0.3582669768461865)
(-0.03533752297679637 -0.007469992313483944 -0.02536964882739117)
(0.02764903510766731 -0.009395801830988112 -0.02046064345226362)
(0.4992798848698564 0.4768811556141535 -0.644779290957337)
(-0.2142964972950443 7.119524367911575 -8.87560712015571)
(0.03996199491569478 -0.05290405416966381 0.01119297380744783)
(0.285667596013126 -0.05096848626985839 -5.182996875670065)
(0.0205532795987081 -0.01219303743436711 0.01240875167025296)
(-0.1106799299937737 0.00718334361169109 -0.02416721923958013)
(0.01407732874667011 -0.007324047996626649 0.01239390834076283)
(-0.4147228863396492 0.03901185179659358 -0.07209438708419939)
(-1.752791280897517 2.636179409842543 0.2778539047297069)
(-0.1072526514985241 -29.03926457890385 3.243319228020914)
(-1.887693136786644 -3.86458812937825 5.299574139532554)
(-0.01766868225416455 -0.009677759721282313 -0.0002203631301213134)
(0.04801548613198124 -0.00215616500643204 -0.01216762085355769)
(-0.03669982799541735 0.1079791640410408 0.04067831105466946)
(-0.18288499812871 -0.7341397045534067 0.1813301841496681)
(-0.3348998239027495 -0.01729002552089073 0.2472143265169897)
(0.01696379133656297 0.03750199054043508 -0.1590733260158388)
(-0.02755839787779307 -0.5267610385369204 -0.5250882897006194)
(9.630338196934435 0.5725971560434195 -23.15123087923273)
(-0.2638047585025962 -0.06974101876807703 -0.3242348716440601)
(-0.1776845773616005 0.4897048472476737 0.382986518717768)
(-0.2307658984850371 0.009106584913826422 0.03113849251773243)
(-0.0534158552328377 0.007340770631546797 0.02554440377408845)
(-0.03803710815613285 -0.1184160484720845 -0.07705858023142843)
(0.1322461156795826 0.05447152214380302 -0.07329751379751778)
(-0.6943662820134753 1.260555048988626 0.9035283650965802)
(-1.150524712512293 -5.581321198356845 1.221715236777174)
(-0.00366054794736674 -0.008060773493214147 -0.001936921635672195)
(-0.0220831660289489 0.1007421327338536 -0.233446622086698)
(0.1692752697573962 0.0653482735435241 0.03403662861521971)
(0.0446932018989472 0.05581339517521371 -0.02314457325366661)
(0.03322480241788398 0.03087407918906069 -0.04457274774807427)
(-0.1750515659042581 0.04234061306212539 -0.1099079883096233)
(2.856743193246955 -0.129572951243173 -26.51581999990199)
(-0.1361113441477713 0.3013870361934429 0.2246985524172063)
(-0.03086343800369275 -0.1028273142924833 -0.06886379374621411)
(0.003731912423594032 -0.0251025104813961 -0.03765638101163028)
(0.04677649145034786 -0.04035911801012042 0.007930345907779277)
(-0.07270596659339797 -0.06590831470264673 -0.08775248528653595)
(-3.777628486874398 7.272484843303646 0.8436204377096939)
(0.9749841879890689 -1.645407563659641 0.5365443985574232)
(-0.06143788891170734 0.03050022723677934 -0.07363641274756096)
(0.02248905453780347 0.01209213677536237 -0.0004550409400513209)
(-0.03146467596458249 0.007165783793012744 -0.02234192145282812)
(0.01269193583317628 -0.0099790299456811 0.003945454318097985)
(0.1251018360793633 -0.351885242890347 -4.159478031338515)
(-2.592130599756167 -2.892164927518967 4.564338358178047)
(0.1510247399342271 -0.07338676352350215 -0.5043677742934218)
(-0.8069886965621587 0.1697133835729034 -0.656884698591267)
(-0.04613024868783078 0.245913851604037 -0.09601789168633212)
(-1.605753739314382 -4.283524329672794 4.736785259911082)
(-0.1431979248578377 0.1032818966158272 0.1630675461897459)
(0.250462547723156 0.2158694148564708 -12.37034400916963)
(0.01961033579613848 -0.1165794013076551 -0.08685353230293384)
(3.634775204403089 -4.496472661599197 -7.10529726388703)
(0.01021661520173382 0.0479308434448454 -0.1017469077208183)
(1.226266823954085 3.466123554816678 -1.190375424746492)
(-0.1825514066832084 1.580086451563554 -0.7039354836976592)
(0.00758061392910812 -0.04764935600760293 0.008253963914768125)
(-0.09141683038033152 -0.909685972437245 0.02999227220860195)
(-0.164873375299638 0.4041083235079 -0.03604353506992302)
(-0.699053303732736 -33.35053967164044 0.3614753731651673)
(-0.1190760014213104 -21.77864874153954 2.601158440885247)
(1.816482578217661 2.179005386680456 4.01961962381233)
(-0.07161766583321727 -0.08074812035457864 -0.01218870463647521)
(-0.5675763074490662 -2.539338243755846 1.574796976930076)
(-0.02783473217439964 -0.01341730248566721 0.003869611879391412)
(0.2512435828327954 -21.09233021416203 -5.639355452736035)
(-1.520418694356314 -0.4816249578830886 -0.8169153857313798)
(-0.1450752596794195 0.2691342626316749 -0.1124522591185673)
(0.6235288669096282 0.1761950911102275 -0.1788214061009231)
(-2.697875661009752 -10.16272565710797 -3.858462650217423)
(0.06447949852652146 0.3211394499677706 -0.1424975488784198)
(0.04672729650550451 0.001088479491778836 -0.02371004328901757)
(0.06339758909483777 -1.836224124382274 -0.5968205162479517)
(-1.575314219229349 24.75859521883598 0.3557754831233418)
(3.240257383027225 4.4498808380692 0.212290059386816)
(5.60854127042584 -0.6742477762684054 4.789563104141885)
(-0.6342368061107247 0.7419666215917555 0.02511504069553456)
(-0.2122720980256432 48.30010786255066 1.025386295118256)
(-3.864878807890138 7.120717945964378 -0.3786751079896876)
(-0.09955057252465149 -0.02595947145449413 0.1469018147403211)
(-0.03228237958503314 0.02051974534934966 0.002909594760027862)
(0.00275787595326775 -0.03104378337032263 -0.01413793904149094)
(3.828155957323852 8.064036387345711 0.6273313272473864)
(2.030310574513801 0.1787826411744289 2.388603202286044)
(-0.01178501974898619 -0.005929878644297823 -0.5869883065149755)
(0.156596407371368 -0.01360084036144476 0.004923332400258131)
(-0.4286760204031721 -0.0467895056801646 0.09038975133346311)
(-0.05483513322835947 -0.741041570227214 -0.5535228924296784)
(-0.05762184344959735 0.207415397609025 -0.1248024178732044)
(-0.1094857929041068 -0.1130286962863411 0.08186059898215972)
(5.891734450835756 -62.44782696074438 -5.665584757665364)
(1.149459424966874 4.197009175527744 0.6237627524038438)
(-1.667294846578787 -3.863880925896963 -0.1486854089298908)
(-1.389843838759411 0.9420348176065864 0.2924419640348962)
(2.469840727725003 -0.8783225711919082 -0.7743452664145383)
(-0.008895308644872814 0.01307193743178885 0.008326121448974648)
(0.5598127391383008 -1.377286444205293 1.715282068038785)
(0.8765394259750607 0.1753409348091728 0.03908955519454431)
(-1.586872247259022 0.1880250396975253 -0.6081208324182923)
(1.923473299154062 -1.070275235464654 -4.781872468667187)
(1.54877683580158 4.459815457770715 11.81710153003397)
(-0.1153352249700414 0.007955421511412063 -0.02176732531912696)
(-0.1351604902839282 0.1411210347551177 -0.002642571608469558)
(-1.274784513733954 5.737397946917097 -1.807032504057064)
(1.573956168002071 1.847766051754533 -0.1610747856794631)
(1.138125570685241 -4.132412180330678 -1.253799795988149)
(0.8819601223115907 -2.023642284289477 0.422991009160341)
(-0.1055111750993902 -26.38578012131886 -1.472109998611157)
(2.359696770087174 47.010478166749 1.762033143569533)
(0.03749483346120388 0.07919569587393439 -5.822390981590768)
(-0.03089355569210236 0.05102930349633043 -0.07558942785278806)
(0.5659105134559158 -0.07694103727160594 -0.1380365040700736)
(0.02181874436696608 -0.02846306411397806 -0.06103778698433748)
(0.6124972877346062 -0.6573090715214134 -4.19552347458189)
(-0.04283624867294566 -0.024476298189138 0.073353402399132)
(0.1637949855572543 -0.0320682547207316 0.3120023015053812)
(-0.3053123544769892 -0.02072075689568965 -0.2186863145811864)
(-0.3212401110227527 -0.8255275629079348 0.3274737457380521)
(-0.03082521374735459 -0.01019905694611603 -0.005444670142420869)
(1.291445291736543 31.37576711583517 0.2285083953355451)
(-0.639646111241448 6.535334191501607 1.191329305331563)
(0.04568834033321451 -0.01886809995037452 -0.002483842079691115)
(-0.01614489845933428 -0.02958570924473151 -0.1562130083119395)
(-0.09190294888351014 -9.12008484970036 0.4170370545475903)
(6.177773314878622 17.67505829787321 -2.712450934816528)
(3.393863446772565 12.34750290761964 -1.947276596246085)
(1.944904525260979 -34.09041342315044 -4.378675295951655)
(0.9638439851692268 1.077967973427458 0.2007256320691384)
(0.2415347227047722 -1.995393447279196 -0.1684240711855103)
(-2.143910392606932 29.76929566375827 3.525262311045115)
(0.008678381481331598 2.504636261243055 -0.6243629981714817)
(0.01318057162916929 0.03365395553325058 -0.005524774861241652)
(-0.4302055932900111 -8.911633885097819 -1.374969267725616)
(-0.3925474867979763 0.1421399667300243 -0.1496574694779094)
(2.057006144620747 -0.04735539622928331 -2.726566210958977)
(0.5028794351722413 2.559708685906756 -0.289907190391298)
(-6.363685893900687 1.777159392492011 -2.508725024280127)
(-0.1380823820763834 -0.06396428799448139 0.09098853209973949)
(-1.499275122253373 0.2349916815133027 0.1455510119951211)
(-0.03102303650260174 -0.5285447147085096 -0.005641497446480848)
(-3.347411854158084 -2.437782508483771 -3.050051842949777)
(1.789556549227085 -4.599113304578588 -0.7728742400685727)
(1.618419847761601 -9.524486047003059 1.117960283786943)
(-0.523135909452873 16.2282478633526 -3.751910391695795)
(0.810752072212349 1.24496675621206 0.6183843516502316)
(-2.069292370936974 2.160822549739398 -1.313211418085757)
(0.1089997983100531 0.1830760915796846 -0.2259704919022499)
(0.2038033495141931 -4.858750447174192 0.3807107417134334)
(-1.182460823963073 1.213612974412169 0.1521935785041642)
(0.1899778664955666 0.09116549407087189 0.03902725313698212)
(-0.077988689097237 0.2702987737998839 0.7138587145861401)
(1.304604260109734 -5.188490507820941 -0.2477154558179312)
(-0.9297345650545047 -12.1234525497093 2.525695232162974)
(0.1175900577204615 -0.001037912765964984 -0.07569437249558231)
(0.07798083856912567 -0.682345556882996 0.1410105149082971)
(30.62618867223984 -42.6856878526987 43.70143660532398)
(-1.0930675749116 -8.323634950442026 7.359432652450344)
(-0.1366142419614666 -0.2044907058038704 -0.2004555031954411)
(1.140350732283567 -0.07198517124826151 0.1066743582539547)
(-1.178579185508072 -3.727593913770987 -4.161912012534099)
(-0.03509468526137899 -0.1889999050599281 -0.4361469825797606)
(-0.001540585712323055 0.02224824637528303 -0.0108573910349084)
(-1.208614447607405 -0.3865578236542972 -0.1908284021080837)
(-0.7464720144330551 -0.2141610497931532 -1.202443223680885)
(0.04869419077358612 -0.1080669970967766 -0.131759990545913)
(2.187358886257787 -0.3375735909517181 2.467185325767405)
(-1.587263837039221 6.389119915377359 -1.759722231305088)
(-0.1583734945376217 -0.1334975155973711 0.01963577908816589)
(-0.006222903013825205 0.01532500502239838 -0.01564093603009312)
(0.001305022155494573 -0.005414371709996337 -0.01034865161474554)
(5.045962295809884 5.835704292779985 -6.886684353156176)
(0.4435195499436803 -3.022243502306595 0.03387419741020309)
(-3.272188474614743 -0.09347844172204456 -0.7004501801388145)
(0.5022339146251453 -0.4574674267041003 -0.2313610187421618)
(1.01116889385047 7.976498805167124 6.159669222126235)
(0.490056387382692 10.30819343110504 1.033197258323027)
(-1.597106706703125 -0.2839454105482235 -0.1067361045840637)
(-0.03922154600750044 0.07390610665367237 0.03648784537994548)
(0.5975179299771007 3.071472712348919 -0.05670364531101615)
(-0.9928005803686761 4.101639185775751 1.66240483499007)
(-0.03937814144958004 0.07505776741198458 0.02687444645316919)
(0.574688336167849 38.64450387155075 0.4390478085803479)
(-0.01507575196302764 -0.06633553541058636 -0.08971810769887571)
(-0.09919057400455158 -0.02890464805085506 -0.05212064263196189)
(0.01123921630402878 0.09693168016406399 0.09143695297029611)
(0.03553672798692017 -0.152276833082687 -0.009124783373055037)
(1.155162384863047 29.05515760783565 0.8607096104511252)
(0.03705535229648116 3.263400810957291 -1.113787870106187)
(-0.05586977933304645 -0.06653077416641474 -0.01976292652515935)
(-0.04722808233064632 -0.009767365268547934 0.0307996223127538)
(0.01080862533075698 0.2380044377778712 -0.01450244699708062)
(0.04139070032229013 0.108613357332358 -0.09287083680830864)
(0.01976535369866246 -0.0629566130456093 -0.03548781384994294)
(-1.224471863180838 -2.385710710290467 -1.674803403895589)
(-0.0002455321628997264 0.01005674082650293 0.002276505218703127)
(-0.6075698790744988 0.03467979707119784 -0.2673354199795537)
(4.364878538066161 32.55994117056952 -0.1778010973862368)
(-0.6470416945419551 0.8360838574190923 -0.6624152243288596)
(-0.2130414949963047 0.7006487341825707 0.5472197876242139)
(-0.1606085005960593 1.097970240221331 -5.63887109354493)
(0.04600492182517975 -1.252096384726777 0.3928402542490292)
(-0.2233346135833736 0.4971755956802253 0.1141840755339402)
(-10.61021057158486 -2.154426497617868 10.39366489230356)
(-0.6591355406145328 0.09804142247398462 -0.271081732088377)
(-0.2664972601386481 -0.6724446512451282 1.972010289300934)
(-0.2659536084419788 0.1099764481788255 0.1397448740386311)
(0.3039098603745153 0.05115924868890742 -0.1308498990041619)
(-0.004736751476161608 -0.0569616412296437 0.05143985347484231)
(-0.2182621847848049 -0.01902120912553522 -0.0267729076626856)
(-1.628711046032759 -42.69698984137657 4.390550687386493)
(-0.01092839423204259 -0.03255029633042803 0.09073217871185638)
(1.10448957041682 -44.51042975847835 -0.3904642566914175)
(0.9770644044027044 4.068747426015441 2.272230922617435)
(0.3360358645659813 0.2272249739552778 0.3443204455176845)
(0.00837652825013209 -0.01174137876803741 0.01742281184670268)
(-0.009049648908506206 -0.0173967286961889 0.005585692709024434)
(0.9806402547592337 4.237058442134696 -1.674479585418448)
(0.03096236371938191 -0.01924650236145366 -0.02240356505171948)
(5.064398450023049 14.89957440411707 3.36768104347647)
(-1.767345884328643 -5.761318175457732 -1.869549077558547)
(0.1279011737477611 -4.803096947449252 -5.376543325041591)
(0.04648733354913215 0.07570785568295661 0.04164496563081044)
(-1.337176256653357 0.1237649509470703 -0.1533273455462995)
(0.02870738612239297 -0.01170234563675237 0.005926365231305849)
(-0.6053107494260924 -0.1980732128152327 0.7190885708193244)
(0.1055982696547811 0.08406639994479907 0.0680234034164959)
(-32.02547212940731 -30.17516889755536 -21.20812485766175)
(-0.1700021953678357 2.05738348248851 -5.363676352712916)
(-3.307687987894802 14.13297284325491 -1.831361735312882)
(-0.01363188431338952 0.01921852097891038 -0.009879241777083526)
(-1.156454788645374 7.682141519735455 0.3914442884237658)
(-0.1209761373759862 -0.06973707527151539 -0.002140092866864791)
(1.109657273511221 33.38536797777784 1.490487660746064)
(1.35169174524692 -0.416207075034451 0.7736874768757842)
(-1.185313067040727 0.5391370539735236 -2.856916890918728)
(-0.080691765258564 0.08145963922300231 0.04896998249611809)
(4.037123937792594 9.722765893669031 0.4771188364561836)
(-1.030369193708322 0.1717996350574038 0.1361481894750414)
(0.1512620355721012 -0.9593685935832206 0.7579872543116329)
(-1.778539737704064 -0.1880616644599961 -0.515550745870717)
(-0.006313137881097546 0.004163430351202563 -0.008252237316664723)
(-3.024220037073478 -8.305161957056395 -3.131852029619585)
(0.985430561615885 2.048367439522864 1.063358772566778)
(-0.00658846663597417 -0.1004020444437288 0.08859512028901297)
(2.629157697837734 -0.7703398549273635 -4.81599540269654)
(-0.3526612876235526 -0.02347891995071327 -0.3750183478438182)
(1.411190560144056 1.113629640741838 0.1288000249616183)
(-0.1921152421503432 -0.05489349423867784 -0.1669157818741995)
(-0.294653076885744 -0.02780028748690484 -0.07418713348058109)
(0.3638674719986743 0.2362293074376481 0.06651069322072808)
(-0.002947611059791368 0.007262962571468754 0.03143913271247836)
(1.353050749744751 -1.289265663213255 -0.5727896487535886)
(-0.04668055565879566 0.0291606007810765 0.01328509037193842)
(0.2589474136319593 -0.01460607137225986 -0.0123255225276527)
(0.02780828460368167 -0.003582465841453737 -0.008199424347302725)
(1.302151869680065 10.4761665486031 -0.9734758441458982)
(0.0175921050258484 0.0328761767436092 -0.005345567486100319)
(0.01758410198314152 -0.03530689497202051 -0.05429218492283212)
(0.03049221464120916 0.03270568949405959 -0.01125221227891896)
(-0.9774214147063591 -2.243138325821517 0.0389704089149141)
(0.9314737829461619 0.009890161017814258 3.937602902428892)
(0.03955785217255806 -0.2523011509219611 0.03441698117957577)
(0.2132010529316499 0.2506669634553212 -6.416090009088263)
(0.2431609479945543 0.3349677332904351 0.00973081383596628)
(-0.7627944987482498 -8.286519267876365 -0.04094719135954183)
(-1.907617536007797 4.714949925558043 -1.657401517500702)
(0.08962586825499411 0.008833535206058639 0.05126465470274896)
(0.2214436065219414 -6.003935494957175 -7.985500237539158)
(-2.482429215452297 -28.79595622238742 -0.4345676528322066)
(0.02836506858641811 0.4211752661105508 0.1406017321813794)
(0.06588945755560432 -0.04863646410800233 0.00588471802298491)
(0.01028877892642302 0.01275905278733933 -0.009381705213108367)
(0.3177324180798359 -2.537000793436536 -1.103372137401138)
(2.591881381345154 0.684482375603115 -4.541583505264056)
(-0.5645521479419011 0.6263251248647522 0.5281442518937853)
(-0.9098323560177067 -43.09589346032725 -11.28289965555274)
(1.059079572807137 1.760548253621409 1.308038015653134)
(-0.742273940142772 -0.5928026894076944 -0.317831927060611)
(1.407234843549703 -13.06515439600355 0.7615729687407639)
(-4.677249504831776 -2.286722520545799 -7.54538825954543)
(-0.7760598675303567 -39.66892081206631 -0.5860072554587762)
(-2.341179514201656 -0.5577819609548726 -1.169802988510314)
(2.654023019818009 1.411383585249183 -2.249328394096842)
(-1.581763671322974 -42.63448012082873 -4.67820601811307)
(0.6242410331811359 0.919105000460452 0.7902458876468372)
(5.406751134408799 -31.02587749245529 -2.600817099544753)
(-3.006870657000432 -3.215336388371124 2.551142529182103)
(0.008796210515544479 -0.3677038150172721 0.1659571564800326)
(-0.5814148274577985 0.09319174610050929 -0.6611152093012048)
(0.004893465862935931 0.04826865905689906 -0.2084521320045341)
(-0.3322529885908583 0.2677846582421654 -0.002663739427233761)
(0.5759356940093998 8.890983976897703 5.438140917473895)
(-0.1259710762581457 -0.005917140573661727 -0.01975470467614097)
(4.995477486041731 -57.85684207744742 8.013272118239209)
(-0.08930440638891823 2.656844938172206 -1.273377287619597)
(0.2931967830516308 0.1419278963700916 0.1909342397763311)
(0.01118571365491003 -0.008654465638512366 0.004145854141719104)
(2.567317153997534 0.3492942517736413 -0.04222158619644339)
(8.697153191069914 95.05942005716925 -3.395306226173399)
(0.2810992591700612 0.220086146179221 0.01671052200933035)
(0.01211138035641068 0.01725756173751201 -0.05763985737869189)
(0.06907894415243487 0.07971979131966708 0.08117325222491556)
(0.3340192948719243 1.473606183370638 2.000077480181838)
(-0.07403309906183081 0.04988943806474355 -0.2352103777434692)
(0.1056438584526056 0.01404267873235465 0.06098454088356491)
(-0.01643900065523211 -0.6260629479726917 0.299741675155843)
(4.375541040104172 81.78413734853108 -3.155234606946419)
(-0.3723987009214554 -2.290404177982645 -1.736394126957776)
(-0.007892827425614375 0.06410099604968252 0.2547304470102585)
(-3.005631702169622 -1.943034052346427 0.1976228140282895)
(0.5102795318501163 9.330721302883918 0.5655445099307592)
(-0.01494161422672438 -0.009770811528365647 -0.01369093453715391)
(-4.145255137433031 -14.6585352434807 -1.986833498135505)
(-1.012414939438841 -4.339791382916516 -0.4788688508343484)
(0.6137203356260923 2.012371484581529 -6.602567790956961)
(-0.007265580743852052 -0.006268634461687195 -0.01684868861751515)
(-0.2397502367900599 -0.1742610996650425 0.219808103673231)
(-4.484368602812084 -5.499342153598807 -0.7439295321545227)
(-0.8877085950331004 0.2687232919250012 -0.8663912078639078)
(-0.009641759043892511 0.003893984768596586 0.01113570178469798)
(0.4535695708255252 -7.063479701530745 1.148821032893501)
(-0.03823484134274285 -0.002830424038496662 0.003447160279811802)
(4.779354548625912 2.224111174672237 4.191608181392938)
(-0.8617565478012941 2.384156636250091 -27.8209028036694)
(0.003931176339200421 0.06185525229449522 -0.003750939923132147)
(0.1313751544627335 -0.6651258583059299 -0.1214806184516829)
(0.8503556077179468 -1.300287974733568 -0.3901553581371913)
(6.168126227878092 10.33639907571894 0.6143423985565452)
(2.143093477858506 -5.865153789680733 0.4063574753527287)
(-0.008489801072566236 -0.009626980836344928 0.009869976533964497)
(0.005346316511059043 -0.01008830349679579 -0.007840206141682867)
(0.02770188432127357 0.01282325405754447 -0.02104308539050979)
(0.7526844451827566 1.655446267182255 1.222100323216025)
(-0.02683302284970529 0.2890643378890607 0.2157899737610841)
(2.387473623233153 -4.282803419243758 -4.480856495285248)
(-0.1265188089816517 -1.011806047472565 -0.03387048454069398)
(0.02233326422022433 -0.08014351388475502 -0.07208812780758697)
(-1.698469835157669 -1.078648447707053 -0.6673346235473734)
(0.03324338108065723 -0.002197770683319221 -0.07852031040476287)
(-2.547714092490467 3.676068195164633 1.55442529799605)
(0.1046731830854935 -0.02143853443964526 -0.03113955808733123)
(3.864211594405949 2.670388999913994 -4.185815557610678)
(-0.4440437720269179 -4.967052797884583 -1.803020564568733)
(-0.2000920648758114 -0.1038352313629974 -5.813830278996829)
(-0.7020804547768081 -2.428093978188282 -0.3429503984809359)
(-3.767409057912624 56.85040342527164 2.689811180412805)
(-0.6138167573159784 2.590992846953628 -0.5693462140159087)
(-0.02733626842010191 0.006296106900828593 -0.02073894064056582)
(0.002579793649742708 0.005671361259409481 0.01291034251561998)
(1.852295247882032 -51.76778130208981 8.902574110962778)
(0.1717812868580169 -0.3536379804321649 0.06346039452067913)
(0.0006343442709754801 0.03969202611462444 -0.3339500830008189)
(-2.321050126692008 12.92688586159051 -1.367379198812921)
(0.9242718442040523 4.62947817876035 -2.966892296965572)
(-1.675108160703523 0.9879634495434789 -1.322046650831007)
(-0.2736429888748241 0.163423123098573 0.6968336272256173)