/*--------------------------------*- C++ -*----------------------------------*\
| =========                 |                                                 |
| \\      /  F ield         | OpenFOAM: The Open Source CFD Toolbox           |
|  \\    /   O peration     | Version:  v1906                                 |
|   \\  /    A nd           | Web:      www.OpenFOAM.com                      |
|    \\/     M anipulation  |                                                 |
\*---------------------------------------------------------------------------*/
FoamFile
{
    version     2.0;
    format      ascii;
    class       surfaceScalarField;
    location    "0.6";
    object      phi;
}
// * * * * * * * * * * * * * * * * * * * * * * * * * * * * * * * * * * * * * //

dimensions      [0 3 -1 0 0 0 0];
oriented        oriented;


internalField   nonuniform List<scalar> 
37380
(
-0.3773907401530919
1.002804759256321
-2.773339513031104
2.147925493933776
-5.162293208723262
0.8052196980362047
52.37070151005012
-48.01362799936372
-18.28124874010547
21.9208891016178
-22.79566086175663
19.15602050025054
16.79768046227316
18.26057948229053
-18.54218070469419
-16.51607923986934
-5.078863197110246
16.72729592194034
2.823144883100762
-14.47157760792999
9.394568238621538
28.0524487652481
-20.9520640355348
-16.49495296833177
-10.19025864034901
-24.85887586870236
44.44370274767417
6.968337733459609
-2.976664857897724
7.607730153763763
-11.59940302933585
9.648432336118763
0.4362276992472057
-7.435066221162178
-2.649593814201318
-8.911613789099462
7.611704382956985
-3.177921512252435
4.477830918372248
-7.540892728112905
-7.298264906834989
14.838725767777
44.351972649232
-10.63410616524149
-22.34121150815659
-11.37665497583231
0.8362145009362552
4.852978289979871
6.942725998104993
-24.12920990198667
12.33350561390213
-14.9415005735269
23.74734925055366
-3.416185105506522
-5.389663571522783
-1.497265936030427
-0.9643912996502745
20.45594376637593
-17.99428653067253
4.407753798116999
-0.01769142139088924
-19.33156295025319
21.12515743624664
13.41289006278413
-10.79069824847646
-14.15970588667721
-9.921483822117496
-1.581600853094346
25.66279056189218
-17.95004766151454
2.3148674458786
0.3166712997814463
15.31850891584195
-0.077591626189066
13.59250696823709
-6.546577608599104
7.275896309969716
2.772324768221051
2.517772499133347
-12.56599357738522
13.58623471970567
-1.526564868356409
8.276039604579017
16.64745951546712
-3.798341683795814
-8.329111510419013
15.13505166332679
11.09887939823669
-17.90481955117317
-6.220075489022026
-2.198068802990247
8.854371991245698
-9.730392244925641
5.606045574299255
-6.401491210438345
10.5258378810237
-3.234040102749333
-15.90444781183473
0.7826471140241595
18.35584080055625
-5.093479190225662
-16.72865687071729
6.427508315089651
15.39462774585459
13.99455103826927
19.53515220001726
-0.9036042649205558
-32.62609897336628
-10.15190288534204
7.738441788011113
3.934714373367918
-1.521253276036001
20.81380035123967
0.376263848502694
-24.42410430249182
-17.58807871871273
-25.34551908855362
19.08069287768943
23.85290492958822
-14.33474858886104
15.42397906261028
19.72456987749252
8.56234027504861
-8.748187630766441
12.97348956000417
-12.787642204284
-8.056084804955367
10.60709902752365
-12.91347589286905
10.36246167030274
-23.75493174842585
7.419882201742483
-9.022134993186297
25.35718453991219
9.289701574804319
8.778198204323743
-18.06812686005292
4.579624390146023
2.629184179522819
-10.1854734275795
9.073926597707954
-7.310073695217084
7.525848672313832
-27.40471864711521
1.955528526914982
24.24289179498913
1.2062983252063
1.460896776050924
1.295039464638876
16.38466747246747
-12.80302943936264
-3.130734160828778
-0.4509038722752205
9.11172704905921
-23.36464851394265
14.85863189539822
-0.6057104305149595
9.210080269797826
-11.83656852028858
28.13129693934698
-25.50480868885441
19.29882874915356
-8.686021011827979
-8.235519532904865
-2.377288204407468
18.88508608963798
-18.96396366607171
-0.8176221562562045
0.8964997326995228
4.822675862332294
6.975299428121929
8.36249683941984
9.445970348477076
-16.68680115217809
-1.054226090514051
8.295056894220551
-1.892278657662045
29.901487355143
-2.91862460846896
-25.09058408900825
-15.57502600749159
-9.504413923938399
10.25400341506625
14.82543651636582
-0.1408728921178436
-12.27686299405095
12.41780150542009
27.860429697889
3.221008484024396
-10.75894309848204
-20.32249508343087
12.31455975689593
-6.314991900837175
-4.656665223044892
-1.342902633013862
37.0955106578979
-25.55231533870649
-34.52674710704385
22.98355178786219
0.155390277385864
-28.52913334610485
-1.045492730112434
29.41923579883792
-16.11941138324917
13.55695212335655
6.85163194332591
-4.289172683450987
13.9364706831882
0.3521877265233914
-17.24061879693008
2.951960387234728
-22.20141315884078
15.41733798974635
9.94137740215978
-3.157302233060522
22.83218789639851
-22.06656418119515
-15.37980044696306
14.61417673176103
0.3898259309595039
6.646267096544472
-23.83825716593646
16.80216413843433
6.200255965288169
-8.3216546825227
-16.82250652338016
18.94390524061601
-22.6404052512289
2.16998193622907
20.07298479322881
0.3974385217675301
-6.76248194544457
-11.49256033355345
25.64259972323398
-7.387557444235154
-28.97944555485415
-17.00783536125099
16.95317381956743
29.03410709654284
-21.77887061486435
7.072381247454571
0.5974645690934264
14.10902479831734
13.88161762952369
-21.00350733746422
-20.28282893918471
-11.08796362470553
16.29827575079716
-9.213495492718112
4.003183366626948
13.58076842788628
-18.67568946626693
14.90749657122318
-9.812575532836899
-21.8686102233365
30.74642810278755
-24.93635758193878
16.05853970249524
23.17789196670579
7.011139775095865
-27.70199903677247
-2.487032705029434
-16.79234402049297
-3.71524860582611
12.2218440275612
8.285748598760277
-1.324491209715678
5.209421100413335
6.170542375389392
-7.810993474273565
-0.09931140506085463
13.08184376235602
-27.28148070114045
14.29894834385771
6.978020688257077
-16.314195173117
18.82752473180868
-17.14781423716326
26.8775801943249
-9.730004511858574
-11.30958303568175
-10.43844858697056
21.74569298334509
24.59292307136588
-10.46835125950965
-0.2429541823342239
13.54521982439999
11.33926820095579
2.62334064814568
-27.50782867349808
-20.93157396000436
8.1484143366291
6.576624597462597
6.206535025955486
4.423187299396681
4.843510455883883
14.41538285429539
-23.68208060957802
-7.852995832838791
-12.41456791195572
2.353480356370834
17.91408338844547
10.46108272844145
0.7836973750427814
-15.84700456082527
4.602224457337819
-33.11895393809627
-1.720098294594166
8.336264500943127
26.50278773172309
-24.37630012535435
3.870754172212922
-12.61340798495923
-16.20788234734932
-1.054131064456716
30.4426143155623
-13.18060090375517
-15.4431677396496
15.93753418486449
-0.4948311563389024
-4.149347602118931
-12.64528874356457
18.44861851511661
15.51922957789549
-3.139385232536811
-1.415894744540563
-10.96394960082531
-6.605417565002817
5.868245538042562
-0.9715031613188717
-4.920238501162534
-0.7136759025336176
5.888012489246494
-0.2115620102609272
-14.55777842365836
15.03542178481944
-12.69918514564373
12.22154178448393
-0.8071839834064523
-7.704497246076738
6.230670499786475
-11.036552541424
-19.3452168470019
-3.463387675058773
6.60072217471163
-14.25462979542761
-0.3033545755182904
-3.367463228980636
7.948816567247426
13.09686743742384
-17.67822077572629
-0.4337750152055829
18.5437834777129
-18.11008949938983
18.95398243002741
13.24570179390962
-21.82590684871542
-10.3737773752197
-38.07059213510171
0.0703851750959977
20.93035774419457
17.06984921581329
4.402868493590202
-30.71933303853878
-1.866157006239569
28.18262155119073
29.20976639325792
-25.17462937364632
0.3677314739800321
-0.09130980355474617
-14.36789196797974
-10.75128142880266
25.2104832003585
-13.39068688028605
-2.599790944955386
18.2834121443498
-2.292934319108018
-26.7952952843812
23.42811953303933
-30.65435341347852
34.0215291648256
11.85685672247738
-5.763905973282053
21.20601194331848
-18.58991640795068
-7.694221251243039
-7.459379961881825
15.15330215687196
11.24089093586508
-13.51272035202297
13.95472419931858
-11.68289478315816
-20.17943450657042
11.56305980586637
5.85446636431769
2.761908336371615
-4.960444361683682
20.5628520542667
3.257612652264302
-18.8600203448507
-17.00507929514756
12.54399508586331
-5.140293742561189
9.601377951820828
-9.910509316785951
0.7865312652517953
-3.098373854052637
1.037580366931383
0.9970128652169311
-7.25400004114636
5.219406808992865
2.46786891294729
-5.915996084751999
-13.23373467525733
-17.67333501531688
29.31964647956424
-10.17195114896428
-1.474360315278418
7.062205982664087
1.200442321223526
-7.225067936967855
-19.52810935271854
-12.22222349631151
16.89931922441076
14.85101362462268
-1.720290652928552
8.156575634521166
17.77553845788071
-37.31379745159386
11.38168335919294
4.978713038806147
-3.326162549755024
-9.168898858599977
0.304221001291219
6.808175920862663
15.06272744861766
-14.13621839551519
-7.734684973969425
1.562344504192825
-7.557061493996792
-15.79886488880549
6.971412597598655
15.45647858689218
-6.62902629567848
23.1360055682045
2.7575406979354
-18.85703111766734
-7.036515148470476
-6.834022887926065
-0.5728587939894452
-13.52469227806043
10.77469374416622
0.7896157718703644
-5.741415893246335
-5.822893622799492
19.00377952620342
-18.38914868435858
23.11481306998293
-23.72944391182654
-6.0782516273136
-12.15766911282249
1.551672652774362
16.68424808737034
-0.2502341871505015
-13.09421999019277
13.34443449376539
17.28670263478016
12.66106365109171
-6.990379270301289
-22.95738701562684
13.11941810683253
-1.798607235300616
21.67695646331322
-32.99776733484266
-14.50961548104603
4.264413331825535
-18.36083222795124
14.12115180797654
-0.02473291191104153
-24.70586831775634
-11.80972391439119
-3.02228475922875
16.664971306435
-12.84546401127244
-0.7972225359509164
20.67135212221725
-16.43665393497338
8.88471991959049
-9.059056308014908
9.134802756087392
-32.44264030341493
16.83842385033008
10.60658697648543
4.997629476600054
1.723758137441219
-2.552692086573821
0.3454979280773098
0.483436021032889
17.56265394211081
-10.62379060543803
-24.69983329431845
17.76096995764611
-6.414452216109499
9.626034642672153
-17.67256891492725
19.61113818312887
-11.56460391087334
-8.706738035548248
7.686500321982741
-27.6993433410503
28.71958105459984
-7.715453111806475
23.54345730954389
-2.68016519534196
-13.14783900239162
-9.709715920928804
5.748156906489136
-24.25540435414931
28.21696336857859
17.96126207281513
-9.183267936302222
-21.11708949338654
22.22842218995955
-18.3241751810988
6.243180944320327
-25.72838316984062
26.09263481855317
-6.607432593036314
6.519756077346836
-29.95094383571335
7.881181997872384
15.55000576049372
-0.4576811277136746
-0.385581173850426
0.9201092041535344
-0.07684690264355515
-12.13090253015779
5.748799798234238
7.950633069167789
7.833982936068351
25.30971608016703
14.21507933168281
-19.64240254756561
-19.88239286428134
-2.107401274544691
1.368662404470624
-8.320317437954044
20.27919213733916
-0.2744162472597869
-20.00476153934958
9.229562591581198
18.00963022609397
-12.97293948914222
-14.16219321322638
9.125502476277848
-16.56118679876293
-2.20541323778624
24.42331447863915
-5.656714442088174
-8.659411476182758
12.22555436232324
-20.12732968490175
-23.44676913047176
30.4925505777015
-2.770067321816073
-4.275714125416647
-2.671521279036242
-5.045944365657859
-1.644386808282887
9.36185245296309
-1.312086826139975
26.7351110214388
-25.42306557171176
-10.65577025101409
-29.74184684337231
16.95084796391619
-10.13493446280996
-4.883696656391992
-6.27111593645872
13.82264509176976
10.38098304467174
-20.83368655982373
10.45191943112169
-8.875670778544054
20.49290263252744
0.6209414231893612
32.51009459336036
-15.57750153083927
-17.55353448571031
-9.764285618188458
19.87813638815654
-10.1141160586301
-13.13562006921827
28.20170440435578
-3.627813359687942
-10.07831809443243
11.03461017506027
14.92983684030092
-9.89848450230917
-2.376538168708795
-2.654814169272177
-6.420600706660661
-14.34173853998848
21.67051321819001
-0.9081739715405849
9.379189612831043
9.186040817653893
-5.751800414713421
28.9615868793378
6.008771299334515
-29.21855776399135
-24.53415639057062
0.1385656006116865
24.39565662583518
20.10842878683107
0.7467638352922987
-1.535957894959502
-19.319234727163
25.52152729084462
-16.99754769215425
7.126632083925259
-15.65061168260815
-4.098627179544546
13.52455229859051
-4.426721553569502
-4.999203565477822
16.71503314308431
5.944283821186425
-10.34142243817404
-12.31789452610264
-4.119065654639914
6.516516011149933
15.12070146274167
-17.51815181925102
12.44092703943215
-10.80028775605917
22.36670674644867
-24.00734602982122
0.02485520044684896
-0.03275632204157871
15.52499335117871
-15.51709222958209
3.171005997128997
5.922781002146712
1.680906744887553
-0.01458808642303869
-20.10492323677093
20.10174686926464
0.01776445392973042
21.68684778165644
12.88153694052786
-22.75336408910301
-11.81502063307455
-8.418715700015902
-7.638308290034669
-2.013062219449518
18.07008620950048
-6.439110235181525
25.17479950708759
-15.68053015254022
-3.055159119358225
-11.31655168541944
30.63882605270584
-11.40206016365089
-7.920214203627665
16.20314183474989
-15.22234753341578
0.7289681934077435
-1.709762494734758
-1.920805336407824
-1.295705900068766
19.41965307123121
15.93676617194066
-22.13215035575476
-13.08770169034581
19.2830858741596
19.1221488487145
7.097688980144453
-23.69741878485841
-2.522419043996534
2.963196892496879
-20.02271557838963
17.05941273778599
14.3044478835683
-16.59773062841502
10.65018359520363
-8.356900850348369
22.35866751163157
-0.6308006263892311
-22.31198056329032
0.5841136780485532
-19.05313809044679
19.92744621732033
-2.795113463275599
1.584372574534287
-17.93745452879617
15.86862585525223
0.4844560990065924
16.73114014708902
9.197414312551951
-8.932806702998031
-13.09976401307989
13.16098832014614
-0.06102302741704707
-18.66657918581498
5.594737320500964
15.04209963243644
-1.970257767121899
18.93022584066717
-8.682022689178606
-10.25360213194106
-9.662201526077423
12.84295229143736
10.36088516690836
-27.57994995964534
-3.249713661975937
2.760148787028887
28.06951483461074
0.0226179382375924
-18.50879947085813
18.48614066578924
15.00396631594923
-26.43998841607475
16.83018769579535
-5.394165595668504
5.769068317521626
-5.467649913952332
-15.20594631538079
14.90452791181701
20.10065902221411
15.08492242594684
-14.90638931082085
5.776609784113533
1.724117483484497
8.698493834091598
-24.88575751812331
35.73652615513142
-2.813300322484007
-8.037468314515603
-14.61918066866565
35.71643664349848
-32.57886344071808
11.48160746588598
1.187163854116705
-21.71006128194595
2.998867476579677
17.52402995125094
-13.56825871163906
-9.101155326591366
30.79566045106206
-8.126246412835792
8.740998610662718
8.052540790660151
9.22472494813111
8.264640714213678
-17.48993151875553
-1.433897088814894
-27.39055031976148
29.43704572395171
-0.6125983153744454
21.78147526065505
-0.1416153912980471
-21.63979413252161
-20.0259347905107
14.20289567109476
6.508185110963743
-0.6851459915750721
21.05959723820332
-20.35114417301397
-11.68617179265574
10.97771872746646
-17.93486954693544
-15.30888231883597
20.12588714089356
13.11786472487812
-13.92198848666973
8.625336530380812
-14.8417358121661
20.13838776845478
9.970530552396788
-21.71823769705117
7.764301088379302
10.31764961133361
-12.23563124260006
-5.846319457111458
2.40595109439403
7.85412107557578
-25.61017574830376
4.948690326785135
1.180869759288732
19.48061566222175
3.841891129151087
-19.31467810188273
-5.636280201875995
21.10906717460454
-12.62085462684179
13.2380903238273
-15.15116157647292
14.53392587949272
12.27683913030699
-12.13333201368884
8.66228208478794
-8.805789201398809
-14.82609907916078
-5.607859019725411
6.249514493324734
14.18444360556635
-11.69609013550027
7.383230145389022
27.44886555831734
-1.670459235012426
-24.76406719125643
2.476786408663828
23.95774001760946
-15.50216884975958
-0.02064235737610723
15.52286292242223
-1.475933032254205
13.47398505801574
-11.99821075006857
-26.44435774995179
22.41643720233861
-1.091193346286072
5.119113893900456
-17.16221821679802
0.4910886017269431
17.42465029699384
-0.7535206819183425
-20.9855452418258
0.0697657482850135
10.77602647558361
29.24606902763422
12.45340821091446
-25.61462555152003
-16.0848516870212
10.21706988084076
9.107871925640268
-15.73449159861563
-18.36854567961395
10.79476048172404
23.30827679650759
13.44854601714717
-15.94408289275695
10.25983796399069
28.09835255979262
-22.28054452018284
-20.2247945486742
14.40698650906544
-17.59151878684164
-10.16169619808985
14.35719296770649
13.39602201721416
9.50523816449712
-22.24269979853747
-2.997029964570455
-10.31387676024102
-6.430925705803242
16.74451127993527
-12.74732701317573
14.96882059530295
15.61291298211618
-17.83440656425137
0.3857036566729665
-0.239057942857623
18.69050099753897
-18.83714671135327
-18.84960253481814
0.1298479614604694
18.71944344101425
-1.309700147307219
-14.93337317772759
25.74831148953724
18.73997628542235
-7.34529416825381
-12.70438226446759
-14.92959476216803
11.47873587975916
30.28066300430739
-23.01942259863082
-18.35497224639207
-8.587503246886
12.00910231555313
-8.745538819818396
1.838216054972483
-7.072423984008343
13.97974674885456
-21.37101177604062
10.76948446090428
10.60081359829117
18.55517017080092
-5.853714152564657
8.057180818362667
-20.75863683659808
7.514685285189577
34.53956134974634
-3.031366576926366
-39.02288005803016
-1.00976292238638
-3.432777051309347
16.89935634907298
0.8523337716374959
-14.31891306939839
6.128880764565372
-2.432758508492683
15.89019699789662
-19.5863192539761
-15.78761139483387
32.08682744706489
-2.154183349808033
-14.14503270242265
0.6330053013765587
-0.8617877582806815
31.20762558393969
-30.97884312701976
9.619140677142695
-0.5458662708330129
11.36223300606662
1.715073043906831
1.752099501518019
-14.82940555148781
-3.947807868820008
3.270115910724177
6.565704447337598
-15.61456006611523
18.6819557413015
-1.359003967464647
-1.708391707703566
-20.64546933370624
22.50988234439887
-5.73446137817907
18.53676180214081
-19.541802249744
6.739501825785868
-1.445817012409655
7.117149820707401
0.6532439573918652
31.25489031807407
-3.277931582696719
-28.6302026927398
-12.31483373984542
1.020145710643115
13.61714977867748
-1.123485441552144
15.24265256690723
-27.7363169040157
-25.19227225634201
10.81541774343968
1.963221049799348
12.41363346312328
-6.891347223459255
-0.27462082449993
-8.710410281860044
-9.748828861725919
3.862798153059101
19.82802276333414
-4.28975222126953
-29.54132021555117
-10.95683684995016
10.85807922737905
-0.2468874013773549
-17.17288193009471
38.87756362821607
-21.45779429673891
-33.27044258180059
17.80651148740682
-1.965599118870829
17.42953021326373
-0.06443037534624274
-20.25615587124327
0.05728503577330832
20.263301210817
12.85338719719074
-34.89460645386298
12.76634113955781
9.274878117121826
-17.62569866416212
6.050576186508331
-15.2832930661796
15.28322441921746
11.45092521002452
21.97940135505346
-25.9505007659587
-7.479825799116225
0.08736941479398078
-22.61205154547931
-0.076407242078204
22.60108937276622
-9.743350152504744
25.2359652231506
-26.14124275919097
10.64862768854578
2.876787640410397
-15.38266221100589
4.664560878473249
7.841313692126426
1.452374308824028
31.16193220553036
-21.16338130432798
11.99420220611032
-11.29054987888676
-6.573502983005776
5.869850655783235
-5.706960287523445
-4.046241906688209
24.56440932473956
-14.81120713052825
-35.54536122656241
5.729698463927608
2.528876182373485
27.28678658026279
9.387616783705775
19.34535204116351
-9.320225948317772
21.98280104987159
17.99544457832638
-25.68570246524533
-14.29254316295837
15.17185688901457
-15.49366831841739
-5.240273811494768
5.56208524089778
-11.51458020099215
21.37756068473886
-9.863277304540446
28.23092178455937
-23.07089895565901
-21.76384532156677
16.60382249271412
4.906767460571293
-18.99778154384347
12.44538184243437
1.645632240838466
-1.033756912809903
24.01007522190118
4.121556455183561
-27.09787476427407
2.135934852345812
39.72148149719354
-14.96771674539115
-26.88969960417999
-0.2658871242770515
3.017747301256569
29.06783909538267
-31.81969927233804
6.599016840043636
2.75235563106635
-14.70532603566853
5.353953564559015
-4.894669861499693
15.25832924821339
-2.197121467307085
-8.166537919365558
-15.97687781885167
-9.647042621925239
3.318804998556551
22.3051154422188
4.744018111184193
-19.72071885785879
-5.44743428860406
20.4241350352784
6.923534610792544
14.09700878593312
1.080384059010892
5.343402454954634
-8.531187788521921
8.681143424299169
10.8714073311432
-0.6716281451041138
-18.8809226103334
-0.5340617815517242
5.44884211841709
-6.635070989797837
10.51077729231903
2.937638688940849
24.48415603647531
-16.05187389941295
-12.48583264751706
4.053550510453316
0.7795942206407872
-0.8004586546753959
-23.50989255465968
23.53075698870441
-2.665929096482288
11.11558213439791
-13.13170827218703
4.68205523428348
-10.26622094058483
34.5617203183708
-2.608651596124881
3.971150005782149
7.67414470643048
0.07406371971433481
-0.08248693045483373
0.5819950004202993
-0.57357178970852
11.64766088926366
3.672897439653319
2.834469707046734
11.18931290486875
-0.1625861305259289
-1.425348822517866
19.38274363702406
4.865517071008941
0.3136935562938031
-24.561954264362
2.842300167747785
-7.435390956077828
33.15733376899799
-28.56424298069338
-4.909572621283693
-17.1469160158016
1.085516826290759
2.720461714595593
13.34093747491884
17.0357381306894
-0.8917957048452582
-16.1439626717375
3.540738827096407
-17.68046009617805
20.90856144942828
-6.768840180333938
-14.87984819155619
17.20044810722597
16.58798272385903
-18.908582639524
-41.74672958706301
-10.32900031459437
24.4452518929208
27.63047800874343
16.50049062176581
4.59138343242044
-20.72717313513821
-0.3647009190212724
-37.29129000899655
27.87334520109044
9.627375481081058
-0.2094306732306462
20.1410012125585
-4.183709969766088
-25.04287954761143
9.085588304820394
16.98479440343307
18.88360155931763
-19.3679053409328
-12.05934542698988
4.932101025032967
-11.36626427052111
18.49350867247942
4.30705551421041
-3.66125272947066
-1.735862577938106
1.09005979314654
-34.26235497913454
37.49398754185138
1.373671151873815
-4.605303714591517
28.97379003996565
-21.62804715769311
17.29266118949278
-24.63840407176223
-15.24653157657081
7.559679392124804
24.67164658790336
9.963503403759169
-16.27537329259562
13.52954222537785
-7.217672336540431
3.413184884758219
-27.07707499148025
16.82722108115426
6.836669025562236
4.768816191236747
-3.690447986794448
-14.04051050369819
12.96214229925296
-12.2710505855526
1.615902441406002
18.94945583832671
-2.68539494910414
-24.08397683625865
7.819915947035502
-6.93236565224605
-20.23005079110913
0.06563395497886944
27.09678248837784
7.332293963048857
20.674464266867
-9.057302391584539
-14.32488144646037
1.902379395753
12.42250776400439
17.58633924646338
-18.51712526657051
7.405736236571448
-6.474950216461345
-24.03187779698775
15.73916149684471
13.30095493990535
-5.008238639764838
-3.671666960234811
3.063363452142634
-19.2525246158099
19.86082812390593
0.6908724897282881
-12.16204406619223
6.598344373462279
4.872827203003141
-15.66796870954179
6.515316133199556
10.52706854155278
-1.37441596521062
-14.47545497685297
23.87293779465068
9.985260819220066
-10.09189805765344
28.05092318630675
-9.524587441391581
-8.434437687260994
-5.269847969376216
4.025570228114154
24.46143468542044
-23.21715694415296
-32.09383824073205
8.291815344089873
20.6590952063782
3.142927690264299
-24.34751018236447
0.1386481064038411
-10.16406006897124
34.37292214494181
27.5528489360236
14.9414548584117
-14.4656150931087
-28.0286887013214
-1.567112508375669
-7.685437289640383
21.56857830950045
-12.31602851148909
-9.506572166009231
31.508145396206
-21.39019773394729
-0.6113754962486184
11.73843006104882
15.50718600107887
0.05504009849341887
-27.30065616061294
1.663038010595682
-23.41367580300596
-1.575821990842167
23.32645978325313
16.16689076388374
-13.27772535612195
-18.79361321959759
-0.4443281951297586
14.26654883387211
-13.82225940714278
-22.15214394517738
11.00297402302804
11.14893975884351
12.12364118340492
-22.62971495479088
-7.731406866301678
18.23748063769623
-16.71881478456341
13.8681758607247
2.850390127715186
-9.076873195128771
12.43023112846272
18.07699154474645
-21.43034947806996
-15.99289613401954
-2.810702984232919
17.50789321819152
0.7995642785972322
11.92217330082931
-24.30688647487779
11.58514889545332
-17.64558073512763
12.74045532792103
-11.08777072680571
-2.989536695849575
1.248726053095452
-18.42643716538413
20.16724780814527
5.783469169118576
11.84570158998022
12.99687317281889
-30.62604393191247
18.75103132213872
-2.13203599959135
-8.171841773384514
-8.447153549170407
7.499372468467722
-2.470843930749069
-21.39147210964785
16.36294357192941
8.913402869584562
-28.68202204243858
10.69174597773254
-4.792803858155287
-13.03963912049776
-2.722234206730024
20.55467718539513
-8.002143720415472
19.0923920913745
1.887224102687027
-12.97747247364364
3.019427206141711
13.85390586871709
2.047882701244838
3.932626398689396
-23.35638113314296
15.16055210780154
4.263202626654222
18.79546704805487
-15.08540005665804
1.554494419798756
-5.264561411195517
-14.46450244486741
1.144571891608537
-2.054614252211538
15.37454480542717
17.39903474891321
5.840683035118532
-19.06199216873408
-4.177725615294883
2.647215242384591
5.132415551963966
14.46728035070101
-22.2469111450548
20.66687379747654
0.1874669085873914
-25.46283663650518
4.608495930366304
29.35274210787681
-18.75563565113104
17.99296356195847
-28.59007001871528
4.609832689505253
11.40243256592497
1.7766124422662
-30.02434175405539
-3.23497137778335
20.45996170398716
12.79935142786214
-4.143402767944108
0.3544299958341843
19.24078149321772
-15.45180872110704
6.9185900862343
9.387434122611603
4.809230722556074
-21.11525493139971
12.14942999266725
-7.087658132304264
-18.07635609150272
13.01458423114614
-18.49418556825021
10.04237237680105
16.12788769414259
-7.676074502692215
-18.57012681831257
19.88236982899842
9.093887396760422
-10.40613040744758
-7.961490311682564
25.56884020328139
-0.3989626283752213
-17.20838726322739
-21.07486136809167
-3.37174030180694
22.78363117265371
1.662970497248226
-2.332698524862357
19.30948326394898
2.825439978860954
-22.39074148623371
-6.826034382335846
3.606600120254935
-26.9252689611696
26.25611738878725
-13.80630340448269
0.8965343989747904
-41.85740270351828
6.877650415946907
-18.67180542256358
34.57817870494659
-22.78402369832864
17.70885845251189
-41.648778914132
-13.70046096123079
37.64038142285304
26.44219163092285
-3.63069207030592
-22.39911201010842
-0.4123875505066772
4.327824734159344
-1.433626348762022
27.70367156420162
-30.59786994959668
24.21514716054116
-26.40129501677852
-1.142255468595503
3.328403324833387
15.54673278519878
-12.50909144248769
-24.42485325815448
21.38721191547342
-5.595564062375589
-12.91547108060626
14.29766507033973
4.213370072642133
33.38463983243828
-16.98590520738286
-19.77389464790888
3.37516002282755
-11.47083456897465
1.621998054573366
12.46459765140252
-2.615761137009415
8.004648559902662
9.724286406448019
0.07185280477690192
-6.279113135953254
-9.834583668481031
30.85852026572855
-14.74482346129295
9.918360354676969
-20.30823837576495
9.020025417845124
1.369852603242345
-19.44722134324523
25.25421087465973
3.442183227515134
-9.249172758934087
14.29338713191826
20.46807650947702
0.8244409166848367
-35.5859045580813
-27.20663505026894
-8.57064210149125
-11.61583768769291
47.39311483947288
37.76268277501293
-11.3156578758342
2.56673415259589
-29.01375905176698
15.63068367323034
-36.0305153447759
-8.400877167604042
28.80070883915343
21.48235996840543
-12.39494378634918
5.980052331293694
-15.06746851334645
-20.32970904236189
0.1172989788760644
-3.00120812621318
23.21361818970269
-21.24845640385406
0.08194460772161932
7.469130499139049
13.69738129699593
-10.94737982137208
-20.11055082722525
18.79139313149011
12.26653751711885
14.02310835892743
0.2319968716453207
-14.2551328947326
-14.4501655985361
18.78512489206446
33.42772348148196
-18.06197350223659
26.02572028629335
19.38013725872984
-27.34388404267403
18.90321225493039
-0.2267490129790178
0.2775191880765951
-10.63596553242751
-9.695015011745207
2.447743877725741
-23.02870558083111
-6.625673347157273
-21.15665876752365
10.51946372544482
-0.3101847792885612
3.464659764543349
14.96002906649515
-17.23752497691907
36.99444823402743
-16.95646321282855
-15.0929398185743
-4.945045202591522
-4.206352271851884
10.89710537748609
-26.80130393285242
14.21487573767282
3.806558587753487
1.69839073703966
-19.71982506245955
1.288043746342921
8.791390336683268
10.57826015838756
-20.65769424143491
2.260464530874306
-3.672372085474308
0.5431489001603912
0.8687586544472667
6.404132913691792
13.00585216046985
-1.270538463287491
8.745873572863617
7.968229238874389
-0.3294353392705731
-3.64866527994779
-6.719227495374461
20.16675526172391
-9.798862486407799
-42.68998056614574
9.546227552866494
15.08177951110549
1.653213151416951
-19.68704331649062
0.9299393148187842
17.10389085027337
-10.83547579807981
20.94461215495313
2.361040653676635
-12.47017701055796
27.01088993363358
11.54494867164789
11.16021534775492
-49.71605395302487
11.33992569499061
5.469756901485463
-15.80967654384308
-1.000006052633557
-23.53216857021034
-5.929631333211776
1.33401722403047
28.1277826793976
1.216328238709015
0.5862259527744056
-25.33472276168863
-15.2965659359051
-5.593751936522691
-8.041071161839501
15.43166804859037
-15.93564747978564
2.157192582634245
16.23490144204171
2.758733340233431
0.8605024173481608
-19.85413719962513
38.53897553462271
-20.81240803207558
3.583839238181104
-21.31040674072751
20.43306996875353
-27.22383005186796
6.790724143476853
-9.101171555765889
29.68506327318846
-1.455026837570281
-19.12886487985148
-17.34824358668114
-5.428635451170254
14.93679582183641
7.840083216017333
6.842467134220512
-6.659716958524275
-2.535817743878998
18.29163504677936
-12.99827660496427