/*--------------------------------*- C++ -*----------------------------------*\
| =========                 |                                                 |
| \\      /  F ield         | OpenFOAM: The Open Source CFD Toolbox           |
|  \\    /   O peration     | Version:  v1906                                 |
|   \\  /    A nd           | Web:      www.OpenFOAM.com                      |
|    \\/     M anipulation  |                                                 |
\*---------------------------------------------------------------------------*/
FoamFile
{
    version     2.0;
    format      ascii;
    class       volScalarField;
    location    "0.8";
    object      p;
}
// * * * * * * * * * * * * * * * * * * * * * * * * * * * * * * * * * * * * * //

dimensions      [0 2 -2 0 0 0 0];


internalField   nonuniform List<scalar> 
19631
(
0.04115717322654363
-0.05222655151420854
-0.6319688087685259
-0.7246659397062423
-0.05480875442909455
-0.3806143188098528
-0.1212872389725181
-0.2262595298709768
-0.06103947120968123
-0.1714482853725817
-0.08481066177006198
-0.1586905941140766
-1.598375006718333
-0.08760143435435218
-0.07437120276034664
0.03659110298686265
-0.5897865357661009
-0.06586226150758337
0.0311869204100961
-0.01707842504160668
-0.06927274529722362
-0.04847903426954228
-0.07250554313964171
-1.088194993335755
-0.1104998568544045
-0.09398880327219923
-0.1565014601817255
-0.08231461109677969
-1.617089518835227
-0.1585143782504504
-0.07400905795356406
-0.5453633753102535
0.2144849974149818
-0.1124747940541365
-0.4015756235905599
-0.101080833461266
-0.1992544750599754
-0.07633977574954634
-0.08125002235562954
-0.2111227097050924
-0.7915472824977839
-0.655615840009379
-0.3073486916573406
-0.3459553747456519
-0.4841353812933812
-0.7506222428383753
-0.1756430550005122
-0.3380906390685012
-0.2695315250970285
-0.03713689765131323
0.01119362559525843
-0.1356247635281432
-0.1175016084155824
-0.1798481184301482
-0.05172086820047614
-0.4406259311534486
-0.2437339544534797
-0.05979314735061176
-0.1213882679207322
-0.7712442489892726
-0.696808531903082
-0.5516386658654294
-1.019409553588954
-0.4040159204206893
-0.7193905148515646
-0.07346718256683059
-0.1718627214413962
-0.1568108821897576
-0.5453369386109969
0.09562402748291417
-0.5635981827388635
-0.4687156441281192
-0.2745541908892238
-0.1349772453836396
-0.07856607034448258
-0.3758932506196532
-0.1048880418266463
-0.6285935076470689
-1.856827120652032
-0.1239932639357104
-0.8445064393790868
-0.197421034775796
-0.1630601632060034
-0.1779991834274073
-0.3017867150403853
-0.3010238246107014
-0.4151274171488495
-0.8236993508441098
-0.7016581886386163
-0.5785316025930834
-0.5563353582392373
-0.004207371672817224
-0.5747546927833467
-0.6584428121380165
-0.3896602929965549
-0.5331306689952399
-0.6010007984100112
0.009333905479794005
-0.5884962949494851
-0.2300840176114099
-0.07265208247726183
-1.303183463095821
-0.08541595494643174
-1.448905892783045
-0.6667666491132379
-0.6498640023799217
-0.1384589012371527
0.3127569277217965
-0.1824962591981882
-0.06148502303944988
-0.3323250998211645
-0.5902232374279356
-0.1504200304410487
-0.1411897788153466
0.4279653385972485
-1.214762262148725
-0.8409284199481186
-0.07761541072136079
-1.956093004479788
-0.04189989023777364
0.3101739621536959
-0.05641412979260355
-0.1185300770303937
-0.2177907233830512
-0.2624902973413709
-0.09304012873694878
-0.1210305704099533
-0.1056856779548832
-0.06696624127159273
-0.1200186524698739
0.2822882754693334
-0.6413159669677578
-1.417436583076404
-0.9654907173686955
-0.1467372715320297
-0.1406555570612702
-0.1632805672535737
-0.0889514492235452
-0.08775003174883678
-0.1821460400512224
-0.05865995554181085
0.4499196112800745
0.07170519674014038
-0.481734851956898
-0.1829801693208492
-0.2020103467147617
-0.1367681553888506
-0.07640353589789797
-0.7705286123324091
-0.3560778721178748
-0.01965667168882959
-0.1419349891339581
-0.1216741841867272
-0.1253701504552131
-0.02804163138043246
-0.1023915285422168
0.01332178521577208
-0.1668464690655888
-0.3001259437648117
-0.1239470959386577
0.0260481832692478
-0.02511592711171448
-0.9541721649077477
-0.07638802827957283
-0.1021591771552817
-0.09758809812578281
-0.07947485082334885
-0.075738387680408
-0.1057988379151126
-0.6967760135685597
-0.3046549744325325
-0.7129573773948678
-0.4228682528888503
0.09394114153078803
-0.1819747430001669
-0.2808022235375486
-0.01810623143674029
-0.4036261146724362
-0.1724436074109468
-0.2825879269198933
-0.3314168050058983
-0.03253743233385297
-0.06672328520873255
-0.07857131530158651
-0.6344598605686554
-0.69376604620839
-0.5134908805221673
-0.01359689222451248
-0.06537219502393712
-0.1849821406171056
-0.6444301574304705
-0.5254269338277603
-0.1989783010142669
-0.01085118846035951
-0.7027622652304469
-0.6668426272909979
-0.1357614842997668
-0.5453711472762518
-0.004114252878985092
-0.4481221012230459
-0.5854515775376564
0.1672766923974719
-0.7880212942146712
-0.3256279942077441
-0.1389744527737689
-0.05760914758641195
-0.0633762247996435
-0.9643383413597117
-0.1149285805889485
-0.1981233780695821
-0.2106388648712147
-0.2400110586599166
-0.3715111797367201
-0.2076980808017692
-0.2795994733393889
-0.2594510803993475
-0.6243671051445102
-0.3759743155588636
-0.06165673723488627
-0.1543355959930937
-0.03849101840506552
-0.09513161761341232
-0.1146125587461144
0.2660075527309456
-1.032259033777716
-1.487796468316135
-0.329179736329303
-0.2361281875157357
-0.570377242655751
-0.426735312277926
-0.2268716051720036
-0.3636869699759453
-0.8914230049747839
-0.4788539295441375
0.1495972065367113
-0.2080571427628159
-0.1315794165924154
-0.4922114252950192
-1.765951593524076
-0.4497294844517769
-0.06992173334457774
-0.1915225800015325
0.216367344962851
0.003852351055236994
0.7596870922060482
-1.146201457470838
-0.07906686088915515
-0.4325515999363272
-0.7676968569004757
-1.729596707703574
0.2603256832463729
-0.5635469576857467
-0.8123821918014098
-0.5741367457697318
-2.190219408308489
-0.8744368763161862
-0.1666963456965753
-0.6095423478905224
0.006303293648259918
-0.5940743477632396
-0.08478965324698803
-0.572481460377094
-0.4799177403688355
-0.5570459878231026
-0.09002329008789324
-0.368127981523116
0.03207528455824913
-1.145015847165926
-1.82679256522154
-0.4737160640264191
-1.663519085015449
-0.4242206859150379
0.09834701018110366
-0.03357490545596084
0.07656927629507135
-0.3653113648820485
-0.7768119312554979
-1.000431412820938
-0.4143819348785001
0.1611917209261747
-1.287424933570493
-0.6843768993718363
-0.4390207583196409
-0.1769476810448194
-0.9131820895397552
-0.4205489222479004
0.004632040321307322
-0.4622289688179965
-0.4917664514299582
-0.2688779943448861
-0.43918299075196
-0.8215162548078817
0.05430230791740694
-0.1034848919276729
0.0237114496932269
-1.607581320462144
-0.4147120348366669
-0.5306498308519978
-0.629227826670064
-0.6049722332120229
-0.7648828672717175
0.5507574023171463
-0.09200335138527153
-0.6680311622522108
-0.4393440485953272
-0.1784453988033942
-1.002462747250536
0.03967171904750939
-0.02614932546991962
-0.1570641147339552
0.02943910766903034
-1.124081117745106
-0.930417029196316
-0.2178702733027487
-0.07969749350256006
-0.001222956711919422
-0.04415644997207889
-0.04102252418904849
0.2643478682442848
-0.05349308150287495
-0.3299519776964834
-1.586580890888192
-0.5168779620287026
-0.08053138072032819
-0.09721017786397471
-0.2204624499051824
-0.03207994537625499
-1.179056177437367
-0.3338123673777587
-0.4480930557932051
0.164257123630161
-0.1776912409310097
0.03431040382272858
0.04207910450912743
-0.1243516943766956
-0.04948206811337932
-1.039679276113633
-0.3860227146684358
-0.06330670451129682
-0.2146550183592761
-0.1084059799673147
-0.4382412609637679
-0.1966439833439993
-1.844730083629702
0.09707587592725377
-0.4766077965788525
-0.1075550016768962
0.1211024192368723
-0.2405956202509453
-0.3921969917328486
-0.3345213957294975
-0.4312025899507147
0.1078635268025452
-0.3654455949750219
-0.4351320627874335
-0.7014383064093118
-0.1954591440822991
-0.3172372143499272
-0.2338148990684137
-0.5115280590756327
-0.2874346629962992
-0.8913821990696686
0.1563364317299418
0.04689435488667049
0.6494089328955184
-0.2070844993255197
-1.187087425077716
-0.1537144096443747
-0.2541855043990078
-0.2913232320567738
-0.0409726221862332
-0.06747840786207844
-0.4254931886328079
-0.01028675646907514
-0.2313273978877962
0.005027176872759707
0.07212279504630416
-0.06967374367303941
-0.24620307711018
-0.1017401972512378
-0.2412344528087897
-0.06715017048584748
-0.08020522007262337
-0.07952751400572113
-0.5817957900818511
-0.4969430862226209
-0.008587150171193863
0.1574343373300267
0.06875250897854517
-0.4337566976637044
-0.4852168612617282
0.1204780815542479
-0.7768108163044526
-0.3287806697301118
-0.2327585381758193
0.09599314146213868
0.0493138015345136
-0.6444275586535638
-0.9858958395508469
-0.1935492890274873
-0.1839566893271017
-0.4976681850734345
0.03933906184923933
-2.187981277901221
-0.0002124023505875116
-2.800474369909423
-1.485915503248812
-0.9170313747902973
-1.261735491379499
-0.2916366812492072
-0.8873784786781934
-0.4944500357273355
0.1914366981334756
-0.4365744928050559
-0.392873972349552
-0.3796402974420955
-0.2767033301951318
-0.2586648425775613
-0.2963774601215072
-0.41299525163122
0.06336214145455872
-0.1440606713610256
0.5368979493627305
-1.669729186529904
0.3316855615640118
-0.2073072909472712
-0.5986951994298216
-0.2314281189398238
-0.09893342085825159
-0.1841250645327714
-0.01434864715226295
-1.167095240745485
-0.9714887090921314
-0.1417451417673165
-0.09289756870816414
0.3371865735688342
-0.05625111757198738
-1.97842593781469
-0.334540310543497
-0.8287856457622617
-0.05926493199473222
-0.02168950787379018
1.169715785918291
-0.483908389332331
-0.04896203248234099
-0.7983259226289897
-0.03673617696695779
-1.44634341470533
-0.8993351957492728
-0.2288986534619799
-0.3739546711912259
-0.3711935599006704
-0.9570190127065514
-0.2928551323100639
-0.033411966838858
-0.0306221843817462
-0.08643439143289697
-0.4538604441631707
-0.2989741604226431
-0.1373794927836387
-0.08894775971646716
-0.1522662826429897
-0.3629582236887551
-0.0578566272320052
-0.08315426273431599
-0.2104241228755671
-0.2637135417143339
-0.7325095697912171
0.0828376392049686
0.129579576026402
-1.097752123562028
-0.4470147455258026
-0.05176776071708204
-0.005650841224240695
-0.2231665610957521
-0.3777997641888454
-0.1020521472058847
-0.4809674455604739
-0.2177131672099935
-0.08244041752401357
-0.7554790319753896
-0.08964688312464747
-0.05887173358255266
-0.6615172337133199
-0.1799238836731612
-0.4332503661719098
-0.008294958789144147
-0.2366274242280201
0.4580199409791832
-0.1487177705784528
0.07806452323747132
-0.2487319163448897
-0.03602834886707223
-0.02475746229146495
-0.4691299251892006
-0.07002607154921779
-1.049591602218044
-1.185213657558001
-0.6677108799370345
-0.5444659762425723
-0.1755645148374019
-0.1551063877171545
-0.5867598502586256
-0.06457071838198597
-0.09044622596021253
-0.1107867403322749
0.3092914859933715
-0.02321768515816533
-0.05966768431000554
-0.06320483717854997
-0.7094874165720395
-0.06578826731644553
-0.4102916375310003
-0.1267500798487403
-0.07644124760970733
-0.0712218901132374
-0.09739817326603256
-0.03264009882230967
-0.3437699947367394
-0.7302191730850941
-1.316345135982431
-0.61574538709898
0.1182043621083142
-0.2170119354758442
0.1390399879080689
-0.0154252635173622
-0.2361283797891068
-0.6964297507452089
-0.7607790359840794
-0.06391318176625825
-0.04814196108114744
-0.06035360462067703
-0.0739291069331896
-0.06165202380047723
-0.08563856738866935
-0.04960704049425294
-0.2806267571032458
-0.6136572887699673
-0.5220653890302249
-0.2805197234092612
-0.8897794173412961
-0.2776194366528941
-0.3532334621667516
-0.07068790356680243
-0.1796430843664762
-0.9043966049495893
-0.04236489878178083
-1.10625945668683
-0.2342091141313716
-0.1364441605101616
-0.06710413916694674
-0.2186400938970656
-0.6342738230567387
-0.4889400297718426
-0.4059632959390477
-0.06879936434491242
-1.146709439755806
1.218384492965146
-0.2460659372751593
-0.6760236196967557
-0.2420766445021705
-0.2022433117567792
-0.322847058740917
-0.2619650674480181
-0.3369819365620261
0.1341089943122974
-0.4484942127062582
-1.406353276074291
-0.3040158867280426
0.1676981838241282
-0.3290605016504091
-0.5974045114657627
-0.1928275673533547
-0.1815584953953553
-0.5680442299671068
0.101306682207357
-0.5427006240440824
-0.04761323594330736
-1.334658856303979
-0.6689476838310481
0.03444764300396103
-1.630388908351495
0.1040127740814932
0.1059873520704658
-0.4473306128332015
-0.4639024042034995
-0.7044306594557981
-0.0662503521939982
-0.2404247414591096
-0.3424985202516342
-0.2052769305589612
-0.1676738552128433
-0.1436415211070973
-0.4316376633341723
-0.6958359400376499
-0.1966256090346478
-0.2997575430784928
-0.6392258720817116
-0.28149627624201
-0.4797343683965224
-2.387870432776288
-0.2664565994436028
-1.174011907222937
-1.236783195896522
-0.05603198192603577
-0.3530981017518245
-4.471864868860069
-0.1646215447029351
-0.06296627665258572
-0.376337550331969
-0.5681113953737823
-0.3980943689728765
-0.2323642608573993
-0.2768594322797122
-0.2853740279711848
-0.6757628058294953
-0.2005177363076737
-0.1964076131054668
-1.015004212099896
-0.7119278048263815
0.04088979785268265
-0.4786113616352045
-0.3294892689807697
-0.1263520304096462
-1.610380603994124
0.5882460289899819
-1.273189874083707
-0.1232903172845738
-0.06277322367116676
-0.0292714794991263
-0.41798609476016
-0.609189506621381
0.02353988971342284
-2.308157897286334
-0.2837614222758964
-1.114383537753866
-2.016653778071527
-0.7321971515370514
-0.274369883582741
-0.2539539980592193
-0.2254264946023698
-0.7686026359690082
-1.23553590633746
-1.670347741604918
-0.9765504409780851
-0.8426314388739812
-0.6223254772965466
-0.616838955800981
-0.8641162632437877
-0.4782109150767183
0.5341639380433604
-0.5282053706270174
-0.07023975861816778
-0.1071197441364574
-0.2258226328862107
-0.4348221004752277
-0.2213361392768426
-0.3305386064242066
-0.6816256865564554
-0.2499187007507551
-0.2179582656915442
-0.03294340097083509
-0.3950086733150679
-0.44910775297238
-0.5040018467830324
-0.51722447226448
-0.9269975974188408
-0.8043715671159594
-0.1663503907270539
-0.7850281652495469
-0.1012286419986336
-1.464416120431867
-0.7112854304447843
0.2602940479753941
-0.2151966886322105
-0.6020503156277482
-0.4369440307799417
-0.6782808817475551
-1.060258675579098
-0.6414986784136111
-1.38638443403213
-0.4172380541473601
-0.7420080125390193
-0.5844376550779657
-0.8843981282055433
-0.5045730440670555
-0.1675477410923156
-0.7223465261939283
-0.4770610142004525
-0.9534080325963078
-0.7105989715395078
-0.6450301861091696
-0.4928634131669328
-0.1230158934748326
-0.591455478390618
-0.2011330482892713
-0.5828526284590935
-0.5645946403945219
-0.2971345691793875
-0.4865422320499735
0.1405300434984926
-0.3437790823813526
-0.2395945908687508
-1.36581109716646
-0.6674267104541107
-1.931402689417314
-1.066398866652867
-0.7324798901762521
-0.4476450069549133
-0.2152664125371985
-1.566061715520205
0.4313771854991629
-0.7525361375399637
-0.4852001391052659
-0.4579943259368473
-0.50793038988624
-0.7215428303878784
-0.7163964122595869
-0.1968474248048682
-0.8145735787817031
-0.6181682711042351
-0.3022826358212535
-0.7135282216185398
-0.4338808932006847
-1.24279097002631
-0.276734863647127
-0.5528095874301909
-0.8604800360132958
-0.5135571356769372
-0.1274262535412403
-0.07539832357365359
0.4436310852292456
-0.5353687248588217
-0.502439712644112
-0.3749823806249765
-0.6247658601554712
-0.5099820500249784
-0.09657389936919555
-0.4411872318600341
-0.6150799154993515
-0.01409205019923773
-0.1741478958077426
-0.7444883657274526
-0.2669441045844305
-0.2638747799463839
-0.7778111353554631
-0.2798269981244875
-0.5294173291308397
-0.9724721044413558
-0.5699794534050679
-0.1769522025930901
-0.7974066876106827
-0.5937588476373996
0.007168830517990448
-0.2916747523111815
-0.4962230782522533
-0.6060279360141665
-0.1992799799864481
-0.3466988983935872
-0.2676447837024632
-0.639287923482539
-1.879361319540855
-0.7520472149120686
-0.3136989467469182
-0.6415984431060522
-0.3344714876810858
-0.8490657460122655
-0.6373945396438261
-0.680674238289421
-0.2655931893570699
0.1358673964273315
0.1086055665518164
-0.05098648775500202
-0.5745776068516605
-0.1769130533537241
-0.1348408663546623
-0.9621360692676424
-0.09965091981235856
-0.2567816570232927
-0.04605392096870951
-1.107137760442056
-0.2892965659083067
-1.472431610531541
-2.496817611426677
-0.5038266041265335
-0.09326096361950055
-0.5958259821393765
-1.450152833395568
-0.1385335809997237
-0.7400945597579501
-0.216964289522515
-0.1927202905217389
-0.103723664620199
-0.4032178388128018
-0.7600514200235442
-0.3730480347770508
-0.9787253104853247
-0.5770753787749917
-0.1473079768149143
-0.6666872404090567
-0.4125000420769981
0.8333222034664189
-1.043845127817668
-1.834456621264398
-0.6853253538348564
-0.4724182751277972
-0.3997558905551006
-0.5135733999595335
0.05016719803710157
-0.8625091241256548
-0.06408545528715333
-0.456500431908222
-0.07063296858355203
-0.1638237134268523
-0.3869091698616429
-0.1306140984060821
-1.147655242326685
-0.5107888434839177
-0.4357143086248899
-0.2839311919777974
-0.4685859678197123
-0.8638827601591431
-0.8779853787822353
-0.5311430094495242
-0.4119048348198597
-1.101346006226237
0.01701215094424118
-0.1351698908532202
-1.080282886964206
-0.816683761670665
-2.256784770302956
-0.4999109064177994
0.04397653703318434
-0.6279696113192429
0.09060545938834788
0.03251590037838708
-0.2769638782480154
-0.474987678192868
-0.06072486755844313
0.09715101344858006
-0.2762372686800766
-0.8798103814698597
-0.8960038865495361
-0.2883798933445691
-0.5049551511831668
0.1137412708423756
-0.6831937030910721
-0.4298947271450222
-0.08550609175454549
-0.1032053993618996
-0.2627753398722619
-0.5164981001067229
0.1024047937323468
-0.7295593674218536
-0.6639598159760686
-0.002949678194856609
-0.2085599483983163
-0.4027698432215249
-0.2756637808533905
-0.6097894714718721
-1.08613182756948
-0.258197153773481
-0.2757310926413067
-0.3019793824204295
-0.5937039327269046
-0.3779482311832787
-0.4565221268829753
-0.03111849442165661
-1.949709524854069
-0.8491780767633044
-0.7458823478496057
-0.1728615062748564
-1.227995082875232
-0.4715252909375449
-0.5137154790509399
-0.3978092127241386
0.003299216678031963
-0.7468899121360268
0.2308222741298575
-0.5648396213500206
-0.4317937617459169
0.1764607950497637
-0.1013426193338618
-0.493275341820357
0.02106680324157957
-0.03643235734483104
-0.607987149679842
-0.1650016583645988
0.01028679517752209
-0.564204757844686
-0.9056970273587857
0.05968919592450934
-0.01627486148824875
-0.2707580452170713
-0.5247945890808396
-1.408984160960424
-1.189733014025634
-0.2769456021849235
-1.016581888952095
-0.6927291211758935
-0.1190237036616496
-0.8433544983076963
-0.2518914801196957
-0.05321524606441093
-0.06724868476393385
-0.4586426081127888
-0.2629830089617782
0.1604038859923276
-0.7019680203355328
-0.5509502612237442
-0.9863266212292447
-0.3130835548750783
-0.8008344615911152
-0.5991242941032086
-0.6456074454814609
-0.8590032973810877
-0.4544186127086894
-0.4030243383691963
-0.2612504747030322
-0.487906629302517
-0.2375162044165547
-0.4710499543574294
-0.1736121316365988
-0.7903495423636275
-0.8396326516816951
-0.7708275374709922
-0.2315756189103342
-1.082390357447521
-0.5488026269892384
-1.251023394585408
-0.173694150346845
-1.105225212135198
-0.243371140374351
-0.4085074943977363
-0.2501914636340689
-0.9297081312532116
-0.5575048643960679
0.1238766360124969
-0.3095730498190248
-0.7864361815965552
-0.5921203790272718
1.963683882192366
0.1051301082810082
-0.4806377291890068
-0.3524719176270306
-0.3553441744371474
-0.6134890238365854
-0.383304365014193
-0.5344472387250738
-0.9693507075205919
-0.4189447220507882
-0.02267857973074877
-0.05637638001291072
-0.1621110726846183
-0.04221033285004459
-0.3256657444689866
-1.356391490832152
-1.373951115108707
-1.843877837305246
-0.2011179203896079
-0.1260293167280468
-0.3095783093823975
-0.5138023904858015
-0.1350718572947186
-0.06272723699243017
-1.029973220107054
-0.4826535720806698
-0.3955000178672249
-0.5118206391051484
-1.132429080261223
-1.867165050043115
-0.9495940742799789
-0.5463932050016233
-0.7855232744161539
-1.862162131278519
0.3824359508820731
-0.4915135276616447
-0.1029669886137628
-0.09079558869496819
-0.03051318194950768
-0.2918140586917881
-0.06242749421870378
-0.9010798078598535
-0.06183866824269135
-0.3203854047748788
-0.2541968219211665
-0.1307779978706508
-0.5421109577575547
-0.7488608895134213
-0.2062234047113444
-0.4647778551008581
-0.1836994288780894
-0.2596351804075109
-0.4020479436620931
-0.5428802918951041
-0.6622355446310628
-0.4441729719123176
0.30202886099422
-0.5624198870723157
-3.305430899782758
0.02720456896846513
-0.5828270994202485
-0.4052673673422297
-0.07735617684105177
-0.5808559792971308
-1.174734672752199
-0.06181879562945818
-0.1642497957384529
-1.812650680972554
-0.4387232637954427
-0.08309901376922497
-0.08755896319714736
-0.05981941893918147
-0.1723923046894355
-0.5964665794762261
-0.1710964363536046
-0.1069608475547002
-0.1373630549149419
-0.0705248651593193
-0.4320922672945366
-0.3832191811111666
-0.07836202566919598
0.04836197513372065
-0.4018949152095945
-0.03829660768853962
-0.4741703845828223
-1.032057056458869
-0.100975768600533
-0.3388358108279238
-0.07602181855819536
0.08405801895554374
-0.3761142101789646
-0.08140250902692063
-0.05657639836879069
-0.1984625599135385
-0.1175821012365706
-0.06964442601798078
-0.08760748055482621
-0.6782641246030515
-0.2088668869978711
-0.4415017046987883
-0.04860987734011033
-0.3560697486677084
-0.2780356073067554
-0.06979146642668146
-0.1710675081983725
-0.03129333986931455
-0.3049408386722668
-0.6687161624664874
-1.255583827764825
-0.7088444624630235
-0.7370575625082223
-0.8707056177875589
-0.5437069128771488
-0.1240907246775466
-0.1842690050392076
-0.317031957561982
-1.004902426663209
-0.6960926606677019
-0.3158851470120848
-0.2598067618784009
-0.06611601550351442
-0.2894527796534535
-1.127557771410253
-1.156320504803573
-0.1461799173436427
-0.3192609968111646
-0.109046728652852
-0.5482839536632843
-0.01996336718562421
-0.8644628763579922
-0.6719998360876852
-1.11534450725139
-0.7564516317887902
-0.1883122316690424
0.2317654410163845
-0.55351928783027
-0.2748920933573867
-0.5995828789040399
0.04146628834315749
-1.332912203979373
-1.126503673520825
-0.1630272765931612
-0.8462284622923245
-0.4808621162700861
-0.5326036528107781
-0.5075110063963681
-0.9137091502262343
-0.2591355784586204
0.3396272952691139
-0.02273857763332331
-0.1352834874644593
-0.09845882455521991
-0.1530622970212824
-0.01630946139104787
-0.02425482436932403
-0.96904769281883
0.3440157070384624
-0.3341792627934023
0.2097235768241741
-0.7286633389429765
-0.523308097811518
-0.6142240849839746
-0.734871457662892
-0.6230897414872377
-0.5273786552217399
-0.2696187411742637
-0.8609025305173585
-0.8329218093277421
-0.1069062023836758
-0.1293954113690492
-0.2279836424084855
-0.3860836838458027
-0.05586438672103674
-0.6190283819616145
-0.1231098815952565
-0.4909562279181251
-0.9969064002809608
-0.1074044266677076
-1.409076893029235
-0.3869537494852128
-0.5710288884907819
0.01181196615776105
-0.1681240024944399
-0.4794743058107944
-1.455734835455354
-0.04581863124786811
-0.08658622183227012
-1.221520352406108
-0.1720445171157948
-0.869877320581147
0.257884577049557
-0.3378304863914363
-2.243057937914749
-0.9688107664742613
-0.1551230087415646
0.02006614804811614
-0.5388843154301469
-1.50954784253362
-0.6827126169652009
-0.5026415081040748
0.03838106667030536
-1.278205116826686
-0.7211243247945615
-1.732632110671094
-0.592870606078743
-0.878846458374868
-0.2868027499213562
-0.4796819355852463
-0.4422993278772114
-0.04939680268267078
-0.8944832281929791
0.06846463193560058
-1.063021343043209
-0.06133665212852007
-0.03226004211457323
-0.07838711618901972
-0.03877838570190635
-1.381432799698645
-0.06077230877243416
-0.1538062621369084
-1.018163732206711
-0.06644961105469696
-0.8704301150063578
0.1817616271309392
-0.8236320342121248
-0.03624210718207008
-0.1700408245747426
-0.05680264393811416
-1.154976325204734
-0.03305668211888262
-1.649786993554391
-0.1083587789955039
-0.3148819969470614
-0.1119609548493593
0.1179864661969324
-0.2026245104845029
-0.2370258148679889
-0.2560583448688823
-0.6395258375757711
-0.9442001456252637
-0.05336848233039145
-0.06398163718006082
-0.3778836198078471
-0.6856921449004253
-0.08088382523094563
-1.28852345615332
-0.8805037793067249
-0.2597816430046446
0.2089008248525383
-0.4322195366435598
-1.111610342503785
-1.341148487490704
-1.575854062087941
-0.001054795606621083
-0.1790008956709916
-0.06303968347944848
0.07061778372268841
0.05190864428521916
-0.3553354698124352
-0.05385706012595493
-0.2525358575471027
-0.2119079738335648
-0.04579449465584622
-0.2735378013017237
-0.03507424039811514
-1.248348119079256
-0.5800720229808078
-0.08962065020497803
-0.3333670060694914
-0.1939164425844346
-0.1818308184399819
-0.02913382258393257
-0.1561882567283459
-2.46856595511324
-0.4894096302980855
-1.109508466825863
-0.5676291537607083
-0.9931618129192372
-0.3163403551757575
-1.530755145538696
-0.299775252726094
-0.1880126145687814
-0.009710518977559424
-0.04881021550637886
-0.2945041642468656
-0.1806567074396753
-0.03353461500204387
-0.4068111199233088
-0.352303289941798
-0.5968807989351065
-0.02410206525061206
-1.805572365358451
-0.05412708105608974
-0.2892424979380106
-0.1039140266644555
0.07268663794190208
-0.2364303271049373
-1.444877298248728
-0.1547789995137783
-0.8542056039280387
-0.9914901831004214
-2.293649552891522
-0.6809851667668555
-0.2192881714817268
-0.5358945000378391
-0.2415249601833832
-0.4840140759918571
-0.08782508875372082
-0.02870639869980453
-0.08347595548404078
-0.5614450668594148
-0.3074528782160912
-0.2255220932875346
-0.3129857488509563
-1.579316643382064
-1.106834455648791
-1.951463772243776
-3.07561783997368
-0.8005600286255493
-0.279393513765655
-0.3641453967806169
-0.2873293466817123
0.2228262383520948
-0.4533533292456564
-0.6054773446095058
-0.09829789905942865
-0.9640839768201347
-0.0761941220671831
-0.2157323071061351
-0.4857107455899207
-0.3727943002759819
-0.1100622124156552
-0.1963666332523917
-1.109460247889233
0.2893562038591691
-0.5030017402828014
-0.7484095755569099
-0.4185279970322337
-1.247027896185137
-0.6066918280000821
0.733068238073605
-0.3994809499596335
-0.5505905096394308
-0.1838184315639888
0.1913130562025606
-0.3566946970588612
-0.2074835099031006
-0.2130028321628863
-0.1873993954886075
-0.05062603270402823
-0.6967664843168205
-0.4219870975224455
-0.5110182499762437
-0.1827308357622843
-0.5698192985914999
-1.325341525413456
-0.1630268279751379
-0.2741687172876791
-1.116342809424097
-0.08246922990325982
-1.174213966850453
-0.1148753399903079
-0.3056082173755859
-0.4795825613267042
-0.6088919770034557
0.3949022756027095
-0.6241571207831851
-2.36687793960187
-0.1847705100462122
0.1713880652164813
-0.2469864508226161
0.09757295137466521
0.007248237468338316
-0.3077506335784015
0.6100860474466397
-0.2119178162170267
-0.9964819474596409
-0.2334110834543346
-0.3236032404207104
-0.0001228105591323575
-0.268438723796094
0.2022987945821067
-0.9223205330227631
0.1691413600923531
0.4877123808349266
-0.1680766459970222
-1.602135232648588
-1.547380091233163
-0.05645849186034032
-0.1035453732807544
-0.330367986667266
-0.1450776228320931
-0.6375524896967948
-1.249007815241275
0.007343662983518132
0.04108096821945462
0.03991313308604848
-0.265076019909026
-0.1213387568341246
-0.07917630367438996
-0.7077559673268259
-0.3205311290799801
-0.7594587802501227
-0.2628201406179102
0.3354237701861781
0.1742775069956503
-0.9223578595568216
-0.3542641246162719
-2.266897308139285
-0.3388556500591974
0.01019597954919399
-0.1245613357902124
0.1104926289151689
-1.369460307709659
0.3273183151525344
-0.3799735962573894
-0.5462378758911052
-0.8070873993445422
-0.8003992033451529
-0.324054222950764
-0.3377468066301099
-0.05513996829785278
-0.06989502613282407
-0.2420289146277758
0.1765393389607283
-0.06543697345614992
-1.075625128438049
-0.03738211264444617
0.1384196006017815
-0.02853586020022882
-0.7378430031691535
-1.202342120609867
-0.04211297350618481
-0.07510052626252191
-0.1735669162089145
-0.9156175402238735
-0.07239812945607439
-0.3011755899833391
0.3399130029066293
-0.08793836895371004
-0.07834436241630902
-0.2383508459398492
-0.0603561565336102
-0.3145367122346048
-0.06694249731356326
-1.08718641220147
-0.2754237794845522
-0.09599496956107581
0.01262350821926273
-0.3261565523419113
-0.4413773444296276
-0.6475894395230781
-0.5289680645670499
-0.9435096042399812
-0.1582713249485107
-0.4264396701439601
0.291668493723075
-0.08675490023464941
-0.6582359978282626
-0.07758008278217991
-1.58430787485412
-0.3120384956111663
-0.04291977804407424
-0.5078179689373303
-0.06895087654087574
-0.2042699652411646
-0.1241120610135419
-0.05789499991731325
-0.05253344234112014
0.2597142302114114
-0.7037757269189919
-0.06380547553745071
-0.3052966208225587
-0.2631386471689116
-0.2050314169815228
0.8800590145107942
-0.8745952238797753
-1.158848431559971
-0.004999372768872053
-0.2566454038576309
-0.3176265716995846
-0.1820617334028349
-0.74884060011658
-0.3057525676530851
-0.2249494389548874
-0.2349190498181848
-0.1895280499073657
0.3257352255890789
-1.000200866094069
-1.848195630045278
-0.7950230582363205
-0.1899815292266132
-1.268204636966399
-1.183703226042098
-1.158199888632825
-0.1829499785312081
-0.6832776725325819
-0.1598557885141624
-0.8772830420309402
-0.9868879717639876
-0.01834202703170992
-0.6553391073376122
0.009260822890210074
-0.9545481161808308
-0.01056010379585366
-1.863181232585165
-0.7004675013947091
-0.9708282099915293
-0.1988349535066099
-0.0513770442974204
0.008218846622965563
-0.04016371817730458
-0.4219754389558252
-0.4165270107748177
-0.9225762498701322
1.399119158088418
-0.4844569269471745
-0.4585203662918836
-0.6773247866575792
-0.9617695496765468
1.031308890367497