/*--------------------------------*- C++ -*----------------------------------*\
| =========                 |                                                 |
| \\      /  F ield         | OpenFOAM: The Open Source CFD Toolbox           |
|  \\    /   O peration     | Version:  v1906                                 |
|   \\  /    A nd           | Web:      www.OpenFOAM.com                      |
|    \\/     M anipulation  |                                                 |
\*---------------------------------------------------------------------------*/
FoamFile
{
    version     2.0;
    format      ascii;
    class       surfaceScalarField;
    location    "0.8";
    object      phi;
}
// * * * * * * * * * * * * * * * * * * * * * * * * * * * * * * * * * * * * * //

dimensions      [0 3 -1 0 0 0 0];
oriented        oriented;


internalField   nonuniform List<scalar> 
37503
(
-7.337613350913084
-11.01700847754483
26.12864302809919
-7.774021199725038
-10.52249488050902
4.568569713733995
16.47029886567727
0.04234421435918954
-0.5731614934062047
0.8286288313543313
-0.2978115523048717
-0.1071370443750798
0.1322201715460825
0.0008376578378115131
-0.02592078500340041
12.38804288185958
7.182175008551769
0.6039131999761687
-0.02135163146596475
-0.08613039729707887
-0.4964311712038866
0.08397666519257184
-1.608861984644262
1.576326058521325
-0.05144073904364579
-0.6554566466944003
14.53920757688718
-13.88375093021109
-7.679034859652152
-5.800464616340619
-7.848866326372744
21.32836580230182
1.793019689949815
-3.125286533459688
1.487644048538289
-0.1553772050079208
1.47239977064521
0.1873283860436136
0.4122361630346227
-2.07196431973606
1.717832328042099
2.106735705782914
-2.712864473682928
-1.111703560188668
-0.02797078124895468
0.006544046156323872
-0.02973274651912234
0.05115948161940047
1.101175159381755
-3.576963350656742
-1.010574029220535
3.486362220413524
-0.8885302750469819
1.960199269144019
-2.771052138161124
1.699383144012486
4.251071472841548
10.59643720380447
4.51865434327771
-0.01247336802773909
-0.1614488430167067
0.141471277660957
0.03245093339742221
2.091182796983852
-4.636601393063101
-1.985076986606824
4.530495582615746
-0.4514931354948586
-1.281649765344014
-16.62554630384916
13.11201019065833
17.96468023705454
-6.656762843018286
14.16501191660609
-8.122108906867664
6.97422354642084
-8.187480792133067
9.335366152551233
20.01286480386295
-25.72031665213903
12.03065436830036
-0.05060397817148807
0.4700443327447855
0.01871642170771499
-0.4381567762751253
-0.4509671354522033
-2.178287241697304
3.730429536482798
1.395985699171886
-2.667864788692655
0.3833488144385681
-1.445654003979735
1.920462230016505
2.207793943242295
-2.682602169345336
-9.738756412706461
-9.491516595750399
0.2620623926586816
-0.2832697170647925
-0.05544996492059975
0.07665728934526506
-2.297544313090865
0.4384132904514537
13.09669350437762
-16.18529343312267
-23.7667825170331
26.85538244584589
-0.1478601669458056
0.1227895841493591
0.07766153803375639
-0.0525909552279265
3.612810726700295
1.991353657740181
-19.91490650060319
-1.549141706843995
-0.9973928141702592
2.095567385498226
0.2268364347874953
-0.01675067765767284
0.2079941262953492
-0.4180798834099207
1.324434163244127
-1.184795252916625
0.510880461218813
-2.046124595134577
2.720039386781226
21.43531362869036
5.093814370205783
-4.454792408582243
-22.07433559038776
0.05226130428392228
-0.310523686401657
0.1187240822205634
0.139538299912359
0.2961616390008273
-0.6079827437836615
-2.148107621286907
2.459928726101772
-0.03459286835876391
-0.2344594000411532
0.3833328054568241
-0.1142805370419164
-0.05926463424355921
-0.0503072189914866
-0.007024348872032156
0.1165962021142077
-0.495804323830622
0.4481796910644373
0.2991056109938182
-0.2514809782123084
-0.06258485057778433
-0.3704273503556745
0.6018114553637998
-0.1687992544037393
3.895946307168397
-2.533745476120729
2.33270299601461
-3.694903827062165
-0.1426721324201781
0.0342310814715529
0.0244811391037003
0.08395991185287313
-0.04116520383922562
-0.08507305574855095
0.03005250275427083
0.09618575684510232
-0.01894149669696606
0.1086950510005288
-0.1391149194871206
0.04936136519209202
1.958987928120021
-0.9828425471032812
-0.2465408551528225
-0.7296045258545506
-0.6635224896643089
0.182629657590808
0.3262233336614787
0.1546694984490704
8.825693943906497
21.08299870997611
-27.35478997954203
-2.553902674346356
-1.247955690686399
-0.08490992130948199
-1.379998861707179
0.471106174399566
-0.134148574235155
0.09633432948424421
-0.4332919296416913
0.8139592660840463
-2.162767392213619
-0.9487361869954567
-0.2164171518935173
1.522969576115935
-2.096501658755389
0.7899492345616382
-0.157548452227382
0.2146446922319192
0.00249326789356377
-0.05958950788713719
-0.2291855620670565
0.1265747019573948
0.1593448859480364
-0.05673402582612977
-0.901602927031191
-0.5250720578965886
3.160761953758526
-0.04872143143171364
0.3231499425090431
-0.315937521260736
0.04150901020218136
-0.005909333933443034
-0.1139099215978978
-0.023042227385736
0.142861482930476
-0.002661286301636799
0.06023524106133908
-0.08449487476845638
0.02692092001696313
0.006200904685866765
-0.1346922597893795
0.1211437142340231
0.007347640880589977
-0.07113793774168849
0.07368605062610414
-0.02882456356118288
0.02627645068228285
-0.2402615930275704
-0.2309511938292274
0.4593184128938601
0.01189437398492201
-0.1128149894784874
0.07245122277397681
0.02494572542952286
0.01541804128379925
-0.1056918094682104
-0.0008890673682448369
0.0934330219426092
0.0131478549020325
-1.934204264265609
-1.150595006035418
0.04893273249320095
3.035866537732462
-19.95440690021115
19.66078290749643
0.2936239927036218
-0.1714334502102017
0.04924320147790268
0.09739584066341297
0.02479440807970899
17.82013248467365
-14.74873239713743
-15.18653256158342
12.11513247397266
0.09681583559357435
0.02020625207527545
-0.08531304344009838
-0.03170904421472332
-0.1524114823407751
-0.4903554219046261
0.4367721741353349
0.2059947301260648
0.1264449424159164
-0.5815614906288155
0.4833133707661693
-0.02819682251422783
0.1560407882282871
-0.08371584343879621
-0.1013011151281278
0.02897617035243266
0.1958982602348556
-0.2198949644073844
-0.1536278748587996
0.1776245790508804
-0.05234749327196606
0.173221864435238
0.1881549187545841
-0.3090292899063228
0.8431563258596912
0.6145794979330962
-2.187120265386073
0.7293844416105267
-0.01466051233679668
0.1278105469403496
-0.04606693451255181
-0.06708310008129022
0.06886995116012914
0.01160864242536447
-0.04631357172338546
-0.03416502185202425
0.805989958633767
0.8440861951686641
-0.06558178000465052
0.02528455398540238
0.04029722602299163
2.853571979931037
-1.697194708273676
1.01681513702842
-2.173192408669532
0.2337685683003193
-0.09837262903351349
-0.1142697303784457
-0.02112620887161084
0.106617781005104
-0.01660925139411025
-0.0620249722055207
-0.0279835573964105
-0.08236799138874674
0.4550739026296345
0.3985349079972257
-0.7712408192053645
0.2549557527920265
-0.1854398240273773
0.1581702618318412
-0.2276861905891514
0.1173253294533687
-0.1668703496403435
-0.2493652829211047
0.298910303124382
0.05930316082382315
-0.1491157651893691
-0.0111992731824531
0.1010118775552888
-0.09812269465968282
-0.01998615030620877
0.01097180059453685
-0.07902434331516195
-0.1167080420770114
0.09080547574050848
0.1049269096618469
0.1921281629636617
-0.1105356593746425
0.01982939879765649
-0.1014219023832671
0.9908340033627941
-0.6429195044396608
-0.3970264032517569
0.04911190436935837
0.0664632295371127
-0.2892760723872677
0.3037093942939916
-0.08089655142233648
0.2545138321143144
-0.03959644620859121
0.02122277846760386
-0.2361401643599633
-0.06361640368638714
-0.2409349609391944
-0.1882009313179646
0.4927522959491701
-0.0325264155247872
-0.1935743343632232
0.4098884353335758
-0.1837876854359926
-0.1156472372700543
-0.2637436061658044
0.08332811983677642
0.2960627236081726
0.02922902828837974
0.143837257732909
-0.1956245500491189
0.02255826404173746
-0.101070764424735
-0.08830700951928605
-0.250110918689367
0.4394886926428745
-0.2016102846531343
-0.2838333580147131
0.3423980242765127
0.1430456183955185
4.791931287062844
-1.507297854694731
0.05550681615896604
-0.04821908125410659
-0.007287734898794526
0.979735441939446
-2.210121274366645
-1.43747895629532
0.03682696693540111
-0.02645746203584226
-0.01036950489553134
-0.1964601562422797
0.05203623465784967
0.02399086974683576
0.1204330518472326
0.002307582011444681
-0.06553408482236472
0.1596096190556652
-0.09638311623275016
-2.328618279032185
-0.8094937993802355
2.601980348456182
0.5361317298998144
-0.03671529377950761
-0.08126784503838594
0.1342861629918501
-0.01630302416578033
-0.4307097203941151
-1.177637376926473
-0.8660354715488786
2.474382568860221
21.08198381893893
0.00127663281350466
-0.3404346558693006
2.974186744934428
-3.818547341997329
0.0582746644716679
-0.09960285250527504
-0.02942768560142142
0.07075587364120875
-3.046863532756313
4.858718446696816
-0.1484198654501846
-1.663435048424431
0.1218314822296654
-0.05533003160579864
-0.3275967683511007
-0.2890571997250947
0.4271970483291606
0.1894569197601745
0.1913393053693386
-0.09869206715865653
-0.02736876850098426
-0.06527846970182487
-0.05618726676252843
0.2460852583254109
-0.2464254251047176
0.05652743356393656
0.1811050615472899
-0.2879746023374774
0.3021541430730904
-0.1952846022673517
0.03679819456560546
-0.02321568478879349
-0.04900104649629111
0.03541853672401647
20.19653327651979
-18.63220048557525
-0.4432448325720078
26.73531600156929
-26.9475278157251
-3.343410333520367
0.257556339612751
3.851784101106889
-0.7659301072515523
-2.043508513401175
0.3424248466632155
0.9174416839442366
0.7836419827927256
-8.032975299504619
-4.986876040673565
6.988444348525136
6.031406991797282
-13.80002057914738
-20.79737875558768
34.60262773990537
0.7628494435750774
1.584932532545521
1.382647560321093
19.14378889695047
-10.91980151826198
-8.223987378682313
1.195559759079779
-2.361352651508315
-0.0628719450806207
-1.728444751141948
1.129469522052084
2.318143802417768
-30.31256013887153
-0.9003509922854477
1.228219247136511
29.98469188394593
0.1106757920675827
0.007110643703404737
-0.1347736261816635
0.01698719042352876
-0.1718846213954937
0.03212859699177826
0.1397560244111428
-0.1017954851687142
0.05059881375769838
0.1231387054779585
-0.07194203405680596
0.540723124180792
1.427260801945762
0.5306097968026808
-2.498593723005492
-0.6124110861703452
0.2042550371561789
-1.776731510534639
3.101571237793854
2.014931456619254
0.8131606380415619
-3.64213420994608
0.8140421153137124
-1.89612669648686
1.911644332666369
-3.148245268719355
3.132727632451855
-0.3784313666707849
0.1873812374655577
-1.996229812622298
1.703305102497537
-9.428999570462787
-9.318657232560657
-0.05529274977843908
-0.1502890271083004
0.1144814607858106
0.09110031611115905
0.1174429162857443
-0.3418721701771925
-0.3539308051919972
0.5783600591120494
-0.5170490922069712
0.3553031409566823
0.115761532662201
0.04598441862238941
0.4584965556924466
0.2130958093151817
-0.8238596668237407
0.1522673018354829
-0.3573703795718705
0.4841483049659134
2.211370397111929
-0.1406515456619361
0.05420696891963348
0.01230684527522699
0.07413773147060922
0.008211265162198439
0.02662354491276693
-0.129163099821754
0.09432828975242522
3.12317893568043
-1.08277715024232
-2.566636887701802
-1.165561673628949
0.5988074967262286
4.74990350259692
5.576719326901
-10.92543032625219
0.1948705120685801
-0.8877307183093011
0.5354649098225703
0.3522658084907946
0.07294390896742221
-0.274625415618921
-0.2132421688837572
0.4149236755526659
-0.6420262496253921
0.2473583604740652
0.5490927831186471
-0.1544248939495058
1.799458046335046
-26.13689505676688
1.869299177877306
2.878706994961269
21.38888888390255
-13.87901144902105
7.817859907106756
6.65995903857022
0.1974661882009691
-0.06452351473996644
-0.1324805446799219
-0.0004621287730472233
4.824622220843392
6.612698841969793
-28.88787062639631
17.45054956348327
1.657308055898819
-0.7766432097855814
0.2813756310913949
2.678170604047662
-1.763986476101195
4.071941572080851
-1.728433412576613
-2.971039925589259
27.61849082635753
-13.65354283876598
-13.964947987647
-0.08856519291493894
-0.00459939075922582
0.108709075123912
-0.01554449144077108
2.398374043707308
-3.687544886574535
2.112140024506295
-1.957548669886278
2.819595390270176
2.373755135410206
2.301068925904747
-2.276450017646012
-18.79962807605089
8.47364652534411
-8.669160216524345
4.418329872383594
-1.606161446554535
4.413208950389749
12.54249409907592
-7.717707145283371
-4.265604320171856
-0.5591826335671592
-0.009727209030780863
0.08100595598954932
0.004573913610272793
-0.07585266055928971
-1.277271754038803
-0.749976696218234
-0.4559556023024789
2.483204052599906
0.4052325550213083
-0.233017111720216
0.1319984355360219
-0.3042138788222655
0.05072185041115086
-0.06160520854741647
-0.21830220392115
-8.11054847082438
9.068565466354759
5.270124652159178
-6.228141647705138
2.687719512895933
-2.056251775191042
0.7213962033812603
-1.352863941033218
-0.05778215143676795
-9.077710327866493
-1.731735371405281
10.86722785087597
0.2601460421974745
-0.1793010632891474
-0.08084497890425568
0.1080949721322243
-0.2055525893653897
0.0974576172414752
-0.05526603273332827
0.3144712824308195
-0.05994802357452062
-0.1992572261128645
3.709647512337892
-21.79203136479365
-4.083440046117486
22.16582389852077
-0.1456460261069684
0.1501128416114961
0.1650002377931737
-0.169467053278449
2.625162445207013
-1.259452867729046
-1.796419297884663
0.2332819845909735
-0.1251870124523073
-0.1480911535504032
-0.05389166237550471
0.2340459076972994
-0.03206309175350447
3.013150669785937
-3.569243703715014
-0.01113500262940214
0.5672280366264781
0.3642465805149808
-0.02451155458856779
-0.02032670943766476
-0.3194083164466116
-0.01138222472323966
0.0109776228450131
0.09453564652611024
-0.09413104463796412
-0.4354387711507881
-0.1139391734059385
0.2738154060467611
0.2755625385324523
-2.30652449243237
-2.120527618889648
-1.444319233176108
5.871371344479902
-0.09463475502646318
-0.1661535593978116
0.109093941958054
0.1516943724724927
0.05966321469398726
-0.207447991554617
0.1477847768691878
0.06471309927578509
-0.02358869984586875
-0.08608933108679201
0.04496493166753078
-8.024897119650436
-0.1365341240362312
0.006280721126983674
-0.0138423563766551
0.1440957593008413
0.02079006289269552
0.04857514461851422
-0.0693652075011378
0.02931946768051524
0.05581868742577373
-0.1096660225148333
0.02452786741869713
5.865247368426914
-4.041380820848937
-5.303162469842894
3.479295922345471
1.989057385205111
6.076088162969564
-2.410589008129318
-5.654556540015162
10.36997376039244
-6.632293594345575
-20.83962682927094
17.10194666316338
-0.07946159277893544
0.05580355954666632
-0.0893240664484601
0.1129820996937048
-27.58138795136317
15.2844003516382
-4.328558704133713
0.7124780860442029
-0.356272721121298
0.7024398119382471
-1.058645176874348
0.727854514713665
0.147226923910081
-0.7177984943240516
-0.1572829442835337
7.453485465419016
-0.9142055095920156
2.054946716680582
-8.594226672482408
0.09987108866730535
-0.1126404231083512
-0.3383230284461168
0.351092362899808
17.02485588504046
-13.16878010895609
15.28771312086897
-0.6425239607928854
0.1844231925641296
-0.06093601155887581
0.09603511455016181
-0.03509910298607415
0.06541594128896058
0.1262231011195755
-0.1747021148665479
-0.01693692753449993
0.1063322183404702
0.03289096788641745
0.01985521086421354
-0.1590783970737524
-27.13728980597489
14.98214682097156
1.188340556120409
10.96680242877909
0.3283714059600335
0.4541836384852615
-0.3806079614202516
-0.401947083012048
-12.71271490948664
16.41561607745022
0.09482712077140668
-0.38461224226252
-0.1302212186002562
0.4200063401137168
-31.46227533757448
9.191896661217228
6.933525312019101
15.33685336429744
-0.162897374798953
0.03865009305222132
0.0573364916533368
0.06691079010344418
14.56795219381061
0.04199295606200561
-0.07156678989357261
-0.02018496833420575
0.04975880217280969
0.4451642801981349
0.0653093565377551
-0.5484212574922166
0.0379476207586186
1.425239006819014
0.1538424130780498
-1.011012425893279
-0.5680689939638821
-0.0033585401262902
0.4107250466545605
-0.1259143603504187
0.06400698118262074
0.2069154160960904
-0.1450080369139305
-0.08239445437392202
-0.1337730987341071
0.01550325773059223
0.2006642953828112
-0.2222492180173921
0.02523698068566569
-0.005190240742481801
0.2022024780881218
0.1626413506867428
-0.03581138715623461
-0.1268299635198597
0.02966171611017187
0.04871239423327046
-0.07837411033637921
9.762257628379407
-14.2273470927285
4.465089464371323
-0.05430438215744911
0.07497688816549863
0.1786577113211847
0.2128696433462801
-0.1387899000706576
-0.002334560112060937
-0.07174518314625229
-0.103780379781093
-0.3054984859092832
0.8353434482826696
-0.42606458258129
-0.1463132923069827
-0.3532256777721021
0.2057403058734494
0.2937986642321525
0.2066806473203605
-0.3912608594323451
-0.3660594842607988
0.5506396963800195
13.57010089043265
-26.15671098904441
-14.55067970744698
0.9105084622926215
0.4240427646361466
1.763213307166277
-3.097764534079243
26.93594237985797
-23.84367259766585
6.844339581214578
-9.936609363441084
-13.1971040607126
-16.12078962536464
10.15637432547431
19.16151936052756
0.1426504663836896
-0.0396704043352133
-0.1029800620361139
-0.02499781158753421
-0.007136501591519752
-0.1296331840671672
0.161767497263674
-1.295091044802885
-4.790068555957455
-1.011372697482775
7.096532298250967
0.4040275808326306
0.08913299350465158
-0.5734863419148613
0.08032576758156439
-0.04865375962889913
0.1449774462838387
-0.01726491230630424
-0.07905877433778905
0.04918148078679214
-0.01717421848708183
-0.08174915740164758
-0.05008180711421958
0.07537130935953187
0.1139007158311583
-0.1391902180582567
-0.05210163816081623
0.1102148161736686
-0.05811317800616989
-0.04543946090391746
0.04918769817624941
-0.1252844792275501
-0.06027003198318318
0.1976982105312974
-0.01214369930592273
-0.05061345418088852
-0.0419908588432437
0.09260431303565406
-0.4440508005516464
-0.04761056059625854
0.4166106764905148
0.07505068467208756
0.1984513784043039
0.1795451395752602
-0.325735213684494
-0.1441915698078606
0.09025569574846727
0.07515599814291055
-0.02122012407050489
-26.39938577668358
25.39864856360744
-3.707184522858419
4.707921735849562
-0.5096961269846841
0.1099342299311466
0.3333202526912422
0.06644164438556889
-0.4624797654209231
0.1772665548299721
0.6018650654618912
-0.3166518548560217
-0.1652815460009955
-0.01613852584588277
0.1070594579830097
0.07436061387471839
-0.06845660206300841
0.2795103867258301
-0.2435489166117256
0.03249513196462841
0.07129315832054982
-0.221933954521627
0.05882825882615467
0.0918125373886689
11.38517082914863
3.075657336335648
-1.161868589739494
-13.29895957577329
0.1271504689697034
0.02685013215029783
-0.1040273535732851
-0.04997324753469298
-0.0854438644928945
0.226940959908287
-0.04424957333233329
-0.09724752206862251
0.1391216195211784
-0.1695433175336638
-0.1751308913436197
-0.04455219950656798
0.04036305738450652
-0.04656740527799352
0.05075654740729658
-0.06433187965555137
0.4364958179407405
-0.3168745114485457
-0.05528942682605992
-0.04502964713363958
-0.2133814248098839
0.2098221550504521
0.0485889169090645
0.1711125037985263
-0.01527060120082884
-2.37791011030736
2.222068207764643
0.1406499683755056
-0.02636244286338504
0.02856491408207132
-0.1428524395840971
-1.379943963711264
2.060956887136495
-0.2196168956084464
-0.4613960278139808
-26.58420647176784
1.474916471916321
26.76837821701519
-1.659088217202449
0.07530912468703108
-0.3187635810643916
0.3341741105957129
-0.0907196541908753
0.119605236527656
0.01680169193723191
0.08969583270691318
-0.2261027611597099
-0.08796381231310778
-0.01802775192547981
0.08484371148274335
0.02114785276359267
-0.5293093956402436
-0.6057888181402805
0.5950710819301167
0.5400271318561277
0.0579422053634643
-0.2612152202575933
0.2051594807128882
-0.001886465801616815
-0.1843528717986092
0.03646814172007484
0.1998558661430452
-0.05197113605402724
0.0218394319622012
-0.1093914417815997
-0.01706109678606047
0.1046131066108492
-0.3756860824782838
0.3715904601044271
-0.673569562560219
0.6776651849612875
0.2532440046091433
-0.000324124647340418
-0.6524277414840587
0.3995078615782844
-0.05982447859424332
0.1443540676771831
-0.0563462722618342
-0.02818331681226116
0.1398138138097787
0.2761425756705325
0.01405515858840741
-0.4300115480591224
39.26535833495175
-25.19691520380715
-18.14413982997448
4.075696698805859
0.3505448487058475
0.1039112387497742
-0.1664987875111431
-0.2879572999275882
0.009741011713336464
0.008954257623937241
0.2189623493714068
-0.2376576186951468
-0.6543552187454496
0.1271456484998304
-0.09698639859582518
0.6241959688600597
0.09289723608361711
0.0432872430513012
0.04893176138300211
-0.1851162405062068
-0.05027584420503947
-0.0562137816511344
0.0230535607878669
0.08343606507465896
0.04756031447803501
-0.4076825191933575
1.715510894871853
-0.8478059543356927
1.277663349181315
-2.145368289673768
15.51994041714808
-10.95566716601059
-0.04114955596134422
-0.1116893802862233
0.1188499414468956
0.03398899481277094
-0.000278830929199243
-0.1344942967254479
0.02822263042847981
0.1065504972331725
-0.151927879260668
0.1434166498747683
0.0410881894180806
-0.03257696002135889
-0.2445145086509194
0.1005291224290903
0.3467693749344499
-0.202783988696345
-0.09310815829915993
0.03899388422454338
0.02216155553772214
0.03195271854598125
0.09231091479023892
0.03524513671393747
-0.007839526713069185
-0.119716524777759
-0.07318107463110317
0.05728973802220437
0.09782340744848303
-0.08193207082996154
0.5548576529119965
0.7076789579353242
-15.25494755288338
13.99241094191736
0.1620980024386046
-0.1698404605040518
0.008409882650265798
-0.0006674245747385016
-0.1719630757884014
0.04986715441823334
0.03924140571330251
0.08285451567142738
-0.1893807720626521
0.3418589205014129
0.132378905520166
-0.2848570539377694
-0.05975340053989142
0.05583584725306461
0.003917553293840337
27.69826831754056
-28.50815143254318
-8.465178913068854
9.27506202810337
21.45831503020029
-2.716159463419257
-21.86080652810427
3.118650961326544
1.953734157021351
-2.182407851330108
0.301878271516261
-0.07320457716585158
1.8048150454686
13.0593402997741
-8.35995537259342
-6.504199972640606
0.1797363972101755
-0.04327361088862389
-0.136462786308986
-0.006449489773458722
0.01015204172720251
0.08947260754707229
-0.09317515949673202
0.278911535580404
-0.1163969223132141
0.4363036674701009
-0.5988182807213071
1.827250930219346
-0.1459231032123127
0.2883601975463017
1.204119567234014
-0.4614410721008552
-2.029985940188953
1.287307445072791
-7.318239274939277
-0.2560589463556354
-2.460630436058338
10.03492865723832
7.658566212966107
0.8963251695980652
-8.227820918849336
-0.3270704636726257
-0.3367933402922055
0.1441311714552388
0.140314675574696
-28.75735485562521
22.25148620696574
4.503391335610816
-0.1087208918086485
-0.1620051764123396
0.2381996527015498
-0.003012766093605329
-0.02671672889266211
0.02972949498990245
0.09723421010401442
-0.04893521552504703
-0.1489105179918271
0.1006115234212931
2.707387413958114
-1.799698747697299
-20.14168023059302
19.23399156425383
0.6151624230988582
0.09630680618703534
-0.8293755640489843
0.1179063347827234
0.06717662260729912
-0.04725594097928728
0.1533011828139173
0.3515916192220968
-0.04355805547856543
-0.5027127176856695
0.1946791539500755
0.1442280504992705
0.04675140017660077
-0.08359047376843178
-0.1073889768998967
-0.09049356127871552
-0.4180822525436761
0.2007445131103134
0.3078313007205103
0.2731983188685014
0.01866871170364003
-0.2613173877276652
-0.03054964282716483
0.03293895201580874
-0.1955427465580562
0.03078585245721093
0.1318179421074492
-0.03578755984838036
0.4675711878927171
0.2614186798548571
-0.6932023078820295
0.1994113854820314
-0.2522817206524199
-0.2717957095399616
0.3246660447337981
-0.0620714580695249
-0.287534569287553
0.3031367780627945
0.04646924932640007
-0.03474908271351328
-0.1458219623446978
0.1805710450683221
-16.87948918602175
15.57430189018316
-2.632350640517807
3.937537936451204
0.08491893887190781
-0.1196680215813705
0.1177634173689057
0.09054948128323394
-0.07718903476702973
-0.1311238638763345
-6.855500734909243
20.00496538834861
8.285848975192255
0.7152402492601969
0.02093860919568416
-0.4572673228688832
-0.7990010158488764
-0.3177323730490005
0.655977663097427
0.4607557258359496
-0.03334324554029801
0.1209483060864424
-0.0821366803131008
-0.005468380222439985
-1.059182656025351
-0.4049921731598289
1.35440935573121
0.1097654735158299
-0.0001395192288840954
-0.01014563836769945
0.04708335216662388
0.1191329401377248
0.05079232248422697
-0.2077489877415738
0.03782372512797044
0.06195094881203275
0.1421009302016203
39.23254901176012
12.09623915408929
-37.20711459517981
-14.12167357073651
0.04596181217385515
-0.08758975252163673
-0.0002913195831088263
0.2841584722125438
-0.4854774372753486
-0.3503315573200037
0.04775967852371037
0.3538764419853598
-0.05130456316906658
-0.2707195727107579
-0.2728940091301579
-0.1719192940457392
0.715532875915697
-0.1350463791478128
0.1820052493416697
-0.0872336368924681
0.04027476670721095
-0.6443808034284347
0.5284320419666457
-0.01582956736142519
0.1317783288341273
0.08401010412055715
-0.001617527623048126
-0.01566075867721526
-0.06673181780759847
-0.6555443120524441
-0.09865749359183079
-0.1574345700880947
0.9116363757288086
0.1243806517655602
-0.004366246271536266
-0.03098945021887856
-0.08902495526409364
-0.3648352840527493
-0.1132952191396533
-0.03891858899473285
0.2666005880070372
-0.1758560982902154
-0.09074448970742589
-0.04277717897082461
0.03067977025664136
-0.120373349634922
0.1324707583613278
0.03686270203317669
-0.1183685067057185
0.1046599921678822
-0.02315418748331107
0.5363828070341885
-0.7367131412167837
-0.1214136376800042
0.321743971884422
-0.09329652763311456
0.1104477793325065
-0.07936484726985256
0.06221359558809067
0.1372999071088516
0.06907611075978698
-0.0004759156104804711
-0.2059001022483649
0.5859744704897688
-0.3668435973390249
0.03353199921768643
-0.1526845846166999
0.1106797923216388
0.00847279309193419
0.04334785295372825
-0.0009235152664532787
0.3375228710230591
-0.3799472086895075
-0.1107408618721666
0.01125989149269553
0.01151715807107328
-13.70952012628762
-2.173519738508889
-3.481065789875756
19.36410565465171
0.4644216257551138
0.07912173136687928
-0.001199733969532681
-0.5423436231485889
-0.06660632370528351
-0.1828278934592029
0.1846970033499417
0.06473721383453045
-13.29203872984175
5.305125005952058
12.94685464705175
3.328154340030367
-29.56704771693039
-0.1282165450398539
-0.04331131032787579
0.02343670182942592
-0.05002209506668439
-0.09435060847212835
0.1851053623048576
-0.04073265875122085
-0.3490770281170109
2.268646066702216
-4.34135896456674
2.421789925953152
-5.642403385228521
15.83096874662939
-8.38375031594588
6.845742969185186
-9.109182283281122
15.00228225978361
-12.73884294570622
3.232200914477033
0.04497872582488857
-0.6753296217309404
0.7678798694850575
-0.1375289735602726
0.1011667869255197
11.02619221283593
-4.663313160060996
-6.464045839708642
-0.1108365812268766
0.001394559254872055
-0.08551875473664043
0.1949607767299393
-0.6259281199211376
4.045007933604109
-5.14751322622999
-7.718617043508212
3.31597969433001
-1.177233380638555
5.57987072982178
-6.655245017594952
3.908796910222057
-6.828177486105492
9.574625593537863
-0.000510686249961629
-0.1560829461661741
0.02777537349375021
0.1288182589312187
-0.03578636560424682
-0.3430069763481478
0.3629975306103361
0.01579581135625651
16.82952586208437
16.39054736330306
-12.4758961422372
-20.74417708318445
6.499236807030064
10.33028905502997
25.86387450207366
-6.650717413754374
-2.822609725044768
-0.05061697661788685
0.1757090927024293
-0.05427784594853505
-0.07081427012436142
0.1435846725849795
-0.09501404914376817
-0.09918760004881144
29.78743095706257
-40.46119601797039
2.958636894429483
7.715128166457636
-0.06658787142720773
0.06559864711830111
-0.0002759610179580504
0.001265185341152613
-0.04120492545274648
0.09285564090185269
-0.05165071544184083
0.1393708202194928
-0.1672073126787123
0.3234554047100759
-0.2956189122268463
25.79571706952471
25.92285867103392
-0.1051366295074794
-0.009156571187842161
0.1337910751953399
-0.01949787448896977
-14.37103292995029
14.39964327451769
0.1192837272443779
0.01147698848825562
0.03867956772070943
-0.1694402834396286
-0.03478016650738509
0.01723739018087989
0.01754277633412556
0.1669629773057244
-0.01662215477986273
-0.1775396180697727
0.02719879555097179
-4.684159782004342
4.703611200367637
4.808552739327898
-4.828004157715315
-0.02363615880828712
-0.06068007980913438
0.02198364715233885
0.0623325914745286
-0.05129412233108897
-0.04635718300352565
-0.0483818951494951
0.02474573634414974
0.01767594526452861
0.06630321447915527
0.006591551000342205
-0.0905707107363941
0.07267708488351809
0.1129068362753812
-0.02198302127788913
-0.0263988738678599
0.07024060552222836
-0.1118022812680294
-0.1041272464263088
0.1456889221810721
0.05639675995389214
-0.02844356133591113
-0.02795319861215124
0.0245159794195183
-0.08673411800384767
-0.09940400413735276
0.1616221427354075
-0.3039476281134688
0.1268818518650641
0.3170331606488548
-0.1399673843579023
-0.7382693883615251
0.06735433207605555
0.5007375390605042
0.1701775172375309
-0.1064739682726508
-0.2012760140587994
0.4239328797043436
-0.1161828973470576
0.3090956675753217
-0.03367675857168566
-0.5049957831820664
0.2295768741810275
0.08828792992197834
0.02224955378995217
-0.02634756430955845
-0.1386296523733089
0.3269288476102004
0.0967259338299654
-0.2850251290413044
0.07582995367143815
0.05771968482706396
-0.133549638492915
0.09881926572603016
-0.1218478589705473
0.07683626118772043
-0.05380766793529886
0.7890373498346853
0.01412599195266616
-0.4632565519413113
-1.266936907015735
-1.293055645046048
0.9306126503561064
1.629379901712201
-0.1082185309466908
0.03122027959800588
0.1105302505730673
0.07189663818117979
-0.035075579356322
-0.1378149501806148
0.1007495547035311
-0.01558187921767513
0.05264727471158426
-1.167930603909706
0.7423651001719767
0.191769069566382