/*--------------------------------*- C++ -*----------------------------------*\
| =========                 |                                                 |
| \\      /  F ield         | OpenFOAM: The Open Source CFD Toolbox           |
|  \\    /   O peration     | Version:  v1906                                 |
|   \\  /    A nd           | Web:      www.OpenFOAM.com                      |
|    \\/     M anipulation  |                                                 |
\*---------------------------------------------------------------------------*/
FoamFile
{
    version     2.0;
    format      ascii;
    class       volVectorField;
    location    "0.8";
    object      U;
}
// * * * * * * * * * * * * * * * * * * * * * * * * * * * * * * * * * * * * * //

dimensions      [0 1 -1 0 0 0 0];


internalField   nonuniform List<vector> 
19631
(
(5.00261684081762 0.007396669732141626 -0.003138858989017605)
(5.010448495631119 -0.003821820113648941 -0.003371008949000544)
(4.979413672806968 0.01247127768657146 0.1963858996144222)
(4.124773045608946 -0.02929209780104602 0.2118500842385286)
(5.003834937658564 -0.005471946622759059 0.002443248679268862)
(5.079891222560866 -0.08112385447169582 -0.02306091957628299)
(5.02872753472173 -0.01495295007310539 -0.01040862813760768)
(4.932148275882819 -0.06401342840654027 -0.05864638829426104)
(5.003698123242986 0.001469731626763191 0.002710753774045493)
(5.017223166609089 -0.02431454122445848 0.02622819356046508)
(4.961573526206387 -0.0233481485768065 -0.02630605622299937)
(5.02988684010946 -0.01611222831523355 0.01701603306014791)
(2.798227104055992 -0.3238247584557321 -0.2995524406488274)
(5.011509922220829 -0.02108998869690808 -0.003566366466220972)
(5.01728577744889 -0.005911326243622895 -0.005648787003561876)
(5.009332226550366 0.005875594346427928 0.002879850902030492)
(5.076402963769593 -0.09566568272288239 -0.1186151724299133)
(5.016073543914183 -0.009797764356640483 -0.006613254384973468)
(5.000626886463316 -0.004501530634473003 0.003813576850836354)
(5.020707954813274 0.02499675686347093 0.03923408502700621)
(5.002532588861141 -0.002027601604099864 0.002856443971628214)
(5.034242673464205 0.001848186446071536 -0.01571784916488362)
(4.999072590872699 -0.007816746603282798 -0.003662175147672995)
(5.07412871494003 -0.1390756842732021 -0.06593363523465751)
(5.015835454398231 -0.01506034479080683 -0.002961238785719372)
(5.021524987447662 -0.01145015383688341 -0.008005101108922857)
(5.039670931434125 -0.01640203281455438 -0.001567398780113385)
(4.759371168812854 -0.03387440891336074 0.0217203520994592)
(4.360037653210386 -0.6022837846485622 0.01309174470346439)
(5.026119395076955 -0.01020669018005443 -0.04812803988456214)
(5.00133916836364 -0.00208211915697009 0.002273829967160842)
(5.069793332065275 0.2068062427425434 0.1395298721528968)
(4.978505583899232 -0.03177184721863094 -0.02469393280562504)
(5.024960812096231 -0.0123665300631143 -0.01430872260418972)
(5.073765440654602 -0.1320928283879709 -0.07053007749619077)
(5.018766487409239 -0.02012627584559308 -0.002285132668519047)
(5.058036827723924 -0.02919504946521831 0.001841242938464196)
(5.002358175267213 -0.003179669844785978 0.00261094875914878)
(5.054953009413765 -0.04825347928528941 0.0962163693018367)
(5.030253726001197 -0.02601947974181904 -0.0395705859502947)
(5.068010227942792 -0.07566154029981746 0.03425699796009113)
(4.774405706628674 -0.02893711881040032 -0.09323267734964373)
(5.065881750172271 -0.06936868253458416 -0.008459520660940606)
(4.419833149553153 0.01776797292929709 -0.06116918920660934)
(4.957908015470158 -0.03255009252916035 0.06739493653207236)
(4.328447741988655 0.1905621209366826 -0.1019801083958157)
(4.84899989054106 -0.2174510667019927 -0.06999634552337228)
(4.918439858671743 -0.06467627442750001 -0.3964220696032858)
(5.051441556630576 -0.0550574756759732 0.01180704948786376)
(5.02918314585033 0.02079733971594649 0.07054409539747435)
(4.992366103961747 -0.001783446196420655 -0.005395147733157379)
(5.031021323595112 -0.01015352859819077 -0.003995970796080549)
(4.850676754428802 0.1286867476768571 -0.0947948542422359)
(5.036299909494765 -0.05310320597798334 -0.004796866615026987)
(4.964494213851966 -0.01523496613822383 0.02755669373810155)
(5.046193171378754 0.006666804455831037 -0.132173349571413)
(5.015388681486625 -0.1551323237348057 -0.08546419268946488)
(5.025888983034045 -0.009533246607655841 0.006710314645749811)
(5.029967613307607 -0.03188892137304238 -0.05551485410708122)
(4.532188085805076 0.07892826435179057 0.2094465349115079)
(4.949544542252892 -0.3740819223993396 -0.3347324438756186)
(5.113065286000658 -0.1608267814655738 0.1937812505961638)
(4.869383080290825 -0.1335991887039175 -0.05875224983815895)
(5.094121213983771 -0.1246986704884211 0.05020122818147001)
(4.449968989339516 0.2056448542984735 0.5267385720802631)
(4.86574449539985 -0.1292062158308735 -0.4669040647844846)
(5.03074960831368 -0.01980527829367091 -0.01712845047178554)
(4.990285181432559 0.004353280593715128 0.008700824289192461)
(4.152193105246412 -0.2688968151217994 0.07414054300893619)
(4.972576577586361 -0.03855020644855765 0.03921578097554666)
(4.567938346531993 -0.03416005383174158 -0.2698357743273597)
(5.075947197077489 -0.06917604045600007 -0.07762919432043439)
(5.062631594768086 -0.06600345260571201 0.01694437242920934)
(5.065618116787802 -0.06472861525140196 -0.4867212822779282)
(5.014303734514205 -0.03571563701789306 -0.1740475493799989)
(4.325058317164739 -0.1157778736621936 0.1871547242062198)
(4.994502347386843 -0.01450984149375134 -0.03744117531268291)
(4.883563777532051 -0.2391791071281017 0.1488042248093166)
(3.183961420138927 -0.1147865348504144 0.1415849234718866)
(5.028597340126999 -0.01561113380783621 -0.007762043085968529)
(2.977516538283855 -0.06158613619892823 -0.1009958967478453)
(4.990975996501652 -0.08894339651933723 0.08669406791902981)
(4.467687635792409 0.08745178394493555 -0.1985372779463797)
(4.038666324532438 0.1743896845750856 -0.1775122251387914)
(5.054915983375158 -0.05333642584006321 -0.09952952979751681)
(5.069292530792294 -0.07181977211487842 -0.02325634151384257)
(5.076078514879121 -0.2121704067036007 0.03550076824149381)
(4.456249076409935 0.939409958349255 0.06290092773154821)
(4.231354550859111 -0.00467246716853542 0.1136339210215331)
(4.959755833637121 -0.07652840380103614 -0.03188259990798774)
(5.102491328705325 -0.03614474867323036 -0.1364016165001121)
(4.586372302246949 0.03026571456810334 -0.1878273752839946)
(5.145715301240783 -0.09891832654444965 -0.05229986429402924)
(5.102387350156237 -0.07296863883738067 0.05748917318754002)
(5.079048331021193 0.001225428738397666 -0.06374419238797759)
(5.098717591120983 -0.08272692391048089 -0.03067367880506664)
(3.779778432928559 -0.7748045436514851 -0.5352016871592754)
(5.014827348032265 0.02188843723660927 -0.1308565213740411)
(5.094692320239027 -0.1054501627090314 0.0793769577613779)
(5.061349621615324 -0.08333138827863826 0.03139532558006092)
(5.012098798381347 -0.01613279859250382 -0.0115613008018985)
(3.306298745653113 0.3269975504699928 0.1396428203360796)
(5.021149448360394 -0.01368466357493374 -0.005225107449478149)
(2.111559688696074 -0.2056112374295039 0.023503754285138)
(5.000524096441024 -0.1267094775546158 0.1043972889845672)
(5.081468560135521 -0.1190047055246215 -0.1017287405568533)
(5.033862959268496 -0.01809260522939378 -0.002351423938223125)
(3.952216233868706 -0.04574922991338077 -0.1673834290475854)
(5.019427288059956 -0.02153767256449185 0.01335958409202344)
(4.949190008934518 0.01145528301733233 0.004764259711679184)
(5.104863820773916 -0.02367114721552457 0.008199098421587258)
(4.280467752404294 -0.05310313715577054 0.2005734707093825)
(5.016065590896871 -0.02498055269126303 0.01120015106467193)
(3.184447586608324 0.04512218943001189 -0.007397196196825882)
(3.933908083484947 0.1372016419578421 -0.1032412510167674)
(5.169449415857937 -0.1506958483429428 -0.1485492423525688)
(4.884291663590357 0.2257838180996315 0.07300177644609808)
(5.037849579445564 -0.05723962281072743 -0.0803222177433545)
(3.734235572325753 0.09179129535606205 -0.2993207727565739)
(5.001767462500093 -0.002431039509949164 0.0009302195566340004)
(5.016980270418864 -0.1000305835891189 0.1019827627234405)
(5.020495328241152 -0.02934671680939782 -0.02807722866318135)
(5.02297636090255 -0.01420359900953193 -0.01327571736438458)
(4.993258014668784 -0.01692454326001456 -0.01266608029680379)
(5.009564693804913 -0.01243100960281954 -0.05528671660562536)
(5.017194512620628 -0.02544103335385055 -0.002391909605320118)
(4.809118839639224 -0.03360818939810543 0.03499327779393405)
(5.025209545059758 -0.01397599208208623 -0.008831406176945708)
(5.017459240944467 -0.02221927864219097 -0.006423053221800003)
(5.029282149371607 -0.01421796918978602 -0.005241123736298456)
(5.010183380554476 -0.05432021819532659 0.04867292656005833)
(4.860097103087798 0.1174876136055731 -0.1437234496338718)
(3.948294358414921 -0.1252054389159913 -0.07247798311950621)
(4.225029518822625 0.3092517622741907 -0.007413424492197541)
(5.024674960318431 -0.0231186070811674 -0.02535223510354855)
(5.034776151327756 -0.01104032102092432 0.0003733294469784725)
(5.039180337198903 -0.04510800541341006 0.004340108741682271)
(4.919402106325498 0.0005170147531196676 0.0631478007934624)
(5.028906042592277 -0.04092163055538799 -0.02808537526448391)
(5.039254972398084 -0.01992051731161368 -0.0142624732938946)
(4.960054533274301 -0.02196625666353092 0.0234630478023535)
(4.829375724441696 -0.02148895727041519 -0.04667898613633928)
(5.010180997607979 -0.01890215850723297 -0.2883485981244092)
(5.090563060035084 -0.05346821654438933 -0.05194189661215284)
(5.048217438663507 -0.1218834573021871 0.04561261805674988)
(5.057238765613117 -0.01898413897439732 -0.04386682669848229)
(5.03942104573282 -0.005786452059343596 -0.02814592897922247)
(5.012485917903285 -0.01274701082966413 -0.007442422297201062)
(4.9498838548271 -0.3193003887027157 0.2084894438512899)
(4.892161337984321 -0.1904456277801371 0.0283996444777567)
(5.008775656781597 0.001251620532231391 -0.009191370915860326)
(5.031002022821302 -0.009528881534729968 -0.01175670869933175)
(5.027895354400143 -0.01300731814673345 0.001171564372990268)
(5.03723720158971 -0.08346135647933049 -0.01613523808204011)
(5.011733540753449 -0.001994517086808185 -0.007964136868148676)
(5.018145188132591 -0.02483828193555108 -0.03592504623787669)
(3.561046209507594 0.1498239708750075 0.2324683405731009)
(5.043848703247056 -0.07620806697619556 -0.05814684049853107)
(5.080820419723857 -0.1147323174924081 -0.04392431320769838)
(5.026000900568576 -0.01382086582539381 -0.0140611068709714)
(5.006585566441237 0.0007832934306333588 0.0003891054696478541)
(5.008465517990527 0.02298536392732572 -0.03572999350265416)
(4.744302597658629 -0.5175330470596133 0.08535300191947683)
(5.011203815855565 -0.003889510338670526 -0.02424052391615443)
(5.024970094287243 -0.01439385021916566 -0.005529271994589115)
(5.023728269747555 -0.008982566753524431 -0.01082293671058282)
(5.018198924898368 -0.01083704522269956 -0.00958256628311656)
(5.017633202690993 -0.005048867405575606 -0.003131430728447674)
(4.981578362205057 -0.0125401493496305 -0.03109524154941124)
(4.846570381275072 -0.08430644624104475 0.1370168270426514)
(5.073084871774659 -0.01182666765792402 -0.02730293970584315)
(5.04857494195725 -0.01924656078720233 0.0109211301530986)
(5.080707385619567 -0.02434622219140595 -0.05046387926366747)
(5.079964166743043 -0.02395796903474687 -0.04350078087883557)
(5.039971588763991 -0.06949553601175437 -0.07110217178259952)
(4.837877550069352 0.09525807907047852 -0.1354811598953048)
(5.018574998734708 -0.004031977379238324 0.0222568732285383)
(3.569209713543291 -0.01635168572100175 -0.2042958703147804)
(5.02883983205585 -0.02781094925327334 0.02427501174551043)
(4.925551844544233 -0.02063839673553988 -0.2298550594189093)
(5.04820310197838 -0.1527682953485611 -0.13183912365918)
(4.993639055906007 -0.006889739992147568 -0.01546906506484388)
(4.969606141464815 -0.01780460657786928 0.01456145282326152)
(5.033966192134418 -0.007039268374962133 0.01613780099199992)
(3.94079213315673 -1.000777440564746 0.4966206693875642)
(2.888172704473965 -0.1241710236490175 0.02704721358460103)
(4.642364610103052 0.4236937403194191 -0.3240216437543041)
(5.000561402099474 0.00275272572854047 0.01760318711210471)
(4.833122572414707 0.04564514846340675 0.3610674446193052)
(5.023635244100243 -0.01983460260836207 0.01645722046003097)
(3.401614886118503 -0.2664553741943468 -0.1053444420338165)
(5.125771848642848 -0.02741455144899253 -0.003709018904255272)
(5.010670504726265 -0.01919547947385234 -0.03619120753443636)
(5.016093635802758 0.02370684188256304 -0.03953735459492876)
(3.761693772873123 0.1087053123431627 -0.06556201290296816)
(5.138233216850071 -0.1904340986958261 -0.05760539403246806)
(5.007732811754022 -0.01379030744931211 0.01965550129225455)
(5.071447135489874 -0.08541103171494749 0.1959333543079199)
(3.556401537560532 0.9171982131511924 0.6917412604508314)
(4.875110185582296 -0.5815466978558935 0.6949017325834052)
(4.832902667748081 -0.03777672716434959 0.1827386392013173)
(5.050068447687401 0.01468658936242276 0.1686929408955481)
(2.429254566854961 0.1140337536947408 0.3334622591615555)
(4.272282143776754 -0.02027138551750922 0.4319905598082361)
(5.010303409087667 -0.0216737223832254 0.01454559684639587)
(5.012303980363416 -0.005654772975057096 -0.009637075678504813)
(4.979911844927428 -0.009136947466539664 -0.001692324929107596)
(3.644119647002762 -0.09618068673507615 -0.06052635981522909)
(5.003460524721348 -0.007768667258635133 -0.00149500509588276)
(5.019759857633715 -0.03438623375289667 0.1087327632788941)
(5.05456519415807 -0.06199311884698006 0.0172367536586705)
(5.03894889251072 -0.03646935654837923 -0.04576457957200736)
(4.974631381450487 -0.01506271957949117 -0.1798182689724984)
(5.006181001716708 0.003449809845703453 -0.001366493297923933)
(5.05391280523652 -0.05774703613419313 -0.02654849897456849)
(4.253973683853796 0.1544396807508952 -0.228480050187915)
(4.990478259686006 -0.1543402510968494 -0.2645695511436268)
(4.801127061397851 -0.2156377506090811 -0.1727745824764333)
(5.004491152275841 -0.01043419586384428 -0.006647158559304127)
(4.989151089498441 -0.02447891004397894 0.1782290859063828)
(5.001943060863443 -0.001526168233292966 -0.00640668643617711)
(5.044659584468695 -0.1198772218426845 0.1352981356002551)
(5.03622184757285 -0.03893518217456776 -0.02665298025692336)
(4.929170019986457 0.09674340911680671 0.3209722586930689)
(4.96106397494467 0.05477499385716168 0.04434695028320603)
(3.844467032369823 0.4718810252117803 -0.001115902887660562)
(5.055995710646479 -0.05406764016543906 0.01532783990128435)
(5.046914783432827 -0.04689446108805055 -0.01966807928223699)
(4.87491813684661 -0.264905823055881 -0.1861220826358622)
(4.975882331681501 -0.07583865804828548 -0.02201702414878283)
(5.10557091769387 0.0424176119863924 0.2102674637258231)
(5.01657040857033 -0.06242191199349083 0.09571647426448615)
(3.40121665768972 -0.1788940999828697 -0.1428693529755295)
(2.566543816065595 -0.3819100382479714 0.1336881524553963)
(4.960455629317178 0.003618208914785754 -0.007886514295212844)
(5.085886414684224 -0.1239060970480549 -0.02654311205817797)
(5.030855886077472 -0.0425628851079819 0.1853263690844883)
(5.108754092674813 -0.09204176908040268 0.005745594234505496)
(4.246102871198305 0.3642400950315699 -1.957701311326813)
(5.079762009195549 -0.07109042627192855 0.03674287241774812)
(5.005754276331816 -0.00570440340749192 -0.003132273401983303)
(5.008829266410896 -0.01630107021136533 0.02348249998873409)
(5.0108586475134 -0.02210300959987341 0.05356862160202827)
(5.006293564189446 -0.00309201717885387 -0.002451703442163138)
(3.328190295983961 -0.1661457996916476 0.03628390892080119)
(3.632971585209952 -0.2369754704107854 0.0250986708315538)
(4.98599666200023 -0.01332763883164758 -0.02450478607297693)
(5.106962468268051 -0.1400651340069111 -0.0203824815659405)
(4.241491381530462 -0.09987279006937025 -0.02542058485869891)
(4.896137599877017 1.200048508426113 0.6177230856572435)
(3.135844239645859 -0.03632129652306902 0.09834068427084815)
(2.871732786328745 0.03754739550807725 -0.04771175970797974)
(5.164476636118356 -0.1039401311132085 0.06872290741260419)
(5.02328946970949 -0.01581438970697319 -0.003180538978812274)
(2.155889618553915 -0.2221781102822998 0.004901538137839433)
(5.029742030988664 -0.03727062844158469 0.1487402591646647)
(5.050073209955599 -0.0757072956918675 0.08072838686618924)
(4.353460142702494 -0.02961630335639024 -0.1395125601851629)
(5.012782014440442 0.003323161972690216 0.0008303931818623558)
(4.529778031092962 0.07020396754265323 -0.1133516749291469)
(4.739468787670404 0.1818685269389189 -0.1114942999721463)
(5.056439764388299 -0.08432803405997905 -0.1502471425672646)
(5.096207737457185 -0.09078230999659413 0.1429443036523728)
(5.114738297288442 -0.04532136435200441 -0.1548038033201356)
(5.001831580636106 0.003963423392676023 0.002671583085916752)
(4.326382270146419 -0.09436917336285428 -0.1015380831562982)
(4.651405928643197 -0.007161918983480583 0.1952970710989355)
(3.575076673463665 -0.03232036059285646 0.1248644181168649)
(3.764346325069193 0.1285156287381383 0.0748606899655417)
(5.132489211417093 -0.1301242794157769 0.004544845305005386)
(4.517903212061984 0.2711762549737481 -0.4733542904271642)
(5.023109920883306 0.001984392771639206 -0.08986942696826099)
(3.918006778953709 -0.4570672474753439 -0.2076339039432378)
(4.966282980280753 -0.02859325002567625 -0.06232435820144848)
(4.989264698098165 -0.01132645691397735 0.01237199967149136)
(5.073648910129379 -0.07880972582954281 0.04584026872106241)
(4.519892065587176 -0.07254609222672449 0.1374452936008369)
(4.177872553914133 -0.2535511529503863 0.4183726916023663)
(5.067435066699127 -0.05676409680280287 0.119530467063588)
(4.984901088289974 0.08419935849824116 -0.05499118400641604)
(4.611287296621603 -0.2955540005846636 -0.550989081789155)
(3.668291404169066 0.09619545022539412 -0.314631806049385)
(5.104244520414571 -0.0368220598440391 -0.0530850842755023)
(5.063448067896077 -0.04023378356744451 -0.02291261282827221)
(4.834015131033786 0.03140156771466095 0.1474237485399404)
(5.065016580880619 -0.04728958902350464 -0.04304003071331264)
(5.007870804820181 -0.002360433501065495 -0.01050387914902586)
(5.104511777899668 -0.06709361763682395 0.03410652417620612)
(5.035431212652761 -0.2192640451978116 -0.1754301898025158)
(5.036136829596506 -0.03072326206746501 -0.07890538058588693)
(5.023823147622987 -0.1299473592471473 -0.3166037690225297)
(4.540879927908714 -0.2558967084580572 0.07874968575424365)
(4.995078604672081 0.06960970870593818 0.06821938357688841)
(5.028878676616557 -0.01228097345948708 -0.0002655561976838505)
(5.005133299192567 -0.0005320622272461871 -0.003191528216230032)
(4.616818876992459 -0.08140592508022293 0.5793227250243199)
(5.076154069248741 -0.4007777602152523 0.1162810032045368)
(4.721067742637815 -0.3454700028470355 0.1149789131816964)
(5.018950889585276 0.2178176182483809 -0.09367348232443448)
(3.776262557887265 -0.3166995907679558 -0.05809125619429265)
(4.696197914514294 -0.1420917436722073 0.06117212226696461)
(4.930656630166815 0.3714240836034458 0.1134845922175423)
(4.985882828204498 -0.003659232711031634 0.001959851375530846)
(5.02026925664171 -0.08341174261868169 -0.1299062079907831)
(4.791832598671642 -0.1242370767883344 -0.09121797329079555)
(5.040156828485483 -0.03079392406185451 0.0344081007278259)
(3.209239444506161 0.1732144461565152 0.05293909633393035)
(5.002489630003242 0.007127516817790344 0.007329988851372132)
(4.98471107143516 0.003358574814664464 -0.002036077472178819)
(5.003124356588253 -0.009527565319457599 -0.03918514302450016)
(4.991698767399943 0.002398970028919534 -0.01196902236539779)
(3.532068509841385 0.2112489289489587 -0.1351221579556565)
(4.966923043316132 -0.072183061210604 0.2398679266026699)
(5.062320991156584 -0.0560014799816475 -0.001903035834535175)
(5.032444375865105 -0.01318814806971524 0.01337345254933542)
(4.971152431151991 -0.03517339443480042 0.0810043384451079)
(4.989930950403919 -0.00622080568717114 -0.005569234939918823)
(4.990540051592756 -0.003709418160660163 -0.001768189282535744)
(4.305909984465888 -0.02765307274006767 0.02707253903640336)
(5.001029020130639 -0.001504144727505318 0.004513102926711366)
(5.055401148705233 -0.1736318090086849 -0.04958765553917195)
(1.745791163614723 -0.1750216509848102 0.006218196611340205)
(5.031765649386212 -0.01936748178869316 -0.1770579553669546)
(4.974674178429553 0.02680364286332217 -0.002301710410363447)
(4.321385592663082 -0.1014108926988545 -0.002155053939116887)
(4.319787381063572 -0.1017163216472274 0.3667718550384841)
(5.00994316038344 -0.08254854799664285 -0.1235504876469319)
(4.379618861387558 -0.5661372127434475 -0.04952223993423414)
(5.08484742100749 -0.07823897435555272 -0.06101870102596779)
(5.042655427508526 -0.08900683342454349 -0.3374193173560645)
(4.978828238812721 0.0412420143390546 0.1874817858431845)
(5.037707655213295 -0.02232359517962578 -0.04147450856605917)
(5.023497674974617 0.00609116896187669 0.08958289520389014)
(5.007078793615253 0.06516336157134449 0.0688136630707999)
(4.004608388748289 -0.02996631260414192 -0.2422335590394298)
(5.01387632532253 0.0142210149499674 0.01307379916218924)
(3.462886052211009 0.1452865787149371 -0.1619160739751633)
(4.593012869517334 -0.09157670443582909 -0.2322426806992439)
(5.004685044219695 -0.004916402923590563 0.003598251178041414)
(5.058568845699038 -0.0480175976016357 0.01864094521420903)
(5.033112383803569 -0.0217995815459391 0.03106761927719913)
(5.018368444399073 -0.06190605580296798 -0.06200125322221271)
(5.047068167308494 -0.04064908671177728 -0.006256351233988914)
(3.371661163788515 -0.2443373011368865 -0.1999047309021292)
(4.624028816460557 0.06040879833873557 -0.217852221890244)
(4.010557933345152 0.2294776536100981 -0.1526357295705507)
(5.005150475093933 0.004392188930465038 -0.006132477991871799)
(4.967754127704691 0.1320979427256679 0.3231184791220565)
(5.06325211301055 -0.08738385095983152 0.02945663157951207)
(5.074601969099698 -0.06797821201166677 -0.05959944733052792)
(5.075926188380019 -0.04321815543941381 -0.04433809807684091)
(5.0780982535645 -0.09383347748137208 0.1017906761079476)
(4.152820098295639 0.09847877974217469 0.09693755977467985)
(4.56500574787055 -0.1754323946098445 0.1001446361518288)
(5.071291588162462 -0.007193230955429493 0.05859744920572302)
(4.590373818949622 -0.1637947483160692 -0.01620005698184042)
(5.052102704814001 -0.1056304602461654 0.04486297199538058)
(4.33271253715862 -0.09330710699271211 -0.01708454227662086)
(4.978885623530639 0.1401497161913859 -0.1821752323809891)
(5.083752191539124 0.06696265878584955 -0.1269800047588432)
(5.064171594808716 -0.05837095976155551 -0.01937597079160218)
(3.469569328219341 -0.182720062542419 0.08448171082463729)
(4.947751082551664 0.1060644044319995 -0.1827768580660859)
(5.008711615199068 0.03372185664121812 -0.0460722065387613)
(4.944452077255061 0.3066415259942439 -0.01933066741119643)
(5.053291894295961 -0.05260199166173422 0.01930792246423835)
(4.00594996165432 -0.06640624694205501 -0.2117078049790437)
(4.962939059231203 0.0102628542063752 0.002019525024628828)
(5.043750036923372 -0.04370336252851923 0.04239235890379293)
(5.012837120818846 0.1235404071137952 -0.1260558066644964)
(5.000311352440101 -0.003927734483231536 0.0027802069572866)
(5.002187016991853 -0.0007310510260945585 0.004559847412195962)
(5.094326434735974 0.03697583418487606 -0.09830011380060742)
(5.007731193572869 0.01940005617565301 0.1477458351250296)
(5.105731028406696 0.0128858827989818 -0.008987458209949159)
(5.001506679354078 0.004521440574137127 -0.005242469708178663)
(5.009943713190235 -0.02654740702166436 -0.03640702291819845)
(5.025554672045345 -0.003231136422017121 0.0123100454602949)
(5.062764022204068 -0.03873486633265987 -0.004275298273399277)
(5.012670549221657 -0.00223981322191015 0.006220767768420081)
(3.655359163764372 0.1162888473703964 -0.04014305014578787)
(5.020985232954577 -0.007295429512178419 -0.001002639343185326)
(4.996922216084712 -0.000190459990144994 0.01101104967085686)
(5.008880733704931 -0.003752617243844304 0.000465518212844977)
(4.773198626428418 -0.3233193227332758 0.1858381908423547)
(5.115074787543851 -0.1300729717565748 0.01471194279157343)
(4.997924533785099 0.00459339878185424 -0.004518367368735631)
(4.987963561493489 0.02325132823298279 0.0006174869901716786)
(4.995965995694267 -0.01375522276448841 -0.007685971821595974)
(4.764235010674507 0.007964547913433113 0.05002949045785349)
(4.909854200112308 -0.04341745778825327 0.09344579543328682)
(5.002962112202264 0.002844042366821576 -0.00156770990554616)
(3.058804712465575 -0.04947755840635158 -0.08528762507330379)
(3.251003244128343 -0.4660028598013244 -0.1033556220207632)
(5.034341254439779 -0.1318859071446699 0.02109409824901439)
(5.003320980290462 0.001453049030077234 -0.001836311509770615)
(5.005652206966147 -0.0004015193034037864 -0.002199654434448226)
(5.000180205427347 -0.1911013349928557 -0.01875870095801085)
(5.010382785078838 0.004711472987972678 -0.05345251648160914)
(5.027550306476575 -0.1801560500845689 -0.2603286583721862)
(2.448214699435182 -0.1003034010234966 0.2101663532004643)
(5.045796339047156 -0.02925543113407995 -0.1864621457561544)
(5.023885355369679 -0.01525678912343798 0.02276207645712284)
(3.226122278772813 -0.08333925393233538 -0.2062052977495197)
(3.742544403431185 -0.04875031564958371 -0.3183716042441526)
(2.396271536273326 0.02046770419769737 -0.1942574898054352)
(4.589100968970733 -1.069311542097886 -0.3243642243639153)
(5.018049549783991 -0.2697420854971382 -0.002912288641801891)
(3.204073920928497 0.06117784711623665 -0.08597664583680528)
(5.02371090385311 -0.1424802268868801 -0.2001572440787972)
(2.135745321558826 0.1627196404277766 -0.790916804955656)
(4.698019792459492 -0.02518981377710752 0.03142126368742396)
(4.989343895204637 0.07896496721085514 -0.02097114166473501)
(5.081978101254971 -0.2142865297212035 -0.1320255976617909)
(5.085681597071166 -0.05862860260328441 -0.04631124989149938)
(5.078804485014431 -0.1140323459489426 0.02910692613321159)
(4.623349410429507 -0.05595558695401633 -0.04415253908885938)
(5.055891926115305 -0.03376634781176402 0.1069528681984711)
(3.7064282170366 0.0396860378978592 -0.03428993936754145)
(4.610351391061959 -0.1377981294384892 -0.06930783319351702)
(5.005726986680894 0.03203957451256181 -0.04866684462574479)
(5.012932073022987 -0.01463502190880183 0.01719260774990401)
(4.931669412355618 0.3071650646293238 -0.01593668162226013)
(4.706674053198087 -0.1702624783967552 0.5264772860820699)
(4.969276288256864 0.06291459909972351 0.09055588073405389)
(5.048736917303681 -0.02665757261837552 -0.01738129704299707)
(5.112724505169736 -0.0783510408507431 0.04360110781224062)
(5.019983155970665 -0.0589354120015769 -0.02652632584282416)
(5.029378833924987 -0.009454826642155623 -0.0342903645284901)
(5.039317332547657 -0.03364901227701671 0.003343712467829399)
(4.958620408830467 -0.01338479061964214 0.07198448414771901)
(3.352449046265773 -0.2948899785963819 0.5000101541138751)
(4.524975396764666 0.3481932670663432 -0.4481473156666899)
(5.007565192716731 -0.01626527430156379 -0.02467223068577172)
(5.050060995553803 -0.3043242262473989 -0.404045029380781)
(2.303261361881813 0.4925428131786457 -0.4287422923997111)
(5.001361093751248 0.0001886533941870004 0.003711052259246407)
(3.164767384264343 0.3963420720251719 0.5638693903554665)
(4.484197068219325 0.1891857540629453 0.1857964434545575)
(3.842734575243103 -0.01845063384784845 -0.02477508834238639)
(4.999928833350762 -0.001615366760310747 0.004464328610097166)
(5.072852277685719 -0.09551744878505004 -0.1758398308740892)
(4.769902031161935 -0.1758942287814978 0.02953802896297698)
(5.019084187927608 -0.2991426757997003 0.3716887172803119)
(5.002330429775511 -0.001628446683116326 0.001029941474329314)
(4.152407287641456 0.2424058871078262 0.1320142891932619)
(5.002021700489369 -0.003415856583817835 0.0007599104544339841)
(3.647833588759004 -0.09023256043633199 -0.6357280033050998)
(2.814848576746763 -0.2449517379939058 -0.06878090998134492)
(5.038195309059636 -0.01112894500674548 0.01702766065738517)
(4.972998549318401 -0.1554624580677819 -0.09532256089805209)
(5.083676998492889 -0.0116471642146752 -0.1676253076901378)
(3.087432651408389 0.2328028377526548 0.05294840659938554)
(3.722453562022331 -0.0839071110728503 -0.1428750855287474)
(5.003372355114439 -0.0006057080645345971 0.002105847421723409)
(5.002545236440757 -0.001123763298988937 0.002753127234346468)
(4.995011894707167 -0.004103625227258836 0.03202117838567257)
(5.111950611580967 -0.07005069665900651 -0.07420842464211011)
(5.06281052813552 -0.07094694444600365 -0.04989776553062699)
(5.00551864340231 -0.007408874963049125 0.02554661466634206)
(4.948494762543055 0.005301093936584495 0.05212595279577335)
(5.010797832684909 0.01032301227358809 0.01768167604764266)
(4.941845132189753 -0.05727228327267165 -0.2014412848369455)
(4.990635644814423 -0.01649997032786267 -0.03036301889262447)
(4.992983822733553 -0.08266151650684331 -0.1957790142269988)
(5.051744608827239 -0.04185153178878667 -0.01643809067709287)
(4.981537623520825 0.07947468272348086 -0.01741124974868806)
(4.804709428090455 -0.07706659484566372 0.2092184611160339)
(4.981246685745262 0.01053174933996996 -0.003820652588498)
(4.468579217859439 0.1964605683062164 0.02080450240309336)
(3.780587596070704 0.01451957133428074 0.3528835744557793)
(5.12559561875943 -0.142409469790799 -0.1171876688414571)
(4.98602165346698 -0.01397974246174154 0.01311910777673604)
(5.008956218394315 -0.003245370971666744 -0.001111820656961916)
(3.174595724494644 0.09290422471049548 -0.128802490776646)
(5.080060925905179 -0.06105514215396253 -0.03634421436015906)
(4.966677622987231 -0.009764483572310656 -0.02777685952726097)
(4.656590666162784 -0.1078499868609069 -0.02561083670896611)