/*--------------------------------*- C++ -*----------------------------------*\
| =========                 |                                                 |
| \\      /  F ield         | OpenFOAM: The Open Source CFD Toolbox           |
|  \\    /   O peration     | Version:  v1906                                 |
|   \\  /    A nd           | Web:      www.OpenFOAM.com                      |
|    \\/     M anipulation  |                                                 |
\*---------------------------------------------------------------------------*/
FoamFile
{
    version     2.0;
    format      ascii;
    class       volVectorField;
    location    "0.4";
    object      vorticity;
}
// * * * * * * * * * * * * * * * * * * * * * * * * * * * * * * * * * * * * * //

dimensions      [0 0 -1 0 0 0 0];


internalField   nonuniform List<vector> 
19632
(
(0.01025010833646095 0.0007636362265765672 -0.002284173689152608)
(5.626878178359897e-05 -1.138264352360391e-06 3.32714090448739e-05)
(3.374466893012303e-05 2.948322132008306e-05 -4.775129557465789e-05)
(-3.326224421425608e-05 0.000194198287239579 9.510921818858805e-05)
(0.0001037108168238631 -0.0001206419507822907 -0.0001334460816276311)
(-7.345339320595439e-05 0.00145303062001809 0.0002646156726099051)
(-0.0002232938069989987 -0.0005988556349691952 -0.001213215536795913)
(-0.0003749430881879283 0.0005397411883123334 -0.0006125657268346582)
(0.0002529440880899164 -0.0003107490255597992 -0.001009272712321028)
(0.0003351092465954563 -0.0006996105425307883 0.0002903664644020536)
(0.0004956360580592594 7.871445678764206e-05 -0.0006442545091799741)
(5.923952154438336e-05 0.0008399251593571224 1.034068058049324e-05)
(-0.0008396210487430521 9.710439580690037e-05 0.0007503332424350275)
(-0.0001967588388889228 -9.325183447055801e-05 9.223888353110214e-05)
(7.834469263184984e-05 9.872203071058157e-05 5.996840821182564e-05)
(-5.175137082826425e-05 -1.033405640976464e-05 -6.585151113899164e-05)
(-5.676688607674418e-05 -5.396166698505284e-06 -4.359920950121492e-06)
(4.618965204764291e-06 -5.121666900609165e-05 -4.387996153616222e-05)
(-4.074114493608803e-06 -9.320679267277672e-06 5.478258708973987e-06)
(-8.032058533006915e-05 -5.910491410125283e-05 -1.544909421879716e-05)
(-0.0007930160535560974 -2.739105654830671e-06 -0.0003811861701108079)
(-0.001188255689533951 -0.0005683340448675382 0.001487552366757691)
(0.0007569765189728553 -1.888524069422817e-05 8.723001135288222e-05)
(7.789760525490284e-05 -5.380616665774257e-05 -1.708887004632536e-06)
(-0.0003715971904418142 5.173568750586809e-05 7.130205768923177e-05)
(-0.002813895244922978 0.0002295526320551283 0.001215364038045942)
(0.0006079553394849432 7.339658928344524e-05 0.0002279266388734347)
(0.0001781032740904935 -4.154647908712737e-05 0.0001438658201636881)
(-0.0008344896723766712 0.0006353710884744548 7.696249308914327e-05)
(-1.107592954005915e-05 -5.260356630050362e-05 -1.781689069103099e-05)
(-2.730027734100039e-05 -1.001353154619045e-05 -7.584254016827508e-06)
(-0.0002431025630993636 -8.944493619288093e-05 -6.693209811521078e-05)
(6.633843218160845e-05 -0.0001235180190076996 1.257715476572139e-05)
(1.356433779380934e-06 -1.889413800775287e-05 0.0001445261432770947)
(-1.365408308407182e-05 7.604025636682198e-06 1.544334413756132e-05)
(0.002449558300879165 0.0009713620934685163 -0.0001424093210658742)
(6.114550321373434e-05 -0.0002197343463025866 -0.0002688734204574129)
(0.000987619238761545 -2.330950217593333e-05 0.0004972363298098733)
(-0.0006069639304205679 0.0003459681092084109 0.0005425283037601798)
(0.0004577764612122231 -3.164441394152811e-05 -2.905325050938169e-05)
(8.651837829500516e-05 -6.106975329694908e-05 -5.120606828818419e-05)
(0.0002154919493463248 0.0003556881061712821 0.001011799017050969)
(-0.0001953740841084701 0.0007244972804606783 -0.0008072226834142053)
(6.861171749770953e-05 -3.406962788903725e-06 -2.437387324894834e-05)
(4.313950172608458e-06 -2.089529940087228e-05 -3.7194781749334e-05)
(-1.552824624255806e-05 -0.0005523443535397836 -0.000455416760625264)
(-0.003373452198052078 0.0003845463971150177 -0.001046635198961063)
(0.0001939389969702662 0.0001437790112289742 0.0003335189984071631)
(0.0001555698208082891 -0.0003760578576785494 -0.0006608697267514485)
(-3.924243320681482e-05 2.775182540653529e-05 5.445878630969931e-07)
(0.0006408159308172363 -0.0003047164214334713 0.0003619664222415032)
(-0.0001045625724935301 -0.0003520266752753857 0.0001082411226851234)
(0.00031280019697603 -8.434748820857286e-05 -0.0006314332125014654)
(-0.002063150930689503 -0.001020061933008662 -0.0006218024672820293)
(-6.469932825870724e-05 -6.573540956470429e-05 3.621657046886306e-07)
(0.001545918614359109 0.0008481352821487622 7.878097484401885e-05)
(-0.0004413041503492499 0.0005497164060511135 9.891504112634428e-05)
(-0.0003410639269248838 -6.611913419330039e-05 6.507871725801378e-05)
(5.450306848665083e-05 -0.001857336654329556 0.002388607041760073)
(6.486642309077597e-05 -4.09965024052302e-05 -6.583042015577469e-05)
(1.024671279601716e-05 -2.735740573670398e-05 1.580438040938743e-05)
(0.0001055233160764655 -2.908837756584097e-05 -0.0001852426469578662)
(-2.982530729115202e-05 3.767233206632825e-05 2.973390201653372e-05)
(-3.476020973751563e-05 0.0004351182846729393 -1.534948250879187e-05)
(9.641455188583517e-05 7.059666650705221e-05 0.0002022783876834387)
(-3.241929212050205e-06 3.202880014279002e-06 1.462669934725561e-05)
(-1.429702662407927e-05 -0.0001355025231921386 -3.794071374059829e-05)
(8.153642471870275e-05 0.0003045235006337792 3.087076742461554e-05)
(-2.471997473190233e-05 0.00040671772467346 3.203110537114804e-05)
(-0.000504655659023669 0.00167548760970185 0.001590841804426708)
(-1.623888924679322e-05 -5.384930461461493e-06 1.833429315532395e-06)
(-0.0004375056515150059 -0.0004532554845074449 0.0004374996177015876)
(7.012672960347421e-05 0.001383682535365219 -0.0002200481880551183)
(0.00104521677133555 -0.0009930271682998923 0.0003749557060674888)
(-2.314980639702223e-05 -4.88741928109795e-05 3.047698261704619e-05)
(0.0001486775808869056 -0.0003094499386121299 0.000155819182158558)
(0.0001788323772404341 -0.0004362615583610809 2.742897046126434e-05)
(-0.00406280435387561 -0.006630566266610767 -0.0002004123521257408)
(4.704428884299639e-05 -5.426639661889452e-05 2.241385366161875e-05)
(0.0002438576467819966 7.691483005874074e-05 -0.0002504133325957655)
(-0.000669175307732434 0.00136130923241752 -0.0001028626780882795)
(0.0001661009488558536 -0.0001451028778049805 -1.388931969076259e-05)
(0.0001715984522128986 -0.0003467140135168636 -9.478896958564639e-05)
(-0.000392074343066688 3.847911227421164e-05 8.361115794096758e-05)
(1.029783018743242e-05 0.0001861865782281092 -0.0001615545045466478)
(5.548709057842218e-05 -0.0001069066601750801 3.186771824138096e-05)
(0.0001408331581154052 0.0004518515889283081 1.166494935996259e-05)
(-0.0007437014915797431 0.000308718569045788 -9.817678594033815e-05)
(-0.0001271376213478518 -0.0001116150948752092 -0.0003850102179683963)
(4.462868359106458e-05 0.0002736705400746971 -3.979065873311299e-07)
(0.0009803390501136322 0.002475373370259557 0.0005770382745281571)
(0.001652239438766333 -0.0003339542301516069 -0.001816798543386477)
(-0.0006457510227957393 0.001601651718652763 -0.001323272415577042)
(-0.0004518937512451375 -0.0001531333784563396 -0.0007384149830681029)
(0.0007828926208626489 0.000371550004631344 -0.0001433516482242715)
(-0.0001214565594238533 -0.0001393730263877213 -0.0001465224256192476)
(-5.669144885153845e-06 0.0001130276278905181 0.0004696589619393959)
(-0.0004896575899528527 1.376184104864103e-05 -0.0002754955948917964)
(-0.001354541649141003 -0.001666092838957268 0.000186134425365255)
(-0.000363635664955335 0.0003217626978756651 1.231575887128899e-07)
(4.296929391625767e-05 -4.183747724153851e-05 3.560915661055892e-05)
(8.399609821509478e-07 0.0004052610639092559 -0.000429429090818687)
(3.208913607344237e-05 -7.810412995176979e-06 -3.852501574589602e-05)
(-5.537123744711168e-05 1.569512868088536e-05 8.551328151746607e-06)
(0.0002947836177037441 2.820723274145803e-05 -0.0010332422668199)
(0.0001331124527432278 5.126874844178718e-05 -0.0002515828157749984)
(1.897746398340824e-06 -1.358311540434619e-05 -2.446095080728816e-05)
(0.00123229079326835 0.0005150157787373776 7.200208332818918e-05)
(-0.0002438209502445459 -4.81218633819124e-05 0.0002326196752097666)
(0.001019415126083814 0.000108466592261307 -4.831050163269551e-05)
(0.0001434219101109289 0.0002590835296112976 -0.0002313257293104444)
(5.782672679339801e-05 0.0005664658324826318 -0.0006729300319470839)
(-0.000207918075925458 -0.0002270767558883356 4.739630479518829e-05)
(0.0007269808833939515 0.0002160295136778533 -0.0001000267255734357)
(-0.0005477262071292245 -0.0003033149543585761 0.0003290750383038124)
(-0.001268434305335313 -0.002328387995304333 0.003148440090556595)
(0.0005815472840920957 -0.0002881536925643734 -0.000124288457815997)
(-0.000392209669640899 0.0001552973379558446 0.0002509785777251266)
(-0.0003645352158054438 0.0009512831732072697 -0.001234701645527147)
(-0.0007704990020920728 -6.388824066373439e-05 -0.0007685467548946352)
(-0.0001237903118766737 0.0008228644151574789 0.0003566598232965235)
(-0.001334787114349352 0.0005464579111126293 -0.0001949128533805216)
(-2.261737579662737e-05 -1.148787462805245e-05 1.702832580154424e-05)
(-0.0004139003838991382 -0.00035523582088293 0.0006137775809942963)
(0.0001750752790322201 -0.0005018547607363233 8.518223881984839e-07)
(-8.390063731458464e-06 8.532493988289468e-06 4.341886164820087e-05)
(0.001469436891390628 0.001134762999724522 -0.0007092168988297571)
(4.739123423046766e-06 3.987379666655369e-05 -2.330545985889847e-05)
(3.327695544450286e-05 -2.519790949961631e-05 -6.087030339275456e-05)
(-0.0009681562774596716 -0.0001742902203163218 -0.00044045855114571)
(-0.001774499195742329 -0.001198185449748369 -0.001354862630546574)
(-5.101414475127705e-05 -0.0001039934935418558 -1.844156769977685e-05)
(-1.788314851919362e-05 -0.0001146182459244773 1.299565714658318e-05)
(-0.0005904399512249852 -3.620228613070105e-05 0.0007982384750998743)
(1.401037516259706e-05 7.964687326558418e-05 -0.0001209361167469632)
(-3.318075619765009e-05 -0.0001380526292555026 -8.163566106629558e-05)
(-0.0002051706034289337 -4.346476707706619e-05 0.0001499624274691923)
(-3.203843325299746e-05 -0.0003139745250896527 -7.648789982664664e-05)
(-1.564410650287868e-05 1.274856353803491e-05 -2.210101995662088e-05)
(5.589304288767799e-05 1.167553852366223e-05 -9.049695714632678e-05)
(0.0001116860295529817 -3.904747960590112e-05 2.319043397702727e-05)
(-0.000158657431189651 0.001722811503561883 -0.002167885272991347)
(2.891315563555311e-05 1.055307951386956e-05 -1.378767486862861e-05)
(0.005945736203874694 0.002044701122974026 0.006773238375850292)
(-0.0001380101496670478 0.0001944720906577481 0.000353119097609527)
(-0.0008388290604902458 4.262777080486009e-05 -0.0006192902199992098)
(5.988866365652221e-05 -8.69749685705698e-05 -8.957710655474255e-06)
(3.520872582089866e-05 -0.0001588696858887879 7.788257909191531e-05)
(5.641143510730541e-05 -8.116250820324071e-05 8.797434538987848e-05)
(9.97814182276431e-05 -5.503725944159444e-05 -2.780187299262846e-05)
(-0.0009843113080571389 -5.849997340414763e-05 -7.011982271224987e-05)
(0.0003224952296759587 0.0003348320875767634 -0.000296087919902896)
(-4.178929958966787e-05 -8.101871895133437e-05 6.880931936882007e-05)
(1.473077157853431e-05 9.18416362949815e-06 1.407972811453441e-06)
(0.01890182028086222 0.003329218500601339 -0.008098804444930082)
(-0.0003053486076790118 0.0003589184773363491 -0.000119053830890616)
(-0.001263703670970295 0.0004151831624381294 -8.37992817916142e-05)
(-0.0002139833957486196 0.0001914632478651055 0.0003241600005168774)
(0.002483554148776643 0.003370540891928005 -0.001845585884389561)
(-7.313712551423449e-05 1.284766643250039e-05 0.0001318861551520256)
(0.0004867292730912661 0.001245647394737403 -0.0001089747865525989)
(0.0002201260616409809 3.800742874214232e-05 -2.267901300775465e-05)
(0.0002503386515469502 -3.186915223104528e-05 -0.0002569432136030766)
(-0.0004334531182909719 0.0001013871867947903 2.835471922720808e-05)
(-0.000435829540008826 -0.0002146402859698366 0.001016815294317146)
(0.001627501630859524 -0.0005664629329602033 -0.0007662208030174677)
(3.682932831545762e-05 -9.852131851124528e-06 -9.376705710085174e-05)
(0.0003143301008774208 8.24544940079752e-05 -0.0001101056536320431)
(8.240160322722341e-06 1.516211669987057e-05 -2.12322403736396e-05)
(-6.184650565992847e-05 5.846406528529331e-05 9.666813796021255e-05)
(0.001769223063618782 -0.0001925152319484225 -0.0002378432624327796)
(0.0007504098972362862 0.0001448294762249141 -0.0002477770717042094)
(0.0001625321261638323 -9.504489809034883e-05 0.0001457561519054881)
(-7.25849033083426e-05 -5.473566536907751e-05 0.001253242177306458)
(0.0002306368245400686 -0.0003103827162549544 -0.0004500382604469332)
(9.628674749899012e-05 0.002029598896790504 -0.0002301151495786777)
(-0.001925070506032918 -0.001474975515522756 -0.001194069168461075)
(8.767152959807151e-05 -0.0001712061291346958 8.947792001764265e-05)
(0.001407229335037926 0.0001119224643889023 0.0006537479987655682)
(0.0002315379609402558 0.000208985008677922 -4.161115298104125e-05)
(2.192116156239491e-05 2.038828555699269e-05 8.130961318434108e-05)
(-9.292938689880652e-05 -3.420558813900591e-06 3.425098898266005e-05)
(-4.105423756662955e-05 2.652168372597007e-05 -1.038812464822831e-05)
(-0.001764613190963024 0.001104723226395655 -0.00131892558744177)
(0.000122362415683998 -2.802740174426558e-05 7.426647973406077e-05)
(-3.028275220549929e-05 2.440431681491659e-05 -1.291312590808451e-05)
(-2.850936406385034e-05 -5.538359311762745e-05 -8.583058431970631e-06)
(-3.917938562061782e-05 4.215115226451626e-05 -7.380047891478021e-05)
(-0.0009205877744972476 -0.0006113440570216625 -0.0002035155993823824)
(2.501624547422812e-05 -2.558242829264025e-06 -4.527988214292628e-05)
(-0.0002790638917640672 -0.0001140416521215695 0.0009447934860166821)
(5.858032749137408e-05 -5.297077319749121e-05 -0.0005543305347438629)
(-1.798415067086732e-05 -5.867023704223678e-05 2.038512362300182e-05)
(-8.982530958496333e-06 2.245379792814249e-05 -1.732250415272868e-05)
(7.640153361456122e-05 -2.890140143431331e-05 2.955394717672542e-06)
(5.726740819941235e-05 -0.0001176470492009604 5.163490522995868e-05)
(0.0001190921523699514 1.022676013050023e-05 -0.0002034901463959787)
(-8.638129174793909e-06 2.65260521628946e-05 4.30803849867588e-07)
(-0.001044015331183816 3.09512860143173e-05 0.000897999059258639)
(5.906107136264639e-05 -5.610348728061768e-05 2.842948659533313e-05)
(-3.916691751034003e-05 -3.038047915677816e-05 2.725662214669412e-05)
(2.921145117399302e-05 -1.09964254369387e-05 -1.87786434230611e-05)
(-9.934990656113596e-05 4.087429973516827e-05 -2.762128326570834e-05)
(9.655670707712976e-06 -0.0003077172272967549 0.0004283110434938006)
(-0.0002294734623604389 4.719890044845791e-05 0.000212552771422287)
(2.380065145198702e-06 -1.280245492733636e-05 1.596554052034759e-06)
(-0.008703958543827838 0.004797919415751716 -0.00284043172442031)
(-1.313442676725709e-05 -0.000253700761122977 0.000380363389191675)
(0.001798709094381123 -0.0001122420274249149 -0.0005503793095287018)
(0.0005373895781040213 -0.0001451350621952882 0.000253302202262097)
(5.474883741720734e-05 -0.0001082059310100002 -2.166385030836701e-05)
(-4.322350640162585e-05 0.004038781280996277 -0.0003596025296803247)
(4.293951860013131e-05 3.461100324284356e-05 -0.0001343354193471569)
(-1.38855213472316e-05 -1.753925103820099e-05 -0.0003118995293989203)
(-0.0002696621060901236 -0.0002082139892673979 -0.0007078333711658629)
(0.0001081905954727677 -0.0001570295199266712 5.994049595759747e-05)
(-2.302632136698953e-05 6.690904513700819e-05 -0.000190616316058413)
(1.739788485277518e-05 -2.012082466673124e-07 -3.313884814596913e-05)
(-0.0009643029705840793 0.0003873805761927583 -6.954608332645617e-05)
(0.002554497162540488 0.001002931366248305 0.0002760819472705986)
(0.0001001455860613207 3.026362464320097e-05 5.497644495167758e-06)
(-0.0001182329442818302 -6.68800084027742e-06 1.505999819565133e-06)
(-3.082690713092588e-05 -1.295889278236641e-05 2.480412089483091e-05)
(-0.0005415180707735043 -0.0003673904805988207 0.0001519200492381611)
(0.0001147305527020761 -0.0002416959700262772 0.0001472903272667817)
(-9.968212693805405e-06 -1.002066614846695e-06 3.323869923818306e-06)
(-4.835584928735489e-05 -0.0003649131104563339 -0.0006723077297832062)
(0.0002691518591206216 -0.0001249529181644524 0.0003105268057437017)
(-0.001210225348953941 -0.0002863455488998309 -0.0004766924728226826)
(-9.990717850251727e-05 2.651083702550922e-05 9.081623921514386e-05)
(-9.763080225398574e-05 -3.426480344742993e-06 0.0002654036219435305)
(-8.414037649308689e-05 0.000101412270560369 -0.0001539877483693242)
(1.758110609817945e-05 3.071702518693827e-05 1.391885583324469e-05)
(-2.208375200930784e-05 4.055876305879278e-06 -4.252062146161788e-06)
(-0.0002055682522363807 -2.307200188930872e-05 1.904431353415247e-05)
(0.000604641857863688 8.558512312229724e-05 -3.326506722343049e-05)
(-0.00031940525670916 -9.609359546810346e-05 -2.241458252326884e-05)
(-0.0007858672158514066 -0.0006974681750130397 -5.445867238995806e-05)
(1.078758894314646e-05 6.076214684114516e-06 2.983773591108747e-06)
(-0.0006371101667428441 1.105339618977775e-05 -2.112783034690366e-05)
(7.410204578840279e-05 -3.773679019469923e-06 -5.552283073052861e-05)
(3.472015740952376e-05 2.43587136969137e-05 8.354497590201547e-06)
(0.008723547370025224 -0.0009251592141752054 -0.002961042353935296)
(-3.940118271969637e-07 2.156246712564711e-05 -1.393891059996413e-05)
(6.372843923475843e-05 0.0001081651836001842 -0.00046526887731777)
(-1.016524854739979e-06 1.022785437509169e-05 5.554307707760201e-06)
(3.763342603666743e-05 9.788416944482068e-05 0.0001406310815224391)
(-1.915203703698655e-06 -1.192897764175556e-05 1.432609826761193e-05)
(0.0002031365018846718 -0.001224351378003918 0.0001213666443696815)
(-2.167396433459486e-05 -0.0001125948789570548 1.968621326077005e-05)
(0.0002701155832298611 2.210026781993646e-05 -8.704453648354548e-06)
(0.001289829829219857 6.013057182969192e-05 0.0001412997981690932)
(0.000142076410556002 -6.545210342970948e-05 1.139513203567173e-05)
(-0.0001258419200430436 7.526309467387875e-06 -7.119585155242784e-05)
(2.377263443953617e-05 -0.0001032985831079035 0.0001014008783664616)
(-6.185547400007957e-05 -0.0001084383430235591 -3.576151701706103e-05)
(-1.809617546264804e-06 8.272508773440845e-06 -2.032133647836643e-06)
(1.623990649204959e-05 2.852487128193575e-05 -5.145206190762267e-05)
(-0.002850577772873185 -0.0009353696552987097 -9.842929681757665e-05)
(-1.670787137965641e-05 -1.721327397922257e-05 -2.145604714119466e-05)
(5.534844167173025e-05 -7.170750690048454e-05 3.393571028949137e-05)
(0.001315688935523611 -0.0006648030728894575 0.003014442748398377)
(2.546180261284181e-05 -2.739776508389109e-05 5.495260736807856e-05)
(0.001417595429767466 -0.001009370421155784 -0.0008051069282880998)
(0.0001099253781836656 -8.390313471388349e-05 1.467523142994278e-05)
(0.0001001838506951338 0.0007771009104615195 -5.15865977844846e-05)
(-7.147692526403407e-06 5.869539904851575e-05 1.338412426940077e-05)
(0.004437918252382444 3.613284788423193e-05 0.0006325416645103644)
(0.0003771559144265202 0.0001473931995555963 0.0001249684021498886)
(-0.0007471975430507978 -0.0007464327802405418 0.001098380025172859)
(-9.380200618786552e-05 7.628292836349098e-05 -2.207235272689088e-06)
(0.002135187720540254 -0.000849123150626629 0.001199588481834181)
(-8.645447791778755e-05 -9.128012173275847e-06 -0.0001521494681860052)
(0.003264086062465507 -0.001571467298702444 -0.001516782071530038)
(0.0001677265975486127 6.626272046731524e-05 -2.149087014572762e-05)
(-0.0003861624637952685 -0.0004291530481822766 1.543255496303295e-05)
(2.829927492240818e-05 -4.197386160064861e-06 5.643228010936499e-05)
(3.636979759254096e-06 4.9832428015983e-06 -5.383290566572137e-05)
(0.001458202696737999 -0.0002579581767778008 -6.900788824598165e-05)
(0.001319903873984865 -0.0006097087972343495 -0.0005601253103951375)
(-0.0008572944266409887 0.0005718694169851732 0.0002802828830129411)
(0.0001181238196320581 -8.087891642317589e-05 -0.0002391876593931315)
(1.46171064723249e-05 3.982758884310372e-06 1.160110017041205e-05)
(-1.406013251517144e-05 -4.014039710222252e-06 2.264591231298371e-05)
(-3.240431403163274e-05 -5.398356092996706e-05 2.65136281233139e-05)
(0.0003128999094611769 1.095026083842841e-06 -1.867843307410454e-05)
(-1.397091074893318e-05 6.557241275926804e-05 -9.999982725369965e-05)
(-3.655479762012728e-05 -1.414544628056202e-05 -6.023342194167105e-05)
(-6.051349375242425e-05 6.307999339999343e-05 1.95898843961009e-05)
(-2.649508745974819e-05 -1.848603915089781e-06 2.368960654230008e-05)
(-0.0002226385301902199 -3.413921244692162e-05 6.097075458698234e-05)
(0.0002888190539935306 -7.925264043676198e-05 0.0001461388898233529)
(0.000944643676434378 0.000293815349885416 0.0006298594361679233)
(0.0002276006068198066 -2.720342365968545e-05 -1.395618572507992e-05)
(-0.0009892625390024328 6.42059352101558e-05 -0.0004903225743760414)
(3.957825133116383e-05 0.0008091174678404266 -9.020843634780388e-05)
(3.248829250623872e-05 4.940575506003535e-05 2.01657372322454e-05)
(-0.0002514081949990862 -3.207542650058971e-05 0.00150796637900876)
(5.010533889450061e-05 -9.841642135929625e-05 -6.076918098959064e-05)
(3.306768573020772e-05 -1.130531702991411e-05 -4.385925515065659e-05)
(0.0001743063205941049 0.0006509795508835796 -0.0001060997136658743)
(0.0001198773101236884 0.0006260798319449032 -9.542800435442025e-05)
(0.000124258107238265 -5.346146984270449e-06 -8.810093125654689e-05)
(-9.29647282124217e-06 6.946230949558637e-06 -3.295268258522228e-05)
(2.723824920134955e-06 -0.0001031652427808405 -0.0001425597760804281)
(-0.0001002498396687433 7.14926508841784e-05 1.406724946995371e-05)
(1.847497403057649e-05 1.406568672297235e-05 -2.590841481274228e-05)
(-4.97693172436942e-05 -0.000113536854077925 0.0001190591279928279)
(-0.0001433652891723983 0.0005900453257323857 7.033604893612594e-05)
(-3.023671366746378e-05 0.0001194678070085865 3.689570286621984e-05)
(-7.138897927018834e-05 6.936194269127892e-05 -0.0002211605821736002)
(-0.002181128292088737 -0.0008211548588801503 0.0008732485321481219)
(-4.90337144983354e-05 2.755945214944936e-05 1.386489882521763e-05)
(0.001141966765020074 -0.0003134852838216853 -9.708072303846524e-05)
(-0.000822810805159874 -0.0001945815096477808 0.0001634224271286017)
(4.506282005706236e-06 3.512593353676571e-05 2.395230217591486e-06)
(0.0004310853883355611 0.0002433138845819557 -0.0001493638014710209)
(0.0009818289234898134 -0.0007322918659703956 0.0003143545284168303)
(0.0001774384025495745 0.000493134105916264 -0.00100278978487014)
(-0.000616708201596826 0.001516010733322012 -4.788658601139048e-07)
(0.01975740858106401 -0.01143195294281747 -0.006100694624266882)
(0.0003938530448435887 -0.0004737361830065428 0.0009103233850832511)
(-0.0002536981665616733 6.199500614953121e-05 -1.428863049875677e-05)
(-0.0001322642966141749 -0.0002791742284732062 0.0004214658296693935)
(-0.0001266049670298175 -1.777787359889628e-05 -5.884222108153196e-05)
(0.0002044347217077047 -3.044173976679918e-06 -0.0001018612660475)
(7.574984785146025e-05 -0.0001585712858267984 6.770508112606432e-05)
(0.0003566493787626389 -7.73425882397545e-06 -0.0009612106492988254)
(-0.001027221399634481 8.089572245052149e-06 1.852355999663818e-05)
(-0.0001190763074760993 0.000117771970151656 -9.048873849487936e-05)
(-0.0001855969450917535 -0.0001171009936451772 -0.0003914521980711376)
(-1.111407532457484e-05 1.684993604848257e-05 2.48163477810453e-05)
(0.0002214227060137067 -0.0001448261383970531 -2.000940447221752e-05)
(-0.0008034288423142404 0.0001328829059714352 0.0003791029940704068)
(-2.70382019931663e-05 -6.108746091435537e-06 9.897597709586649e-07)
(-0.0002332476060848351 -4.061676860643752e-05 0.0003701349916497213)
(-2.906202372860221e-05 -4.395499011912898e-05 -2.795814568082112e-05)
(-0.0004190999718499141 0.001705362716386412 -0.001622968728862449)
(3.396975701414497e-06 -1.815470233875878e-05 -2.111168170658386e-05)
(1.901995200510474e-05 -0.000109454391153081 6.893317918511629e-06)
(-0.0001214432973320487 0.0002201307157375579 6.743313713541354e-05)
(-0.001069908724222867 2.68752834900526e-05 -0.0004838666180880132)
(-2.565037870517309e-05 7.291963255211432e-05 -0.0001325333188842526)
(0.0003281267581868905 5.795212178256811e-05 0.0002444443930971303)
(5.697763710777761e-05 -0.0001144824870655541 -8.016884494809394e-05)
(6.574056177140452e-05 0.001928630251939675 -0.0006673707296725233)
(4.826164595149191e-06 2.040757232025829e-05 4.215881406584657e-06)
(0.000437392774403442 0.001305426713515192 -0.0003683579192680147)
(0.0003027887884677194 0.0001205287782382456 0.0005377685515748341)
(-0.0004655895700488111 4.089814045778618e-05 -0.0005929162575971668)
(-8.988539309343493e-05 -7.895711061007257e-05 -2.714780060046653e-05)
(-0.0004298351288044893 0.00174055479120582 0.0006727255284991655)
(-4.761026675915881e-05 2.941970354080266e-05 -1.518611132836412e-05)
(-2.594366268170074e-05 -4.591657384246373e-05 1.421514551485121e-05)
(0.0002059697326588555 -0.0001487089821350234 -4.818037183558111e-05)
(7.29626059643986e-06 1.586317494763411e-05 -3.876879243801188e-05)
(-1.925924179118972e-05 1.757254785442014e-05 -7.418943825545666e-06)
(2.94814523077351e-05 -5.204129566153607e-05 5.620888090906576e-05)
(-0.0002624220575783463 -7.241566845205601e-05 9.19394889740083e-05)
(-8.511759633452574e-05 -3.312934990698811e-05 -0.0001159598963258164)
(-0.0001404287489950174 5.92940962502558e-05 -5.832428602193508e-05)
(-1.950133290230357e-05 -5.349648605031904e-06 -2.084113569425185e-06)
(-3.112601385158028e-05 8.100755931469333e-05 -5.668174621153486e-05)
(-0.0003915042452211946 -6.915060223965235e-05 9.030927296650243e-05)
(-0.0002358801437610516 6.569147836990097e-06 0.0002709742876465091)
(-8.245703929830838e-05 -9.53052059222422e-05 0.001142359850807834)
(8.445571498274787e-05 1.004986253997043e-05 -0.00055987534389886)
(7.930808147247195e-05 -6.530155978087164e-05 1.026139758055219e-05)
(0.0004192155813278486 -0.001001618899547566 -4.636213946468e-06)
(4.031780032167243e-06 -3.123811085528756e-05 6.202660454994685e-05)
(4.135572851405355e-06 8.884484690512078e-06 4.111532922336922e-05)
(3.12586658331746e-05 4.118679270600348e-06 -2.215903492857351e-05)
(-6.711123384539932e-05 -1.45306875056536e-05 -4.389354885407731e-05)
(-2.480147215878312e-05 -5.137443015218428e-05 2.738624259559909e-05)
(-0.0001080846174860567 -1.08373715195166e-05 5.431173511092449e-05)
(2.621370288519894e-05 0.0001710873878722388 -3.922290589416671e-05)
(5.111040392224658e-05 -4.708634963449216e-06 -7.539916295786606e-05)
(2.453352548976771e-05 4.446158479464142e-06 1.936525849321536e-05)
(-1.4896169323872e-05 -8.712013300411385e-05 1.988021087833668e-05)
(-5.876163014356756e-06 -2.347813798319711e-06 1.551882098586739e-05)
(-7.297457407239116e-05 -4.774215403655928e-05 2.82881438661295e-05)
(-5.737138082642466e-05 1.431851376029132e-06 7.474596124560744e-06)
(0.0001038323021333357 -0.0004203387938391313 -0.000111330185224864)
(2.652663729622069e-05 7.880395325085722e-05 -0.0001191013990419828)
(3.684909857762775e-06 -4.482574557041336e-05 -1.332780884201462e-05)
(-0.0002358614230295985 -0.0001146155126340769 -9.869033704747574e-05)
(0.0001920064578241255 0.0001018586509232917 5.490600583753664e-05)
(-9.220351977899378e-05 0.001239348233073838 -0.001510430174015986)
(-0.000141023277176002 -3.115131840218861e-05 -0.0001056256104627035)
(-8.230796372249536e-05 -8.489200117688865e-05 -0.0001189512591391631)
(1.6120601596902e-05 0.0001510170238413216 0.0001025871898539755)
(-3.197525536242338e-05 -0.0001380814197593777 -0.0002338180759627145)
(-0.0001533299899427876 -1.422689388067446e-05 3.117213378404863e-05)
(-0.000535887578356814 -5.380770375519559e-05 -0.0003192877882321705)
(-0.0001583380875020713 9.928404023293953e-05 0.0001383940821224868)
(-0.0001488577779004319 0.0003258570313332433 0.0003089304164152825)
(-6.878757523250077e-05 -0.001490936158654002 -4.062020732341919e-05)
(-0.0002510966294145554 0.0002995861636263913 -0.000420389427721813)
(0.0001901332009957323 4.039386878413514e-06 0.0002050238405431784)
(5.094985971045333e-05 -0.0003449677729936751 -9.361654999739616e-05)
(-1.089970371098516e-05 -6.591132010320227e-05 7.085908364990354e-05)
(-4.408534015582957e-07 1.139610144541137e-05 -1.802420966242848e-05)
(2.698852312543805e-05 -6.776900284517217e-06 1.540152185572081e-05)
(5.583349738450503e-05 1.813586735498035e-05 -1.000997513719852e-05)
(5.131329901787211e-05 -0.0001086451195752546 -0.0001097109767868984)
(3.936874243393674e-05 -6.763259120506843e-06 -1.271613324241269e-05)
(-0.001036013275305539 0.001118549176097618 -0.00134193320431571)
(-2.141833696109492e-05 5.751438181654048e-06 -4.652455919276819e-06)
(-5.967749651033432e-05 -8.237750162237291e-05 3.170389547799382e-05)
(0.0002792963147808228 8.841073205186981e-06 -0.0001794523525028546)
(0.0001424850245036258 -0.0003745220056404312 0.0003247831547883449)
(3.198421626536174e-06 -6.672553862721377e-06 -3.288376318926668e-05)
(-1.775387395583186e-05 3.073879628437718e-07 -6.506730837251247e-06)
(5.865782754221089e-05 1.613750032776121e-05 4.444804242220607e-05)
(9.220851470794635e-06 4.371884268148142e-06 2.877421916184418e-05)
(2.845979530458491e-05 -2.040217524525664e-05 1.326577641973337e-05)
(2.461524425365478e-05 6.139764084589762e-05 -5.138735175634715e-07)
(1.521569543527164e-05 2.688012227376713e-05 -4.01858349703912e-05)
(-0.0006113355731062464 0.0009976878688218122 -9.860653194595901e-05)
(0.0002563932821685652 -0.0003962848256944166 -0.0001455303713494247)
(-4.308083644102059e-05 -0.0001111647677331938 0.0001347367514784858)
(0.0001221645162507752 -7.402597646183363e-07 0.0001025499293832073)