/*--------------------------------*- C++ -*----------------------------------*\
| =========                 |                                                 |
| \\      /  F ield         | OpenFOAM: The Open Source CFD Toolbox           |
|  \\    /   O peration     | Version:  v1906                                 |
|   \\  /    A nd           | Web:      www.OpenFOAM.com                      |
|    \\/     M anipulation  |                                                 |
\*---------------------------------------------------------------------------*/
FoamFile
{
    version     2.0;
    format      ascii;
    class       volScalarField;
    location    "0.3";
    object      p;
}
// * * * * * * * * * * * * * * * * * * * * * * * * * * * * * * * * * * * * * //

dimensions      [0 2 -2 0 0 0 0];


internalField   nonuniform List<scalar> 
78526
(
-0.1893236371937828
-0.01287675464619267
-0.02246920984531164
-0.01249690085128157
0.01692936214446437
-0.002694921049892129
-1.134833169807489
-0.02562792908369735
-0.04936037875428744
0.007376879717343808
-0.05738215833048134
0.1393462709881239
0.1468851489864295
0.7186464567100781
0.1455757049069458
0.009166729511603043
0.03850824620869729
0.04007869426169257
-0.01894959175922823
-0.1352524038946336
-0.4022051509226033
-0.5680999263090671
-0.07982987631233973
-0.007548979862463216
0.000133946945073524
-0.00232070241321293
-0.01252680720327799
0.01333307691392254
0.03888670638835527
-0.01759350499003165
-3.32150587227992
-0.006949334184114607
-0.6245857745672106
0.00963069907658364
0.02621404644178343
-0.02207870209733262
-0.216214040641072
-0.02696989779900813
-0.04825408068205121
-0.03594993523588288
-0.1039366190707982
-0.009360842449246098
-0.05422638389922017
0.02036872941868478
0.02614217329742913
0.02586488109152885
-0.0628045320832335
0.00536846998321277
-0.0100160647731919
0.09714344142030672
0.108163697042213
-0.003526153012429446
-0.7308638088841835
0.03159901772190103
-0.009278353354298392
-0.3593648649442422
-0.2523428513094457
-1.29563986656357
-0.1119819856179617
-0.447804669550441
-0.02174115519276005
0.02360146993525002
-0.009881815487715898
0.005843736059191805
-0.00846899647628848
-0.01157463683849377
-0.008461096886226234
-0.116465941776927
-0.01000208891565772
-1.3896397383111
-0.03113457825034324
0.5022957979491044
-0.1895114161226785
0.4874652301535036
-0.03276271528368523
-0.147647049318601
-0.01124713212082651
-0.07805709515997872
-0.001657299290934457
-0.005181894251534957
0.08483472256554062
0.0318698821760505
0.1257597248085438
-0.198779783252726
-0.1035696850058648
0.01059729653557579
-0.3338344061958032
-0.310309859170191
0.01023816304682622
-0.03475466509094576
-0.002340358374613024
-0.1760274453180687
-0.02575418621417743
0.03007695255267059
0.02080803771391644
-0.008272028286183827
0.02977220812345472
-0.01059097201688314
-0.1398628068005493
-0.01195525786572855
-0.0361757016375136
-0.08938865090379063
0.008683357125379614
-0.6142454533061419
-0.01159896726197952
0.02375730476348757
-0.4763792954678931
0.03038299451884289
0.01027081450841673
-0.7096204747758538
-0.09431814684974332
0.005442224591258735
0.01610413441407074
-0.1371945320150884
-0.121460892104478
-1.768331392336587
0.009355696522937633
0.04789753140244656
-0.1320214829128949
0.007473394752696428
-0.0109588248464039
-0.1054624247090548
2.257434951874552
0.03334604143119352
0.04093718046824849
0.03657629974549277
-0.01116626594850406
0.009860844398315605
0.05223043499071379
-0.09350445545464629
-0.1137601360045458
0.03085288643285948
0.1573024280158768
-0.02827857210922236
0.05520645053766671
-0.005829840682588773
-0.6988000086727322
0.07272094179728732
-0.001002657248083092
-0.009782473473126595
-0.08501705688975247
0.03946934835141847
-0.2130381800170781
0.0009365854058659828
0.02257418746450732
-0.5886134789273011
-0.004573488620235924
-0.04752836850989013
0.03098341429210062
0.05559205448125699
-0.02144976601719744
0.07393240645321365
-0.1320106220212223
-0.01428162948510435
-0.1056848955820306
-0.01129513267590555
-0.02356073226032904
0.004428992125390777
-0.0945954273989757
-0.1241413745568258
0.05524053841857886
-0.2093526510024527
-0.1417063783570347
0.008053198007430947
0.01298217242897006
0.00209458083413559
0.006853636258915607
0.01674773871125315
-0.03018850584004274
0.04769071002874285
0.008066877084991604
0.05202341420743395
-0.01317505150026937
-0.1352075466582109
-0.7330757568883426
0.01020530203070852
0.001669506249521075
0.04602682333676197
0.01165062830170401
-0.008323636682827627
-0.0299969759892351
-0.1263602731097487
-0.02011262548096759
0.07008556388923103
-0.10451724618195
-0.02722144237680887
0.07767467655019376
-0.002610139572141581
-0.01327538639730894
1.637685410637091
-0.06156926287333112
-0.1431654525961892
-0.01245690145235398
4.056474420855538
-0.01178821028349736
0.06283757914726268
0.5276809581531301
-0.3022775960950863
0.05327446792987934
0.001862992851764229
-0.9719219324058919
-0.004483610799961723
0.01659625670847222
-0.009859219209606803
0.01318525689397241
-0.0135800669783283
-0.1248200607386765
-0.2678054120483734
-0.6765754492961549
0.0887213935608601
0.0550852109262348
0.04989822698847304
0.3125252285521872
-1.163082209202439
-1.065358277355983
0.059333693226928
-0.01022336957150261
0.04159168631843453
-0.5072972797426416
-0.1153672695412079
-0.555711553867682
-1.281162178883907
-0.0005654284789847971
-0.006080335514549694
-0.03027583249320465
0.07600853195647977
-0.09672755874336794
-0.1249260882544102
0.03302794232213735
-0.1357569718105354
-0.2093066020840186
-0.01981096933150117
-0.00601875746732744
0.1418661267310523
-0.004607290358913994
0.03922582850725024
-0.01233985572903861
-0.01204556397853048
-0.2002229421110119
0.4536668883353432
-0.4126548670982014
-0.1147312751549381
-0.1871543729983225
-0.1479829098417321
-0.005989154141529514
-0.1721789740016003
0.112641059027498
0.08306101079737552
-0.05154348541684866
0.07555671872878268
0.07967119595859883
-0.1766322708960766
-0.1300028010373633
-0.08733164279648253
-0.03331860527874985
-0.1720732677797021
-0.1264325054349041
-0.09624075926932868
-0.09100734628586098
0.01744369423019247
0.011852206263641
-0.02241870385127808
0.1161283187158329
-0.283270737817845
0.1292645218188825
-0.0222264569604194
-0.1632458419510648
-0.02500325852802537
-0.179058576741989
-0.7410702928808676
0.08531363463573963
-0.5589069390138434
-0.007913115209294665
-0.07089285775557133
0.03662083742016365
-0.008383288291600602
-0.1717406683699085
-2.289571208264067
0.01131118961904087
0.00510894731064342
0.008855530904259149
-0.01044773656190523
-0.01730628920342895
-0.3733669312995248
-0.05659711144609429
-0.3525036015444176
-0.8498359776517977
-0.011710198258557
-0.04149601674857778
-0.2649452029821436
-0.00983715300240263
0.007443238542977265
-0.4622450681191042
-0.002250654627900495
-0.2255350114497183
0.04757804317835287
-0.09745465539742577
-0.7446462310130618
-0.1751543874148827
-0.6436466036055003
0.005053178177362143
-0.01240336059904555
-0.8128310469541843
0.01866431123218254
-0.1456505683411287
-0.5871952717599072
-0.1382884074898428
0.0095454581593731
-0.03806018353692005
0.03238434824931151
-0.2740308292087507
0.006713879501497097
0.004487465364481742
0.02720735846605112
0.01835558649913919
-0.02609344636322517
-0.1432360333361779
-0.2033642038084612
-0.06319372403094516
0.01770711223622448
-0.1206179007324874
-0.02625802804585233
0.5437320907388269
-0.2202167408133888
0.1219382939730929
-0.008492409940658566
-0.139490801216092
-0.008980557535800753
-0.08314861334134907
-0.01706806400189154
0.003026987715964556
0.009976919786903
0.01187073538870844
-0.02433551490491041
-0.004074827219805622
0.07538909648828322
-0.008027623596214584
2.327651639900486
-0.1579846887998871
0.01174371701296405
-0.009213212785473875
0.1182375449326586
0.04468527317857613
-0.1360583745593833
-0.02078169847252146
-0.1958238953640488
-0.8345046439930038
0.04623554585569318
-0.4689076923700385
-0.01629863546909828
-0.3340725903051593
-0.0268678155901228
0.01626971605831724
-0.2790189312497147
-0.01407912965385829
0.3370871724560588
0.1755579062328576
-0.01438121254446358
0.02980059300034728
0.02658391778191215
0.04491743738139015
-0.1091753352259819
-0.033480960252599
0.01348300819803715
0.05378455074410887
0.007315109362673529
-0.1495525879063347
0.01035358054117153
-0.0250800519601827
-0.6354392787700093
0.3289534065237265
-0.009155200906283443
-1.61594197830183
-0.9588809843610825
-1.668479412187156
-0.0306448316148129
0.07851272728296291
-0.01116817104305725
0.02520731289109298
-0.0110283528954342
-0.7373609643299875
-0.03788130676546075
-0.1698943820836407
0.116239315996426
-0.6916516724999301
-1.201096649093415
0.5416995670111283
0.03396708586626071
0.01707066693711894
-0.7876655119708591
-0.7475906894012496
-0.1445925946948137
0.0005571282325106337
0.008242042446906985
-0.01188169441220575
-0.09369116442376151
0.1385891076253404
0.002274420945939844
0.3860762195815501
-0.1724897299080344
-0.04422389222878911
-0.6653024662124531
0.06379066215591714
-0.05372668881005326
-0.004544271328191243
-0.2840627328542607
-0.4269234915900719
0.01204481872851005
-0.1356613222712944
-0.3178817011916285
0.6177695309450104
0.07008152635442406
-0.7343787277724678
0.003555791199351187
0.03296740606383643
0.2350248424377131
-0.1412141623304007
-0.1577713714646423
0.002416941361170615
-0.1584034464936759
-0.6613718530619136
-1.156413455254059
-0.002711042540754907
-0.03284270170980005
-0.5266774495891277
-1.811524974618449
-0.1162340879198568
0.0225521211415959
-1.23300773416932
-0.1917303012358768
-0.02610165473289771
0.4468592210869601
0.2560087322866304
-0.05479928941606215
-0.229178284239593
-2.040335019545501
-0.3856564405129285
-0.0290286168150508
-0.5566070009263219
-0.15628800848796
-0.1310629851672393
-0.1438140247151659
0.4083208345209955
-0.5762052685939106
-0.02403324487693068
0.008025519399998533
-0.3626902378296599
-0.3719071061766085
0.2814990474093063
-0.9727350951345326
-0.1008929413909074
-0.008760536368505639
-0.0973841092619645
-0.1433795697995548
-0.4265310802257921
-0.01121749022147507
0.3522899037391606
-0.6642348361792307
-0.005492628530699535
-0.04884228291639864
-0.2544423533366455
0.02105107232072708
0.4859860164544867
-0.08828517736927299
-0.3284838231391338
0.02387058495615478
-0.2526865298047582
0.0246903445410105
-0.3832879645491832
-0.4662061670614699
-0.5163922463948921
-0.5964355704824459
-0.001026328098888568
-0.1158037509794583
0.009896621136741083
-0.02296964576885789
-0.01720708438446352
0.1279667608482064
0.0163499371029758
-0.4199095611266064
-0.4547158131224869
-0.2361672498883295
-0.5630388845281981
-0.01017898541417865
-0.1588734407632738
-0.3127214719517004
-0.1665104458362994
-0.1564234433165305
-0.1471621654932473
-0.163344035148928
-0.08943758886748766
-0.06520619985464572
-0.166152344149718
-0.138047927155046
-0.4662524718384297
-0.5336084796756608
0.0008594272764428881
0.02895204003714186
-0.1622152044345546
0.5544557114660074
0.02529296343593876
-0.1451061633923409
-0.02565007117308214
-0.004201663467237648
0.03670140937010869
-0.02564486057566298
0.2727208537105801
-0.1070569078201861
-0.07253698194708723
0.01015295113900146
-0.4626304711333057
-0.03030179256871299
-0.02001297238532413
-0.259793311218483
-0.02314766054509632
-0.006408230884573722
-0.03168327045167067
-0.3181544281958454
0.09094687875007586
-0.3621252122237607
0.03978719061153343
0.002993435292363629
-0.1027085423634899
-1.61187325277127
-0.1287709523348154
-0.0620633053922597
-0.1044794014638355
-1.976456682206113
-0.421098515160172
-0.5875078284924888
-0.1550530589004679
-0.01162370811355102
0.1750684273347621
0.03448265896854378
-1.424951515065482
-0.1530411713853624
-0.7995375499471088
-0.05739462476250889
0.0170147369023642
-0.2646337442873442
-0.003971531978288488
-0.1398353248329926
0.02991099638064353
0.002232147437393788
-0.01548457126666811
-0.03158578612417581
0.001052927698070576
-0.02428505571548649
0.02854561967633727
-0.1899217579238237
-0.03321237396693872
-0.9760914951829446
-0.7325909600861472
0.03324663440095294
-0.01085825602801732
-1.538523706765152
-0.06558595956233119
0.03819899673436856
0.03455327513513774
-0.122147084692221
0.108138579582506
-1.953411502594491
-0.3115979630874139
0.4518904423134319
0.05425340782497787
-0.1760815364047651
0.2135446373372564
0.05094910288796797
-0.6108681972089531
-5.17885408072394
0.005066088039501162
0.04042431510131441
-2.668900051352998
-1.261963028694539
-0.4244226905701785
-0.1298893719460766
-1.737637577656628
-0.1890214256873833
-1.699699066787631
-0.004302142098789264
0.04315818103185463
0.02528787225111866
0.03462421049105217
0.03995297794725803
0.04535535108964876
0.01041442631841567
0.04558865117911202
0.08458868696262357
0.04215305732753986
0.04102074641791324
0.006890788320270661
-0.006848434139283081
0.02373421982796927
0.6447368535510235
-0.0135844028256612
-0.1014037550364852
0.0305252379638319
-0.1134227041851392
-0.09815209493808223
-0.2094999700701863
-0.009658344706024185
-0.0005709619087040777
-0.002051116283162241
0.008259184713770911
0.0567809292041782
-0.07113757179373498
-0.075372324629372
-0.09489360118581144
0.004053628140104727
-0.1361220793208906
-0.1062456846203268
-0.05903166376812244
-0.001187583944470045
-0.01223430121115243
-0.03332098756146228
-0.06005424302786174
-0.002944177544971509
-0.006161007914878602
-0.01123018304652356
0.002058129943821911
0.06583914026808028
-0.002103600354356941
-0.1138419893452634
0.1094874010159944
0.01495614909872733
-0.8834912078103253
-0.06177712623125048
-2.993475723487818
-2.161626814620878
-0.04028164404579538
0.004920113543828282
-4.419694962315099
-0.9992855605183399
-0.009788573119165294
-0.05382378740009175
0.001862611060606006
-0.01155114378418462
-0.01201023510347233
0.01569817608535105
-0.02640483539573439
-1.591070144352023
0.01437056643907171
-0.02641551272268763
-0.001214039437826824
-0.01001632473127689
-0.1362329540072113
0.008184710211707696
0.006221193626024281
-0.002829766395136852
0.006265394498036392
0.01343020360403705
-0.009355642157489494
0.09610885477040595
-0.02266546245430104
-0.02361679825662168
-0.1050473771453109
-0.09710027521338011
0.04494644329412624
-0.02782843121471714
-0.00894465619854426
-0.1871457726534432
-0.009573480528392738
-0.009535129141356589
-0.004621690392943053
-0.09183275877069214
-0.005769714764818728
-0.1839057053514417
0.01188506821858513
-0.0100632113477269
-0.008358807472243681
-0.009497951116577372
-0.01051642619256626
-0.2438029079368907
-0.1194234516944994
-0.01250845475655464
0.0223157225965099
-0.01990535240966783
-0.087891621552947
-0.007482431235107661
-0.002644071493508837
0.009696443474939719
-0.01398397019325102
-0.1225725336358143
-0.09215240830738797
-0.008977732594104143
-0.0173797205394903
-0.2192797904294962
0.1413925005607446
-0.1392134612994848
-0.04912794030896673
0.01456436901473492
-0.004567562256436751
0.025339539914855
-0.02345983536851219
0.004276012334743646
-0.1054070808991421
0.7718624639430657
0.03934705796552439
0.01354174422459275
-0.05416844662345037
-0.07993601265369359
-0.1158852377831851
-0.01166588218992481
-0.1168529911012921
0.00148866073348447
-0.1865254339540847
-0.004417948707217683
-0.4194855276285111
0.01063268063167775
-0.01191263150602088
-0.05664668397529586
0.02313353916861664
-0.00940973573546549
-0.3056699553416512
0.01033825762989408
-0.04525978273351956
-0.01057385047186951
0.1004738220440753
0.0425988401504666
-0.04654846390899473
-0.009944732836822142
-0.1263263690223961
0.01148799068605149
-0.01540085408435568
-0.1409921474897114
-1.124363044617321
-0.07288023672830814
0.01468416967477814
0.02160515925177416
0.008940245975079459
-0.003243682220568991
0.09960197857525105
0.0144456184303076
-0.01192004324678196
-0.01369176449434014
-0.03280770365561456
0.1564251304350554
-0.01378707469681585
0.008082091599097552
-0.1815121115649552
0.008239561003102929
-0.01018066587909783
-0.0491753801771759
-0.1179861015504341
-0.01118847010009547
0.0050791946944146
-0.02048225411634049
-0.1098445793858306
-0.01013694244985318
0.006895206531475229
-0.05863520456136213
-0.02806053795505515
0.05775917125550785
0.02798421861739568
-0.516676082354718
-0.01207624521961666
-0.0293968647413368
-0.01759725137611633
-0.1482710564588036
-0.008145549709466677
-0.0130914226473078
-0.00385687408024107
-0.02083662994932011
-0.1708399764336396
0.01300898462665094
-0.01267724689409967
-0.01077115854900009
-0.01970839082600752
-0.04815312639518803
-0.04124368600417488
-0.02565383805247889
-0.01118546790720058
-0.1700771481646304
-0.02617349658111027
-0.01951517892190095
-0.284457058808231
0.002113071279468232
0.007728850855735449
-0.01014148104734225
0.0002106164521349038
-0.1726551041796678
0.01014207758171277
0.009417429756111729
-0.03128604996458072
0.0004048953980508465
-0.01726055901744573
-0.02129918911943955
-0.0001943795766647654
-0.1468443978538793
-0.07626256532135975
0.1252848380904461
-0.1679231258203247
-0.1529934595401852
0.02031286603255202
-0.09764806933005737
-0.01167264896527621
-0.01834328239635589
-0.01559060909431502
0.006526772145612791
-0.09648476497017087
-0.1481552547392142
-0.02177721358914188
-0.01183264045697821
-0.07199485166721187
-0.07852072338594086
-0.01434050622899593
-0.002163882610534923
0.058915066739402
0.02299403747621075
0.02024047048461189
0.01474820115675699
-0.1026046874622972
0.01023422392896684
-0.08267326300400726
-0.0207852393266989
-0.0002645372635448251
0.01319746474665923
0.01827931939258606
-0.7036589484389919
0.01829444135708017
-0.002417587732126674
0.01686555242735834
-0.02693323227173509
-0.1367085471523511
-0.01158629488635519
0.01808203868111722
-0.2654825920433549
0.01139384346758568
0.03340119561825673
-0.1046675510899887
-0.07282254771253971
0.01580363677443568
0.02061407835244874
0.02446573888883932
0.01244742726531425
0.03066139654868443
-0.00841524175429112
7.161587347233706e-05
-0.009209425346809266
0.355262311767256
0.02460508150502419
0.01292182636974078
-0.00718050769597088
0.05796853674816306
0.000266185527066394
0.002420872258134941
0.03825948319602093
-0.005480898266126229
-0.01460570055368931
-0.01855414528517057
0.003940323691177455
-0.009894302725142204
0.06970168419672845
-0.003151248481177832
-0.01568083737194949
0.0007005541019133395
-0.005989479033140688
-0.01714462732072763
-0.001705417937444282
-0.01562579059147525
-0.004708756981232598
-0.1263507330663584
-0.001004383112961025
-0.08865979946002349
-0.04457914828969751
0.01191338834075586
-0.009185818837581048
0.01431041015470879
-0.5403034806927951
-0.1435705515073207
-0.1670267196998123
-0.1624282487386197
-0.1349392467890455
0.0228397221269503
-0.004027668105236403
-0.1301001585217194
-0.1756390841010143
0.202091692309152
-0.08231711583918315
0.1054222733806444
0.006536852664295059
0.001112208082141937
0.1304726696405976
-0.2216990719364728
-0.1295243908451323
0.0009058968796774902
-0.07134605149662654
0.04375670629632401
-0.07160253598048756
0.7384837354158564
-0.002377429402952413
-0.1090959418247688
0.06287347530936045
0.368467570183493
0.006649237408791486
0.3068690388219074
0.002577564851371241
-0.3128607396337005
-0.003115095389095364
-0.1969708019783422
-0.1703002870702778
-0.0008579112889568947
0.1569838371133836
0.008697773913059105
0.01959167944696184
0.002152011532249677
-0.2068684439166346
0.04820545371268992
-0.02217939848192105
-0.1649712568493242
-0.03303109175125445
0.00923454663491299
0.0290183733959825
-0.1489144465133057
-0.01938441571471727
-0.02351216224447177
0.009278991896117975
-0.04962609299633176
-0.1605610577422248
0.03553598174245993
-0.02096616067883031
0.07521856323442443
0.003001715969737562
-0.00106597523856629
-0.0111143785074964
-0.1708436153328891
0.1499587809995214
-0.0218491994844544
-0.2078069036741272
-0.009433630584738313
0.01882546580111114
-0.2541822978690558
-0.1108304007537951
0.007988278485198608
0.007393661515180473
-1.245193230522334
-0.01217446707819448
-0.6333493119070088
-0.009251120488867538
-0.02655894446120845
-0.009879139674066754
-0.05496902142473933
-0.06123568997347192
-0.1246758830671265
-0.116648376714081
0.07088064184520836
-0.002028384164447302
-0.03892113830364588
0.01944593108548862
-0.012821335477118
0.02752663222584929
-0.1357543416534377
-0.004539351900121038
-0.09542319965310812
-0.002311717672269339
-0.006613925284598672
-0.01645560110661624
-0.1396244949414157
-0.5917251351854783
-0.04676598133621655
-0.01582191699163335
0.04013364101950893
0.01985184789891796
-0.00863029142526635
-0.02624224252115614
0.02976150087104337
0.0194301503467967
0.008509361277221879
-0.07413779540860847
-0.1485603045031752
0.006953795062399321
-0.4353417036075061
-0.1979088672841491
-0.3599809805420963
-0.1412052963060559
-0.623915135730112
-0.04900703157405337
-0.005132395705622899
-0.05130996704331912
-0.07970428212236981
-0.09923976865685523
-0.9827989849118186
-0.1669379187589422
-0.01728411042855508
0.01369626094955695
-0.003065794417622051
0.002390421269435626
-0.03244012099345701
-0.131326272546865
0.09303910837153762
0.01939362916272583
-0.0112125240103751
-0.05633359264494946
-0.01368215555712397
-0.01224927962163986
-0.1012120932286849
0.1383038568336271
-0.08263057670291178
-0.111447269118694
-0.1145344920425277
-0.09637622152546273
-0.01703351967262317
-0.08618321817131247
0.2582604366150141
-0.05757020285121534
-0.01618628287520929
-0.01786279208386113
-0.01680346526599115
0.06969574899744402
-0.01141197082447456
-0.00751398755508263
-0.005832924219528267
0.06743155247883452
-0.009982356778261259
-0.1663525029861952
-0.06939220150816325
-0.01969979016621189
-0.2523935050895924
-0.02168741560717236
-0.1531622209741177
-0.1563175145465529
-0.306303349248957
0.0734137170402563
0.07060892959979267
-0.1363657987515204
-0.05152941820352087
-0.01923261455125602
-0.0225894790042225
-0.1402379852631727
0.005237141140688415
-0.1121660114638011
0.005001383465924616
0.01615467475203202
0.005070817758828435
-0.1441574317092334
-0.01141873573157429
-1.75983782994584
-0.1042865872346815
-0.1016523898637258
-0.02706313980567767
-1.104232414823938
-0.008996921264981328
-0.1607765887209081
-0.01830443356921947
0.3294631556017603
-0.008758123877667242
-1.165474250770995
-0.8962573185932164
6.584095088822994
-0.0686509831147423
-0.3927527648791652
-0.8219399055094321
-1.325194431028626
-0.005338768569677845
-0.5716433178231418
-0.006343741712998752
-0.9304378170338342
-4.755218980347216
-0.008468605477225713
-0.01277103769153094
-0.1319385370803302
-1.876901003721363
-0.01804803417146524
-0.06817454365187509
-0.01376770292730702
0.06870519928166954
0.05890873712699633
-1.284212614108744
-2.386146437291777
0.008013490678856136
-0.02021101492648504
-0.02232973696720316
-0.01090069033725807
-0.01379598586693667
-0.06724842607025129
-0.01239602972192247
-0.05011113643419163
-0.06356614705089911
0.147607351941474
-0.01378597399802125
-0.02969512662786203
0.06669185056661105
0.01294015953554458
-2.955463306533621
-0.02134212754175892
0.03224369579064966
-5.131556505161189
-0.0329576834217792
-0.0503621738039889
0.01067312120879598
-0.05694718622203997
0.1367125316622707
-2.305644482679674
-2.726800937332146
-0.08048883569400377
-0.09318675576798743
-0.06849392082217465
-0.8940086352070504
0.03319894234051051
-0.05713051848782824
-0.051142584672942
-0.07147372984914456
-0.06708221509018285
-1.151128732712092
0.1034825723995747
0.1374239378982272
-0.07074869018889351
-0.02150456972233631
-0.03962375889853473
-0.352211063193643
0.06276803097899922
-0.01061312637217538
-0.01269620177899181
0.008302921199659192
-1.787602051171413
-1.88204053701023
-0.006410258463432291
-1.156463944019546
0.03239856108699695
-0.02113654596506626
0.04232716941827422
0.06449031510146039
-0.2151820914812841
-0.02174729437285343
-0.01897474100334001
0.05046726400941806
-1.003161321221803
-0.004977429015799684
0.0004161011388795956
-0.4117227025747859
-0.1328535959898121
-0.04402723390453899
0.04023718777773935
0.00277136126495462
0.001011780202819402
-0.06214322075198927
0.0007666088205079424
-0.05577660427269858
-0.04622555739844527
-0.1158471495678327
-0.03382133265047331
-0.01047966502915956
-0.4704710740683696
-0.09226738776061984
0.02910015588816676
0.006731547119801826
-0.12491860779652
0.2881755118871196
0.01197522078316317
-0.01201652933549828
0.06528146876681705
0.008823016327860497
0.004264140127270278
0.02474054469810796
-0.1575948149770198
-0.06229873808705429
-1.086338746832243
0.08238974128356731
0.0219071736169803
0.002958168471105748
0.009166512238571761
0.03580340732236477
-0.5360136586011491
0.04607140047289588
-0.4531294930999122
-0.05181513491755839
0.03329350311163893
0.004423014586544591
-0.05416802788083636
-0.2795616046542183
0.01099228618827079
0.02671022896804305
-0.242512511550568
0.0114478845560205
-0.08208153370866449
0.02456557188865017
0.175120776637511
0.01556955420972204
0.00829177104000412
-1.169944283202456
0.1285902427940084
0.01737720490369941
0.2120986121360172
0.01452175179906533
-0.07023328970510616
0.004696877469730192
0.02816945768373454
0.008282389862527002
0.02324728728178556
0.02125642252512565
0.006863477153027716
-0.009747446298165008
0.01920645517254178
0.01213906128622633
-0.2418533657693175
0.05688581171520887
-0.008458085427986407
0.02652367229136681
0.08175407234381112
-0.001259647942674926
0.1252430847426682
0.0005182156213488076
0.153501445750809
0.001440866969167744
0.3682513415277515
0.09545628040413351
-0.05762622109927385
0.06671001290571037
0.02288561556991992
0.01367344965885754
0.05548017121449651
0.1578842742375262
0.01492632150916113
0.0201543412492199
-0.1492506616562618
0.008301462999242216
0.05568048295322692
-0.1118925341698299
-0.02191642782939086
-0.002237786025928326
-0.260944164935184
0.03249260559242801
-0.05532334980528967
-0.08501969371047875
0.05620241674752679
-0.01164492658724534
0.06099408111779823
-0.186779271042744
-0.3286415239576422
0.06709126578891443
-0.02070261775093787
0.05994109138987826
0.008315535635343848
-0.0115411150502798
0.01164758510749434
0.00402866903678949
0.0250736150867748
0.008823394698200333
0.086507631032086
0.01040227132900106
-0.06242753330914857
0.07977132469274063
-0.3376926562419443
-0.02231815815236271
-1.261833492488909
0.02948053093592701
0.01926175867657134
0.01660524044223029
0.007783961519723464
-0.01928572223950122
-0.619914094194648
0.01327100377596681
0.01131051138277436
-0.6631720782362158
0.009954680184214431
-0.05734201968586887
0.006787021546510429
0.01338772435186156
-0.05192030551681603
0.05206572841060202
0.04444975746758409
0.02673984803084867
0.2251805731225301
-0.2243536883346603
0.005345805000716285
-0.0181880210365239
-0.03765476472431838
0.004318296195592048
-0.03824621388162227
-0.03949736724492182
0.005392610777238012
-0.03984319660432238
-0.02211686520417988
0.00435680096186108
0.09915848279768073
1.305014134845801
-0.005144149654719771
-0.1855022676039858
-0.1617520151343946
-0.09531365739624036
0.04634921705078231
-0.0239485030179392
-0.3282712129614971
-0.05058054912804517
0.01043494155894658
-0.04767656509041143
-0.08954467428750214
-0.05081076101680022
-0.4509513168937324
0.05519890994332913
0.005491276163029474
-0.0589690620729668
-0.02590357275582245
0.03953142163249352
0.2172114100735478
0.1327071443750132
-0.2755799403892197
-0.01852228115624973
-0.04526686240586684
0.09263367401377874
0.00643339752763657
-0.1380689750712802
-0.007104037093713134
-0.3038003997933021
-0.02733841239413339
-0.2928209578317647
0.2696045359466807
0.03648131331309563
0.07745663224663277
0.2458920011652946
-0.0471745792516565
-0.03226749741221818
0.02254814801586257
0.02481266445429629
0.04348780234615013
-0.02168258096970966
-0.03288250665847794
0.008088006934430776
-0.06061849348416285
-0.05173100576844084
-0.1199824526728033
-0.6379506865449843
-0.05835404236866982
-0.0800754075042306
-0.001596627995115898
-0.003796680378705052
-0.04681303581364674
0.007983306955581875
-0.03423122466369258
0.009567699595123436
0.01068161706097476
-0.1987940231865642
-0.009493916139562651
-0.09347136517912621
-0.02650340427921436
-0.01044595433086178
-0.02743463307445723
0.01686256268647495
-0.02187459287993885
0.008128041718715485
0.03225366833447693
0.01017040702110635
-0.1223148804771183
-0.0189414753455336
-0.01027696827613472
0.004838027209257423
0.007612802224889333
0.01089274607333404
0.2752524874209179
-0.004867335507432373
0.002330601278615694
0.007360995806326509
0.0120250831804772
0.02628490028091595
0.03077371124249518
-0.02278805775793686
0.01465750842896016
0.00501100817402167
-0.0223981390787232
0.1806277049215724
-0.8854295550429043
-0.02502802658517054
0.01113736934977677
-0.02275668718316399
0.07507708955937821
-0.02162262934034808
-0.1301217888002699
-0.02237302537632855
-0.02336108307448862
0.03431302156723469
-0.005189080895088653
-0.02913017950608118
-0.02841502483467831
0.03528628413043815
-0.2016369690928282
0.1461284709859178
0.05284492750841891
-0.02689096589615695
-0.05512248231237748
-0.04814779614872163
-0.2038678358063824
-0.05058524240778765
-1.066522422087866
-0.1133947837162291
-0.05713064000916851
-0.03363827886967511
-0.05367752001768693
0.09276603665609159
0.01088524718929337
-0.008145095008443909
0.008647387366556097
-0.004092807530122353
-0.0607257161067962
-0.02843757302697794
-0.03105136297490337
0.0172155883043764
-0.06122422818308144
-0.04171726914998122
-0.01435106848610647
-0.04364767210307535
-0.07812830960197759
-0.03257523106366293
0.02174528278212301
0.0372769836126364
0.029882301494999
0.01834659086681375
-0.3799917359086568
0.01101105580324744
-0.05603446339788533
0.04957067448129938
0.05559175403599124
0.05231377274475026
0.02172732120434004
-0.008893043856315635
-0.0157496429975839
0.008264088768219149
-0.01569818575675865
-0.1155307311868538
0.02288573901298696
0.02958690239879743
0.03441113148665978
-0.0882020168387449
-0.6621642128387374
-0.04094910226222385
-0.04445292097547592
0.124405608886338
-0.01916897829492631
0.01974760937087998
0.1063894370584763
0.01908941872027101
0.1136485699772177
0.009041494601865154
0.0254728915043437