/*--------------------------------*- C++ -*----------------------------------*\
| =========                 |                                                 |
| \\      /  F ield         | OpenFOAM: The Open Source CFD Toolbox           |
|  \\    /   O peration     | Version:  v1906                                 |
|   \\  /    A nd           | Web:      www.OpenFOAM.com                      |
|    \\/     M anipulation  |                                                 |
\*---------------------------------------------------------------------------*/
FoamFile
{
    version     2.0;
    format      ascii;
    class       surfaceScalarField;
    location    "0.3";
    object      phi;
}
// * * * * * * * * * * * * * * * * * * * * * * * * * * * * * * * * * * * * * //

dimensions      [0 3 -1 0 0 0 0];
oriented        oriented;


internalField   nonuniform List<scalar> 
153371
(
0.01527048418381326
-0.803864507917371
-1.449694684173423
2.238288707903323
20.61852200803649
-4.64836725374501
-15.96998667993254
-16.56027611382848
8.21984086482731
-13.28833019461409
21.62876544361582
-0.3777584320696744
1.004563271226098
-2.772015635469963
2.145210796310872
-5.162807614965996
0.806673482192
52.37007752829885
-48.01394339552446
-18.28074127428758
21.92028693492285
-22.79516279412575
19.15561713348658
0.2283556768148874
-0.009607629744958003
-0.03738184197188417
-0.1813662050939603
-13.91144915781723
-12.0803233966065
25.99212412449949
-0.1099446596450455
0.4257209956288898
-0.4541177854675134
0.1383414494829229
16.7989492966543
18.25870276722575
-18.54206033502259
-16.51559172885754
-7.324994078467126
-11.02501124385919
26.13131287539546
-7.78130755310776
10.92300257543879
4.835222050464127
-15.75822462592087
1.580872373807353
2.853400668922824
-1.477054084957578
-2.957218957765757
0.6324667918030611
-1.186776985969423
0.5543101941865485
0.118281110176673
-0.1651610389054851
0.02655235334180095
0.02032757539063597
-5.078873754236286
16.72708041761773
2.823812422068314
-14.47201908545029
9.393545457621991
28.05419335876591
-20.94978842242609
-16.49795039396378
-10.18944195682782
-24.86010615113751
44.44309356558652
-15.08190261173245
-30.34668768812837
29.13007752964816
16.29851277021175
-10.51594306672638
4.561077695840387
16.43796217985184
-10.48309680898447
0.03983064402009099
-0.6377163921120289
0.8684720264340617
-0.2705862783406763
-0.1224292892627003
0.1460099489175804
0.002673096176483297
-0.02625375582863235
-8.939749527907376
-24.36044052078317
21.2216465018237
12.07854354685718
22.75450363632861
-22.15918965306147
0.5020871087674627
-1.097401092037093
6.967383834905774
-2.974662493731992
7.605776843453683
-11.59849818462199
9.646322769415098
0.436019072149385
-7.435247483361951
-2.647094358205297
-8.908140765992485
7.608158150654115
-3.175675433922474
4.475658049276543
-7.542756540953104
-7.297927091902478
14.8403541283222
44.35009354747292
-10.63008161772757
-22.33930459666716
-11.3807073330793
-11.26677530664053
-5.807271534594372
17.07450627937874
0.1648774762419724
-0.4814311233715449
0.3788592745064555
-0.0623056273616919
-0.09690594637679746
0.8350879498171134
-0.6955785810800003
0.5626490707847508
-0.6357001932014029
0.7686297035091407
4.852124099806677
6.941794996685658
-24.12833158880483
12.3344124923123
-14.94157762486482
23.74728181370097
-3.417479147072384
-5.388225041762208
26.58219890689779
-24.12278977420485
9.189156136517989
-11.64856526922532
0.04853116663209881
0.1460209765842274
0.2999714560218742
-0.4945235992265958
1.512842710768928
-14.62531490703364
-14.3082479209374
27.4207201171968
-2.278686844375237
12.38967585677156
7.178102995759717
-17.2890920081851
-10.10290531423894
3.661772576265109
-11.81427272854259
18.25540546650825
-1.42698297252745
-0.1337651431072991
-0.6493909368098835
2.210139052468642
-4.876381210343226
-9.486803988298073
-3.42847212185144
-17.13859148516788
14.55144118901029
-25.46218957203481
28.04933986818765
-1.497241847595759
-0.9659298887686484
20.45667450885749
-17.99350277250791
4.407513528808344
-0.01912171208104115
-19.32996944159202
21.12372052731899
13.41255600336127
-10.78899471697972
-14.87395194842276
29.4434632960843
-14.56876289328124
-14.15887361281596
-9.921075680969738
-1.582454250827578
25.66240354461134
5.336032584614523
-18.77920472369363
-5.0778610258638
18.52103316494078
-17.94782618029743
2.318138957602843
0.3127942854515811
15.31689293725136
9.162730756313424
-4.65798745668169
-10.85534065721124
6.350597357580484
-0.07307229578550495
13.58888048264366
-6.548424351945759
-0.07448248749110771
0.08416778176836398
-0.01207082815629371
0.002385533885118084
7.276307603205286
2.773390278891549
2.516287509132634
-12.56598539118737
-19.60240207814909
18.7162971648968
0.886229380333084
-0.2026809839875424
-0.02972645331230941
0.4454482814240837
-0.2130408441190611
-0.820806131805444
0.3070261512424313
1.124486607157156
-0.610706626582349
-0.2354548212636833
0.1662607863272217
0.2102305862985263
-0.1410365513581655
-14.01362754661258
17.83028798498914
-2.567441929368862
-1.249218509028886
0.6047066886888982
-0.02058207134731963
-0.08866690697904581
-0.495457710358413
-4.446269754637788
13.5811372131167
-1.526709307792723
8.27631707182883
16.64692155195372
-3.799518096465906
8.634292345734925
-9.415945894034023
0.6847476019131469
-8.327960423621734
15.13413962008245
11.09757788345204
-17.90375707989417
-21.67278339939019
-14.97558196832997
17.04596328957081
-4.708232828800125
15.79307456684707
-23.88617247220347
12.80133073415587
14.8490255905214
-11.62242003907226
-0.3790209353125771
-2.847584616136885
0.08464704431523934
-1.606538651751256
1.571719004933594
-0.04982739748651032
-17.0935380456965
-9.020458599439516
14.69964867315864
11.41434797197639
-0.03185863273721616
0.02475948828908665
9.730063597433434
-20.24649334970699
-8.191770902589147
-0.475108139223061
-1.398821213243027
0.4428227616536569
1.431106590817776
0.3002688244061708
-0.5494133419175308
0.7632000565488085
-0.5140555390149874
-1.100556290632007
1.391848977837008
-0.2912926871974704
-8.442166176859049
32.55745308766252
-27.41339338279899
3.298106471993377
-0.4546037327547863
0.4889398838482218
0.6023826822758243
-0.6367188333505265
39.66441131183707
-16.63439588417216
0.7802677259941018
-23.81028315366024
23.52316561992208
-16.29773971297304
4.258800453090188
-11.48422636004232
-6.217861404268134
-2.196889366964218
8.850769843390939
-9.728854752919016
5.605026495499031
-6.399100145486775
10.52292840293438
-17.21354702007007
-16.27973541266991
24.55913700604227
8.934145426681827
-3.235690585823481
-15.90409441009098
0.7818150628745136
18.35796993304226
-0.06168674364894607
8.858964149484057e-05
-0.1169451282059744
0.1785432822182534
-0.4058144423060262
14.37852903539945
-13.9727145931018
-7.679525342341784
-5.80000183228158
-7.839664704062766
21.31919187865738
-5.093837677883285
-16.72887074073685
6.427921045677875
15.39478737294147
0.1588320580101376
-0.2594321281982901
-0.485609386167247
0.5862094563670054
-0.118514438751718
0.1079037764029886
0.01028244130687849
0.0003282210451896268
13.99433761641628
19.53520208032758
-0.9028004360846175
-32.62673926065908
-10.20538078317444
3.514623568671196
-11.98817193371617
18.67892914817856
-10.15159453116711
7.73820215813775
3.93472811600377
-1.521335742975004
-0.4652535177085225
0.8110688662663722
-0.04554652414109916
-30.53923399106922
25.6706258938999
1.532187220588183
3.336420876577022
20.8141219458185
0.3745473683372389
-24.42435989997914
-17.58649399320001
-25.34626896034363
19.07961649221949
23.85314646131696
16.60504178132646
-19.01118284289931
-17.95805497401648
20.36419603558926
-14.33439962223154
15.42366450553229
19.72485706251646
-26.56110408630813
-1.12610799591763
4.119625288545627
23.56758679367966
1.782961946411928
-3.120535364045182
1.489145929610056
-0.1515725119674425
-3.482986953065955
4.909190484097672
18.21411551786514
-19.64031904889787
1.47307549349062
0.1898576270829277
0.4198962923597721
-2.082829412939095
-0.939042908533716
-1.518749907536119
1.348779676950858
1.109013139118661
8.562260554185817
-8.747773275545038
12.97317794859958
-12.78766522724188
0.2113222488347414
0.03393012011192439
-0.1815259489982443
-0.06372641994057106
-11.21600216917125
2.013632216069877
24.94834640770469
-15.74597645460331
-8.058686975604527
10.61032854967566
-12.91124534083785
10.35960376676546
0.1102899196829095
0.02175996485837717
-0.007951146222603933
-0.1240987383131647
-23.75019037103408
7.415884091914998
-9.022380297597728
25.35668657668669
9.290583417637285
8.778155101962954
-18.06894210771694
-0.026238134701437
0.07203278449346943
0.03200157019103018
-0.07779621997770207
14.26926195065468
7.284101273133215
-5.883196775125464
-15.67016644868846
4.579111721215569
2.628921202035386
-10.18269541697505
-0.2172235162987603
0.3818139751127889
-0.4247649806188281
0.2601745218086891
0.4084770232068382
0.6694223668594333
-0.2610621900371617
-0.8168372000130827
1.706062648338116
2.108468175740405
-2.701192096225727
-1.113338727874462
-0.03204135039641799
0.002779157359610839
-0.04098901102931153
0.07025120406954667
9.074138346083704
-7.309325610201974
7.525770681755321
-27.40179713920087
1.956329051148077
24.24377842498013
1.201689663075969
1.10451242548603
-3.569824195648683
-1.01448695029899
3.479798720422648
1.460475231249054
6.969995922555696
1.292501409081344
-9.722972562959853
7.321950746025935
19.97890517596929
-43.18850208453463
15.88764616253876
2.842736403533369
-19.32209118424326
-3.906874463442716
-0.1185564699367882
0.1276640802216247
-0.1099417238240999
0.1008341135448924
16.38522547141537
-12.80523010137669
-3.129013487840213
-0.4509818821989943
14.79724368036085
-17.66463010132212
-6.360322101982609
9.227708522899938
9.1090096655499
-23.36294039949531
14.85960179415749
-0.6056710602120409
-12.7205481729336
-10.77463343583467
-15.57518023067372
39.070361839442
9.209236519445422
-11.83646928843109
28.13111062238023
-25.50387785339569
19.30017230285386
-8.68990236808356
-8.235657754696183
-2.374612180082516
-0.8893978108434947
1.956628077807325
-2.764141783609915
1.696911516622496
0.5839585704680177
-0.06740664939599959
0.09081683614893379
-0.6073687572184951
18.87636228036724
-18.96331101694424
-0.8074663293397012
0.8944150659108954
-20.48690349790987
9.380068449665046
11.10683504824224
4.256852050815317
10.59239536463101
4.495148125037923
-19.34439554046679
4.826876259148285
6.974020643191979
8.359947277379037
-18.93554557357229
28.59355066463906
-5.703176685113675
-3.954828405954537
-0.01336341501963239
-0.1641831122032561
0.1403401837048
0.03720634352467739
9.450999877065264
-16.6915904516173
-1.052418418429755
8.293008992978285
-1.892288223982648
29.90074534295646
-2.918525266539943
-25.08993185243619
27.31915174956039
-27.16840779089068
-3.79956650775365
3.648822549082769
2.08566768496564
-4.634386191984339
-1.984284938814289
4.533003445799818
-15.57750027526292
-9.504415083259193
10.26420407033804
14.81771128818278
-0.1818595980163559
0.1341132060504649
-0.4175071257331912
-0.1412728668744196
-12.27625692670466
12.41751260711435
27.86146432213236
3.219216143020166
-10.75789618446324
-20.32278428068959
0.1041039052837422
-0.111741230058857
-0.1980614189084137
0.205698743687953
0.1691565306217821
0.01406497854248545
-0.1813369921079189
-0.001884517048333981
-31.88177804437315
-0.49043256911619
33.64391047884715
-1.27169986539386
12.31322277681885
-6.31467517441516
-4.658311426657939
-1.340236175747985
37.09825700745474
-25.55135827937289
-34.5266391073819
22.9797403792938
-4.259410135318395
-22.44186455196391
2.755193662446654
23.94608102477214
0.1590946888411028
-28.50878344544618
-1.058854009821026
29.408542766422
-16.55379668825604
13.05933302483334
-14.47015202382853
17.96461568724717
-21.59004765313421
-16.49478681696944
10.12416246522502
27.96067200488053
-20.75312981816698
-6.667986648722914
14.1662689208766
13.25484754600541
-16.11616423645192
13.55470619473648
6.850886690780833
-4.289428649054721
18.59891989923178
14.14287076489021
2.996098678074167
-35.73788934219739
13.93658820742032
0.3509043102550551
-17.23912848410776
2.951635966422531
-20.21880471077904
-6.325254592805234
28.07340417103136
-1.529344867468086
0.2113123736665817
0.3972171944792479
-0.1517489193592446
-0.4567806487787581
-22.20814949779926
15.41805979883268
9.945313441120044
-3.155223742156525
-8.104018152304452
6.988409465661422
-8.262595227636391
9.378203914266264
19.97565267997293
-25.73037952897535
12.04987561614155
-6.295148767182646
22.83150311813249
-22.06639226921443
-15.37960592317087
14.614495074252
0.3895437574989855
6.645672722185185
-23.83785596219943
16.80263948251409
6.200533040820773
-8.321884314608992
-16.82190147533474
18.94325274912216
-22.63985535837579
2.169579815928812
20.07253234010587
0.3977432023433073
-6.764419617127153
-11.4938014775367
25.6420914760626
-7.383870381399265
11.48294919438341
-20.38628618518124
9.052433543695603
-0.1490965528973985
-28.9734641904764
-17.01216173183042
16.95000485918331
29.0356210631202
-21.77886856418826
7.071936120756205
0.5978978403689289
14.10903460306252
13.88293184091655
-21.00112947586114
-20.28359950424974
14.56192029559772
-17.48240907257649
2.920705066586466
-0.07921961020198037
0.6990090070790266
-0.04588894392018888
0.4691226786916004
0.01772437702438549
-0.440958111793094
-11.08883195679769
16.29835815226732
-9.212811296710985
4.003285101241058
13.57954743562146
-18.67482712189449
14.90722189922476
-9.811942212955245
-21.87531582511195
30.75319591019252
-24.94534096952533
16.06746088444
23.177278327246
7.011565577668568
-27.70164525169847
-2.487198653215969
-23.26538094983551
11.40197372217194
10.9430652057093
0.9203420219540707
21.60366882189399
5.186871858330552
-2.037700732514407
-24.75283994770356
-0.4483999878696565
-2.17357534227074
3.72648775560367
-0.01533707985088191
0.1085471662699285
-0.1064111426847989
0.01320105627116732
-16.79187221288405
-3.711175284980814
12.22459081499103
8.278456682872285
1.388942494331518
-2.661151519695983
0.382811214504522
31.03935022952797
-9.163134445399653
-0.9273223820527149
-20.94889340208091
-1.325824644671719
5.211891730548156
0.06244104190572528
-0.6368891313589624
0.3322213356988495
0.2422267537667629
-2.969734778710355
17.53188512829217
-0.02258804900727831
0.06701443475590961
0.09401746169543722
-0.1384438474347921
11.33897863432235
6.699205652785357
-18.90891212640012
0.8707278392652877
-1.438528703983806
1.91815410165237
2.195286349657682
-2.674911747357657
-17.50329628970167
-3.5666938621224
21.07016141451379
-0.03549169582602562
0.01974167590911098
0.1103563640243792
-0.09460634410329193
10.32023290366822
-4.161990215880164
6.500274243348766
-12.65851693113821
0.2718123567309781
21.64497987260855
-19.58186413958755
-2.334928089754895
-0.4852341368804418
0.07032065369916725
-0.8984262660875331
1.313339749284224
-9.829972250829137
-9.396840245045263
1.159414163257374
-10.35229390518273
9.327559529197764
-0.1346797873069119
6.167352739490142
-7.806102422537774
0.2699504749129651
-0.3167888361365978
-0.07024662634136576
0.1170849875738948
-0.09906179359476949
13.08109751791559
-27.28026417321232
14.29822844888405
6.971701463376562
-16.31054747169932
-9.489862094954081
18.82870810325028
-14.69453493953287
-2.093481985905076
16.78821253620382
-17.14637272198201
26.87619792524424
-9.730020268746177
36.66757973071972
-9.098520848834186
-16.74859162306798
-10.82046725881862
-2.289483627595238
0.4257220802729055
-0.02408848807500793
-0.044506709246939
-0.1025365269875392
0.1711317243149407
0.03273428343108508
-0.09883732679981516
-0.05241139538122037
-11.31483574340744
-10.44220813804181
21.75558195323821
24.59200909506817
-10.46557750409524
-0.2434997500553374
13.54778775766949
11.33556556145588
2.622717392587755
-27.50607071171531
1.616157249684188
-5.707626806575836
2.373637375785981
1.717832181133841
0.04807606838613371
0.1274822712098341
-0.06765456319010862
-0.1531061126564946
0.01160223186891663
0.1598809858459167
-0.01837710505488679
-20.93107581509185
8.151185882972181
6.576787948409362
6.203101983678979
29.21625468734441
-20.03560281751453
18.46520922341241
-27.64586109323978
4.42671687701101
4.842963910677508
14.41752957782725
-23.68721036551438
0.1372822778079299
-0.1215445692689928
-0.005455267229325036
13.0846019615301
-16.18599727169857
-23.75273121229278
26.85412652249152
-0.151849780042264
0.1277988771045769
0.0771237796498105
-0.05307287670760942
0.2143975196382582
-0.08659096879014933
0.03845423548089659
0.5537068886246821
-0.7034511692509499
0.1946345922704259
-0.04489031163969607
-19.97160569764573
0.001521188380944318
19.97017782500457
-23.79266072626389
23.96251501192867
5.816009284774079
-5.985863570436626
-20.99236131131986
3.666367537095061
7.168302817598987
10.15769095660403
-1.565286559181949
26.57854107624173
-10.69422533976429
-14.31902917732926
14.49841678165814
3.516211338664225
1.923122272924905
-19.93775039325513
-7.855349090116989
-12.41348923248128
2.353736893784977
17.91510142879494
-1.543847886950453
-0.9979213190424551
2.09336921809404
2.28715339314212
-2.213857678355933
-3.678939873940068
3.605644159171078
-0.1423160779285623
-17.2847828874216
2.527252886174882
14.89984607918019
5.841533532333253
-27.41334705285196
-2.277862117569049
23.84967563808723
-0.2200191719310906
-0.9232267579255681
0.996950958110649
0.146294971770945
0.02325242089277562
-19.99478714451221
10.46068646402497
0.7819939678119047
-15.84612207835747
4.603441646522723
35.2159160782266
-9.092729844254178
-46.46627890190814
20.3430926679341
-7.244085566066938
-4.340757663185493
32.36275539452349
-20.77791216527109
0.3913465013848209
0.004291781667007511
-0.5435418385344125
0.1479035554821243
0.06906058582680812
0.6688140123376648
-0.087739486206298
-0.6501351119436685
0.2308033734557462
-0.012510724144568
0.204431609428192
-0.422724258731946
1.323835327794904
-1.184421797033891
0.5080736474813624
-2.032179949788718
2.708528099316355
21.43806600674608
5.083763071102507
-4.456021726223958
-22.06580735165866
-23.05693795698178
14.84810824602789
6.14013829540131
2.068691415553389
0.05105313807944943
-0.3089525979166199
0.1202277604995502
0.1376716993457021
-3.601831922429508
-21.70812450214778
22.59258434467199
2.717372079900729
-0.9449396925142431
-0.6802375516849071
0.1785619823887237
1.446615261811251
0.5156066804321293
0.248050322720861
-0.5175543176449411
-0.246102685502834
-33.11752629598011
-1.726010342641715
8.336851660464797
26.50668497817309
-24.37887805087592
3.873635690301657
-12.61228393540285
-14.48977777046762
1.097950009490934
-5.754910323254353
0.4189945413373921
-0.1845270674181367
0.3686758634266823
-0.6031433373383012
-18.50785588173358
-8.582737151455699
13.83297665848191
13.25761637469011
-1.047834860863396
-9.906552944104803
10.95438780492787
-0.6684552185836231
-2.833784432225505
1.163494971092478
2.33874467980156
-0.2456462751265783
0.5854212062640406
0.8072311452529261
-0.5458927684893328
0.2052495772854644
-0.4665879540459976
-9.629294128489365
-20.21985118979398
9.217896786192426
-16.20795112001762
-1.053926855457263
30.44157897115272
-13.17970099567852
-15.44064723248514
15.93549913294232
-0.4951442128803855
0.03302893700016306
0.2038750920775449
0.04539024501455926
-0.2822942740840422
-0.1316828311291988
0.04221326278767507
0.1108929306704951
-0.02142336232446637
0.07139804650066787
-0.1162294596119079
0.02832863095864548
0.01650278215688947
-0.5326408306030942
-0.09682005214680356
0.1045174487872753
0.5249434339838825
5.395312449550662
23.76257795472926
-21.50864609892441
-7.64924430536487
-0.09190915735392122
0.5872575936108247
-0.8617345682838777
0.3663861320362596
0.0513542072556592
-28.53216786028412
25.78902701461699
2.691786638406639
0.2886463177003692
-0.6039049647576356
-2.143847822428698
2.459106469500776
-0.04250143228763722
-0.2366029759109152
0.3920690860594531
-0.1129646778544923
-4.146915727940991
-12.65201144635824
-1.64907721876319
18.44800439304461
-0.06546015905816063
-0.05128137678457059
-0.007528170611292188
0.1242697064573018
2.399734138341449
-0.3934803596903755
12.56947867443668
-14.57573245308794
24.2079446346062
-0.2560486668545476
-5.282119239683912
-18.66977672807507
15.51876251501522
-3.137775113348277
-1.416180224445189
-10.96480717721731
-15.87713903399206
-0.1654383468733525
-5.630206018525633
0.2645559761601655
-0.07655365138991162
-0.02673800962344185
0.01114617362877159
0.09214548738776088
-6.993083753033197
-3.216734357560214
10.77053884312085
-0.5607207325822098
-6.603468499358176
5.867054363657638
-0.9755903046191413
-4.919360290823535
-0.7085179039079513
16.45264461350978
-18.38766952881678
-24.62607917100144
-3.058326622233972
7.24634921333969
0.06088396331917331
0.04925268101148347
-0.03935838806946389
-0.07077825625772263
11.78188389494893
1.862176210383259
-15.06712467572903
1.42306457038396
-0.4978007664059208
0.4457770152404992
0.2979894985750245
-0.2459657474029965
-0.002206969637557171
-0.09915808451029348
-0.006216462455204042
0.1075815166058229
5.887431069236523
-0.2123366597628961
-25.41739925338815
-0.5524544189879507
0.6514682994591502
25.31838537291629
0.8929527383541864
-0.9437034080714641
-0.328139661172562
0.3788903308970505
-13.11548997342299
0.221231812624303
12.89440912078764
-14.55792542847004
15.03496108616874
-12.69912501882769
12.22208936112821
-0.05564269910481987
-0.4145368412148782
0.6622488074469521
-0.192069267114832
-0.8061282268618909
-7.704259166138867
3.95884577273059
-2.55191543854276
2.434582835129797
-3.841513169318797
0.3876747550107234
-0.3769068772439608
-0.1331290666049845
0.1223611888489686
-18.25086403696374
17.07561966269362
-17.07576577636114
18.2510101506048
-0.1595253965836997
0.04082011906598128
0.02350924162397671
0.09519603589789229
-1.727358997659548
0.2422495465059981
1.456407664647276
0.02870178650217122
-0.03600013165326562
-0.0907469200059934
0.03099597420312864
0.09575107746124481
6.228405702034394
-11.03473198336335
-6.396366391287481
22.84926266648724
-0.02184597685643901
0.1160665140246256
-0.1427826994993167
0.04856216233472474
-19.34530803349544
-3.463074878416042
6.600431791893683
-0.3122135101456148
-0.1597062680553401
1.141342145075677
0.03217743653536766
-0.1246577963920125
0.0130884301022319
0.07939192976045982
0.1154113920827261
-0.2969456271322018
-0.1586111058000353
0.34014534085542
-14.25454090789699
-0.3035722767506121
12.99757383755736
-24.85217610690392
25.29044295716993
-13.43584068779021
-3.368584484828691
7.962072259721768
13.08966393700259
-17.68315171188168
1.95149698185381
-0.9713292173126712
-0.2497844964841697
-0.7303832680530475
-0.4341905848269508
18.54399240165285
-18.1098917959465
18.9541685624104
13.24503806690309
-21.825714442407
-10.37349218690765
-38.07242027289738
0.06892169612285259
20.93350125812036
17.06999731865278
4.40165830540755
-30.71923375226358
-1.864419596720508
28.18199504357489
15.69570932405665
-19.4360496802022
11.03968670215668
-7.299346346012126
0.3369560576772177
-0.7825453151229819
-0.6621482384818567
0.1843931144403785
0.3224069341092407
0.1553481899489712
8.881418072105685
21.13297310559351
-27.47160234966406
-2.5427888280381
29.20858282813938
-25.17524898589183
0.3683244631590988
-1.250484262238102
-0.08189894696812723
-1.368808887029386
27.80187624750738
-13.26458666193554
3.667596960945388
-18.20488654653321
0.2170806426481503
0.3679810621758204
-1.148380350149208
0.5633186453360983
0.4832503412735816
-0.1301102989853309
0.08703552926482519
-0.4401755715497219
-0.08175936337785757
-14.36125736983201
-10.76002874073027
25.20304547392598
17.65326383104588
21.90023419153959
-22.27303269526952
-17.28046532731761
0.8263295126233421
-2.151136714616058
-0.9646764256187527
16.75295017042571
0.9004688773224097
0.1551539478560658
-0.0106499038863691
-0.09035964421588417
-0.05414439974974673
-8.539185758799398
3.965713279208026
1.515145857344843
3.204530730347322
-4.77372056654147
-13.39207791461233
-2.598374538121526
18.28301750473991
-2.292565052006268
-26.79562344876899
23.42746218416537
-30.65336981858169
34.02153108318203
-0.2209816131019106
1.537708704445198
-2.104231571789171
0.7875044804601802
11.85457783031084
-5.760297386603501
21.20116393079345
-18.59078662514586
-29.62667584087687
27.01629853523418
1.843724801881274
14.08734021596109
-10.87209989918835
-5.058965118654309
0.07783065216926077
-0.04612722873707751
0.01444036452681896
-0.04614378795192667
2.797120927847696
1.384343852442798
-1.425484763213221
-2.75598001705043
-7.694995768118784
-7.459271764174582
15.15398731343876
-11.65656789965957
-5.961484329621059
-2.598526715427086
20.21657894470587
-2.395504727091379
1.030715471800443
1.10758374793929
0.2572055073650436
11.23776360398713
-13.51084385827945
13.95714906621032
-11.68406881191958
-0.5256331882570472
0.5317455805815506
0.09116681146017803
-0.09727920377153322
-20.17357391072343
11.55886809428085
5.85285274887894
2.761853067572551
0.01308541385944404
-0.275729652462719
-0.3648049190285045
0.627449157633908
0.009197859401032595
-0.1255472928567738
0.03437640199951916
0.08197303145969068
-4.959035157061753
20.56175732124301
3.2598932405011
-18.86261540468008
-0.1549073782826843
0.2146176709056385
5.228690168148026e-05
-0.05976257951955907
-17.00110685762753
12.539645312004
-5.138134391059085
9.599595936699071
-0.2325415407758346
0.1232121573295711
0.165563769235245
-0.05623438578348722
-9.907686832225069
0.7876706047031534
12.21610251105468
-3.096086283525489
1.036955890373407
0.9927017325579489
-7.250392152278943
5.220734529347452
0.3493147131740247
0.07000300623569002
-0.4138816068721096
-0.005436112533422231
2.467175024759281
-5.913575687641114
0.01766283429942507
0.5848412751481167
-0.6052487708568396
0.002744661414239231
0.1148714064754293
0.0800333889494155
-0.1524396995438752
-0.04246509587411288
-13.23074083668348
1.674338412324875
2.981566353136614
-0.9501355313833079
-3.705769234030801
-0.01072403189348996
-0.3984237279541893
0.7131916722360815
-0.3040439123645431
-17.67403494549886
29.31909347694669
-10.16969254743576
-1.47536598401493
-0.8993522248776517
-0.523909484749652
3.15489593377404
-1.731634224098479
-0.7645997419982437
0.6914187257047276
-0.5995953168070955
0.6727763331216152
7.061993931881052
1.198842895742071
-7.223880937243342
-19.53126014199054
-12.22369470617922
16.90126355463728
14.85369129353039
-1.719698795276685
-0.04893952988813267
0.3237475566794107
-0.3171119246543729
0.04230389787184188
8.156028246929296
17.77580606428871
-37.31332544392792
11.38149113270925
4.976743967536879
-3.325562705461838
-0.005704913120176944
-0.1269378175511965
-0.02514463381087399
0.1577873644881977
0.6790386900630266
-2.0300941810895
0.3969200293227205
0.954135461719997
-26.03380340086762
14.37581634918794
28.41093722210383
-0.008593075983446361
0.06519610851344798
-0.09267542049980991
0.03607238797319772
0.004473706221440291
-0.134905037703284
0.1223603086300464
0.008071022857241809
-0.04116359495234321
0.02310660368746766
0.01805699126811901
-9.16559469880022
0.30316074140972
13.83917792491792
13.83225911355008
-1.124855666981203
4.761287276789159
-17.46869072338311
-13.88178100596431
-3.600396233086704
-0.02364374325710462
0.1512771297093075
-0.1277976272839925
0.0001642408350594165
24.20934449046143
-23.65390586992239
-3.525173399249728
-0.07126800543312914
0.07280652090426026
-0.0378750799225093
0.03633656445375844
7.998397521280053
-13.58137536710091
23.76561375437476
-18.18263590859716
-0.2416413773362424
-0.2223651169633151
0.4583872251954504
0.00561926911404029
0.7326080645744816
0.07423308699433388
-0.00774491775184856
-0.7990962338099002
-0.1660297290081412
0.09615089473847574
0.05979488733956459
0.01008394693386113
0.02291099638314073
-0.04935644611188009
0.2408429693694624
-0.17888818938463
-0.5283962102411009
0.03135643936425352
0.6759279602695518
6.808355268517365
15.0619005841533
-14.13688070283379
-7.733375149834182
1.558148080989185
-7.558530101474383
0.335345115298959
-0.1480629966040922
0.09415451908145811
-0.2814366377662627
0.006730243460222139
0.1475081855977683
-0.1273072595557016
-0.02693116949705501
0.05538835657114761
0.03968812924119004
-0.09507648580931741
-15.79820125686138
6.971316487321599
15.45572000539036
-6.628835235854916
-0.1092044727008933
-0.003500213739246361
0.09714756739398563
0.0155571190500628
4.273216921664628
-21.77631208721639
-0.08226166456158691
-0.5229821439053695
0.3595975333409898
0.06776472575615194
-0.04491211696866415
-0.1084314240735394
0.08557881529122849
23.13574184745852
2.756989547522253
-18.85620020705715
-7.036531187924895
-0.09428428586055325
0.1006338401866494
-0.006349554322044819
-1.925519157639758
-1.150017355234822
0.04451198442918715
3.031024528410856
-19.9468241495507
19.87223788530241
0.07458626424317623
-0.1951843434974068
0.05520019599907353
0.1021458389001282
0.03783830860295617
-6.834061343000818
-0.5683933093420865
-13.52862116276722
17.878302152591
-14.75933930770333
-15.25924501766881
12.14028217274623
0.05856601647897095
0.430970501294874
-0.06048555069021066
-0.4290509670758692
0.1058713155647482
0.03050096101858537
-0.0950720157500435
-0.04130026082625552
-0.1466987583835332
-0.488272799679405
0.4331736689891039
0.2017978890813006
0.07340002555798261
-0.03530704334672723
0.1640764854791541
-0.2021694676863347
-0.1172876105630248
-0.2274832908451785
0.4601822934943917
0.1247919036560663
-0.5799223546710677
0.4820760059019444
-0.02694555486945595
-0.3089176053678739
-0.2450792526182774
0.4129247919047648
0.1410720660893222
10.77603933267686
0.7925733695018443
-5.738952594067523
-5.829660108104385
0.01245499682139096
0.1729033493742712
19.00361224137315
-18.38808768617378
23.11428316421881
-23.72980771941893
-6.077941445805248
-12.15834327706701
1.552770322089002
16.68351440077766
0.156829670369285
-0.08472229834975693
-0.1009995397708895
0.028892167757726
0.292216125354133
-0.01228654143210635
-0.03332553880128991
-0.4562951333029511
0.5339282116213647
-0.04430753950885737
-0.2506768133097318
-13.09390457904449
13.34452694355559
0.1957779775211203
-0.2215582215426136
-0.1533860010487961
0.1791662450788363
-0.04887832099587529
0.1513986593610193