/*--------------------------------*- C++ -*----------------------------------*\
| =========                 |                                                 |
| \\      /  F ield         | OpenFOAM: The Open Source CFD Toolbox           |
|  \\    /   O peration     | Version:  v1906                                 |
|   \\  /    A nd           | Web:      www.OpenFOAM.com                      |
|    \\/     M anipulation  |                                                 |
\*---------------------------------------------------------------------------*/
FoamFile
{
    version     2.0;
    format      ascii;
    class       volScalarField;
    location    "0.1";
    object      p;
}
// * * * * * * * * * * * * * * * * * * * * * * * * * * * * * * * * * * * * * //

dimensions      [0 2 -2 0 0 0 0];


internalField   nonuniform List<scalar> 
8464
(
-0.01429171245266947
-0.01446701351837718
0.01121984869090279
0.004055375702452587
-0.02534785600045986
-0.01934712400936375
-0.01416302233364741
-0.0220933763526296
0.00791719540281206
-0.01698576093624287
-0.02224845474982335
-0.01515364775953574
-0.004931377169750987
-0.0100504851486615
0.03891809639153804
-0.02419076404191715
-0.02551621399503391
0.0184389065836173
-0.003913608906715423
-0.01389568952560237
0.01558363103360143
-0.01711059937456356
-0.02987282379300316
0.002847523199645866
-0.003972387890832488
-0.005753826341357419
0.003563257234916174
-0.01998492545512101
0.02672303230344988
-0.0136658547654359
0.003831046143844832
-0.02498418172839103
-0.02378752208821218
0.01605778505094606
-0.009875479776409278
0.001534167872723228
-0.02342999298157555
0.02077559966925135
-0.02266990988629679
-0.01556908515724464
-0.02190768219567273
-0.01752404187825622
-0.03314263019068039
-0.05225420952437185
-0.01718318339630259
-0.004981895570993819
-0.01863963551896939
-0.01888565296925322
-0.01966534549356814
-0.02052069011428567
-0.01471739821967112
-0.01736550237783455
-0.009547584448542867
0.01295790154074082
-0.01750019743736547
-0.0141298271098444
-0.03518090233760982
-0.02110966977545033
-0.02696712277694901
0.0847790439601754
0.02135854841391344
-0.01733490716266346
-0.0377279276645702
-0.03028183507221122
-0.06696163442973718
-0.01386236694517438
-0.03583940483353747
0.009793857255170641
-0.01620927784131989
0.004139816522461619
-0.006634178802106692
-0.01493931490774824
0.007433747072108484
-0.04188742083196324
-0.01845005885285278
-0.005366398654919787
-0.008890154882063269
-0.03392138661103557
0.001253988919821479
-0.02295307640663512
-0.02011110246141757
-0.006322787485947027
-0.0140109750608112
0.01785306041764038
-0.02293508595994012
-0.01043981954989397
0.01149010088718769
-0.02340479459140331
-0.02573737923525168
-0.02102473443210144
-0.02298153197218613
-0.1771976226103839
-0.02208403572894211
0.02277208083538888
-7.734319072659972e-05
0.01254614660452683
-0.05581114970431718
-0.0536085424642872
-0.002692403601273977
0.02054725122437
-0.04630400214309617
-0.006976932680126978
-0.02470875406464041
-0.009719442507372722
-0.04029158232416593
-0.0121792252384041
-0.04328642370681352
0.003536302966726087
-0.02334717556741048
-0.01681416721137505
6.041590782216293e-05
-0.0408043889310696
-0.0157643600903193
-0.00876568025656607
-0.0207033040462567
0.07502968833522242
0.01583494565107512
-0.01409926885379316
-0.01734840927267035
0.004988424051532738
-0.01329987092546499
-0.01400294232484293
-0.02063062138934144
0.0293578094729971
-0.1133810074621274
-0.02184252414610069
-0.01949937235330293
-0.02474035904886374
-0.01713958246736728
-0.03166706360922104
-0.0198267633166169
0.01490669132807748
0.0008581046762404706
-0.01987145501294191
0.0137338738667089
0.002648319435785766
-0.02415331594054793
-0.02710355714546262
-0.0226036099375164
-0.01652125295922807
-0.01779688863763001
-0.0166451779369633
0.03555633740525924
0.01480359065527942
-0.02143636598030865
-0.009944156684670167
0.01604951016606425
-0.0198337063565644
-0.01000061798135854
-0.02033730369385196
0.02068212568219394
-0.02055301244022587
-0.01509606104042743
-0.01519285107755729
0.02008070617678947
-0.01289217053519913
0.02928832257936648
-0.02408301450321074
-0.05331749428249576
0.05144992465381487
-0.02179999527387089
-0.0126771618645212
-0.02481066355961592
-0.00817837535810712
0.01328562751424347
-0.02393241954242383
-0.01627806301733532
-0.01142069184816426
-0.008594376595148884
0.04130994432414843
0.01740300185208074
-0.008444608387793789
0.01785074699026318
-0.01508284384549661
-0.00897438132259422
0.004955447700134335
-0.01318291134506018
-0.01843260602679992
0.01054295176931699
0.01684196003847422
-0.01670473582982188
-0.02410626918958659
-0.02373770313235308
-0.03432824023959019
-0.01871068671717041
-0.04446117209094587
-0.0116056309130483
0.005505412415994609
-0.01765066045159962
0.02021998017211087
-0.01041705434241301
-0.0004771960788523698
-0.01279471955261595
-0.01178851138066997
-0.01157471612777457
-0.02925656948947894
-0.03414573740518568
-0.02385206272411168
-0.01989294358340936
-0.02287712104535075
0.02147891111833684
-0.01204240613412698
-0.02617479415501835
-0.02370253745242392
-0.02487738928850969
-0.01263539785820058
-0.02432523267979836
-0.01958367293928797
0.01492570323615864
-0.01133859295885366
-0.0265248756483563
-0.0175989083517487
-0.04212608339914831
-0.02853826884900748
-0.04424630691702483
-0.03025446546929231
-0.01734431561934623
-0.02904194423590912
-0.007920926830254558
-0.03003258153626143
-0.0272648421770196
0.0532167900828196
-0.00206083838375214
-0.01709135829162171
-0.01694079102530483
0.01304225417349932
0.01506182071698262
0.003939793948452484
-0.01326970606936995
-0.01668111570044266
-0.01717517130935039
-0.01830576906325616
0.02548127184275611
0.04078643100546255
-0.01708820100743236
-0.04890978277773571
-0.02268746728693149
-0.02012378873290745
-0.05552063726619715
-0.01451020475787906
-0.01876334202678669
-0.01717034101938735
-0.03018173615081133
0.007364538633798783
-0.0306305648402149
-0.02273989574038147
-0.01697322665381308
-0.01375976916286932
-0.01596141308131116
-0.02328137851400935
-0.01137898420048353
0.01815725000645045
-0.01362817788886989
0.002145733118372112
0.01822159114041499
0.009893935192748751
0.007432828258021111
-0.02303594981350503
0.03839162470822436
-0.02921498447383025
-0.02318953736925647
-0.01794997202737962
-0.01333217447396204
-0.02618844871795921
0.0241757484019366
-0.008138793964031344
0.024978573924048
-0.01509815208320317
-0.01890257713433695
-0.04653721596255211
-0.0237280560752701
0.02608406562438863
0.01166369548208088
-0.02378230991842183
-0.02195422354390926
0.07600067486169641
-0.01007876520419362
-0.01829651972766804
0.01500730954180264
-0.007445172406638098
-0.027114439521774
-0.03914913876574937
0.01836041793442328
-0.01592091409773988
-0.02336739330651769
-0.01661108755335059
0.005939658810827217
-0.05219385386300545
-0.01972708038955682
0.0683079411614745
-0.01531436605818283
-0.004791321728184511
0.005249010000156796
0.02799357702823706
-0.01384114249311942
-0.02671028050194724
-0.01692128031767766
0.01113333214727133
0.04414858673629802
-0.03611676359576568
-0.01998689726379641
-0.02377468645897083
-0.02414041513032284
-0.01997612606704442
-0.02177461369816961
-0.0547424731894913
-0.006971739650730171
-0.009605024233144235
-0.02054529572728191
-0.02125961200255426
-0.02074355838411786
-0.02022355903595524
-0.02087685823205361
-0.04041920392343441
-0.01772507967239101
-0.02097354994344716
-0.02145772207537554
0.05132955755042849
-0.01480283380113336
0.03736719192009578
-0.02668738290809951
-0.0526195706103207
-0.03194156059992044
-0.02283263040416409
-0.01997923539571737
-0.01481155149498233
-0.004968671053871033
-0.01905843644071549
-0.01654205159856185
0.01531410727947232
-0.01909364266174736
0.06712018266401126
-0.01437348079768222
0.002070193251115617
-0.02192142107078771
-0.01884941966671324
-0.0211265626475623
0.01579512852649582
-0.007266390954611732
-0.01397098964809175
0.02000383920105734
-0.01830218015155102
0.02366630238335083
0.007437920041734112
-0.09741324952291265
0.007959510519687346
-0.01888716311069405
-0.01347586956242875
-0.01407866095008713
-0.02205929613562016
-0.02260942264064134
-0.01711723515759924
0.003690683672740472
0.006369529797016517
-0.006034104709945088
-0.02171156861686049
-0.04231105191822013
-0.009390174972718846
0.01890812962647338
0.02330809259853869
-0.02100080002800188
0.01181922515262702
-0.01224833288011921
-0.01749624556715573
0.02758900562732776
-0.019034327039522
0.04965985921446001
0.04495540057441384
-0.01930713703764834
0.01182631638678938
-0.01557752849251376
-0.01579359603444913
-0.02369117154087692
-0.01765345899169858
0.01681946364830178
-0.02363558118776264
-0.02322200456145672
-0.00365080697114228
-0.02319932188720304
0.0303912162241614
0.03922184173347184
0.02032139487148727
-0.007084743440627887
-0.01533326029652578
0.01739170471826923
-0.023481919858836
-0.01697724913278771
-0.02380236780256679
-0.0186799103395206
-0.01716605926461776
0.009481653509965967
-0.03719232829904249
-0.02073850904331517
0.01187639305006037
0.02509981905808812
-0.01885556727179534
-0.03818447662668895
-0.02450572903599113
-0.01613408970494492
-0.04193010849257126
-0.01750704247752605
0.02729876043707114
-0.02947748871589386
-0.02646768935009998
0.008579956083753301
-0.01661443679499035
0.008018710846901559
-0.01179531865900566
-0.0106269092565117
-0.03112767121376225
-0.01874333916955721
-0.02722449505215958
-0.01783283098747777
0.0115821613128215
-0.01840685763098484
-0.005584518350020032
0.05425672335423538
0.01774894983813255
-0.02186105321838172
-0.02254893115700407
-0.05169819019936812
-0.01225156706253572
0.004568634567514875
-0.0115465625060467
-0.01454658487868518
-0.01075717543475488
-0.02354045837085658
-0.01275651538867599
-0.01363501902044493
-0.01691831724240043
0.0310796311587479
-0.01123055895065039
-0.01508589901805394
-0.01800866660041529
-0.02394277382189139
-0.02029394421438642
-0.01807140480014089
-0.03836446187868358
0.01226645361036108
4.73279447623807e-05
-0.03547932860932258
-0.0244588432826516
0.002728195783220818
0.02351988484570492
-0.01742625785268414
-0.01715637320937609
-0.01775091035595825
-0.01064348775828482
-0.01056133234832731
-0.02423058748646829
-0.02029669475700025
0.005703609062386969
-0.005794179669527428
-0.01293972930941647
-0.01933085300015669
-0.03825810801366662
-0.0201465107032941
0.005776970194284667
-0.005079202497894832
-0.01573278264769719
-0.01819777601961299
-0.01779853893090289
-0.01119490558419575
-0.04356944863780775
-0.01003391042816617
-0.02157031908319438
-0.02108028423637803
-0.004679360716814619
-0.01481926915764447
-0.02652417723572507
-0.01137289571151288
-0.02142025304848143
0.00157787634560627
-0.0214859381726754
-0.02409105157566076
-0.02271007675585801
0.01824364512872771
-0.03735165528268392
-0.04608274728461684
-0.01430391752158415
-0.00750070379427106
-0.01593827962945604
-0.01968606866211937
-0.02299746031606428
-0.01851830719774161
-0.04349368170250032
-0.02239684985266813
-0.01951442743776762
-0.01703222638799369
0.03580034696374835
-0.009938997788972904
-0.006649410724505241
-0.02269127512948646
-0.04723776377020641
-0.01527168426169205
-0.0288850934062391
-0.01680829094918795
-0.01224008965747858
-0.01476434992691026
-0.009556440318387536
-0.01679966906223009
-0.0215164384501417
-0.02131832484997273
-0.003449968032299037
-0.03018802747822139
-0.004537370952061897
-0.02143732417639603
-0.02013198506796005
-0.02931125345177144
-0.01165890865144404
-0.005508497616416919
-0.01727927061940528
-0.01974331799631265
0.04194117892697408
-0.02178761696006728
-0.01180465911338575
-0.02502073359182379
0.01993311441732042
-2.394320648768537e-05
0.03822240896590588
-0.01448718781507431
-0.01304833717018039
0.02158201173246108
-0.0270532835093005
0.01187050135750181
0.002455656074665634
-0.01978391092044536
-0.02240234833983796
-0.01985333288139433
-0.004183685908771766
-0.02161886611283403
-0.04977530888122297
-0.04652487050251104
-0.01586047927273365
-0.02308178098127713
-0.02368120272868671
-0.02178035361388765
-0.02805951337590749
-0.01750965378072832
-0.01275744360049101
-0.02727709399837121
-0.01954700260068243
-0.02359452151608349
-0.02137004994553076
0.02911014851668156
-0.01180441182222054
-0.2141170332776122
-0.009636819485753036
0.01476741751568494
-0.02220563351050026
-0.01661191818033664
-0.01198084274596801
0.1006845866350832
-0.01545323944174651
-0.01662619467620174
-0.01697015543734739
-0.03885172531956377
0.03143443925208953
-0.02028023789753266
-0.02368753212732472
-0.01286406312971956
-0.04473302502737971
0.01684344036764666
0.04175436004946122
0.01371188175098943
-0.01140822172599528
0.008293680782780036
0.007925608486079129
-0.02341843166434582
-0.005597656627604581
-0.01318953144848512
-0.01105667265229304
-0.01925781347782673
-0.01863879220722493
0.008224588736978943
0.052171374998311
-0.003275206620288465
-0.01167734748473192
-0.01328321231075569
-0.02662510425665767
0.01497866899108103
0.0028246926968929
0.02357036439057974
-0.01995746816009943
-0.01279075497227763
-0.003415281820049362
0.04746308961608206
-0.01811525800991354
-0.005789154787956518
0.0396142032278822
-0.01490330864796543
-0.01100404191330892
-0.02001973154023203
-0.0003888065025253441
0.01190213280195404
0.003889787616751236
-0.003127752914158457
0.03982925182126265
-0.001132881924399622
-0.006991469275411981
-0.02644660602873
-0.0160959022276021
-0.01666826898523013
-0.01855105171588724
-0.01643316701304871
-0.01908681054222505
0.03305061140664806
-0.04145380399185498
-0.02533013995686846
-0.01844060016265848
0.01432170213099403
-0.01900845999027245
-0.0009686856956073583
-0.03401153287205463
-0.0189909846064844
0.03013075589060711
-0.02704582812795544
0.003041534543949768
0.03122960478154894
0.03285197117237284
0.009992100048937665
-0.02011237561552914
-0.01760099406332155
-0.02483691497680326
0.03354126009716336
-0.01887005882436448
0.03429827962766828
-0.01309815943513763
0.01951411654266818
0.002926179389066249
-0.01839600052612729
0.04470001878016736
0.007008477356532008
-0.009045832207578713
-0.01383580412702977
0.04499896402972526
0.04940683765671738
0.007594089223612892
-0.02096405385583248
-0.01058239119062546
-0.009441177155354153
0.01819965292471395
0.03205794496776743
-0.03502638934632073
-0.01181923296833428
-0.01138065524527516
-0.008117220329322803
-0.06669551292143887
-0.02485990054939151
0.02113316189910179
-0.01537036508023742
-0.01783326473141834
-0.01674287516878631
-0.007045243381514563
-0.01918772491340493
-0.02628800496192417
0.02041916415749616
-0.03926093917092714
-0.005060249215564609
-0.02022823345129625
-0.01580720651532033
-0.01431381507176585
-0.01225958092256675
-0.01447073552568203
0.05407453865694434
0.01035040796245686
-0.01336085545060711
0.0008740700618606991
-0.009506828568619556
-0.04260964234843737
-0.0238535028663666
-0.01771171538877855
-0.03820807372470806
-0.04306429591000002
-0.04279591192753471
-0.03310630817919264
-0.01827919565000374
-0.03857625373207686
-0.01944604717166255
-0.02233747506760861
0.008088393495450373
0.02573422006993263
0.00382203726056908
-0.01372893012452102
-0.04277785890337833
-0.00119009894590022
-0.01878498927843517
-0.0448617412788916
-0.02066404616185715
-0.02148903732586166
-0.01395118139963196
-0.02043976172349578
0.0173388558101559
-0.03991094210725879
-0.007693199913124922
-0.02195109285021248
-0.02267795754386534
-0.01964697808144938
-0.01565821054383391
-0.01028325131542453
-0.02132395544786807
-0.02281038797185629
-0.01974609798534866
-0.04526028742331175
-0.01599735041294098
0.02185234454058105
-0.01462928941497525
-0.02330612031945221
-0.03545248102191117
-0.0559731407072708
-0.03001350481509063
-0.03330075149816789
-0.01350821185861099
-0.01845781698937875
-0.0145279832073607
-0.01011149356536401
0.006971780773681914
0.004530419505706751
0.003256792258036185
-0.01485038421896285
-0.04008178734064766
-0.04417510858590704
-0.01400159699709063
-0.01517972237344723
-0.0155377825455474
-0.009741058082997035
0.02914669395191441
-0.01363274882738607
-0.03267796488807388
-0.01819662557518604
-0.0167279448927375
-0.01622558043113244
-0.01379078867541378
0.00271735060540664
-0.01262142893156402
-0.00822701960046931
-0.02140036726103524
-0.009109536791436668
-0.0222170557095228
-0.0440685795974474
-0.01779614785812979
-0.03768876382113594
0.01214714759011465
-0.04407772973756463
-0.02243741472793795
-0.01656271221103363
-0.01251230890924143
-0.04576051394337625
-0.02244312380307182
-0.02287855590702682
-0.02648837645709656
-0.05046005701061911
-0.02281645323467959
-0.05323126474539434
-0.01189129820900533
-0.007061557768685621
-0.01766652127436959
-0.02306828704324638
-0.02421721778289097
-0.02286577240851373
-0.01145573473375735
-0.04129599135986703
-0.01788660703258378
0.03024274649038577
0.001139767055700348
7.238632913793831e-05
0.009278700068517051
0.001391738298153713
0.001748577123888932
0.003838500464113411
0.00979554542480463
0.01771480366734009
0.0002378054726438421
-0.02237529663423984
-0.02216755454145573
0.00904650621691289
-0.06611646727952405
-0.0479204587039255
0.0194870744842876
0.02115886618571127
-0.02583059024952665
-0.01179305852482631
-0.01944918215087041
-0.02161780827861935
0.01540810216747735
0.00218476744498931
-0.01626419086522186
-0.0452207014507028
-0.007728609558612579
0.01841207847733165
-0.009639280663587062
0.02312117933876119
0.01717202447253471
-0.01364970694808498
-0.02155423830456828
-0.03065519573449349
-0.03594433404308445
-0.03046812327717003
-0.009799210593834817
0.02181293120568997
-0.009248411140748243
0.01749909852865746
-0.04177904074456269
-0.01930516080140974
-0.04443699801708496
-0.01017480748000764
-0.0132716096810051
-0.01857534053429608
-0.01266815529107515
-0.01195798737315026
-0.003975414407308983
0.003195896671807212
0.01144067110047347
-0.005390508578727965
0.03382044586218989
-0.01273197756405314
0.02292226291873892
-0.004810254014910092
-0.02004795327650768
0.008293446113986035
-0.0002440543668733565
-0.02980235453221998
-0.05535331747237458
0.01363531777417286
0.007042653202475764
0.009900844846001376
0.01456846221839489
0.008103923410854514
0.00869720939872025
-0.05374756538117861
-0.03922895973366458
-0.02706924382879104
0.006330173736267254
0.008291391523475819
0.006773581877710662
0.01405127053733294
0.007550384046802384
-0.05427445551238226
0.008514531751563359
0.01125776918335491
-0.007148748046326706
-0.01928112811898146
-0.0472760992210522
-0.01888223926729909
-0.02627527798788505
-0.04746518978252701
-0.04240315818429985
-0.04826401703818302
-0.02596919191313039
0.02697897818942855
-0.04630695511113976
0.006991265828926199
0.004784661047296824
0.004398449342019725
-0.01748559426894368
-0.01862805570269312
-0.02380484067741674
-0.05704696842356834
0.04367794002108091
-0.02553768882507287
-0.01127865460491398
-0.01288528548203351
0.03640992316456787
-0.04545644362462164
-0.006772559365041514
-0.02520448716529234
0.0161385204050985
-0.0002766709615079962
-0.02590580652600833
0.03659343130553221
-0.01085804663424796
0.005135309791097109
0.005374585441132524
-0.009098775202402822
-0.05548661377362802
-0.02390648301869993
0.03995962771034351
0.03347092225079269
-0.02375033429172929
0.006225950507249202
-0.02497120240957469
0.05629995756699277
-0.02864987840388619
-0.04980412558915605
0.01058201153020354
-0.03070937092674068
-0.01767389303710693
-0.06058735460986596
-0.01427207365470581
-0.02076596738123663
-0.03037870970357505
0.008006216831146856
0.007743822282014795
-0.02497600340568776
0.04845097806468841
-0.003761885240865432
-0.01105282052177739
-0.01359033272960979
-0.01205950245642517
-0.01497014876920004
-0.01855561791530704
-0.01945604364900751
-0.02326244933510089
-0.02294838361873881
-0.02294397683636868
-0.02327872963373968
-0.004453495914973632
-0.0276090470747934
-0.01457545489063461
-0.03695467475258632
0.03816903616249855
-0.05408990141779112
-0.01606998554101833
0.04312722766039517
0.02326404713369742
0.02473983675657346
0.01805911559508465
-0.0216056118645772
0.01402113721072654
-0.009766184206715756
-0.03396812564176042
-0.03110670145204777
0.05359561855988378
-0.03083551577561264
0.0644152218987465
-0.03602180334657771
0.01008527467969294
-0.0284824952026606
0.009481392658299552
0.01454384954332627
0.0044531760375673
-0.04595388148821783
-0.01702381392769867
0.002899405436215742
-0.000220898114857722
0.01803560754027991
-0.05979582604058454
-0.01097423049989778
0.006213451210708172
0.007147196526943725
-0.02524261030561909
-0.01477482603857559
0.006590188273603991
0.0007102567586480631
0.007371595654923494
0.002196579596257642
-0.03827684295820798
-0.01949151054859622
-0.01214238475806005
-0.004705441175875841
0.001557614162488771
-0.01648358922896855
-0.03355632698181198
-0.0001215269822935728
-0.01960576223258422
-0.008807112733678601
0.01576910228005172
-0.03355164489206275
-0.04283120638219344
0.003789669184178735
0.01542212981869676
-0.01116085926993474
-0.02267981275689073
-0.02581843059287237
-0.007329176589697287
-0.01283567323115954
0.05180320666594197
-0.01330103245001705
0.03860599068333636
0.005484488963853478
-0.008762756474702873
-0.0302850649934885
-0.02448821797069431
-0.04212772408019749
0.006671325171732466
-0.00728401755018971
0.01270607078248661
0.01834859710978579
-0.002146918136469983
-0.02620651033339309
-0.004114618986315524
0.003165539155517211
0.06110359902480404
-0.006195785701216875
-0.01292928960561585
0.0155243606737652
0.06133717677161706
0.04124539239613269
-0.05675563597960377
0.03829400628315482
0.0003853943616576847
-0.01668122545148714
-0.01965582695535922
0.01315175008296083
-0.05046494755801507
-0.008006941694478912
0.03738262755467799
0.02429157512894205
0.001766977738411207
0.02036710876230138
0.01593660302316206
-0.004764896591568274
0.02809419649465207
0.008948079275273108
0.02328777629664096
-0.001801140150369572
-0.002398273979844012
0.008513607794737178
0.05176485481368899
-0.019298714796002
-0.004149788900008973
-0.0614979589912639
0.04429755149869249
0.03535236851476409
0.1055227635024176
-0.01455270852483271
0.03523923280034763
-0.01076083842754766
-0.009760861136130424
-0.02005966679245311
-0.01152729544427079
-0.01522367151178433
-0.06126049773366236
-0.01052025775465378
-0.0005423591405971832
-0.01106930691823454
-0.0120670619197357
-0.01616828423867526
0.07292365277308961
0.02557572124874454
0.02736676403241559
0.006069338215621722
-0.01483176909895225
-0.01650856892805223
0.01346918196367808
-0.01289277951188071
0.06243279942214065
0.0107414134087113
-0.04485701684505747
0.008754690865666574
-0.009543097002376304
-0.02068938620019931
0.002996272033266665
-0.02195034061351458
-0.0002682522554787583
-0.04131666894602309
-0.08732776380889498
-0.05204629491418505
0.001281957406854722
0.002642795676488159
0.05778936192031516
-0.01937436990892206
-0.01968810656773524
-0.009770697870359979
0.06666555460821694
-0.0550775999185468
0.07446150276947658
0.02685394077416275
0.01254248799876861
-0.009717471827638649
-0.03142267734295363
-0.001458832375236146
-0.01087173274380244
-0.03718116839681638
-0.02348692843098702
-0.002023008655675592
-0.01144632607786326
-0.00486366566555557
-0.01920885107721636
-0.01108137269090572
0.008897963449309335
-0.04006993224546312
-0.01971793346623573
-0.009788521131897722
-0.01585636395363121
0.002959941532383973
0.01787746065732667
-0.03058241594979673
-0.05510409086817819
0.0009050715042353737
0.002568485080282385
-0.01118663914750776
-0.02404323440756995
0.003896649336236327
-0.01895830989339822
0.0120389120880191
-0.02459394310741935
-0.03586452706256991
-0.02254501765420898
-0.01797184565092103
-0.01153220248014467
-0.004817253590231253
-0.02203242262377526
0.0128066603236035
0.01150387069313631
0.002750639350222449
-0.0218371050782618
-0.01982806739374393
-0.02030509236983162
-0.02423938609079547
-0.02616779718283798
-0.03571806412419596
-0.02024747394318031
-0.02310607966311293
-0.02441120669207369
-0.006913759099292539
-0.01130330315102633
-0.05615474808997387
-0.01850721451449569
0.03125278224920228
0.02107050838365978
-0.07316641923267543
-0.01764770387004842
-0.02295558998612322
-0.01831577835915435
-0.02417870410021059
-0.02429693554384788
-0.01859422099803053
-0.01809828592193833
-0.0194876537126654
-0.01236989908018717
-0.01548621876721899
-0.0125185279861262
0.002655949043576976
-0.01528447643756096
0.003977532521291398
-0.02414305726073381
0.01306901276069525
0.00178508592047686
-0.1129938592086483
-0.01999099925321287
0.01680563288588372
-0.03135768829936771
-0.01832473539475138
-0.01927461336405767
-0.02435489711689905
-0.01467652539424833
-0.02033126295102491
-0.02490449303503946
-0.02959785017193505
-0.02202705212372546
-0.01987768713429355
-0.04331815457134879
-0.05035523416000687
-0.02369346185002406
-0.001567900868078293
-0.009524208879454718
-0.005278760829406708
-0.01617695591806148
-0.005805453439540006
-0.01478902328062629
-0.03926132636941297
-0.01362481344048954
-0.008341782896701469
0.07516968432542336
-0.008446704749912957
-0.01121372866809602
-0.03396715763851588
-0.03590224646041799
-0.02467875823280995
-0.01901478477171305
-0.01385357385006678
-0.02540086746457991
-0.02612615348846566
-0.03202934560267473
0.0531610464257776
-0.04495735776390447
-0.04417770751321917
-0.0180597348178098
-0.03919641596644915
-0.02604167898253413
-0.01034369843538325
-0.04756178249292021
-0.04553597891066893
-0.02386930851347536
-0.00240857013424114
-0.04754956152875853
0.01766351830884593
0.02369722539252524
0.01845915412276635
0.02091646277974186
-0.03498950889244871
-0.03259707915314305
-0.005424649324755191
0.008088359386583891
0.01154502544494915
0.010232301084107
-0.002984705408635523
-0.04515539956493568
-0.04393218451268454
0.00833680446213746
0.002699569492921459
-0.05532607239318422
-0.04342665796850263
0.03614375544381843
0.03462007760213556
0.03524124503143193
0.001059896005287784
0.02182409555573858
-0.01524603546810039
0.05126230668974318
-0.01870520248958015
-0.05198169592611787
0.006920782486188523
-0.02002907550139044
-0.07454249862666307
-0.04494692926469553
-0.004251838919120278
-0.02090479261466208
-0.0223955133753996
0.1113646044286924
-0.01322916436229585
-0.002096819013221917
-0.002624923651613317
0.02210279754475192
-0.01271306723793172
-0.01280150548783397
0.0002314943618729153
0.003768020734165564
-0.000951979302215328
-0.01274500588985556
-0.01213022666904836
0.007195510548292928
-0.02628508959384809
-0.02222134273225477
-0.01725933428349201
-0.02433892469114336
-0.02558514870753506
-0.01903333823974372
-0.01527737078497192
-0.0207302960442951
-0.0172934835190244
-0.04507794194178916
0.03129749523089649
-0.03055899597544582
-0.01748639517432969
0.02025477870317552
-0.00729934343642823
0.0123727763518721
0.06898222768189866
-0.02159095923115549
0.04397095207349724
-0.01685566680072916
0.04279559739484028
0.07353236226565846
0.04267060432702335
0.02463715035377649
0.01741748429145567
-0.01170377698903468
0.02256370319741715
-0.01806783595562195
-0.03064536090095952
-0.0259207964755275
-0.02714733109979593
-0.01993875151679922
0.007348795126656323
-0.02904035091333784
0.01995646496974601
0.01416857350930079
-0.06906330446555005
0.004906190962964486
0.003652412705076114
-0.004460340558750936
-0.01949493526387674
-0.01789752174099947
-0.01742999063832925
-0.005515528995693315
-0.007880281216688623
-0.01718030270024543
-0.04058569994112849
-0.01926524390332805
-0.02194302164830005
-0.02496633692230162
0.003657973194490515
-0.0002273137312217708
-0.04562491644821408
0.001175188023950865
-0.02874906785336628
-0.02031258605437072
-0.02329386561423051
0.02730039941867729
-0.02079893996535651
0.03706498243247302
-0.02425303957753142
-0.03563843305929627
-0.02294369738651141
-0.0224500288261809
0.04653632101988765
-0.02597202040437519
-0.02169881338708798
0.05280650433459633
0.02063093774772096
0.02059565140409907
0.03084528307609481
-0.02118604240021554
-0.00158874429619908
-0.0164637152169337
-0.02318456655964876
0.05101460586317834
0.06271620700794907
0.01846196133211754
0.002066600805625956
-0.05809925035237293
-0.03093159114918319
-0.0502893938737875
-0.04279477822520156
-0.02746292056360886
0.01827437014776329
0.02218257551014647
0.02249738634559554
-0.0231196763604841
0.005126203249637143
0.03251919723965565
-0.007772392283412922
-0.002971241252446686
0.0114823340338958
-0.01032211337725142
0.01463924659224929
-0.02020830505503474
-0.0140001422572842
0.000888259505045807
0.02207472641242725
0.001047881768182696
-0.01814749105728027
-0.02451070988232338
0.06174451536563149
-0.004091780910759593
-0.01537932711214615
-0.005425339961508071
-0.1804717447616017
-0.005308648266774544
-0.002354780275017018
0.00287935130681382
-0.0240511292025673
-0.02128362951908006
-0.02426535201613049
-0.01244579806725648
-0.02051702728113547
0.04682886184216527
-0.009800585243286853
0.00043924638408078
0.007154658003140609
-0.01554014790351165
-0.0006759994706560923
-0.02337429341608913
-0.003691928806289574
-0.01627698805325668
-0.009658550466888492
0.005119884345297879
0.02268471124797568
-0.01123589479404939
-0.0006663927477994555
0.006297332382200369
-0.01819882265075777
-0.01804626247411231
-0.01729332435326946
-0.02801171509776697
0.07666546308198049
-0.00596379158017808
-0.01569659214102346
0.00604691741247887
-0.01931111304034038
-0.01620767215038807
-0.01720833140602183
-0.01140854551357092
0.06471492495664022
0.03774937523554262
-0.02001058361016393
-0.01293889764377144
0.05782474052355065
-0.01138228642698691
-0.02237585612450728
-0.02186194268642903
-0.012857972703136
0.02166625219182479
-0.03717428554050161
0.07937396122766095
-0.005648722317863334
-0.008423964102705872
-0.005472183206844688
-0.009191852832454016
-0.02832880749168382
-0.005991590571716528
-0.02512046638289333
-0.02535906514830099
0.03556089358222745
-0.1250682653636861
-0.007684296352566952
0.02503383124326229
-0.01152584067523077
-0.04551415216343176
0.01203544476098196
-0.005372185686482144
-0.01485690869207159
0.0006353695523132715
0.01848720734202191
-0.0221461827949656
0.04706675981875745
-0.01530953089840598