/*--------------------------------*- C++ -*----------------------------------*\
| =========                 |                                                 |
| \\      /  F ield         | OpenFOAM: The Open Source CFD Toolbox           |
|  \\    /   O peration     | Version:  v1906                                 |
|   \\  /    A nd           | Web:      www.OpenFOAM.com                      |
|    \\/     M anipulation  |                                                 |
\*---------------------------------------------------------------------------*/
FoamFile
{
    version     2.0;
    format      ascii;
    class       volVectorField;
    location    "0.1";
    object      vorticity;
}
// * * * * * * * * * * * * * * * * * * * * * * * * * * * * * * * * * * * * * //

dimensions      [0 0 -1 0 0 0 0];


internalField   nonuniform List<vector> 
8464
(
(0.005470233604675885 0.001128588945812399 0.004862136767338071)
(-0.003337249845578323 -0.001434642791628075 0.0001973538467694426)
(-0.003092478067417426 0.0008217857771742768 -0.001618025028039812)
(-1.973681474500752e-05 1.471141765449503e-05 3.052604811546422e-05)
(-0.003000420307712497 -0.000240529178286737 -0.006594597224923371)
(-0.003535741429683214 0.0008975735075064005 -0.003569421128382446)
(-0.004195618520289169 -0.003191439338098027 -0.002146565853340654)
(0.000343599031435464 0.0009374324406086263 -0.00277035917083493)
(0.003176352310980287 0.002533204724522694 -8.364911717122355e-05)
(-0.0005930443910002617 -0.003880009247978554 0.003687219015301806)
(0.001538749833209673 -0.0003152475542615694 -0.002040586598618695)
(0.002338722778871383 0.001377977448862447 0.005416944398500752)
(0.0001135272813254693 2.979817758866143e-05 0.0001194289953599791)
(-0.0001456092832396196 0.001425813944871615 -0.0001775815004750425)
(-1.990603969448214e-05 -2.798982176280588e-05 -8.136181227966535e-05)
(0.006359760498565126 0.0005093632819753186 -0.002529846518957571)
(0.001347981121468628 -0.000490983169407858 0.0004891866820812887)
(-0.001416150860681203 0.0001647351741422718 1.120939101821182e-05)
(0.0002211679471876352 0.0003232950290674498 0.000631530155137907)
(0.001160444581504843 -0.0001602037267427808 0.004523342953032567)
(7.787742363962456e-06 -5.056616257673019e-06 4.743940137907047e-06)
(0.001418101876765406 -0.003942785147274714 -0.0005372093230382761)
(-0.002626789490744706 -0.0003871103646361754 -0.0003842887641839665)
(7.546744718612818e-05 -1.671545461914377e-05 -1.874506051918409e-05)
(0.001273115563202326 -0.01130100110603019 -0.009763089838293767)
(0.006026294268133772 0.002830452142456114 -0.0004933839744067929)
(0.004716508090358435 -0.007486886648367321 0.001705405899556477)
(0.003405935160076269 -0.0001253105960885882 0.0003059286639723589)
(-1.021899445829312e-05 -7.336570986979393e-06 1.483564206047511e-05)
(0.003852579860117123 -0.002704678175889788 -0.0002338223484160728)
(0.001686403362761839 -0.002565950717220437 0.002106957157712419)
(-0.01244068753984327 -0.001760802289201265 -0.01114851859995372)
(-0.004236683098829694 -0.001826566121568497 -0.01420097425048468)
(7.10997694754484e-06 -1.90351550598806e-05 -2.938924853055877e-05)
(0.004317549957133219 0.009107412706913958 0.002026188437896544)
(0.001135415127879785 -0.0008953073349831825 0.0005424884707460961)
(-0.002062124631187468 0.00616536653608107 -0.0012768589729611)
(-4.607371132490223e-05 8.867103585804232e-05 -1.087430488713037e-05)
(0.00765079640735393 -0.001534580144525953 0.005375826185973724)
(0.002890663644238459 0.009126439693742454 0.007773799551218487)
(0.002798726786582517 -0.0001607709842547485 0.003261693602291723)
(-0.01276236613280767 0.002597216477804367 0.0003115369238801497)
(-4.635122281331798e-05 7.893011089899393e-05 -0.002816529538927789)
(-0.001544703036089732 -0.001005266065568909 0.001918414819133609)
(-0.002046892720931195 0.0002317822316303943 -0.0001955371827202015)
(-0.003977792984420123 -0.003884670677152377 -0.009923641729431998)
(-0.0008242329183461026 -0.0009174229606893388 0.003356682007691634)
(-0.0009167785835108762 -0.001120924491353263 0.001909312687864543)
(-0.0007991007501791272 0.002281364307191233 0.004657934770686904)
(0.001192469643276488 0.0009222962529617739 -0.003519336714861846)
(-0.000548926427638257 -0.002482159737097405 -0.0004285772756320672)
(0.0006545047554843476 0.0013656750363301 9.767694657338271e-05)
(0.0007866523139051328 -0.002199915218201528 -0.001180394009923326)
(-1.120027488499408e-05 1.618940389787152e-05 7.59734914424586e-05)
(-0.004231479230721068 -0.000782798792301153 0.0006612245030780135)
(0.001951093253218642 -0.001518249719453541 -0.0001028971969418728)
(-0.0007593445674074851 -0.003125929159811625 0.0009974800641786943)
(0.004206411706957597 0.002108937854838262 0.0007817294569305137)
(-0.002566903019247344 -0.001422864121637961 -0.001004369035779716)
(0.001506663425218983 0.0002076623979033216 -0.0005330522516331272)
(0.001837882499684495 -0.000363761375208931 0.001843878235981902)
(0.0008119932305655519 0.004173717669453832 -0.00339394230474727)
(-0.001749443256359449 0.0005004553427652911 -2.558053830260587e-05)
(-0.005031454643837318 0.001883445846075091 0.001037955538111534)
(-0.03750973503337299 0.01213440633747165 0.01189052951331076)
(0.0005562320342729709 0.000163844301962799 0.00341008328080818)
(-0.0009310732712943546 -0.0003065679114040532 -0.0002002028990384417)
(-1.206207009299638e-06 -1.334256622189459e-05 -1.205476252252492e-05)
(-0.004855183897463657 -0.0002519512606843377 -0.0006260252247427874)
(-4.70541655516877e-06 -1.456899994086934e-05 8.92914269507739e-07)
(-0.0001953861083179917 -5.043530765954285e-06 0.0001250100017034243)
(0.003381697747225003 0.003008645152245327 -0.005834587767337104)
(-0.003132095160824255 0.006232937929011772 -0.003012187191305559)
(0.0003185109285106964 -0.0001298099808604157 0.001698925418142182)
(0.0009680054960816081 0.0003578082699475398 0.001997269076776357)
(-0.01177677525153021 0.007050577996409364 -0.01252504744870057)
(4.395853135033674e-05 -0.0004604806644486077 -0.0002578685238175831)
(0.0010236293647948 0.001193593177198942 0.001483710256224925)
(-0.0002339237275533774 -0.001135800447000494 0.0004382013193189261)
(0.00138117165659461 -0.001652346923266331 -0.02461057757332371)
(-0.001820728721459571 0.001138478066479896 0.001211791634625396)
(-0.003770644187104542 -0.0001741029226802556 0.0003272294544887416)
(-0.002656128585514257 0.00326091946506453 -0.0001856616649036528)
(0.0001628254628125496 0.0001772775658540733 -2.821167078357057e-05)
(0.003442966373703456 0.0004499963223853293 -0.001245953833170036)
(-0.002620743390301079 0.0007768585915509599 0.0006161877211436908)
(-6.139231781500463e-05 4.17090877772318e-06 -6.490460643093359e-07)
(0.001175213455722205 -0.001121955522447284 -0.002586210928884017)
(0.0001855063746365668 0.001269838334122789 -0.000570186786516657)
(0.005660581044292164 -0.00125015598920717 0.003295118260679026)
(-0.001660640024413464 0.0006116871514241345 0.006809580663837821)
(0.06566317742985078 0.04427312616996469 0.06010405387436045)
(0.005816267602287666 0.001460172175706645 -0.002916496104534899)
(-0.0004753014414564392 -0.0003570992369704792 -0.0001490236780824131)
(-4.909487237534807e-06 4.121976046600222e-06 -1.981722103970721e-06)
(0.0002054603946753866 -0.0002999468427288315 9.269361768192122e-05)
(0.003889994183385466 -0.003933182942132464 -0.001298664461010326)
(0.0007784199455226498 0.0002053324477749489 -0.002407442443964024)
(0.0004874322849987007 -0.0005668140933992557 8.464621981396945e-05)
(-2.509107809061796e-05 -5.980699347895049e-05 5.000341162862741e-05)
(-0.002473306457670171 9.104864806694516e-05 -0.002520994271399575)
(0.005335287731909177 0.01014720268122071 -0.005431647227127216)
(0.005140814365369683 -0.003208848352727177 0.001175636289410999)
(0.003625967026704357 -0.00163668253704272 0.004250527327364905)
(-0.0007735934681299446 -0.001344777333329767 0.001526674519998504)
(0.001089790233176806 -0.001236500362868863 -0.000729992654728321)
(0.001182320427703862 -0.0008584623786917035 -0.002998625867071494)
(0.0174386685533272 -0.02427552242537534 -0.01425038467887183)
(0.003988923101048081 0.001141532483763801 -0.000611438608896299)
(-0.002202774582713178 -0.00115514319284468 -0.001522986853348891)
(-7.154601003893104e-07 5.248588477795058e-06 -3.377179056283758e-06)
(-0.001244158212684401 0.003569468575395402 0.00259277220671641)
(0.0004413438028964264 -0.003066622454033062 0.0004618496223031711)
(0.001356573221009527 0.003862957631321899 -0.01125170330863535)
(0.003771999322182913 0.000629838836553721 -0.006463689053956998)
(-0.000272427927907551 -1.874481765205949e-05 0.0002409631020111113)
(-0.00117807132902465 -0.000142695827845994 0.0007330424030451469)
(0.005568463699042312 -0.0008022407754699613 0.0001919445097587629)
(0.001123337538260805 -0.0001852029032348398 -0.001651550476611512)
(0.0001486751386687237 0.0046349072962182 0.006038339173635459)
(-0.002171052224445706 0.0005276626803127874 0.00159982120794006)
(0.0004703853138607899 0.001696433443072537 0.0005358330894630627)
(-0.001457135696987706 0.000419690587010282 0.002096489971998095)
(3.235722613845857e-05 2.031637235070753e-05 -2.829084228676365e-05)
(-0.004376445584659229 0.01401402167514152 0.01822674834937784)
(0.00332016888865023 -0.001848301681073119 -0.002521095907024607)
(-0.003112166599436006 -0.001224838661107532 -0.001360176685753797)
(-0.0004734798317737537 -0.0007060834704764569 -0.0006696930711880601)
(-0.0004888230609204777 -0.001448981200114304 -0.002364705457942731)
(-0.0007224460574720749 -0.0004051758459053057 -0.004087238461311103)
(0.0008475758397467443 0.001932940771349349 -0.003560949361685159)
(-2.694472602956511e-05 -2.395576305899595e-05 5.609488586780086e-05)
(2.626657818143592e-05 0.0001260007565856577 -0.0001319258888200952)
(-1.062334749654317e-05 0.002293882607231078 -0.001136800252545648)
(-8.583563951071892e-05 4.337649839296598e-05 6.377920400895681e-06)
(9.263659535913075e-06 9.469054023565166e-06 8.264156468858446e-06)
(0.009889373460432655 0.0003632179625533155 0.00108442564347034)
(0.0004547117924884451 -0.0003260064032683012 -0.0005503054104284018)
(-0.002586729631232217 0.003606514227455098 -0.002742122821752987)
(-0.002614054355502184 -0.003461923218266453 -0.0006340890489904302)
(0.004200576342077184 4.765091206842967e-05 -0.001345216056302917)
(-0.0003932309038965362 -0.004369568918192269 -0.002866582716973587)
(0.003835920780736397 0.005048581385795141 -0.01062453556093182)
(9.325383725181043e-05 -1.21625627420443e-05 -0.0001239680351728794)
(0.001837943152372058 0.0007352859266762687 -9.202506829591333e-05)
(0.0007561783674867469 -0.004459244247477648 -0.002261872509221926)
(0.0009707748498572612 0.0004586937184579276 0.0007450483450494391)
(-0.001510241494366441 0.000261792123558909 6.907811949016047e-05)
(0.004171890080853398 0.0001533478708180156 -9.540108597940432e-05)
(0.0009948276764207677 -0.0009526622293506374 0.0008489349970575884)
(-9.128052214029181e-05 -6.321426225569854e-05 3.830003127091447e-07)
(-0.002944369354342793 0.0007042454170280918 -0.0009312370896153769)
(0.008167937676998735 0.0004953254728019244 0.0005939324240661304)
(-0.002120506512530266 -0.0001681111613181492 0.001351498693803914)
(1.466997386470579e-05 7.783177717098373e-06 1.044067821648766e-05)
(0.0008169871051904205 -0.001583954641569972 0.004467368406430042)
(1.016169114188815e-06 2.276429423712388e-05 -1.837605354445628e-05)
(-0.003475258771477874 -0.0006492412134989187 -0.005453435044604826)
(-0.002049428066807814 -0.001247678376424274 0.002597390336049042)
(0.00301135418082315 0.002100042608512826 0.001401289183274937)
(-0.0006451987498832602 0.001216075332894723 -0.0005842999564218351)
(0.003479444593568815 -0.001521218211428367 -0.0003904042879297734)
(-0.001967683764151646 0.0002468335532903631 -0.001856415193121437)
(0.002175532727157187 0.002151321068818242 0.005383089802395854)
(0.0009697158035100511 0.000588648080508836 -0.000271266963282532)
(-0.0005036751423845628 0.0007576522747247122 -0.001373793852700684)
(-0.0007307955497788954 -0.001277741124718202 -0.0004136384077963521)
(0.002444894926803083 0.003425069986282668 -0.004062482514594874)
(-0.0004249727405778048 0.001780426281532836 0.003829985278322103)
(3.887459978286353e-06 7.059558424124793e-06 -4.605747181542024e-05)
(-2.415939452895248e-05 -6.122338921445799e-06 0.0001031317774872345)
(-9.581799478271084e-05 -0.005690047317663118 -0.002551339622413895)
(-0.0001050178793613064 -1.877883738842177e-05 3.868152022237527e-06)
(0.002846760452394939 -0.001155442492018841 -0.0008257069942672918)
(-0.003764546188471587 0.007272248365153479 0.00374823901742909)
(0.0001112900316601513 0.001747161033461122 0.001105312597798437)
(0.0038626591472994 -0.001192972420445565 -0.0004851821922311836)
(-0.00287402974405275 -0.001210911922785527 -0.002789764669931862)
(2.361182327067551e-05 -4.664003323234789e-05 3.570091372998455e-05)
(-4.299919585373427e-06 -2.512503512861128e-06 3.723234942102547e-06)
(0.001437647153972398 0.0005268196490772716 -0.003063057769477474)
(0.003094229405941841 0.0009590934338906017 -0.01142300371690753)
(0.0001315001517485951 -0.001568648903536801 -0.004433976041320159)
(-0.003242248249958809 0.001044115683008816 0.0006485395152120534)
(-0.001325098788461342 -0.001852668618862485 -0.0002071995764003521)
(-5.94987339419153e-05 0.001279366184326292 -0.0009746127830680946)
(0.00116162665196199 1.792905352976479e-06 -0.004909155053286512)
(-0.000947275272882914 0.001140118797534285 -0.0001502225269595075)
(0.009656440206606004 -0.002538661865354271 0.0007390906053599037)
(0.0001102521283808486 1.334150227382638e-05 -1.973884371124641e-05)
(0.01248272358762043 0.003514958180095729 -0.007556023467224397)
(-4.292395068085177e-05 -4.856709666015821e-06 -4.134306543801658e-05)
(0.0007105020955907263 -0.0003107683104288637 -0.001465545179366318)
(0.003836203946901899 -0.002258456169454854 0.004388564076381783)
(-6.296317844783818e-05 -0.0004429604300929682 0.001817289065292604)
(-0.01083960324919224 0.003339078811025875 0.003610476841141371)
(0.0001857276196222523 -9.477529963383485e-06 0.0004079182706227119)
(-0.003427950563316384 -0.0006317209917515948 0.005690240530341929)
(-0.0004345665327313522 9.455684522342443e-05 0.001571556178813591)
(-0.001191054038945156 -0.002380665289118544 -4.303877848629302e-05)
(7.613797820757679e-06 5.896403490502376e-06 -3.102535825072137e-07)
(-0.002054993910420232 0.003040762328633809 -0.005912814045971446)
(0.0009731621603988351 -0.001781136522721219 -7.654061067535896e-05)
(0.003148099721077371 0.001222702478764212 0.002911907970566845)
(-0.001140563725687151 0.0003300980560676248 0.0004748697546602705)
(-0.001369974046957425 0.01746694985624686 0.03569620554142947)
(-0.003946906778789907 0.0001931878962287436 -0.004848270909162481)
(-0.00216232881035723 -0.0008803624784057252 0.002248215113910214)
(-7.876075618381713e-06 1.627239116034119e-05 0.0001775698392455634)
(-0.001463834195305575 -0.0034511082886444 0.004286290539330113)
(-0.003844845986742648 -0.0005824456404990025 0.0001249027688776019)
(9.23761546437245e-05 0.0003081910680293764 0.001034766006113367)
(0.001136958576576903 0.002015437512041118 0.0007060925461589962)
(-0.000618835410257581 -0.0001032312244040566 -0.0003084100082662069)
(-0.002239116986866678 -0.001452468034260131 -0.0003914563256584664)
(-0.001768055078068389 0.000350970655439613 0.001092505318521705)
(-0.003505660035061514 -0.0006993354077434086 -0.004894841271359325)
(0.0008391271380446953 -1.84000856371844e-05 0.00038663653902145)
(0.001044706388046934 0.001884940862929363 0.002076617377640626)
(0.000423852809225973 -0.000330853353159329 -0.0004947955156216336)
(0.002022089525333537 -0.0003894390785451201 0.0001358704718592771)
(-0.0008320027045326527 -0.0003249621916081765 -0.001259022217356493)
(-0.0002309766735918623 -0.0003057911064701036 -0.0001009268063269535)
(-0.006355869778738473 -0.005666868350261266 -0.007881668310917989)
(-0.006655653068264066 -0.00208901652144839 -0.002495792575242338)
(0.001353557846920136 4.694653877867865e-05 0.0003930928607946591)
(-0.0002041461015095978 -0.0002557466759428555 1.655803445658923e-05)
(3.141539376146937e-06 -1.410139007998209e-06 -8.46064769401793e-06)
(-0.004753038759165416 -0.003461529716773703 8.301366765112519e-05)
(-0.001816048684841264 -0.002091322192084753 -0.001689893196973822)
(-0.001137024065586745 -0.007300146816221187 -0.01009064331116217)
(-0.009885388060122778 0.0009925199875447978 -0.0006173492336551891)
(2.180403194998541e-05 1.100229572664214e-05 -1.422846133271833e-05)
(2.056893538831902e-05 -8.652111888119472e-05 0.0002286787445302189)
(0.00075944764070992 -0.0004539403983531701 -0.003871353467796242)
(-0.0009163774869845939 -0.001601119094597518 0.002862979715800345)
(-0.004701345241530237 -0.002977229171334998 -0.001826852202523085)
(-0.002395932447023812 0.002577832054900597 -0.000529505495699419)
(-0.006275949619160053 0.02087171144665026 0.008081331289662451)
(-0.001361606424322757 0.001722690705393056 0.002140005834869785)
(0.001946036189691697 0.002307109517937139 0.001432876267511681)
(-0.001533212183470177 -0.0004671885668574037 -0.001254617424017019)
(0.002571495762188652 0.003584641699613353 0.001386950534243334)
(-0.0008014229257359971 -0.0003054499283076612 0.00116836246439934)
(-0.001791148690730199 0.002013515173700423 0.004234310786294446)
(0.001872863171515968 -0.001840475952954743 0.0003310429335809501)
(-0.001255963839973004 -0.0006560173796880001 0.003534614918969737)
(0.001997732148908548 -0.00081196790514927 -0.0007033153984707307)
(0.001037822942291432 0.0003033370358488379 -0.0008318795886105091)
(0.0076201565084369 0.009319194289345994 -0.01340069770451404)
(-0.0007538416243443951 -0.003900527814337201 0.0009426247851704857)
(-0.0007063604833327352 9.679225680091436e-06 -0.0004352662630282509)
(-0.001956459073304973 -0.000803528567253748 0.006093337472146456)
(-0.004563880414738402 0.002707417480163301 -0.001313634949783973)
(-8.190556531054159e-06 -8.697069348905228e-05 -1.184814752319189e-05)
(1.111086300815607e-05 -9.082673024135695e-06 -0.0002153550798354738)
(-1.931317217839995e-06 7.961826012152902e-06 -2.348810345356788e-06)
(0.001162968416682107 0.0006061398602544361 -0.001991231716482872)
(-0.0001065815709187809 -0.0004898935587254743 0.0005127711870513365)
(-0.002212525900284255 -0.0008022724214980394 -0.0003290135142981594)
(-0.001971314300323579 -0.0001931351871902902 -0.0008804675426820288)
(-0.004505138807398055 -0.007188065608231192 0.0001104271407457546)
(-0.001945053301595088 -0.0006533971778251242 -0.0001380455006728652)
(0.00118501520535822 -0.000861893350851241 0.000503923096833236)
(-0.002610548058408356 0.000950768369393871 0.0003281342937508482)
(-0.0007195384204749939 0.0002498326763152403 0.0002125117285533875)
(8.673332955390546e-06 -4.457927131355868e-06 -6.282281390503814e-05)
(0.003576881088751446 0.001121770779380795 -0.007969834476336712)
(-0.001941555376010608 -0.001275950089582509 0.003635695496503675)
(0.001945242060386471 -0.0007999778893566869 0.002282673047304886)
(0.01471722174497261 0.006416341019937899 -0.0111835899241669)
(-3.511501171041845e-06 1.898871200511521e-05 -9.085579787241622e-06)
(-0.002436820653664352 0.005863912758977718 0.001097129102529919)
(-0.003842719221198785 -0.0001198879640745883 0.001175986344333053)
(0.004309283549676246 0.001135181449111415 0.0006544837796961003)
(0.0006993701392422863 0.0001192678725212273 -5.985374759966475e-05)
(4.333647835961473e-05 0.0001316452178836211 0.0001184983319698648)
(0.001311283223343898 -0.003341191723954366 -0.006646664651025555)
(2.484846595623819e-06 -9.070214107784883e-06 -1.641194069074722e-06)
(-0.0007910208699510141 0.0007330590167199328 -0.002642617032143825)
(0.001703944570393492 0.002574139421385358 -0.0002157690983977203)
(-0.001512675286212696 7.122664875596415e-05 0.0001203207357390576)
(7.561684625399728e-06 -1.160873874736698e-05 -1.19994603414808e-05)
(-0.0004834959113482256 0.00157831471521675 -0.001007741190702923)
(-0.002827325548090576 -0.0006023553959281463 -0.004306691285094459)
(0.0004213524727111163 -0.003107102087720164 -0.003709064931645955)
(0.0001972096897471157 -1.387199165950426e-05 0.0001919737147395061)
(0.03776475862932953 0.1363800545214051 -0.09965673430797176)
(-0.005339065156719203 0.004264652033352475 -0.003883835105567304)
(-0.0002024879002659253 0.0002857377595454083 0.001480725505149432)
(-0.000232071128290313 -0.0002782745255046594 -0.004922270426468738)
(-0.0002518546066354338 -0.0002822420219012236 -0.0004182332796328704)
(3.089480917556006e-05 -6.605930341705592e-05 4.92426415666156e-06)
(-9.643431080693256e-06 -6.544373899545537e-05 -0.0001144284655402442)
(3.364158929208549e-05 -0.0002099077141417357 -1.362021809689195e-05)
(0.0004576070009054896 -0.0009117320814382907 -0.0001014788804853969)
(-0.003466414405005714 0.002552139743454993 0.0007436683264960576)
(-1.193815009219898e-05 4.852586770408571e-06 -2.017928370189351e-07)
(-0.0001764243295759267 -0.0001021494408907439 -0.0001793588317255917)
(0.0004328316751771823 0.0008985428199986434 -0.0005511217365265149)
(-0.003506963719391175 0.0004936058864618266 -0.004633108626901723)
(-0.001745134628300062 1.150573799974712e-05 -0.01788903000374178)
(-0.002423245801699937 -0.0007732572256032748 -0.003707996368632513)
(-0.005945305603366023 -0.007603971292481458 -0.0105062392248499)
(0.002061954067871565 0.002098455976939557 -0.0003111840575400454)
(0.001240595417229712 0.004539040424015975 0.002399399020891403)
(-0.0006582009009764475 -0.0004626613793653481 1.148652512466056e-05)
(-0.01113406717151239 0.0008578255378744194 0.0006768899468435994)
(-0.001025028650509955 0.0003075486319340352 0.002926877671117962)
(-0.004171621702237195 -0.003637843536355352 -0.001290887975568427)
(-0.001511744862483032 -0.0002632713918933868 0.00160885510924674)
(-0.0003295731827821905 -0.0002893288567893402 -0.001496300852978761)
(-0.000163145036519517 -0.0001957250713294784 6.377031658110226e-06)
(0.002494330107441623 -0.0001105068713185916 0.0002216045374987736)
(-0.006472718957326139 0.0003524652229081107 0.001930575629916591)
(-0.003900076029962698 0.001849497877671885 0.000476066219749282)
(0.001151148668091572 8.562042098788974e-05 -0.0002075850052390684)
(-0.004079868445720518 -0.002496857101983893 -0.002274234551380171)
(0.006705117032636748 0.0006042836739878377 0.005439226767533098)
(7.009824163346961e-07 2.325841807101109e-06 3.989909536672657e-06)
(-0.00136790783693434 1.583764125233594e-05 0.002725932786216538)
(-0.003264877928082728 -0.001212648474366267 -0.0001447556986252335)
(0.0003077963513779362 0.0001611927405672454 -0.0007233522964810512)
(0.005097713897606352 1.677862202158838e-05 -0.01434993490284436)
(-0.002514929254160972 -0.001269971607933167 -0.001716081717608205)
(0.004926917606468913 0.0003299714091300834 0.0021656783967484)
(-9.924100501329785e-05 -0.0001196860048908682 -3.686513441995332e-06)
(-0.001375473729161355 -2.892072398978976e-05 0.001552755891106223)
(-0.0009799615521972689 0.001678159494936549 -0.001330137088727623)
(-0.0003590862821800959 0.0004434257596041143 0.0006472617396252492)
(-0.01580949902531512 -0.004374663298192793 0.002261313968868282)
(-7.396748720816379e-06 3.097379583808387e-06 0.0004017811505360862)
(-0.002523315877973688 0.0003379889143766997 -0.0002109659094993669)
(0.000549585497194238 -0.0001291975554988485 -0.0005619769054842141)
(0.00287562192751361 -0.001110334213391457 -0.0008582174166225148)
(0.001129271848989736 0.001201593251282549 0.0007687731296212624)
(0.0003656733584622654 0.001008987987642447 0.00314976348964513)
(0.001371541279486422 0.0004593444160428646 -0.0009134370093427269)
(-1.282307313052918e-05 0.0003656625818231771 -0.0004830483475269272)
(0.005402771049898652 0.001316456155480511 0.002102412730189488)
(-0.001059538620661261 -0.0003017366703611993 -0.0006790388913109351)
(-0.002094033518455427 -0.0003492425098803315 0.0008285125080382157)
(8.200943623698964e-07 -1.367796826857188e-07 -4.579830086487992e-06)
(-0.0001772285772334163 -1.585510689163106e-05 0.0001191519991915919)
(-0.0228757686354376 0.01013581408329842 0.03180244748119321)
(-7.370053817616351e-06 -6.344613504244077e-06 -6.819284260543669e-06)
(-0.003944005664590759 -0.0003394112918472522 -0.004412680612756723)
(-0.002033222995355669 0.002719535231392799 0.004024535072477724)
(-9.682183207136054e-05 -6.72787017394354e-06 -9.798030899928941e-05)
(0.0003670667512825594 -0.003312117669353632 -0.00228954448913408)
(-0.002344101258125059 -0.001022370772964411 -0.003629207564320734)
(-0.002503687884964872 0.0008999769102709925 0.0008201872030400041)
(1.572436718221568e-06 6.714105020032283e-07 -2.348175962380392e-06)
(-0.003286886054386123 -0.002392330167164638 -0.00251119216369242)
(0.0003911347682962622 0.0001780788434025981 0.0001258504991123509)
(0.00371431242908344 0.0003003777413792166 -0.0007939842227365674)
(-0.0006545606724451426 0.00220215921072984 0.004253878730220691)
(0.0003100519689692835 0.0006857282306012326 -0.0003509786572732336)
(6.926876921832842e-06 1.391640153828567e-06 1.739895076094528e-06)
(1.497690212960088e-05 -9.186719032457144e-06 1.809623448628472e-06)
(0.002763303236002991 0.0006395901030783385 0.004670515459292682)
(-5.87046925673909e-05 3.901656304065553e-05 -4.229817110620285e-06)
(-0.002024035987143429 0.00185814880012664 0.001015111925418709)
(-0.0008661739349674067 0.001555289307848042 -0.0001430772311792759)
(8.255822242847305e-06 6.326277354340631e-06 6.943234796609469e-06)
(0.0002498204626588342 0.000145552697666668 -6.916910420244854e-05)
(5.022923033096309e-05 -1.054082242598028e-05 -0.0005128874478168362)
(-0.0003344060003927444 -0.0002337770007772085 -0.0001820307565289534)
(-0.00429520465613061 0.001617936933703849 -0.0004475218332561229)
(1.085257598071824e-05 -7.09231233864381e-05 3.8250855650056e-05)
(-0.0007414358728150809 -0.0004981814306878172 0.00285841921385138)
(0.004180535231516749 0.0005440540199472369 -0.004119692535642439)
(-0.001038652930637277 -0.0008015912968750611 -0.008677986402330624)
(-0.0001621268369890881 0.0006764352897350787 0.0008950223253422879)
(-3.233251761864315e-05 -5.929844931684869e-05 7.750559021830486e-05)
(-0.001991378980556683 7.139972809064562e-05 -0.003605272058140244)
(0.003672402037065466 -0.0001954850814987136 -0.01123738587893897)
(-0.0004182883506667904 -0.0004496655603852306 0.0006869762562392338)
(0.004698641088705794 -0.0007209403682370498 -0.0009800626911341378)
(1.344477476765454e-05 2.135965876629728e-05 -8.703872779647255e-06)
(-2.175409061413529e-05 0.0001930483936273027 -0.0001773305826697663)
(3.430212930186179e-05 -5.703527218833192e-05 -5.77399236446663e-05)
(0.004636024045319802 -0.003169484517592872 0.007291900437176223)
(-0.0005293804246270547 0.002489245193849761 -0.002985674809763338)
(-0.001278219286247765 -0.0007453682665164894 0.001219626045209089)
(-0.004636783653010489 0.002091840186155004 0.002955182984570161)
(-8.065287443115182e-05 0.000277382649719791 -0.000524922934249839)
(0.001170965004190217 0.0005876543728264478 -0.009211298689733017)
(-0.0007805512419498352 0.002752504187204004 0.001967786716352143)
(-0.001625843283337161 0.0001416933756601465 -0.001083168516045044)
(3.283745233785804e-05 -4.334201478251822e-05 2.337254986584445e-06)
(0.00126421843712226 0.001516740975390028 -0.00062141334305797)
(-0.0003255146731039192 -0.0006946686609940549 -0.004183567667016309)
(2.1508017816015e-06 5.492349241532149e-06 3.084464761402059e-07)
(-1.216171989747786e-05 -1.140713075738811e-05 -1.863261133958295e-07)
(-0.0002780752529596206 -0.0003356231920628483 -0.0006444053710480504)
(-3.754562059440621e-06 0.0003275469434268649 0.0005537335331181252)
(0.006387453783313634 0.0001654621317752014 -0.01267219390018228)
(0.002992031214751169 0.0007995016184674539 -0.002175925549455706)
(0.001202209228241945 0.003980067874271306 0.008102308154293714)
(0.00411797555923093 0.002164284299306472 -0.003503814589268227)
(0.000451108785242832 -0.0002558076084103175 0.0002956470716064097)
(0.0001750339456895778 -0.0008531970112291387 0.0002761178841709929)
(1.775371871095104e-05 -0.0005394719352370297 0.0006127950738248729)
(-2.398021602785074e-05 3.453227333354458e-05 5.482487062261581e-05)
(-0.00158645012946786 0.0002765035947507427 0.001674337288390474)
(-1.34192377213614e-06 -2.276314874385999e-06 3.003700848058221e-06)
(-0.001206241740267984 0.00261969012543151 -0.004441733263063841)
(0.002629227659993573 -0.001423085016585351 0.0001446026790331833)
(-0.005049455279025277 -0.003510561503238303 9.31067432225234e-05)
(-0.001625002403738758 -0.0001394405282367788 0.001415364942084173)
(-0.001897238104498221 -0.0003595580407256171 0.001319527220009276)
(0.002493162361964488 0.00146792244848083 0.001526525888308093)
(-1.320051208178398e-06 8.197178643587274e-07 -3.99910629828418e-06)
(-0.0009914719058728889 0.001116628565298091 0.001790991682703151)
(0.0006522873051168435 0.0003067905036589351 -0.000133392735613013)
(0.0001601216834452559 -0.000210819730527928 -8.902130215264045e-05)
(-0.003462149284722577 0.002731564544506441 -0.0002410710966800072)
(0.0001927682431407064 0.00051564466429434 -0.003869084241322014)
(-0.003388899481837309 -0.001649521096299291 -0.005563663195466281)
(-0.0006495168619128104 0.004145558712878802 0.001516522294791419)
(-6.002508909080375e-05 0.001149668350979875 -0.001437209136504892)
(-1.736838725537176e-05 2.770344892672055e-06 -6.190786034326322e-06)
(-0.1113146687942476 -0.01880032190867002 -0.13210906530606)
(8.223075108904022e-05 0.001152061782896349 -0.001348764048742503)
(-0.0001767131505935174 0.0002050361213418531 -0.000431360477542334)
(-0.001023491346745274 0.0003494107953010634 0.00255258737647891)
(0.003468444621517418 -0.0008285552647245111 -0.0005080078746909269)
(-0.0001094854045888751 0.002920331772554171 -0.008213240934810866)
(0.001175016855632435 0.0003889644356498563 0.0002451455018224834)