/*--------------------------------*- C++ -*----------------------------------*\
| =========                 |                                                 |
| \\      /  F ield         | OpenFOAM: The Open Source CFD Toolbox           |
|  \\    /   O peration     | Version:  v1906                                 |
|   \\  /    A nd           | Web:      www.OpenFOAM.com                      |
|    \\/     M anipulation  |                                                 |
\*---------------------------------------------------------------------------*/
FoamFile
{
    version     2.0;
    format      ascii;
    class       volScalarField;
    location    "1.9";
    object      p;
}
// * * * * * * * * * * * * * * * * * * * * * * * * * * * * * * * * * * * * * //

dimensions      [0 2 -2 0 0 0 0];


internalField   nonuniform List<scalar> 
19632
(
0.2181008035295151
0.05885380199260336
0.07886037099654175
0.04757003193380832
0.04063569951295188
0.100384454716427
0.08484043690267298
0.1442126488143908
0.1364268265175221
0.1109352604369485
0.1135033514920578
0.1097461540048724
0.1502890050658011
0.05273563701916768
0.06897481384297059
0.09396884348670542
0.06488228827026565
0.07591876192766697
0.04956749901425839
0.118007965080605
0.1614095667673444
0.1954393666736391
0.08967233692745173
0.07859276765185373
0.1377164246232984
0.1433054945260688
0.1818896639942982
0.05269109127772445
0.04314541392559555
0.02158778418037605
0.07693873828525913
0.05323758222882224
0.07723226119606741
0.08793022652906733
0.06767241174005996
0.04840441085955985
0.120192751177713
0.07495993183298752
0.1635988449281445
0.06093408641952779
0.0770296030141927
0.1764791905238613
0.1051471964169804
0.06689309045912918
0.04507390528525485
0.2371352102459962
0.09746097772015988
0.05771539189494618
0.02794096260638928
0.08272549096349363
0.1932174350394828
0.2169726140540679
0.03572951859968883
0.240253936485741
0.06467572216647327
-0.1415312537439607
0.1277125229063084
0.1887258910404316
0.1015216538856059
0.05650845817568181
0.03751266947545174
0.02433382071236335
0.0880474049107467
0.06329966070042178
-0.02136170966580585
0.02580733036371964
0.07346027857859176
0.04445366180098585
0.1316401649691823
0.07967159305342712
0.05000481170628702
0.1790355656244855
0.2589868320546069
0.1619944405152335
0.182226118784036
0.1847243254876316
0.1151665189708939
-0.1950213270322765
0.09339613906008799
0.08333934312092754
0.3074457269150426
0.01737666996402273
0.1426005999300803
0.07418176072340854
0.1545827752216172
0.1601877402467924
0.06667597996188131
0.2857511218703332
0.2859830948862531
0.09886727049518802
0.1363435553552357
0.1520391303471402
0.1496591666777087
0.05998349410014588
0.1369524167400154
0.1405011429185512
0.09072320591565754
0.08251497240153183
0.312309452023767
0.1042955876727381
0.02936330564746926
0.03296518682777733
0.03788777219502542
0.04623564481483523
0.09188221303793889
0.056212055843547
0.05435604306533719
0.1610953399426232
0.0857085770600807
0.09069665888175094
0.1629084047061423
0.09907554171739238
0.06362358179561227
0.1234397154602956
0.08530267735965043
0.1786218879220129
0.1296127616128668
0.116357343820171
0.09802451862098567
0.1772116122586307
0.2049021329849798
0.1732615075807749
0.06056719476798825
0.09125616176103475
0.0933858072287196
0.0908616123144545
0.197463322799728
0.1279301209368007
0.001984194882134559
0.2809183326136457
0.2609740364463417
0.03882922760143805
0.09275740859794586
0.1416363018719118
0.3058438446071036
0.02486973881126689
0.07399564395629887
0.2476411414317073
0.1004516843157466
0.191572450040269
0.03222882713502748
0.2179376399924765
0.08688879513131283
0.2212984661594835
0.02773165489401612
0.1786444271061912
0.07369552824844219
0.09804723761509819
0.06197840549529324
0.1669945442779518
0.0801015982636151
-0.0607884939655011
0.05516233881115844
0.06413506158221532
0.1626576589047928
0.1023431951520034
0.289615505211988
0.1335382413359921
0.2367577903171715
0.08643794533517736
0.1073335465338149
0.1227991202207541
0.1133850645689024
0.1628267275605722
0.09048662077061989
0.2871150891989006
0.06095474319735858
0.1507534808597275
0.08963491719602698
0.1980798849065819
0.09706918366610257
0.1588398680722143
0.1774235612729272
0.05176557261866704
0.1759901090863266
0.2975178587952231
0.3060837163823893
0.02504374198056668
0.3612935459856758
0.2057037867444999
0.08089293174622626
0.08356405278396929
0.06932517014738074
0.2465520498822817
0.152343595455817
0.06355939408154918
0.08102979801092952
0.06281128063459761
0.2706185388463883
0.02060862051761193
0.1373334071671026
0.08136621594546938
0.08327872653801822
0.08451930698319406
0.0836183276349844
0.1058967940615884
0.07448167623927023
0.0507094508332559
0.06842493646154453
0.1319797124395461
0.03785967792668386
0.1029933544740321
0.1250318201180045
0.1284290149645533
0.08864081089356569
0.03089533337305109
1.541699505787051
0.09036856873659783
0.08138940689976572
0.1097782636158797
0.08436202340058517
0.01956682655759963
0.07865690736928233
0.07806437471155839
0.06553889031093599
0.02895474244848444
0.07984565437253149
0.141463813581936
0.2159727293221247
0.1626937214702112
0.03941683618265393
0.09663514870977534
0.1668417889386159
0.0181023767459182
0.04296068409455375
0.06426858723394953
0.1001426316412353
0.07289874185097048
0.1214509236363989
0.1220541489188586
0.0768818767506665
0.2935161464964356
0.1090597721173074
0.08728463933696388
0.04233683950056837
0.05881641718095772
0.2082788859945425
0.09054930056026422
0.04210443212478911
0.05361574310584639
0.3477077010882073
0.204269050034204
2.38555661298356
0.1199214172902214
0.06542820340138644
0.05482447662190709
0.12801338298413
0.1135096945367447
0.145491048440567
0.1378874498461581
0.05797172854648849
0.3785685920928543
0.1107275155124934
0.1073767398793624
0.1369585298043087
0.1074681833029841
0.1059974456437125
0.07554004404393048
0.1127113923467142
0.1414248502779692
0.1540109218225331
0.2193075625941307
0.1466239889553244
0.2089811437200976
0.05517901909515791
0.06437330164036835
0.03971250167499805
0.1101606812498505
0.2328236738910392
0.1452198335299194
0.1168057124215972
0.3247269244945464
0.1034223073085005
0.1381710386764416
0.1947399969354473
0.1229145816857222
0.1528233157038401
0.170400912098577
0.1386562466823224
0.1636867097584282
0.1609746019522951
0.09672252195655048
0.07717882807245485
0.08929921053611471
0.059875953742335
0.03756021767222893
0.1820418106736416
0.1567341201562676
0.165054132762925
0.05053641721592913
0.06041377152715848
0.04043562293502279
0.155366636016523
0.0439736879856908
0.05386751384077425
0.06444102870875504
0.03292113880440931
0.3684960678533924
0.1372610530975251
0.06854088403944618
0.1114895828557433
0.3310704676185073
0.03009692141029073
0.08798800264252349
0.1716233656747954
0.112257693703514
0.06880966360727814
0.1156894767426778
0.02102940501169516
0.07862846358587219
0.1321837709161823
0.2102813105820171
0.1558414770474112
0.1792964334674415
0.06384556731072244
0.1199146497239023
0.1259676534603913
0.1403858967952442
0.06372021854960157
0.1440052799988302
0.1948326955837344
0.1465177802263
0.1419212817925065
0.1254948189262725
0.1662683590719986
0.1651036116605138
0.1828172305364668
0.07582759204454791
0.1097976392236397
0.09438785042783344
0.07639215311788072
0.1193251603288485
0.1151786459813228
0.2087859171398351
0.02094707791018715
0.1237188382605348
0.04976246385231093
0.2362636898786221
0.05579787444623961
0.08437094794619747
0.1265153957359822
0.05109974188709516
0.02597268772849481
0.1164033286236278
0.1143447716554005
0.1575440383743089
0.07959704578031918
0.0813601654843451
0.1069304877029832
0.06386921935561453
0.1885773470232669
0.02872453462537338
0.0336021384759863
0.0379686563076098
0.1674444892987361
0.0494506845770375
0.07141089468593197
0.06357527542827128
0.1279660051691817
0.02698527537906901
0.1743135833524016
0.03465988123822863
0.07784659993025554
0.1084202623078515
0.03264998248795108
0.1104313115970539
0.08049918859692197
0.06433493240995712
0.09583323181856598
0.09134542877854875
0.1094672247389605
0.04742025057268935
0.1028492565658072
0.0851769015034681
0.05280397208841542
0.1151835585404837
0.03383922845472687
0.08575849006334244
0.08196913583717622
0.0542833855856943
0.1301856091335263
0.04513241751160254
0.1009323721573615
0.1417824272908464
0.0495637281259028
0.2184835351862414
0.2387508126735211
0.05325345288746725
0.3351237838315363
0.1150013034131658
0.05399986584965553
0.1278647010574628
0.1311099120135416
0.06381756609803993
0.1067453566990697
0.3426269341716502
0.04370712535735866
0.2176044510661107
0.1135972798316418
0.1544191114719839
0.1148902263440947
0.02547186258533538
0.05606243533843693
0.05047222608635892
0.02341859512613759
0.07063504080473215
0.06317356058478264
0.04015276213509369
0.1230193198541267
0.09770863616654921
0.1333744321121581
0.04175197715431794
0.04916479526699352
0.09644596196227961
0.02443134374762208
0.1034005217692984
0.1176891108930671
0.06533573522191216
0.003982416961002242
0.03990587655087595
0.03502022277917233
0.1112704773720122
0.05748689068606479
0.1235780338921937
0.3598771541614885
0.03392448179339819
0.198840083700303
0.09964297347625573
0.1089120229833076
0.07131919673053047
0.01160149194973521
0.1107432817879892
0.04906924626142326
0.116860574375237
0.2131749137041119
0.157732309145387
-0.02252378812193239
0.06586298922890847
0.3559935809655581
0.1204142984539881
0.1026022654791573
0.1012174354011169
0.08600944610015884
0.1025427799844456
0.101386631739183
0.3559930531113252
0.1230274685453049
0.08517777947841422
0.03208484228039998
0.08649832436061854
0.04203181416669587
0.08893624822229425
0.1120191495613114
-0.01197119374410519
0.1289929242717066
0.09105090398953845
0.1164690892311277
0.0368682774592315
0.05376204867107271
0.04996309579940544
0.2985806467914847
0.1256465028277404
0.1056465838813532
0.09592072139755185
0.1073443971233259
0.01061381330264
0.0781037262981787
0.0980179427204287
0.06145652899372842
0.09966206909932233
0.1226528975104674
0.08661996683844521
0.1083583382238976
0.1707667369057433
0.101692211647078
0.1240375814812925
0.10758925766793
0.1131586302109812
0.03133807542268692
0.05825406936569117
0.1043698960812397
0.1751181241286947
0.06998548543618169
0.05566237659794646
0.07603496156859603
0.01388726213655871
0.09802283218735648
0.1304322269331446
0.08412377968943753
0.2147145362064441
0.0531581461601734
0.1052801697979493
0.1379240135132561
0.1367579118269777
0.08529152091190545
0.1413133322020905
0.09075064338311795
0.1727194355364705
0.1893526583932052
0.1389663113953055
0.2990336741914961
0.03984684310828187
0.09589585927243069
0.09097172691149476
0.264610494775735
0.2510186699927661
0.06399289139738955
0.09737352486209347
0.1868266721815444
0.09544255775411428
0.08919034249921376
0.07773849839858289
0.1500210806561791
0.0605444394200031
0.0675336780102785
0.08696805361242063
0.1839915105986101
0.08096561322194773
0.09740449865521912
0.1948684148644641
0.2584240448996749
0.1849519697646327
0.07947755534229496
0.09293351013938973
0.083575783760267
0.1407746038221336
0.1795847142390193
0.1288345500868405
0.06055845136927769
0.04605832190263889
0.1117474762574555
0.1450099295931032
0.1365664683035563
0.114934647783729
0.1781279654097049
0.2037118840532501
0.06938342600551047
0.09332453309045091
0.2006628735862132
0.07455320289444424
0.1286275711699314
-0.01050625524140942
-0.007557015546767008
0.1640905455409296
0.1376271973748321
0.1132551571777264
0.1227856402196145
0.02995916259539548
0.0211936662402744
0.1191048560293176
0.1162256667850549
0.02988422538301567
0.04619581351544298
0.06362010126748545
0.05997745412427329
0.1401230746352102
0.08554907126120929
0.07042713164907291
0.07355319351047405
0.06488973324121783
0.07639513473171551
0.2496365415742092
0.0925046699679207
0.1546659168193179
0.05782958901140178
-0.006693861611417473
0.07194421489169329
0.1083943548007977
0.1020491978130461
0.1102287907595913
0.1111131860108487
0.07765937848789344
0.1225901772405066
0.07989415732641521
0.1774287093161808
0.02833984667525548
0.1474572524368501
0.1433391797978185
0.14820223081849
0.1735782673998272
0.2204396084618751
0.2816098178138224
0.05781366055184997
0.1399948936176172
0.1183207670953405
0.1094531133945458
0.2904544646023793
0.1281033011928358
0.122246871098033
0.1331617488210149
0.1283948333522627
0.1319615234664417
0.1289803660112237
0.1393692185718924
0.103207208481953
0.3974305314599452
0.1314917957355337
0.1889245852803637
0.1003721881233832
0.1046005089476399
0.09776322616605271
0.1044634368239916
0.102429173617896
0.1004917728759239
-0.001778193656572363
0.05773730129378245
0.0600019803143351
0.1208881509313502
0.004434850090958733
0.1569757702032934
0.07706685727638365
0.2763856353548075
0.21554359189781
0.07918158499483009
0.1069361083479684
0.02978464363016757
0.1592430898501894
0.1931274827881204
0.09041913414829988
0.2798545257807665
0.1264126937692364
0.1494866274096066
0.1519360893838692
0.1591794562854715
0.1564082535859587
0.1401898914595335
0.08647883727069075
0.126877261418063
0.1466475701057186
0.0833484434147948
0.07635466885070474
0.06937517735074238
0.07554267919627206
0.203498188470224
0.1499373424759944
0.06135823241237801
0.2829279420674441
0.1712108787417896
0.01297865184469933
0.2945488486583983
0.066355498105878
0.1298973914502227
0.1704429021192038
0.1356557633942288
0.0593569708743821
0.1343736679354309
0.1228404285109752
0.1246258477372034
0.1409303182898936
0.140282372305534
0.1380223841413382
0.0867591514788869
0.0860635429204792
0.2894802343691806
0.2653979105573725
0.09286941504340972
0.09163056898813356
0.0520542856578367
0.0647332358387938
0.06660342482240399
0.06558684082273043
0.06330725964072735
0.06772313324494057
0.1120740364126325
0.02523938586488458
0.1700248868751567
0.07314992181513591
0.127889294741394
0.1341280488175168
0.163998254834286
0.1307074799150182
0.1302109256073702
0.1532544761120806
0.0661114461415057
0.1544175951164568
0.08224022022969719
0.07467510463401593
0.0767144780718549
0.03007911998932416
0.06982636110072267
0.03894401959033075
0.08037800957091303
0.1351543155594631
0.3187322280989278
0.06079349194486332
0.08350571118668725
0.07739630836873487
0.06194999096017136
0.2117891253788783
0.05160729101857851
0.0567220408343357
0.2430027094735621
0.05271763709650245
0.09850884800608399
0.04737096918349035
0.0749481656893804
0.09352981942027713
0.1994100554380798
0.07747509289257462
0.08357939885357241
0.1113969674819784
0.182268541194963
0.1501702760756193
0.06915870875464637
0.08714713451846814
0.08139997587003513
0.07556248168349865
0.2230801437559957
0.249725713249319
0.1936051040169845
0.1167115237660977
0.05864475145124787
0.09757783363454424
0.07486033643393868
0.09324723616255408
-0.02768482378882781
0.1213976690026011
0.07322298563176645
0.1064460899819405
0.03793775936134726
0.1935144955948169
0.1230855558924402
0.01584257818607597
0.2229056890968468
0.1268330859271563
0.08828133150048913
0.05568733821889353
0.1553768239210904
0.1173847753975657
0.1411384565616677
-0.0225901013097564
0.1223648178769931
0.09932108827826186
0.2851252718266633
0.09842926223781061
0.03296810653206877
0.1040684862236224
0.1312331392760046
0.1260403234182075
0.05928591669707013
0.1903104807371658
0.3011579461461431
0.062479715772535
0.09492256634390887
0.09598912832081517
0.1543674725563324
0.1312060001641264
0.1126703689995933
0.2635360852557002
0.06335121284673693
0.07422336353906007
0.07645060295459558
0.06603789346710512
0.3322837026327687
0.2157298711943439
0.04646765919205983
0.07634607236114749
0.1808449448705989
0.04957566151215879
0.3036984758442024
0.07052396803773961
0.07311685051414653
0.01221412338505255
0.09507805721807649
0.07857167784182342
0.07486027509048798
0.07723226345126012
0.05927640946873763
0.1609552956049732
0.1741904363570326
0.1602315017439792
0.09338148309285825
0.1036138330964833
0.09961922915765775
0.09906911712735375
0.1103507783944804
0.06248095148122672
0.05013705002534502
0.06069314593223514
0.06142020370382138
0.100409028359314
0.05020602687738673
0.05883023978069994
0.2236135398967957
0.3073129327304356
0.0271084273595424
0.08885278457137424
0.1089108927970359
0.07982141898268155
0.04583051500981596
0.2479793510576506
0.2772604101954042
0.137654507028753
0.06825262833459045
0.04559393938086614
0.04829013216822335
0.04631487913123788
0.07583789917279241
0.1390715009972322
0.1208016214713026
0.1880873609846969
0.09383987380710546
0.2488662527453925
0.08711978607582994
0.07160351736065608
0.06956376744174464
0.06064999587365937
0.1204058513697141
0.100751821168894
0.07798152916758795
0.1315454154470219
0.07946097255379345
0.3012563971079201
0.03927849274045637
0.348243461462506
0.06545969146495947
0.1892069559198557
0.09215743675826514
0.1040603663010695
0.1804947559813009
0.1733676032447418
0.07909017589478522
0.03077727219421766
0.08478283011426101
0.09000011636623302
0.15456164470366
0.1948924422790941
0.04422319998293246
0.1385788249678619
0.2476926820557908
0.1837794378740032
0.07658832877633781
0.1846392835958949
0.2005591674176748
0.1231154138194456
0.04748036768790178
0.2799258959624269
0.295532078313917
0.09396767426499107
0.1471121250065377
0.1350502327042556
0.2706189167124514
0.1636014314915234
0.2300764274054299
0.08094292223461493
0.05967768806236077
0.1623079943964464
0.07171981072502762
0.0672878026643567
0.2868193726417976
0.06125980441309227
0.0361851255703145
0.04637212408102104
0.04571290770502442
0.04420949434816507
0.1733296728634866
0.1283319539592867
0.05557338580925945
0.05676919431002517
0.1253249052303529
0.1754002670546599
0.2533141801193425
0.1367566808602877
0.3209911518004288
0.1888278387592802
-0.04498152685950837
0.26534438105962
0.2642208701232925
0.2752594843463586
0.02086608473060048
0.3221764291294902
0.02539193821956126
0.02039298674957568
-0.02913907296256515
-0.009355079682378637
-0.03793515845797646
0.1074637872713916
0.2800479749080445
0.1132092447271813
0.1523643976935961
0.1297311302366667
0.0717838293519695
0.2782773407897642
0.09846193635476182
0.1320343584745565
0.2119046739956566
0.1394123798912419
0.09979006068802564
0.020382054187497
0.1207273895812517
0.3298557147636407
0.04802054738297829
0.2756065692787523
0.1016578455370472
0.08710465804731371
0.04735456600252392
0.06945378223480894
0.0297517979994116
0.03515713927299086
0.06706520983231785
0.06707974779713449
0.07077476849328598
0.06710144676528053
0.3374913919421649
0.1820818416402908
0.1626989842526212
0.1895975197649396
0.232388301025657
0.2821554367751761
0.2704254047304375
0.09982714649487735
0.1467541542582142
0.1397004231125524
0.1088876770478214
0.04906566922637361
0.1947811700133716
0.06402033330049278
0.06946719652445398
0.236305441719664
0.0815352699514135
0.07718059988994304
0.07687396588222357
0.2416868428414853
0.07365687533127067
0.149244410985105
0.04638603527656802
0.2408834981304715
0.2719375009015985
0.02077985219046916
0.2437736057729995
0.138328180228227
0.04460236633137808
0.009099902137002238
0.05570153250539702
0.05606793123148803
0.04918552783111745
0.05222741133187091
0.06508499551116544
0.05435280369573575
0.0500292826541481
0.03035024653295052
0.01976506032372027
0.07495170823909061
0.0306074871377663
0.2518110801138901
0.2461816149861956
0.03413601770452731
0.17230926890817
0.2135344129412441
0.03099039957395176
0.2473296708938003
0.1738114437184579
0.1284269064586236
0.02841690658650873
0.0210815726505106
0.02613653952455653
0.04151618491209585
0.1815328115481029
0.04487359144921319
0.03877938889609427
0.0526519002019309
0.03559865015777989
0.04902414632405085
0.1126521163267864
0.04400499455197632
0.1923975678885202
0.09170026857985408
0.08486817330132143
0.09628512028194845
0.08709399804366282
0.1887902699032999
0.03483597959750857
0.0884290012123395
0.08433081271582774
0.1792693055428981
0.1566535041319586
0.1994282211041756
0.1714400007915243
0.05770848001112237
0.1932749175865892
0.05876658111392175
0.2030042873686008
0.4442239212368814
0.1878377080364378
0.1831603234502093
0.1642791034775856
0.1400194569618
0.1872619361953738
0.1775680759528915
0.2310458705844005
0.1228655309261911
0.05300260888648677
0.02330610188870178
0.05723718182017267
0.03187510311220781
0.05960382475502288
0.07637627014870312
0.06164643698418908
0.0813843851787055
0.2026574628439657
0.2015596013412821
0.06664799280779259
0.2274857383382246
0.2562496448667987
0.2405688296280157
0.06095884892832279
0.2177995631107024
0.08492236296635967
0.2072066831822147
0.06443480478543864
0.2180367271121341
0.1752952535005128
0.152234369827258
0.005099440729210724
0.1508373524379348
0.2004017868991037
0.2421092753654392
0.1424058157276575
0.2886756787418621
0.3101033137356933
0.2369431143759817
0.2073401479242566
0.1226366756430795
0.06086086539376087
0.2143505466939564
0.175291155325327
0.1152828267738705
0.2023844628679611
0.1178554930509995
0.2486027991166357
0.1562237596288458
0.07936538983858221
0.06454315615976003
0.06137728701906857
0.1869032969520892
0.1816540161844193
0.1721560850744208
0.1548666464086223
0.260088705896403
0.1426173784659986
0.1353711257954853
0.1836823450177607
0.1560543771422787
0.09438651035017211
0.05767429119546368
0.09647824235049757
0.06050931146157924
0.2382699440318772
0.04906317045901869
0.08484449089009807
0.1805534669974733
0.1775307514790902
0.1762054222619779
0.1689525175161336
0.1884213303210198
0.1712095329253466
0.1842936468272746
0.1626212522226878
0.249373499835701
0.2151013693141932
0.2111790234108522
0.1703689376376784
0.1516228625957082
0.150971030796057
0.1830019458475854
0.1566574296273645
0.2771295426826922
0.05896844404798623
0.2261148089662308
0.2841170489863415
0.0459619213405625
0.04274352142342391
0.04528220469340635
0.1120280653288163
0.1640640094966195
0.04689034238005348
0.2935681127610634
0.2734661892807411
0.2474331240986496
0.04785994588751275
0.01801069437741658
0.08075973461826209
0.07800909999846739
0.04140987863938203
0.03960880912052599
0.2409388020704572
0.07005692897678756
0.1906597264311194
0.2233772101826943
0.2261950726519639
0.0701329436008066
0.1573838549821929
0.1588410305002615
0.1771401550582047
0.1906082438650311
0.0703653129943369
0.06826406010906537
0.2524500730594709
0.3288249550176537
0.06854817659902117
0.3747300420038113
0.1749065242929413
0.1880240774684911
0.05399870444622263
0.2017563513960146
0.1923993709244892
0.1197210281042639
0.1213323144540009
0.1220662955905306
0.1420683883537713
0.1476647499181999
0.1227358720612698
0.2275663175701421
0.1147584843548933
0.1528603943795367
0.1488618819964727
0.1337159550766026
0.1055446401857338
0.1248586547355548
0.118099493490369
0.09399143665544867
0.1015416808290219
0.09074395167460209
0.1045468662918533
0.1044940919982742
0.09969306545770266
0.1818926604335781
0.1763957525834075
0.182458506831982
0.229272543694264
0.1901404215886577
0.187702374271186
0.1745429999666375
0.1747639986825889
0.1560503681580593
0.1688473470098186
0.1652589271072226
0.1264040168837314
0.05415010463253802
0.1230767521794616
0.1933267467751458
0.123810261178761
0.1315518611209806
0.1363110504167459
0.1342208510706139
0.1607350102740543
0.118893357985822
0.08178968368451471
0.2530461345203964
0.07713660295193532
0.184033620162552
-0.004175379680121711
0.1708660111231051
0.04852723119270082
0.1241799357709598
0.1615180288094251
0.1091337194095019
0.1205323076013625
0.132046429984511
0.1240313726435167
0.1264938102072971
0.1386480143243305
0.1667157099739973
0.1363964197212262
0.1179089794505993
0.1549222515108774
0.1153252466639443
0.1134936499887822
0.1288101051767141
0.1330099782351874
0.1519943794099222
0.1591795041069042
0.1980607303030823
0.1556819720277719
0.1644321953988922
0.1590223995835356
0.06812050690467768
0.1623322538021771
0.1477161053763627
0.1502318788107161
0.04529443332144302
0.07695871289950859
0.0726987810408094
0.144652691177336
0.1528330386875753
0.1385210351833571
0.1403094120237207
0.1404934126275159
0.1457716005688196
0.1824866140474944
0.1432833289076681
0.1680640249820565
0.06360901384822294
0.1677146924536913
0.1589574735925504
0.1401722227070338
0.1562885629472613
0.1376226795798063
0.1544658690726844
0.1615511794171698
0.1609485176568964
0.1768687494063076
0.131787187820884
0.1318676110407567
0.1319208104740502
0.1267411227888222
0.1305355167572631
0.1782326712827147
0.1354243644441905
0.1210814257671454
0.09308511533292455
0.09623716136316311
0.0660569904438993
0.08371838617477051
0.09694756301353949
0.1744961760475126
0.09559995730338841
0.09947129722709937
0.1443814828555779
0.1418194992441671
0.139107439896858
0.1427764587653093
0.1336225188036072
0.1320334747071741
0.360122830169928
0.1339406120276547
0.1503777253650766
0.1394944955748136
0.1651770517895239
0.1534032138478367
0.1200480502891115
0.121803783872777
0.132863048047973
0.3716275713846007
0.3725855539645372
0.4094253014806982
0.2688569918999581
0.3738562441376356
0.212317098341203
0.2749369290074537
0.2845597656082845
0.2410521639899007
0.2202106249118077
0.2234805019307109
0.2173856622625119
0.1949970422253596
0.1811237184314552
0.0975393657469734
0.08873116904717285
0.08368524670787868
0.09609217691795925
0.09045079112186581
0.1728370878741848
0.2741740075063341
0.07236308746399907
0.1438526801553147
0.06002982139796897
0.2751367154136877
0.1650973676706314
0.9811787996938796
0.1503647252362511
0.1685039005877018
0.1506107590138901
0.02838590774981091
0.114685802360139
0.1248845709785846
0.1922643503600209
0.1952518608484431
0.01435041915089733
0.1052015030595766
0.1215646265054639
0.03341272939090619
0.08801927157890013
0.1179359793275628
0.118027503033511
0.1138765243794514
0.1236223516064407
0.1198532698216157
0.115850732273451
0.07944701219208111
0.07948374464207297
0.07443326147951307
0.08133662482470813
0.08267799068249654
0.09125402514816214
0.08114589953323316
0.08759486316522853
0.08868324915768196
0.09833297434440262
0.091844853831344
0.09416506034911683
0.08800345428079293
0.08818877696880624
0.07605440172471709
0.07990523489495058
0.06199032436025159
0.05907761874073852
0.2462170695639282
0.07629730371465773
0.07605791961973903
0.08298078438423845
0.09076038498223735
0.09916615475731816
0.09613211015068536
0.1137843686463433
0.1096985115555202
0.1151531552832508
0.2095653911093841
0.1407263101345821
0.1379126863268677
0.1324975535390939
0.1173821676770171
0.1029928510505286
0.09326141272739928
0.1070236821024019
0.1094861120238216
0.1008572569901746
0.1134116023972489
0.09483261821546499
0.1637713271390437
0.1641284678185713
0.1500879649356962
0.1668589035963349
0.1603577692579808
0.1671731963239631
0.162915676116455
0.1790586771785072
0.2581343175563265
0.1261227295720969
0.1216412228269492
0.1214706796934063
0.1225953171138811
0.1244315080935903
0.1215265242364439
0.119776953072829
0.1794109896541997
0.108853260451659
0.1089298600795403
0.09443644772287636
0.1275783892534611
0.1267330452769231
0.3035255838869823
0.08718608091884648
0.1259257935754619
0.2269973928998618
0.1329344190831837
0.1309462893789665
0.1440761151461671
0.1460267206788955
0.1171808267315223
0.1216060449465677
0.1160133678230025
0.1574420173563743
0.1436583136054712
0.1541252804994299
0.1510171795536335
0.155311627065031
0.1644560846287969
0.1663981843093224
0.1517226867382117
0.1439181778113817
0.1598113246408504
0.1441930579927331
0.1865123725441333
0.18569947409847
0.1502219413497624
0.1781840120083404
0.1390786258755096
0.1424159491844565
0.1923563867951113
0.2150299371522859
0.1985415662486674
0.2114491609021553
0.1952054130489164
0.2123505569362085
0.2245198523010961
0.176379126097444
0.1988462314561844
0.09139892949861361
0.2381220129824211
0.2341311219057094
0.2464556528053677
0.2579517142040647
0.3032796437544256
0.2989443460827556
0.1616455668645159
0.1428247172203789
0.1688845335907152
0.1365652135642337
0.1822891347294549
0.1741213180365465
0.294229606774315
0.3707611262227657
0.2472079275402969
0.1032300224188383
0.1217145493367303
0.1119583137485459
0.1382572013942338
0.1585623709983929
0.1033367318081623
0.1743937986199331
0.1445111004252899
0.1686862621002083
0.1592766901194543
0.1912394810070944
0.0835976715218386
0.08028894292768697
0.09204334162895902
0.202232988037954
0.1303858422327676
0.1144365816758004
0.1887700859951677
0.2321161147306162
0.2609253827154568
0.3004903546286196
0.2699590014525461
0.2734619349731506
0.01825288232185208
0.2206942193179858
0.298873159306324
0.2165965801797664
0.1582282207231408
0.1601327130711013
0.1764435888938125
0.1509731527364899
0.1436496076268549
0.1391128996321475
0.1291952287288251
0.1726446987540476
0.1466466498196286
0.1674321107793722
0.1442244212494993
0.1684197518481621
0.1780271055079141
0.02298745125132536
0.1769337665290465
0.1474660391745361
0.2309678016730502
0.1314845825158374
0.1682210769600332
0.1442666567479744
0.3785283112128914
0.2278383773800866
0.1794662245438997
0.2630230586605964
0.1797489294463338
0.2429469272213656
0.2172906689903056
0.1872174014421671
0.2181208888763299
0.1542806561805175
0.1094813334721748
0.113382172332854
0.1094532719835609
0.1147140060624868
0.10221440429064
0.3856894617582058
0.08925724594889516
0.1272565195512364
0.05305661037632309
0.08011383318748033
0.455163385972964
0.06436127089907082
0.2685079580918475
0.3319160746552985
0.3220492059520133
0.489552454160981
0.4403540305381187
0.4209778928851434
0.1602232311758839
0.1668017254602946
0.1478522439518364
0.1853534262079193
0.06782773889127032
0.1934093232591936
0.1622536306241042
0.2087640120278459
0.06434484480560621
0.04344988290833967
0.1608594103571651
0.02716776424594186
0.2448984881939813
0.06387395682779673
0.07992240569913615
0.08235418295081584
0.07000570196176016
0.02619423925393588
0.07450660592766664
0.06329602349065251
0.06805878717999142
0.06873527278913055
0.1112834374982463
0.08158402007086221
0.09046143611223582
0.1254637663602034
0.2294390180826849
0.2502003056242486
0.2591824960352915
0.1365382117956023
0.1606176116627382
0.2603642976574877
0.09498837069158662
0.06930528947829726
0.2084341653993623
0.07892485798353953
0.08345975671429856
0.08519519708365872
0.1013606152337337
0.2039287963818291