/*--------------------------------*- C++ -*----------------------------------*\
| =========                 |                                                 |
| \\      /  F ield         | OpenFOAM: The Open Source CFD Toolbox           |
|  \\    /   O peration     | Version:  v1906                                 |
|   \\  /    A nd           | Web:      www.OpenFOAM.com                      |
|    \\/     M anipulation  |                                                 |
\*---------------------------------------------------------------------------*/
FoamFile
{
    version     2.0;
    format      ascii;
    class       volVectorField;
    location    "1.9";
    object      vorticity;
}
// * * * * * * * * * * * * * * * * * * * * * * * * * * * * * * * * * * * * * //

dimensions      [0 0 -1 0 0 0 0];


internalField   nonuniform List<vector> 
19632
(
(-0.01520818338005528 -0.003162187691534348 -0.0168778503150284)
(-0.0002267509533538158 -0.00203242031214663 -0.0006451867287269057)
(0.002030094703050176 -0.003347919511421405 0.001170171210865134)
(0.0007553345879187873 -0.004161382671937362 -0.004969527004070631)
(0.004839913906389303 -0.001129603437215877 -0.001035106759799136)
(-0.003971429214457363 0.002864636556682032 -0.004612537246567045)
(-0.001423466577078376 0.0001310139286885854 0.001984925314602775)
(-0.008632465661232217 -0.007073757479503125 0.001718173919251976)
(0.0006601664900906749 0.002853207123289074 -0.006524489189467241)
(-0.03163673808896535 -0.004262474472404859 -0.02407031834645805)
(0.0108165681514094 0.002352993927487466 0.002106764634749585)
(0.001320344132790383 0.001605592808921426 -0.0004564673899644566)
(-0.01843719856180361 0.002969063069668903 0.01962476051081807)
(-0.003364240075422045 -0.001447635544100313 -0.001265323873292284)
(0.0009891732169201104 -0.0002504587170031789 0.0001801771349787686)
(-0.0004296391750640447 -0.0001936975949557224 -1.547998921415314e-05)
(-0.001974029112598189 -0.001380138878987384 0.0008244103795420403)
(0.0006308251253156697 0.0008790841433257145 -0.0004400785259905367)
(-1.784671374416573e-05 -0.0002980458076355967 0.0005358352185699942)
(0.001086194663611115 -0.0008415066478174501 0.001362321891305549)
(7.648261429740754e-05 -0.003344566032032303 0.0006475500232456506)
(0.00494017126403077 0.002007294372143062 0.0003099115376131384)
(0.0006016517746287309 0.0004402080145244325 -0.01224469358818648)
(-0.000342222189144233 0.0004157058048314468 4.06771385645934e-05)
(-0.0002566028421868479 0.0001980326112369852 -7.22767086056582e-05)
(0.005105158313892497 -0.007388124758420916 -0.005361626116665128)
(-0.006313075408150402 0.001693307279263872 -0.000872876125040356)
(-0.002798267028351751 0.001053347883869744 0.00290296648517523)
(-0.007992187014931351 0.006235707802896256 0.001261363327829722)
(-0.0006410532830550115 -0.0005207383662710767 0.0006541269315626716)
(-0.003896401155988789 -0.001719701313226152 0.0002000765734549777)
(-0.002913261280960275 -0.002634650697005412 -0.0007655199640420025)
(0.001684161810799602 -0.001464933407478443 0.0002979046951147625)
(-0.002294262683926239 -0.003085931261810448 0.0002275071034464402)
(4.47582254628509e-05 0.0001031328377359663 9.321917904669334e-05)
(0.02623518314871299 0.00410963262080143 -0.00177421641278215)
(-0.001128292945258838 0.000813347842099678 0.0008239618417646291)
(0.006617365186741783 -0.0009532554937267308 0.004865449297723078)
(-0.00724141509234544 -0.001955399000875891 -0.001420617468995202)
(0.002894636169588733 -0.0008319326786233079 0.001705451123279636)
(0.000288564796597805 -0.001410780205935336 0.001138835859464466)
(-0.002190433311355502 0.001327382527703435 -0.01372379070802762)
(-0.001729035016541059 0.001653942222974115 -0.001404681788368536)
(0.002539485389851183 -0.0008803223556237963 0.0001327613854736167)
(0.0003026261055956579 -0.0003266109848992862 -0.0001172301676811226)
(-0.000158768692383518 -0.0002667306887763907 -0.0004575340085655425)
(-0.02218216717916988 0.003283867515105032 -0.00752994509113641)
(0.0149647170852062 0.005949790563610993 -0.004780933902352672)
(0.00690328228349267 -0.007433737003343499 -0.006838753892873288)
(-0.002675350446508793 -0.001282299537219243 -0.0005351055408664803)
(0.003779702364840756 0.00174242799946349 0.003655124061651549)
(-0.01480325602188576 -0.02214716091351374 0.01418315649405192)
(0.006653479441855755 0.0002006175540522832 -0.0033851164450908)
(0.0006817191873545946 -0.001963818754765541 -6.233530460612315e-05)
(-0.006020936927118475 -0.004121117712186546 0.0003173849865069299)
(-0.004777299974834948 0.002380685916823999 -0.00474895715536876)
(-0.005177212415864927 0.01613411360976814 -0.007117087246301237)
(-0.007858413343603462 8.21558924437804e-05 0.001246111108588582)
(-0.0008647348797489098 -0.00455205000380442 0.006847997668749743)
(-0.0002316260724073015 -7.760284064518537e-05 -0.001985060318365152)
(0.0009921717804293054 -0.0003044505050564923 -7.430282780095365e-05)
(-0.0007335589244783918 -0.003306754419123516 -0.006453737750171281)
(-0.0001352135420181843 -0.0001161165763247303 -0.0001106319096903972)
(0.001296060632247498 0.0007485856954505369 0.0002795092718786043)
(0.00119570675401705 -0.0001733369325271654 0.001935250966295354)
(0.0001291025073371896 -0.0002858698681215586 0.001664709485254937)
(0.0007839305273054441 0.0001737322605484171 0.001346986047983505)
(0.00493882470850625 0.003577708156514798 0.000273370017741995)
(0.00598015970050101 -0.002758310123996802 -0.004606133396297684)
(-0.01335144633966555 0.0001523957320566744 0.005094059205262062)
(-0.0005145308971824338 0.0001510752294930416 -0.0001114816764737298)
(0.00287193505789212 -0.003048575423598222 0.00392177861328702)
(-0.001900903692607813 0.002525041717440941 -0.0005147944547463728)
(0.0006015260380117795 0.003876210362284256 -0.006574459290156984)
(-0.0002064335313276668 -0.0002776685961925932 0.0002621358430692807)
(-0.0009828835385933907 0.0003418934786167953 0.001747888532076064)
(0.004860750556211393 -0.003191775795572745 0.002316903160709149)
(0.0766618823806529 -0.04075580332263328 -0.004870806698235999)
(0.0012444843367313 -0.0003186131470231607 -0.0005982775136671674)
(0.002627982098236705 0.002380658847692089 0.0007501397507015228)
(0.009770625253030369 -0.009475950968760041 0.009333250867422198)
(-0.002153951706949018 0.001219149571144359 0.003741121542391702)
(-0.0009825738686606573 -0.002197077309524218 -0.002250879023836402)
(-0.002022009413087058 -0.003302951501009118 0.001802514295340415)
(-0.001605770540819521 0.001048440654767795 -0.00027645369795827)
(0.007480436035595151 0.001338868948699864 -0.0003644629269232706)
(0.003598713151754329 0.002096480959554345 0.0003684534793883044)
(-0.01453420299562328 0.006817294956801633 -8.840674230550447e-05)
(-0.004379446438592285 -0.001510403349229213 -0.0001329808840140304)
(0.001063618886884588 0.0007374609859968529 -0.0003776567805718811)
(0.004300311003020323 -0.00244169452393369 -0.003668864160980001)
(0.03249412229390357 0.003086088109174618 -0.005415854555680846)
(-0.008070369757487284 0.001590524806412 0.008006679271062411)
(-0.002714850645216717 -0.003552460574407433 0.004614893544656445)
(-0.0008539487130450009 -0.0002883156115684052 0.004795981575529379)
(-0.002011648741505695 0.003968781364638642 -0.005704285057233058)
(-0.0002564218404500951 -0.001525617478342305 0.002765415261544301)
(-0.004696897189514033 0.001116954455960266 -0.001466531767481314)
(0.003421900965057796 0.003890837818344488 0.002312786705757835)
(-0.006368737446192214 0.003603231289231587 0.001212161776546865)
(0.0005746522943087386 0.0002386558486238706 -0.001563001849248067)
(-0.003015568987853112 0.004556779818521099 -0.002792549345366453)
(0.0005919059823488856 -0.0009624304956323626 -0.0003860552550425659)
(0.0009460488237754248 -0.0003695873941706807 0.0002183768423942173)
(-0.002431239160924434 -0.001748236043572107 -0.002680790335214698)
(0.007784718004577701 0.001785166685410423 -0.01089176979766404)
(-0.0001170469437522866 2.078102147580849e-06 -0.0001091713671308821)
(-0.007221711741556662 7.848139524257075e-05 0.002346241048089046)
(-0.0009852434453037965 -0.001094143539879222 -0.0007010771377257425)
(0.003359937160194473 0.002085055478387237 -0.001023991257435092)
(0.002559183661470414 0.001649722147206236 -0.003628083975505165)
(-0.002520847514494027 -0.003992916168915971 -0.002808351406303241)
(-0.01816548143010917 -0.00112239362787216 -0.00060438404879485)
(0.002705922517882729 -0.003260784207670037 0.001134886851177181)
(-0.01275181566688706 0.001560658655818323 0.00528036967509427)
(0.01708712428178777 -0.005200647687205302 -0.009334683114126012)
(-0.002131516889873088 0.0005326662824250163 -0.004909329562399066)
(0.004242229933436583 -0.000613768902143396 -0.005662098852270177)
(-0.006815371493623315 0.001374006271076792 -0.00335796459851391)
(-0.026642521029078 -0.007655637706502701 0.02125678836458984)
(-0.005494195581365537 0.005165014160957024 0.001818963983519573)
(-0.01620021475854125 -0.001066143758668467 -0.008399565163611733)
(-8.030496976129699e-05 7.860557133231598e-05 -3.662360733215271e-05)
(-0.01672920243491005 0.001754880104189047 0.004566514089576783)
(0.002752156190147567 0.002210971433938624 -0.001193981149435744)
(0.000530506919846994 -0.001354609130341257 0.0008995566409357497)
(-0.02493639154419733 0.0004868556164744376 0.0003880272758752059)
(0.0004198714798154569 6.271466674384535e-06 -0.0001427378312074011)
(0.004921569513273072 -0.001129724393136891 -0.0023017653274968)
(-0.01428220265336521 0.003964029529221419 0.008459814426023331)
(-0.0009590627308393032 -0.002165486534976425 -0.002757686851854076)
(-0.004729002898894371 -0.0106446036985811 -0.00017535607339072)
(3.48791559386767e-05 7.850061845740119e-07 -0.0001040382109712936)
(-0.02354780381232094 -0.0005366585440544328 0.01565250344488641)
(-0.0004850084256541252 -0.000590791404424359 4.713240768315099e-05)
(0.001697045827724626 -0.0007453974683111644 -0.00286646026477565)
(-0.01436046575068929 -7.756131445006871e-05 -0.01723300117132264)
(0.0002137302804215139 0.0008344125984542652 0.0003390092869680554)
(5.586130914136513e-05 3.639218451065743e-05 0.0001238742886016033)
(-0.000222684847294076 -0.0001769623333779474 -2.144693210992711e-05)
(0.003570134665737048 -0.000237633450214677 0.002485985824693347)
(0.02226458432497278 -0.007644338765020632 -0.01473318318152898)
(0.001111760813373297 0.001266307914185283 0.001519666145846118)
(0.03065515315404395 0.05876434966717255 0.02331431016712745)
(-0.004699084111627442 0.00499832060181426 -0.001405427188488657)
(0.02947843172785539 -0.00397844543681286 0.007646048159756066)
(0.005422632773350796 -0.00913544281703014 0.0001785887604255282)
(7.595691397035761e-05 0.0008319798680517756 -6.721133673208575e-05)
(0.000467837774109785 0.0007311495485885456 0.0001988670435202288)
(0.0002588364882998935 -0.0001975261903697755 0.0002827668433733762)
(-0.006770387551064323 -0.0005829121811802989 -0.0008229760307656528)
(0.01094737124776606 0.007175646215729293 0.01164245640954119)
(-0.0009311523938669962 -0.0009823629771572107 0.001070518049412517)
(0.0001384882015242574 -0.0001797176891558977 0.0001138704856670175)
(-0.01786661767620099 -0.02293138766178492 0.008441534557926683)
(-0.005769187407794378 -9.917393043700623e-05 -0.005931281502839846)
(-0.01961651792223288 0.005461209583468089 -0.001126531122900634)
(-0.0003660646417619368 -0.001706471301362974 -0.0005728646505708973)
(0.008755110227559211 0.007377895653484562 0.0125524544851313)
(-0.003343610238689517 0.0009088914239985513 0.01129339630535956)
(-0.0004198119012596977 -0.0006972649966037058 -0.001398563343731057)
(0.004124351401361942 0.0004250036451559101 -0.0006934094610352028)
(0.002200090378046732 0.00181603789910348 -0.001347691494765133)
(-0.007431644646756349 0.0002086033419560608 0.0008415848582854623)
(-0.01236235499937678 -4.91822227465296e-05 0.002305857237109493)
(0.00249855037591876 0.002742720875174448 -0.01417727676512502)
(0.00624566693301512 -0.0004164662123071847 -0.002324087618523346)
(0.003960545543714366 -1.367765905772715e-05 -0.001861869836470272)
(0.002039343347803533 0.001395638383673927 -0.0008642598151967719)
(0.003177599459940808 0.0003738673980299361 -0.0001722641294275302)
(-0.0003624694193460724 -0.007203890463382321 -0.004309086011594884)
(0.01303625299998455 0.0004999006810096859 -0.001732829567366798)
(0.0002990138818268149 -0.001176068921623445 -0.0002012285954998058)
(-0.002387231369355286 -0.0008253591801510873 0.01797302918292699)
(0.003510399806204901 0.001206380192268844 -0.0005874206428977461)
(-0.00747980134883822 0.002018324193644541 -0.003734417734366419)
(-0.00571781317463438 0.0003474108464020188 0.001074996728332123)
(0.0007269134579103553 0.002442447142686411 0.001814110339384019)
(0.01874041347626923 0.0005775537785950163 0.007515562147131244)
(0.0001278899432801106 1.128701281700865e-05 5.186004180370498e-05)
(0.001991357626895626 -0.0001270511089374487 0.00188571058738025)
(-0.00400710347585741 0.0002131415166196833 -0.0006917606148191845)
(-0.0005530473937082074 -0.0003762513796582358 -0.0001053615986663147)
(0.004958685930945141 -0.0004081096618111517 0.0001919747248483618)
(0.0002578554710008167 0.0003394644276279542 -0.0003926410331895294)
(-0.0001534667771481283 -4.164632080495697e-05 -0.0001786503128386925)
(0.0001450302151316562 0.0002663616692904479 6.485443129348438e-05)
(0.002641812853959101 0.003499573396917426 -0.007036002185997136)
(0.001154317251606768 -0.001965308550693704 0.001218814400926756)
(0.00445118860449135 -2.643225603992088e-05 -0.004565421614079515)
(-0.002136934237119151 0.0004224403505078149 0.006873573635309283)
(0.00185847905462014 -0.0001444057137618822 -0.001354220754328011)
(-0.0001622217009016498 -8.251954371245642e-05 -0.0002036712947646534)
(8.705859918579539e-06 7.881324944056965e-05 4.92721129669374e-05)
(0.002001085732382714 -0.001189836564685249 0.0004753558688505895)
(-0.0005300225884701729 -0.00211688689094548 0.0009071208602343839)
(0.003797830875666809 0.0001339086211087627 -0.002191014999237541)
(-0.0001111608406231627 -5.768208221952494e-05 -3.921166306337642e-05)
(-0.01145256622113088 -0.0006274582515184545 0.005210238616768193)
(-0.0003793349856206525 5.389337464320493e-05 0.0001189955751603831)
(-0.008634598796530918 -0.00167721148826112 0.0001901153226462254)
(0.0006780010769746646 -8.187217156017835e-05 0.0002794094435604984)
(0.002012062691464685 0.001035214290542748 0.001982309754671573)
(-0.004061188478306952 -0.003651293053820847 0.006283465836853244)
(0.01857545821190531 0.0008523512829743964 -0.005585853773915754)
(8.595173271328384e-05 -6.544167090073639e-05 -0.0003396824958718348)
(0.02044213764672725 0.02327205778240907 -0.1395996932805283)
(0.0006998856210126568 -0.0008270497619669254 0.002705244183106866)
(0.0354861599883565 0.009220088507883606 -0.01247421666288525)
(0.02862986319967681 -0.0124512641319037 0.005566798127988886)
(-6.902858641243673e-06 1.240341938787992e-05 0.0001273973185454629)
(-0.0003880993282270708 0.03652767191421454 -0.007188411975242056)
(0.004091525827548468 0.001686090726712164 0.006614404120892134)
(-0.001208242805291281 0.000261314028041322 -0.002544280034091902)
(-0.0009786032164171017 0.0001904496172535459 -0.000370663550983539)
(-0.00818378689284719 0.006534145873069414 0.002524204441286478)
(-0.004458372057095367 -0.003161791051412537 0.00183364605257736)
(0.0007136185731999081 0.0004464046774700883 9.718072706683961e-05)
(-0.01615807057794232 0.004185979275355587 -0.0008809384137526584)
(0.01435730423619612 0.01912226459363384 0.009211941253888651)
(0.002612088337174571 -7.724812833918084e-05 -0.0003406001694712096)
(0.02178597631405702 -0.01159526162278733 -0.001559578134185992)
(0.0003954825548935698 0.0001273009068095118 -0.0005089699433181187)
(-0.00862196464004355 -0.004976592016539045 0.0009389321584700843)
(0.003525459582946798 -0.003574351987191414 0.000160417126777607)
(-7.984485903380827e-05 0.0001503715014767702 5.648331910894762e-05)
(0.0005462982410991538 0.001030196793594442 0.009007471125265683)
(0.002701044478606934 -0.006204503933132764 -0.004777917362681988)
(-0.001338503461960884 0.004846070395413071 0.03711804816118263)
(0.001320229916219587 -0.0001007855544688023 -0.0002212677267049741)
(2.143916077810876e-05 0.0004830101031059106 -0.0005533409225037517)
(3.865076631601758e-05 -0.0009485225347801794 0.0006082559549672265)
(3.023924341377565e-05 0.0001447925115255229 -1.291918513879634e-05)
(8.255778860221764e-05 -0.0001767420506531572 0.0002776129557693619)
(-0.005267755677302732 -0.001477038696781265 0.00268519737794111)
(0.01143322156524396 0.002591996631091567 0.0007580914937896221)
(-0.02818591505880451 0.005081093586805774 -0.001904216661884908)
(-0.01163842933869624 -0.01212114639379685 -0.002457615870943157)
(0.000701043235764366 -3.23316987569473e-06 -7.08281603457894e-05)
(-0.02573321296487816 0.001892550732842523 -0.0008392230727051129)
(-0.0002328084504288586 0.0005634903736092237 0.0005010575663473854)
(-9.115512763474253e-05 -0.0001585185846768681 -0.0004390391747164935)
(0.1318988624793234 0.009493252753554171 0.006577680022938195)
(2.980058653658184e-05 -1.853460603120458e-05 -9.36933963003454e-05)
(-0.01214952666068122 0.003025447988689173 -0.00499045266461432)
(-0.0002639358464372678 -5.847714764591945e-05 0.0003410491346912251)
(0.0004635459171671873 8.875416301117849e-05 0.0001538671283404002)
(-0.0004627722042617419 0.0001714914106540076 0.0001038717292724846)
(0.003047826116578722 -0.01528308384724776 0.003003084676874554)
(0.0002476475457108569 0.001202456870438059 0.0003685388293521909)
(0.01184107558641199 -0.001399504281513536 -0.002372956371593949)
(0.06139220539714202 0.01295262857066373 0.006741769214605871)
(0.0001737819638157659 -0.0003037348774296889 0.000218898631856064)
(-0.0002664654227776313 -9.010960153290765e-05 -5.311028896456178e-05)
(0.002773039575996124 -0.0133904977413586 0.005995968635539273)
(-0.0001122895532971863 4.181261053073908e-05 -1.812305215585317e-05)
(0.0004924619444816611 0.0002081127977074188 -0.0001781677542112518)
(0.0007111575446983355 0.0001679526740141368 -8.462186219735453e-05)
(-0.02339150721201728 -0.00298407355791974 -0.0007278100643599497)
(-0.00015525871028891 -0.0001702333351448909 -6.192531714018797e-05)
(0.0002152690663767159 -4.538524493816116e-05 4.857598688056504e-05)
(-0.005016790955139512 -0.01356535980713038 0.01271868965209362)
(-0.0002487548780559284 1.095600275223375e-05 8.421472943401859e-05)
(-0.02132193508461211 -0.002764244251397317 0.0210299620781685)
(-0.0001493603804895827 -0.0004969074578068836 -7.129075121097147e-06)
(0.01194525808818983 0.01978610526410681 1.199271801030112e-05)
(0.001477169656116154 -0.0008837552272344864 -0.006164188653126312)
(0.02366302422032406 -0.01267179594487718 0.01391572694255061)
(0.002490597861387789 0.0007973418104625856 -9.501334457202068e-05)
(-0.0006187584968259663 -0.002739501438547925 0.002903473381004427)
(0.000242962609321496 -0.0002533207701721396 8.324391440909455e-07)
(0.01160647586484509 0.004209873940230405 0.01077153641119808)
(-0.00292098657965159 0.001714228394257911 -3.281386395248759e-05)
(-0.002300834385064977 -0.003438187466848872 -0.002743445672408321)
(0.001472795190245227 0.0009263332513942557 -0.0001443267148617555)
(0.0003376472987945537 -0.004308565592348357 -0.0015831930180425)
(0.0003969205469331655 -0.0001025224367214396 -0.0002022945205239905)
(0.0007805588352876583 -7.175873837248409e-05 0.0004816480757659591)
(0.01699429880581645 -0.003262401824598953 0.0009138699475121188)
(0.005617247928946585 -0.001733586657262197 -0.002937748635116422)
(0.009303571264666624 -0.005896715878426347 0.01410360246265078)
(0.0005472654491064598 -0.0001427099291076161 0.0002445688791524116)
(5.294162858109763e-05 -0.0001647455685709541 -0.0002671959115713962)
(-3.610231357134768e-05 -3.277978596046742e-05 0.0001645139355450242)
(-0.0009764783198091124 -3.245569896460546e-05 0.0006492176808359433)
(0.01920685948908818 -0.002643096804940712 -0.007859317889146563)
(0.0004212405968960362 1.195075486890949e-05 -0.0001655567740351392)
(0.0002046841809422415 -0.0003133653035366201 -6.57569519905443e-05)
(-0.004524207852928251 0.02364594827134243 -0.01916047508132128)
(-0.0004949570837510751 -0.0001899213815744221 6.470275755810081e-05)
(-0.006175917186198351 -0.0008032322439136394 0.005096798867080369)
(0.005478623233350648 -0.0007213390549455085 0.0004627042827880599)
(-0.00504983277173195 -0.0009197548185344211 0.0006631621784289753)
(0.002811580189502504 0.001660010585665941 0.0002915946941143034)
(-0.009139646788450429 -0.001275326583144087 -0.002015810046422777)
(0.00399470338231655 0.002046764305012811 0.0002842731735494004)
(0.0001469716372753588 0.0009900536072579261 0.000481755684143998)
(-0.006148043945866525 -0.009698351150667922 0.02573401159943986)
(-0.0008041167692621182 -0.0006297593313329753 0.001076528984317637)
(0.002533110584838237 -0.00160034001091843 -0.00172727067145956)
(-0.0007076307186771481 0.01153455727993235 -0.002627995317461112)
(0.003738832824349679 0.01043904110865875 0.02094432941690374)
(-0.004600175648543568 -0.0004139610700420226 -0.001866303123669079)
(1.366728157225438e-05 4.220286499904558e-05 -2.53859331685092e-05)
(5.799419411823252e-05 4.11081418982323e-05 -0.0001443599268567746)
(-9.243218017911773e-05 -0.000286555003065888 -0.0001758254658048077)
(0.003104726975455184 -0.0001039099730719728 0.002477844764008955)
(0.002269276981631679 -0.0003615838074530219 0.0004645710045945965)
(-0.001844015121761598 0.00766323337842506 0.002980239959241837)
(-0.001885241309964204 -0.002048586504715106 0.001593543813504128)
(0.003563150662016846 -0.001460729354862078 0.002895253680871746)
(0.008928163670291315 0.007290188671025883 -0.01924427700394265)
(-0.0001072004979224671 9.735039443722584e-05 -0.0001213167065445307)
(-0.00873302416593892 -0.002205284774437341 0.004473664395837932)
(-0.003889162688049319 -0.00401635483816153 0.01160380433815995)
(-9.275817817027662e-06 -0.0003799638634580762 8.464049246701135e-05)
(-0.0006233542672668675 0.006690615042734474 -0.01439704308050629)
(0.001744975623713945 0.002710295620232421 0.000687247256607096)
(-0.005056523929463914 0.003861042021627948 0.001538637490664468)
(-0.005938753775953081 -0.002123003161087329 0.003292185496461248)
(0.068105324416998 0.07882719323578652 0.02148249851794092)
(0.003028829502793266 0.005588131613276059 -0.002567564175961297)
(-0.005512501400393582 -0.003209978223807195 -0.001652933132513132)
(2.276012157035559e-05 -0.0004210853616480352 0.001982705636759769)
(-0.001804991633725005 -0.0004149411937218088 -0.0002351160716767346)
(0.002228937691728117 -0.0002732391833052683 0.001190253092076349)
(-0.008130006570442442 -0.003804059100465591 0.01056227976417756)
(0.008140286262810555 -0.0026241176586112 -0.007968604742606931)
(-0.01674649190478229 -0.002387851386806344 -0.0003567955773404121)
(0.0003360894027828564 8.921216930248502e-05 8.368749572619427e-05)
(-0.001071435232242658 -0.001003942080832537 0.0002284802505797712)
(-0.0002385972002598582 0.0001446121853692511 -0.0004273006867133704)
(-0.0001926114441420703 0.0002352413831436688 0.0005639637316316845)
(0.0001530439451359617 0.0002319840466940444 -0.0004756382412384738)
(0.001377690820824029 -0.0007772124700425802 0.0004061444627044509)
(0.001047987858506037 -0.0003634418978523263 -0.0001085267037175936)
(-4.790124550512998e-05 -1.962199636446609e-05 -2.133064011657286e-05)
(0.007402997979148632 0.03091826918918222 -0.01370866797541409)
(0.0001346314741669232 0.0001225338236674047 -1.818781712490847e-05)
(-0.0008230547862303056 0.002819345489420661 0.000890433358017196)
(0.0001028511717335249 0.0001117560445494854 -0.0005770828380864853)
(-0.01206145026366383 0.0003117824216759641 -0.001937866741914055)
(0.00621908298078473 0.0004757681872202834 0.001984597182130979)
(-0.002474509729211049 -0.00202415137665851 -0.001289903333796561)
(0.0002204143341360961 -0.0001333619808942505 -6.795595395534539e-05)
(-0.00831602458934352 -0.0004169621489669394 -0.000561206148934363)
(0.001132393124007051 -0.0001979640128106071 -0.0009367404172796918)
(0.003549586180291448 0.002575812922892432 -0.002975216235560417)
(0.003854714144994805 0.007280220738160216 0.01012760951445925)
(0.0008969875678122367 0.0005439250472961997 -0.001228165448285615)
(-5.44959421248928e-06 7.794135207390266e-05 -0.0001855371140755576)
(0.001052112586980065 0.008351671795605026 0.006853670974076687)
(-0.000226825466453748 0.0004024570936260056 0.0004064746086612606)
(0.0005091100615369502 -0.0008089942989980233 0.000262213267344944)
(0.0001435293907799481 -0.0008763227939152539 0.0004013608764279778)
(-0.0005830677639030168 -0.0001605489168481796 0.001224450797838295)
(5.849782836436883e-05 0.0003550419681163194 -0.0002171685982160704)
(0.00512414152281392 0.0005709363847465312 0.0053908032836299)
(-0.0001597055076508964 0.002090475638122987 -0.0008692148791054039)
(-0.0008382166948022685 -0.0001754470995122834 -0.001590930140299578)
(0.0001288214306013617 0.000348162757336721 0.0002102851343653053)
(-0.0001401508120615083 -4.343299967901661e-05 -0.0002885897991299564)
(0.00103084485979645 0.002298015367596049 -0.003606135331116499)
(0.001381078826449384 -0.001423796971996794 0.000175969853453957)
(-0.0009957931589935033 4.642777105279229e-06 0.001732112533535799)
(-0.007225100844473272 -0.003792941063298211 0.03295266274006211)
(0.003247154147866679 0.0002784784878265964 -0.004245148492439109)
(-0.000137558998990527 0.0004381818675367199 -0.0009943399816133354)
(0.007464736641110617 -0.01332570785227518 -0.001801287369134773)
(-0.0005971626139240473 -0.0004439535120449796 0.0001592190877083934)
(-0.0007959474173832687 0.0004941985265426122 -2.267735510523723e-05)
(-0.0007042447750108976 -0.0001904050800090138 -0.0002265770483493522)
(0.0005603195585821537 -0.0007686182631199121 -0.0007040949965429312)
(-0.00236075196971842 5.742382515842176e-05 -3.877366365219909e-05)
(-0.007951399062951984 -0.0004187471938362107 0.0120472131628451)
(0.000199694518577293 -0.0001319301958943032 5.563050581999178e-05)
(0.001832867474188759 0.0003137330652294348 0.000262467786902753)
(0.0001706660410138987 -0.001110145887725959 4.945310658876989e-05)
(0.001734766992431944 -0.002273425294391979 0.0004002582445275489)
(0.000138785516054301 4.955985288680928e-06 0.0002013196268779347)
(-0.0005226117630875262 4.585363514634708e-05 -0.0002376860067287101)
(4.575276760175761e-06 -1.814936520718825e-05 9.838167046448312e-06)
(0.004821739938000894 -0.01203094266577496 -0.0001577387944203048)
(-0.0002354889022506994 0.0001492822932929522 3.57812095646589e-05)
(0.0001065651353424546 -0.006140752900093392 0.001691984463890767)
(0.0002046177545222881 -0.0001841492097365742 0.000464506938749185)
(-0.0003046794956996684 -0.0001928677978259299 -0.0003775650687082056)
(0.0009019563653100513 0.01123699962379242 0.00113608484208126)
(-0.0003349917893824114 0.0009787997388522418 0.000834586037996546)
(-0.0001192290607342817 -0.000232511008102835 0.0005723487733590685)
(-0.001256016170509518 0.0006596986983480737 -2.796333562651973e-05)
(0.0095172481448481 0.00204577106571665 0.002082604332181917)
(0.0002317104529551387 -0.0001617354659243324 -7.029648035508118e-05)
(-0.009260262334156369 -0.001358628791010076 -0.006926434835509878)
(-0.006053357476157008 0.002198583092989774 -0.0008157839104730509)
(-0.0007387285072352005 -0.0002384694803228979 -0.0004538004674287476)
(-0.008813991147968622 -0.001356723090308451 0.0015129714757278)
(-0.002434361020292324 -0.002040428862251207 0.001938843905333879)
(-0.0005612490471312178 -0.001242352943301884 0.001827911254347849)
(0.0002164809612650443 -0.0005816553470302055 -0.0007417690012375032)
(-0.0003636845749307505 -0.001227977315515436 0.0002199204946240862)
(-0.0003337499067570876 0.0001575532394246972 -0.0008448370652172615)
(0.0001326093892204014 -8.75870810014948e-05 2.590629347405612e-05)
(0.003679366443147924 -0.003532932012312297 0.001200227080511733)
(0.002129540397093706 -0.002480949815903182 -0.002773830395058491)
(-0.0001200817839172858 1.786585356728076e-05 9.08315161077458e-05)
(-0.0128730680141028 0.009152294473720117 -0.003118551801132477)
(-7.844973857739153e-05 -0.0001945205482470195 -0.0002010173547540922)
(0.001968083188821807 -0.0004243957374645128 0.0003710772526088151)
(0.0003232324087262317 -0.0002700843035777634 -5.337834712334599e-05)
(0.0005173438162940909 -0.002081553392870358 0.002460379315150721)
(0.001146093777917029 -0.00036543714096978 -0.0008201790320080538)
(-4.630711883403025e-05 0.0004013064946529477 0.0009324151740206219)
(0.0001887685877351926 -2.627447074324793e-05 5.152724669799993e-05)
(0.000155631596055085 -0.001965878535502957 -0.001967094254845722)
(0.0002080822202594578 -0.0001983354147225651 -0.0001699473816973831)
(-0.0002925359329295699 -0.0002517919612943899 -0.0005397220253277287)
(7.489796979539571e-05 -0.0002190395777150706 6.183504529222488e-05)
(-0.01537410138638031 0.006838032947083388 -0.003415676851117642)
(8.325765443439881e-05 -0.03333537921136093 -0.00151589423713203)
(0.001952034725253629 -0.001499875638304381 -0.0009340851007039336)
(-0.0003653298565203775 2.521745774806817e-05 -0.0003043534339971784)
(0.01223513538306204 -0.001575006572378133 -0.0006794755751921201)
(0.0004165718445248223 0.0002112962870298165 -0.0002984090426290981)
(0.001791023470358352 -0.001160845563057309 -0.000938397366291249)
(0.006440158968693825 0.002141250426781656 -0.0004029570088000165)
(-0.04790048316199834 0.01386933581406562 -0.004277677751508488)
(-3.765406227287201e-05 -4.875400367974141e-05 0.0002061351739678875)
(-0.0001295803268745858 4.267690433618532e-05 0.0001594672554593186)
(0.005364361091184966 0.0005669715785517294 -0.0004592276712153033)
(-0.005065406697355931 -0.0009180657773093645 -0.002432775768930028)
(0.0002029935441791818 -0.0001928027424933698 0.0002357382761702989)