/*--------------------------------*- C++ -*----------------------------------*\
| =========                 |                                                 |
| \\      /  F ield         | OpenFOAM: The Open Source CFD Toolbox           |
|  \\    /   O peration     | Version:  v1906                                 |
|   \\  /    A nd           | Web:      www.OpenFOAM.com                      |
|    \\/     M anipulation  |                                                 |
\*---------------------------------------------------------------------------*/
FoamFile
{
    version     2.0;
    format      ascii;
    class       surfaceScalarField;
    location    "1";
    object      phi;
}
// * * * * * * * * * * * * * * * * * * * * * * * * * * * * * * * * * * * * * //

dimensions      [0 3 -1 0 0 0 0];
oriented        oriented;


internalField   nonuniform List<scalar> 
37423
(
-0.1082425245545735
0.4225253466938799
-0.4557237663277469
0.1414409441835616
11.00187133700002
4.694664183979448
-15.69653552103675
1.587572925504807
2.840032977959607
-1.485034869014169
-2.942571034428438
0.6133757977437455
-1.188587889558113
0.5752120918770246
0.1167931352989942
-0.1665634161609567
0.02976837859274031
0.02000190228287873
0.05054710390788015
0.1480513336725065
0.2986436198092944
-0.4972420573543808
9.145254349095877
-4.645633537589272
-10.83552400975713
6.335903198255383
-0.0546154173097949
0.05804458456430873
-0.01057741430434193
0.007148247069535462
-0.2390330727662675
-0.005146912060532201
0.3892073505647197
-0.1450273657209203
8.637802992965897
0.6721338393102029
-0.465877994378239
-1.421681779028849
0.425477037322238
1.462082736100847
0.3021131185095829
-0.5554621929766225
0.7714074101014076
-0.5180583355659397
-1.053580534057638
1.303182886819791
-0.2496023527396749
-0.4608288768646364
0.4944244145023434
0.6104410717575551
-0.6440366093401535
-16.29161262388914
8.946434537240851
-0.05874705891711727
0.004441826184242625
-0.1244998972057153
0.1788051299539576
-0.466261634301122
0.8194777446835161
-0.05110299183713744
0.1809768398546819
0.04956702269391145
-0.1823629099022697
-0.04818095262263453
0.1022493458881459
0.02874744109157075
-0.003742634931456135
-0.1272541520300038
-0.01612455544577246
0.06123994524785384
0.03032130177922577
-0.07543669156593293
-0.2211537599319538
0.3804558633466721
-0.4245609090386079
0.2652588056377675
0.4049763119028937
0.6849053645321576
-0.2698449460920315
-0.8200367302910753
-0.1156940242161947
0.1257034648553055
-0.1101789380151044
0.1001694973921446
14.75504434263074
-17.67938501627937
-6.35797223362412
9.282312907129905
0.5957302792812392
-0.07786463629253412
0.0951986452524234
-0.6130642882340905
-20.4006367886453
9.322217043843846
11.07841974479315
-0.1819198316073636
0.1435791682869563
-0.4279209709508492
0.09415165792292787
-0.08729461571893715
-0.180923895330949
0.1740668531408478
0.1645421589906188
0.01177996288173853
-0.1817132594066142
0.005391137558846081
-4.255926967064065
-22.45047458230906
2.754206776641853
23.95219477252209
0.2187510802934655
0.3984049858282083
-0.1589834862500294
-0.4581725798451409
-0.08364332471964211
0.7073707169273553
-0.01532723437165749
0.1097335845853838
-0.1060528430128383
0.01164649281620966
0.06090136298255928
-0.6393873593116015
0.3346557535078369
0.2438302428633602
-0.02549221772006058
0.05690928818611227
0.09077367088252095
-0.1221907413187012
-0.03465367177937027
0.0105414802293544
0.1186612162325856
-0.0945490246701141
0.2200660861870527
21.49523668237655
-19.33968591995137
-2.375616848622573
1.239750845062724
-10.42288984055346
9.100369636126347
0.08276935925218956
-0.02339754021739288
-0.04609120372438236
-0.1041355900927601
0.1736243340522244
1.614924631996533
-5.661057460163965
2.18625498041133
1.859877847845606
-0.1296943352272328
0.01151340855526693
0.1433260156482964
-0.02514508896422204
0.5541867256994228
-0.7018197915296788
0.1930959627362819
-0.04546289689031052
-21.01799553916309
3.667839971945783
7.173098253277583
10.17705731386808
-0.2146782029063452
-0.9210232053505679
1.000738083211167
0.1349633251214719
0.3274084554516826
0.02898317288690321
-0.4885546629097285
0.1321630345701021
0.04627616459020073
0.6449693716933806
-0.04304958531084831
-0.64819595092854
-3.590165405011821
-21.73860849852829
22.60980582216141
2.718968081363355
-0.9473819207052703
-0.6682020549471759
0.1729378106712298
1.442646164985906
0.5179358308230229
0.2494519650715398
-0.5242445426786388
-0.2431432532003396
0.4239776088127363
-0.1796589841082629
0.3748594680929325
-0.6191780927715539
-1.122584406990925
-9.736014706989788
10.85859911384828
-0.6973078332590568
-2.737864319337243
1.115241775174157
2.319930377695447
-0.2517770674255912
0.5921113515249606
0.04423987753511229
0.1596230745222819
0.04076503819480144
-0.2446279902241852
-0.1343133120935072
0.04479013071763569
0.1072174862689353
-0.01769430487837875
-0.5107710854278702
-0.08956361272058147
0.09357587351671022
0.5067588246981134
-0.08959551321881305
0.5947367327717171
-0.8753723731444019
0.3702311536201074
0.2690533546084019
-0.07387583912823061
-0.02299779182570045
0.009598946230241295
0.08727468473462589
-3.235069448754497
-0.5617664560547381
-3.064581249170214
7.248571775724189
0.03769677591686094
0.03488658434923519
-0.02675672633694331
-0.04582663391753842
-0.00881770323089714
-0.07695637207024841
0.0001370659762401628
0.08563700933488526
0.3919956639867808
-0.3775559494533705
-0.1345971142419225
0.1201573997460329
-0.3188161244691486
-0.1554387478257767
1.159160236872196
0.03023379183582488
-0.1045671307191618
0.02028071585343614
0.05405262305183871
0.1157916703386495
-0.3006618587859772
-0.15854240453867
0.3434125930033141
0.3419908394671273
-0.7914947696374635
0.2230816228263168
0.3587162634257837
-1.145234361557948
0.5634364753419815
-8.547410614695851
3.961797426952584
-4.787792058336122
0.07995293972391182
-0.04562683275021501
0.01582709213553235
-0.05015319908657954
-2.389671927276886
1.019548295053223
1.113465856826367
0.2566577754399908
-0.5334201109185228
0.5336727248051766
0.0950842677770425
-0.09533688162150773
0.01998362123178947
-0.2876068422154431
-0.363315808246411
0.63093902923598
0.1168896003873218
0.07788053997828036
-0.1540197328581769
-0.04075040748501785
1.641699496771618
3.007121595987491
-0.966736107564189
-3.682084985044465
-0.03267580890398025
-0.4016018482510083
0.6946784176097871
-0.2604007603752578
0.6328284672138048
-1.958694900136225
0.4529317968887102
0.8729346360913272
-0.02256729541769884
0.01206888550375961
0.01049840992455355
13.81619547591453
-1.084800527652507
4.752481383711966
-17.48387633205431
0.7354975606791594
0.069056807841629
-0.02294173747896635
-0.7816126310181647
-0.1835800309071806
-0.5315012138779989
0.03586497165534115
0.6792162731524574
0.3031519732414296
-0.1397146903152782
0.1034684318430558
-0.2669057147397624
0.008953646870884848
0.0814717399590028
-0.07828494236469825
-0.01214044444686247
0.04071400392698733
0.02896756154589003
-0.06968156546274742
-0.07865008811254254
-0.5348376862293488
0.361710706917582
0.06582259814053924
-0.04144096776227655
-0.1080489106909528
0.08366728032905731
-0.09088060704302196
0.08513844268396657
0.005742164371444467
0.06024954825413859
0.4318100470424811
-0.06000966139159312
-0.432049933881623
0.05085385386809332
-0.01378868963420267
0.09778462789091243
-0.1348497921111436
-0.1176644887763004
-0.2312185389020202
0.4646746980267948
0.2955293584650945
-0.01478886139382803
-0.03014730252458292
-0.4632777393233749
0.5394537613097298
-0.04602871943462775
0.1613851557868316
-0.02122456502450953
-0.1699125815849778
0.02975199085134519
-0.00176328483438659
0.06016130266807057
-0.009586339609833527
-0.04881167820894286
-0.1115055889710654
0.5204366511782391
-2.072013137654339
1.663082075510584
-0.6797887891793301
0.7774865446606076
-0.1339645759384612
-0.1490975541765533
0.1936264735517571
0.4261350668829672
-1.177629349386741
0.5578678089869464
0.4694799644795705
0.01808243863077069
0.06028859655469516
-0.06354614501575742
-0.01482489015621769
0.04317495041352162
0.05206183162695204
-0.1915597977450614
0.09632301572357854
-0.6203948152048766
0.5886391007012859
0.2325634636129844
-0.2008077490911798
0.08872376096329772
-0.04309197974393596
-0.1076593791177602
0.06202759791360327
0.1039726694721238
-0.08697250258320612
0.4811411574242262
-0.4981413243010417
0.05001777102617651
-0.06489134534501072
0.1069760980539646
-0.09210252371877835
-0.1013596033464949
-0.1498692358455596
0.3811755454722748
-0.1299467062835508
-0.3266874640340729
0.4777951413320771
-0.2524672806500284
-0.03578404508373027
-0.03700819546437582
0.1400668532165564
-0.06727461265256254
0.1040126930445666
-0.04604340142511237
0.1019169552033735
-0.1598862468018458
0.09871410685665957
-0.00532934362997636
0.001027510608400943
-0.09441227382331363
-0.06794530234502208
0.03309765744732528
0.1341578247718296
-0.09931017984217289
0.4366555863773008
-0.5504888649312085
0.09479456403531512
0.01903871452678333
-0.4319336273153087
0.6570522618998772
-0.2270741112586718
0.001955476699897596
0.06758045205250809
-0.2365841627217825
-0.19194006853849
0.3609437792264326
0.04328055720244597
-0.02862521679387093
0.08735365658479434
-0.1020089969797114
0.618601782103394
-0.3612371995166389
0.2907491676523696
-0.5481137501919411
0.1017207996888556
-0.08374881777476104
-0.02879633285952054
0.01082435096309569
0.1167202054643244
0.3207570142633982
0.03200274477770512
0.4592483314649785
0.1911445988216735
0.7022995494208087
-0.1138450698096809
0.2142581845899394
0.7910266684212823
-0.302985303562582
-0.2092580382219938
0.1433481979322944
0.1616745756089686
-0.09576473530135428
-0.532287477961538
1.304771684603458
-0.5597846440086797
-0.9004257883937176
-0.0309955861521591
0.08688449106385929
-0.0229483070884851
-0.03294059780920944
-0.1397607371724839
-0.5188223611156431
0.3653708359907342
0.2932122623790989
-3.185843775326712
-2.983929655783422
3.801751391451351
2.368022039578314
0.3161482329725356
-0.2929305180960827
-0.5838777807021033
0.5606600658742069
1.826588316523512
-0.4014932459948874
0.4697939569927629
-1.894889027519747
0.351229225630371
-0.530037240911189
0.2397093782940521
-0.05482775857040848
0.333811956746931
-0.5394539938642986
0.2604697957024624
0.1831576852253158
-0.1849526767831516
0.1024800912565432
-0.1006850996753399
-0.1278295985890316
0.03847588651433469
0.3193657867014679
-0.2300120746050704
-0.07953205207586407
0.01268890525564292
0.06214970472334663
0.004693442109935003
-0.2062382901646345
0.01731357501341143
-0.01709412452557545
0.2060188396968927
-0.07652295873193338
-0.5122964620018969
-0.009312079649295783
0.5981315004169602
-0.1563334131422191
0.1175281701404379
0.03880524300988989
0.2235030225782539
0.02562570417332581
-0.167409847751558
-0.08171887896733554
-0.03813313647333834
-0.09563027457647849
0.1504231590508883
-0.01665974798447492
0.2055951179222188
0.05824769092861553
-0.1037032816800791
-0.1601395271521455
0.3054338900616998
0.2184873124665895
-0.7040393150628892
0.1801181125660746
13.67483737721866
-9.147866476430639
-22.50686770049015
17.97989679962868
-0.5833433203074662
0.02122111853667672
0.619943614634561
-0.05782141282585455
0.1185027600126209
0.02603795269535258
0.01038356315130942
-0.1549242758353462
-0.07029886149281779
-0.5315090603920624
0.6094707192190569
-0.00766279732063772
-6.766235978297719
-5.433258678507111
-17.45912152248747
29.65861617910884
-7.645257412815613
10.94577903105469
4.20840692800637
-7.508928546178471
0.08958329534481801
-0.08007692499124314
0.04527541801160834
-0.05478178834895878
-0.4724016693559482
0.2347680949913184
0.07903001906593569
0.5398154387251081
-0.09916722478314224
-0.5196782329779551
0.2345697053233499
-0.120605051547245
-0.2638338896133131
-0.2893838820970733
0.5072651108622904
0.4248586848407713
-0.6427399135581557
0.01293786560536005
-0.1515870627006078
-0.4477294747003016
0.7573584478946143
-0.1580419104592781
-13.62000556270439
6.129969983082472
1.069500145396769
6.420535434145004
0.08151413673049317
-0.003133755156682821
0.1668605418638759
-0.2452409234200031
0.07587995891775076
-0.06898802636377567
-0.006891932542205825
-0.07486733925255146
-7.34556540121755
7.420432740355278
0.3924568975260476
-0.36648417279261
0.4798823545380806
-0.5058550792482962
-11.18101309354444
10.57880164473824
10.68401531690707
-0.04015429992082396
0.5276954652273749
-0.09070853464146207
0.08667912679097854
17.99029523537948
-17.91728182941654
-0.07301340600642886
11.85012137279682
-22.96096858858089
11.11084721578244
0.8944267528558002
-0.1407148069458656
-1.548643327521099
-0.07893866969778997
0.1262690040685871
0.01196265254748669
-0.05929298690570293
-0.1148574147273876
0.1789997772709184
0.2291367114428521
-0.2932790739836919
0.4780721011234974
-0.4413602758244706
-0.1959436006804844
0.1592317753979351
-0.1323401990941093
0.5485895442640287
0.4352323284435337
0.0974566783369125
0.06204772600830447
0.4909337273087289
-0.6078674253441138
0.02159681644336372
-0.3090920035135445
0.1041276201846386
0.0843593317870749
-0.5516158968853118
0.9142965859272292
20.80950631732284
4.749122489216364
-26.47292539242357
-0.5841472972699964
-0.2149418361158408
0.4952951502588558
-0.4073343998160633
-0.1399117800263733
0.05195102960196431
-0.04753570540084269
0.1986618005423299
0.02998575366761192
-0.1811118487989066
0.3383401355087488
-2.648460840444463
-9.535035133251409
8.948426524839405
-10.4531756336505
6.237920011327007
1.566794781808104
19.49134902495927
-9.243196369076562
-10.24815265589624
1.123049964314295
12.38911864847531
-12.84003477354382
-13.6559560639895
5.841362200637787
21.12407474060757
-13.30948087724873
12.54709491855294
-11.63431578621832
8.515473909071323
-9.428253041380586
1.160241510253502
-0.6130072749934142
-0.2564850675530306
-0.4838990454087566
0.5816505019245349
-0.1379057564278011
-27.09187488780594
9.813116213823871
17.27576169624695
-0.0196178080522377
-0.132466981216407
0.1883135953814042
-0.03622880608499866
15.91153898126343
6.742531400973563
-38.27586571789823
15.62179533568196
-0.06363952381875279
-0.6079328077337273
0.05239423878936184
0.03458894035520371
-0.1460629845746769
0.04812599774874089
0.06334804649150208
-0.002746930767351974
-1.652938155988859
-1.979452596024837
3.940463424870772
-0.3080726727733307
1.845015454785584
-1.190390052471801
-0.09857296391214251
-0.556052438357161
1.379597081518753
0.1016050176931074
0.4848309605919568
-1.966033059744516
-1.146176510727607
0.1334770016719004
0.1813330216880407
0.8313664874582887
-0.09978007026925917
-4.7140376058658
-5.210420500320243
7.381156697119894
2.543301409115745
0.7375735108990478
0.1869301592168292
19.38951266647019
-20.80906116763587
-12.23640756276454
-0.172489577324286
0.458624351603264
-0.5171131411693799
-0.2833554819446363
0.2816462620455071
-0.3897423403984154
-10.16127280176321
21.36742598146615
-11.2061531797453
0.7650246227717352
-0.5866780733330316
-0.7106340273538115
3.888675368466128
-0.03071898209451906
-8.571993992203707
0.06504645560787631
-0.004345142697052131
0.02742155549390307
-0.06213046642043569
0.03905405363129406
-13.82541605230748
14.9296470640966
-0.1922669149745178
-0.01449503202839414
-0.04061729066942963
0.2473792377062747
-0.2234973547790338
0.02499353407953304
0.28683166365702
-0.0883278429395964
-2.76830889029798
3.544262541892502
7.194406643264394
-8.780788214799003
-3.201410486836588
3.932516964916936
-10.12377162188237
3.422945766597515
-0.02977496274069346
0.0262576077489884
-0.08142057011829047
-25.2520103701518
-0.03061444853451438
0.08539114361663304
25.1972336749849
1.875761608720391
-7.890712731295349
1.662249218625609
4.352701904168365
1.89326823680154
-0.4035272945070185
-2.940688717474835
1.450947775248838
-8.730356301128051
3.888050940030715
36.31461417446889
-2.956016069601079
-8.477133365690968
8.162967114221344
-0.7834708001613497
0.04613516698022004
-0.04714000807626793
0.7844756412838481
-0.05837566532608478
-0.273519739478306
-0.139108744035102
0.4710041488869787
-0.3568678060195156
0.1736170405702173
0.04390263111072186
0.1393481343764729
0.02966334772836218
-0.02070970084545572
0.04330594368304588
-0.04003431008343387
0.1650614773184083
-0.1683331108964162
-6.543112861509525
6.580442079958949
-2.94885744003161
2.911528221681277
0.0004895320309128556
-0.000337038812419929
-0.0001524932165317012
0.0004895320317973607
-0.0135150436058893
-0.008611246153723736
-0.1250336879994299
0.08227874336527277
-0.01188888741156687
0.07408288888201897
-0.1444727448172308
-0.1656648452893082
-0.3331572929659192
0.4465997171461379
0.05222242113104397
0.3609570913094453
-0.4862096348118721
0.0564448696986901
0.06880767381209052
0.1741809546024844
-0.2587975520127955
-0.09217978030546059
0.1767963777356532
-19.53134985931849
-7.567422076689112
-0.05350461043179809
0.143404913096753
-0.003720228227476408
-0.08618007441762222
13.01257703645012
3.760580787573992
3.321566973135959
0.01760887688426245
-0.3591012182537799
0.04318713082869041
0.2983052105668865
15.34255949406721
-13.98420704646591
-9.704539103234817
8.346186655629639
37.87110132250801
-19.63585943159391
8.130930683804992
-26.36617257472935
5.264489527635883
14.78492459938708
-1.459040134999825
-18.59037399204858
19.55314261100613
2.901855988715266
10.95975275878321
-22.80493414113949
11.84518138238149
35.22111999393658
4.954439012921751
0.5702799672922121
-40.7458389743045
-0.07432912234323151
0.1300061529338641
-0.2479796024028076
0.1923025718392838
0.192066932530558
-0.1421151112765606
-0.6206975311823359
0.5707457099251427
-0.1331124839831402
0.2829448311979818
0.07375927249688716
-0.2235916196815008
-0.05878307107025341
-0.004354120595966632
0.09121600815634631
-0.02807881648406654
-0.125991306549544
2.006992842398234
-0.3897681298098505
-1.491233406001326
0.2764892244032746
-0.5265259806750291
0.2150798398644888
0.03495691641551622
12.23645715831839
-5.704952610597033
-6.531504547762854
-0.230971424528622
0.1237633693744312
-0.04858154191251496
0.1557895970847264
-0.3582441185864431
0.4993223581708883
-0.2097558426858525
0.06867760312705726
0.1301046712758493
-0.08679872758534975
-0.06397240922179037
0.01406093196798676
0.04991147726159671
0.6721302851387647
0.5117247858795062
-0.5186182445011364
-0.6652368264248198
1.92827125425644
0.3797049542253975
-1.073347321994995
-1.234628886408649
-0.1381000088451022
0.104825479763151
-0.1022594845929354
0.1355340136956307
-0.05707515974991133
-0.1330133204381914
0.08995663973771102
0.1001318404692463
-0.8497145247146829
-0.6902476649914304
1.760215371650369
-0.2202531819061268
0.3552322595657853
-3.861028648173115
3.332454140483955
0.1733422482368988
-0.8863077399110278
3.409385667666642
-2.586417601245306
0.06333967353834329
-0.4761965443157076
0.2374196796568399
0.3035954737359466
-0.06481860904934197
0.1756365342881288
-0.3208221371638503
0.5270553899837366
-0.3818697870836499
-0.06596629112986137
0.07530620589496877
-0.009339914751667774
0.1029325575231153
0.1647824099135715
-0.2677149674327977
-0.06895482816406948
0.005242016391076754
0.07642229624513125
-0.01270948445901217
-0.05809949561681859
-0.09560306572202938
-0.1065647891583239
0.2602673505344947
-0.07460649994220957
0.1057827478573161
0.1707930410816771
-0.2019692889769987
21.18351134369742
-13.59422559378857
-13.97222603078275
6.38294028080773
-0.005881947106018768
-0.05697915392954624
0.001308274885645332
0.06155282616418072
-0.02890605875930464
0.03830072287787727
-0.009394664113051527
1.973370893046074
-2.582722738450532
14.20450464788906
-6.832825011300017
-7.37167963663634
0.04200628573612286
-0.09119433798111486
-0.0007818153987281438
0.04996986765856185
-0.05161745542555486
-30.34510667298511
-0.02801644126420398
30.4247405696205
0.1140190006324185
-0.06971679017749444
0.2134593462910569
-0.2577615567272262
-0.04766591356701908
-0.02772972124903125
0.0679962589446902
0.007399375882432217
0.07253403609768655
0.6156460853729069
-0.2677340574939077
-0.420446063918361
-0.06240927058951609
0.00240797462729101
0.06000129597583191
0.01549841989566017
-0.01462980200605834
0.0747759039406915
-0.07564452181793058
-0.004885766104640739
0.03032224323185449
-0.01705103217329667
-0.008385444940169922
0.04746014809720796
-0.02739191661949129
-0.02006823146609888
0.003216105149123051
0.06332618976819969
-0.06654229490386503
-0.1396754961092584
0.5710487832590813
-0.4075282859640254
-0.02384500115700494
-0.01468295457179643
0.08975502159648213
-0.08759924514353147
0.01252717813770465
0.08721989270696193
-0.4354938633081588
0.4195698522942469
-0.07129588164471819
1.248027083373722
0.5178955303972973
4.22166694660719
-5.987589560326941
-0.2848471750166814
0.1384363377044094
0.04520028968362677
0.1012105476492783
0.09510648810222586
0.02975812931951376
-0.1248646174036683
-0.02697964383613931
0.1362973155997549
-0.6188741050553612
0.5095564333255177
16.45934311159207
-21.10470581847088
-0.07481633511574778
0.1480685213135853
-0.0008385417706402864
-0.07241364441419472
-0.4954662885780899
-0.03229379352695646
0.5277600821748973
1.562699088087067
0.6186219409870772
-2.263345158154234
0.08202412907149718
0.8418069708839923
-0.03980867058009755
-0.6987725008484148
-0.1032257994333395
-0.2368990214468092
0.2991781728418044
0.08130343892849609
-0.1435825903007059
-0.02032127504329828
0.3629709403022259
-0.3799743033381764
0.0373246381144511
0.1450220095088217
-0.2930694311571544
0.1536668049108906
-0.005619383248426939
9.850615671459146
9.937722975669201
0.1801384817204723
-0.3215802608304182
0.1947229808460533
-0.05328120171851337
-0.2246435907571193
-0.4381894826621232
0.5902973341493718
0.07253573927321476
0.01326104923699321
-0.1586950334017242
-0.01454020408605055
0.1599741882693367
-0.2787038129203728
0.006056142420709979
-0.005069391280196301
0.2777170618026979
1.43379986406703
-0.5674802064509291
-1.672246438729062
0.8059267811734493
-0.03030852407159321
0.124244081010283
-0.1049028119239988
0.01096725500700541
0.002893478169399127
0.02576033260058043
-0.1092217030980825
0.08056789233979214
16.13158786267922
-23.66953272152446
-3.149853357842755
6.290750378879078
23.06061986652338
-1.380406400027228
-0.1901642242539391
2.178217091941979
-0.6076464676276552
0.1615517375101722
-0.2654942420224939
-0.2434193165741788
0.3473618211017104
-0.08811049455076828
0.01168248524781418
0.0388847824292794
0.03754322689036142
-0.104182325686044
0.0007075077306088162
0.09146779900141037
0.01200701896281467
-0.1374323552285207
0.178502855622706
-0.06446804059510357
0.4863134664644924
-0.1935643870222553
-0.3952060561110132
0.1024569766937129
3.228995603121788
24.67093146979658
0.08672695455141724
-0.04567554739173189
-0.2428749859551631
0.2018235788186865
0.01261050587154127
0.3866349706048447
0.0781114420307016
-0.4773569184816275
-0.4810451654503524
0.06956954024857667
0.06729571395011537
0.3441799112799591
-0.5183399635057139
0.05107120873754534
0.256936525290352
-0.6150967227572905
-0.03979843563101479
0.7021529142007995
-0.04725775572321978
-0.0188463108698257
-0.247462551758584
0.7444834279549399
-0.4781745652729593
-1.669040845292713
0.1233156446072729
1.545725200688263
18.61655277306237
-7.36797338061864
1.763997644018065
0.157606053641852
-0.2722071381794847
0.04687579334530926
0.06772529122284567
9.009277253774027
-32.49755269331244
32.21082753254056
0.03595924870651136
0.07057334889932938
-0.06335764718141215
-0.03553550568459552
0.1527912506864113
-0.002782287826089486
-0.1144734571606933
0.06135975741593473
0.03199750977429963
0.05039568110387892
-0.1437529482813891
0.03763136260114908
0.2633858727667251
-0.08145372935941024
-0.2195635059909131
0.4174875096851832
-0.2930144801181079
-0.5130576256582264
0.3885845961202696
0.07793187502206089
-0.02890393914017136
-0.08562195061433832
0.03659401474259337
0.4796105179056076
-1.108935893655824
0.2480720388596273
0.3812533369568034
-0.1039121659274978
0.05899085532182789
-0.0298950245005695
-0.06893916264676361
0.06326116315802213
-0.1182648852686199
0.1239428847669664
24.13829325085518
-12.8968365618621
-20.75917279275966
9.517716103749995
0.1936371751315989
-0.1540229383387195
-0.03961423677954429
-0.3171368094915418
-0.03845495848126163
0.4590920552823122
-0.1035002872929807
-11.60308106519905
14.86143065908809
-2.129825574986683
-1.128524018813936
-0.01970609460219937
0.1169873669253181
0.01809736534069199
-0.1153786376509868
0.06220548477197377
-0.1792749418817637
0.09038113457507621
0.02668832255216856
-1.288711389032702
0.9615314764989549
0.4459217866631519
-0.1187418741053243
-0.01947294782156675
-0.1947441945076493
0.1968568051836605
0.01736033716051314
-0.8461456818281167
-0.6289808974861116
0.8621193043463131
-0.9825627594938691
0.2016645284548937
2.5527721397346
-1.771873908707687
7.043392082835858
-17.42659829589527
12.35377477933469
-1.97056856647958
-0.1093400659597782
-0.5356582728700202
0.7483074005116082
-0.1033090616839259
1.575468770365026
18.29361853244985
-23.45925270779728
-0.0408023650169793
0.09194800948519291
-0.03043061546971841
-0.02071502898759469
-0.510703572047731
0.3179153320688139
0.2306705165744167
-0.03788227656857654
0.498865260573098
-2.153294356203048
0.6832991576428907
0.182632257637756
0.05952515399892402
-0.1649779083411464
-0.07717950327366943
0.4944051695534022
-0.04359372702372853
-0.4857401950710207
0.03492875253873024
-0.100025676947443
-0.4060500632568684
0.3301556128067032
0.17592012742185
-1.779395167302372
1.747386987152916
0.03200818016619367
0.1224064851652183
-0.1275654700963357
0.01097032130327184
-0.005811336350678507
0.004377390593809401
0.09993019117892908
-0.08806803927479059
-0.0162395424862995
0.01895046830270153
0.01428076095641687
0.1115276538071957
-0.1447588830486336
-0.01000326478920721
-0.08005019566575847
-0.04849174090799278
-0.01024417679654014
-0.2934372679181141
0.08352158572899801
0.2201598589992665
-0.1454277651313957
0.07620622806545035
0.1134509563946208
-0.04422941931316062
-0.1538854916517133
0.09819278757684467
0.1548613064222768
-0.0991686023120643
-0.5992051037271221
0.7189236825381923
-0.04769031052849469
-0.07202826818472902
-0.004900740304166272
-0.5169706215668251
0.1040150745587526
0.4178562873191463
0.01440864747390866
0.002199212605463885
0.1426339655942246
-0.1592418256650027
-0.3344175962136979
-0.1931730591351754
0.4332478908594878
0.09434276452474773
0.0008997467727286523
0.178269866223989
-0.1600324210119899
-0.0191371919611752
0.01047818559070444
-0.1428114218355821
-0.02685182114056846
0.1591850574032165
0.7414547964689859
3.895545949629211
-3.826296583983607
-0.8107041618607458
-3.950771289849352
-40.83431707998602
36.52797985349231
8.25710851633302
0.05583047802772715
-0.1584268893990716
0.08849338783785685
0.01410302354738247
22.82716406201509
0.2710355823332629
-23.27139453049312
0.1731948861179972
0.1496710387119508
-0.2008129168162875
0.04456539772883509
0.006576480399563818
8.167829309795099
-9.813895450220745
1.916205608988381
-2.737136921594171
1.210395454700778
1.526741466913394
-0.1053055395859472
-0.04813145062349631
0.02461910178289672
0.1288178884463528
-0.05124298726708985
0.04478562627891388
0.006457361000749558
0.1271995137504002
-0.06522868084597128
-0.2418230558626214
0.1798522229808284
-0.002394355983165015
0.0002949936133526709
-0.06364139455465426
0.06574075693299436
-0.01640375952974973
0.09260593970088196
0.009348743527310093
-0.08555092368260152
-0.06952750690158806
0.004121030633522563
0.1679737655845544
-0.1025672892973894
0.03174502863949585
-0.08897979671574306
0.03886875195119095
0.01836601614179416
-0.07806706616501524
0.0008361477369822696
-0.00132297493588691
0.07855389337778035
-0.5504922431332638
0.08345526359179485
0.46703697955563
0.1200352184645312
0.08950802758587988
-0.1738892591901378
-0.03565398684201945
12.51254100160827
0.7066328812197654
-12.72044465388567
-0.4987292290137389
0.1862355763349799
-0.1244642564531421
-2.241767603729565
2.179996283897867
0.3200121230869208
-0.3599517031822633
0.5153709319390063
-0.4754313518139715
0.6483325682368432
-0.4446598209895738
0.0609305084949623
-0.2646032557160277
0.2643799126369714
2.198680173603017
-3.721071923746809
1.258011837603674
13.2481996033307
-13.3509763832051
0.1027767798575739
-13.7067167355316
-10.39828157119562
10.2795822543269
-0.2291437039409712
-0.2049967365688732
0.3807164009679413
0.05342403957521748
0.3985862150647494
0.1885112876875559
-0.5870975026918692
13.61695968558215
-19.31703529093042
-0.1781863550018152
-0.03242045179616299
-0.1867585300424962
0.3973653368657403
3.403519816596959
-1.121384320275084
1.632161298318755
-3.914296794735066
0.4046679243903691
-1.001227242060147
0.4828545255263033
0.1137047921900173
-0.02014122995612293
-0.009279440625436088
-0.05629474390624427
0.08571541450450103
0.3806450933928978
-0.4897391787426129
-0.08608428972811161
0.1951783750914192
-0.2683145926959667
-0.09074128755033661
0.2563620522176199
0.1026938280537687
1.302254888584629
-0.5250901845870812
0.656635160114822
0.136150651846071
0.07657326619553143
-0.1139227983289116
-0.0988011196938063
0.2282690353983904
0.3174930194913816
0.01603334870119074
-0.5617954035770011
-0.2467995192837715
0.220070800764069
-0.003311438923957079
0.03004015747670328
-9.591873306748116
-0.5728244267746245
-2.64808936838798
12.81278710193348
28.05190485513001
-0.7229940517524257
-3.685383918493887
-23.6435268848687
-0.00161312225586724
0.1426472543327497
-0.05972526016798827
-0.08130887188143575
8.307869928087253
-2.367870413926581
-1.346268920902099
0.710964250201807
-0.4166885561768515
0.2485051065570625
-0.5427808005271277
-1.214171749937184
-0.2267668702447739
0.08610162057941166
-0.3495710993337898
0.4902363490337857
-0.09115446224119221
0.02613785777230439
0.06501660447191587
0.3348010474486877
0.1025744122687103
-0.4476196364981846
-31.87561885191959
6.999562722817979
-3.536109353529012
28.41216548261607
4.332908544370061
-0.6979084039240625
-1.782380793777555
-1.852619346683536
0.01185347585029327
0.02585442099643006
-0.03770789683694069
-0.1896723064682966
-0.004971873727026761
0.6136691156835475
23.63347011930989
-0.04289350669155674
-0.0752031894051733
-23.515373423323
0.1926132331228791