/*--------------------------------*- C++ -*----------------------------------*\
| =========                 |                                                 |
| \\      /  F ield         | OpenFOAM: The Open Source CFD Toolbox           |
|  \\    /   O peration     | Version:  v1906                                 |
|   \\  /    A nd           | Web:      www.OpenFOAM.com                      |
|    \\/     M anipulation  |                                                 |
\*---------------------------------------------------------------------------*/
FoamFile
{
    version     2.0;
    format      ascii;
    class       volVectorField;
    location    "1";
    object      U;
}
// * * * * * * * * * * * * * * * * * * * * * * * * * * * * * * * * * * * * * //

dimensions      [0 1 -1 0 0 0 0];


internalField   nonuniform List<vector> 
19631
(
(5.042607864824065 0.03861361915717988 0.05162514769963338)
(4.955244650912012 -0.05692466640820974 0.02187074321671962)
(4.987971442286665 0.04124457982371081 -0.0263033367015674)
(4.115275595985537 -0.7666779282967726 -0.3131474649181035)
(5.020141316194654 0.07349559862198445 -0.09690072916123056)
(5.06555643659741 -0.03205467889330912 0.009241835184759056)
(4.981676716989043 0.004449430215727407 -0.0004667741096413025)
(2.422465270395186 -0.3139685067156682 0.1421752491834663)
(4.143699954325595 0.725961127892034 1.045972102413975)
(5.011320300703772 0.004496390732032235 0.003744420435047564)
(4.983505710839608 0.08462196468321824 -0.1111328055860211)
(5.10316349948361 -0.03413869188172202 0.001118389905464549)
(4.213465612800851 -0.6328089510487069 -0.2090211280510487)
(5.093876570135377 -0.02738462887699707 0.005346027150667952)
(5.001737255341287 -0.002040709450571945 0.000933952236743142)
(5.09002532557265 0.181490385385891 -0.001346074482465008)
(5.101825744044464 -0.05546192426454912 0.02202502480617213)
(4.554068818561939 0.04434066541740492 0.1336753979852455)
(4.763788348086617 0.2895787578699999 0.3336263416540192)
(4.68867432860836 -0.05487778103169488 -0.3391099879692321)
(5.030383993607904 0.07955932071861095 0.02875031772002942)
(5.095160747202957 -0.01037589827466191 0.04677067660240642)
(4.485021049604346 0.2071703040694849 0.4765422000160368)
(4.991662247723454 -0.04879748830261176 -0.02788592227212174)
(5.09069435197222 0.002552821570859922 0.09550786256722332)
(4.991665797800767 0.04215356809896142 -0.009390007794933774)
(5.116982159622116 -0.05379427784351873 0.05862943938169852)
(3.844296642065172 -0.005490216494148405 -0.05906854909142991)
(5.103511095103516 0.158032363508359 0.3573207903974961)
(5.003575902991396 -0.003577949092258745 2.666948116614411e-05)
(5.090871397042259 0.001183555688389529 0.0635264225282874)
(5.090392607968744 -0.07429133613322651 0.03446510020888287)
(4.985199320348133 -0.06149917896932056 -0.01771277209062282)
(5.032444468961681 0.02839049428678361 0.03799743676798305)
(4.303992406143085 0.1090739680865206 -0.2609912309857548)
(4.475261287084424 0.1310974437150603 -0.4547918729272126)
(4.956389918333047 -0.02963414174285111 -0.00168945091737997)
(4.907908785146665 0.3144099786824189 -0.1185033841772029)
(5.093844968565996 -0.0137428788933684 -0.08137078866943855)
(4.936867112294236 0.4440215442030947 -0.3470093114191267)
(4.609359119608215 0.4000165746855338 0.08926067333402554)
(5.0315647607503 0.03248966185084665 0.01986763950638786)
(4.998106299672821 0.004550753332993887 -0.001453508321380393)
(4.981682336292157 0.05542954840450287 0.05352038557031943)
(4.488086831665135 0.7093099859475732 1.02960515442541)
(4.695795271499786 -0.017190584979531 -0.1934046012121631)
(5.0032488720972 0.005719976617799719 -0.000623109616551269)
(5.010187951891718 0.03921464510041803 0.05705532291343338)
(5.050578605322119 0.02686019634255686 0.05537623071651513)
(5.101231044864101 -0.02118146699726805 0.04986764671556266)
(4.812141761996132 0.02120699904248221 -0.0296543576542666)
(4.780396084102536 0.05500777530897657 -0.05825898132749574)
(5.098516746496172 -0.007281002445968961 0.03991193537433904)
(4.15475302306699 0.1584025046871077 -0.4459863188741132)
(5.025734920964251 0.08388643457697904 0.1387017582875787)
(4.886041941898233 0.02556036424114399 0.1350394886121411)
(5.112041172449908 -0.0416731168704195 0.02822947021551828)
(5.101466393274376 -0.01602364568869466 0.02057806669920803)
(3.774303582807051 -0.3720712589082866 0.5962505677150924)
(5.003828684856972 0.009709490598181963 0.0004080956230169006)
(5.011330193107446 0.001759935125848633 0.005203891046814646)
(2.581506872676213 -0.03038308612651922 -0.06768691003518107)
(3.370163121656567 -0.2932199938328726 -0.4110588082641533)
(5.015975283042788 0.05043966122598965 -0.01481232927810805)
(5.096614895877115 -0.01400626247445654 0.02491450379314616)
(3.472082106236874 0.03481441233484799 -0.3770753373221201)
(5.087506339174782 -0.03497412138873772 0.03652294085240031)
(5.100716674394355 -0.004910339718818817 0.04189490544645517)
(4.943461751571398 0.04553247026534205 0.02362201902183447)
(5.012575769150179 0.004163831688615983 0.00452623074897627)
(5.011806656246189 0.007836356369683878 -0.002106135686819164)
(4.186487497111363 0.623166696921078 -0.8511541439448652)
(4.992619984506165 0.04059926855215547 -0.02861242805463314)
(5.075087470179531 -0.003105148142857431 0.01748792708115121)
(5.116285608826319 0.01836714283781812 0.08792811109268214)
(4.977247113104467 0.02286013592708135 -0.1532913117046766)
(4.991398591264689 -0.02579487931962281 0.003942937009871748)
(4.967342386013728 0.01759612845619608 0.2852598268663503)
(4.840420613911374 0.03359394496402706 0.1758109175674992)
(1.38204822614084 -0.2059972827608837 0.1728739058472368)
(5.002139318498787 -0.007158133315293904 0.008715087899737775)
(4.989826870925776 0.07563500579389684 0.05817740565326356)
(4.938476461952146 0.1630118148049454 0.06878401808865314)
(4.89280091419368 0.1191702880007659 0.1553420041980206)
(2.08186643780135 -0.1130060833024649 -0.3087975500595653)
(2.286540346542061 -0.2443392464308523 -0.3723603215517296)
(5.109442967541849 -0.01272798638464458 0.03213837389689923)
(4.896676844021552 0.07269312239584989 -0.1394446512121412)
(3.368256335769453 0.3115299894223176 0.5276191631964217)
(5.028703879466895 0.03065490250192057 0.04618503825290027)
(3.041940146470513 -0.1011955109186494 0.02047072663222882)
(5.094280654414261 -0.0337064667467594 0.02256746093592242)
(5.07857245452171 -0.03537564965247077 0.01276890568929049)
(5.094705137473348 -0.05228396478078106 0.05191302764791499)
(5.052177096715515 0.009104666400381007 0.1013518387471778)
(2.675289540677815 -0.4909942398153695 0.3989285133343912)
(5.038321877403609 0.02798478085573667 -0.04916833898541452)
(2.964432964166487 0.2110469153271947 0.2569624201919407)
(5.087427320046441 -0.0443180708264788 -0.009655617222204009)
(5.067870055923602 0.04071160230623846 0.02684205424806498)
(5.074106795149889 -0.007110293036119134 0.008374617876171268)
(3.371443542483817 0.3609535357164671 -0.1659964769514438)
(3.658958183582718 -0.1925911369367951 -0.1405928282732508)
(5.027672210496341 0.04153475563731671 0.02912292362770716)
(3.891863971079992 0.10405173616513 -0.01285056734396418)
(4.568483869233813 0.1312452831387994 -0.2433283198089694)
(3.11778015760256 0.01825368529578152 0.3092753207894711)
(5.092904677766446 -0.03058160370015354 0.05721882229235312)
(5.120818028544473 -0.04310445461945001 0.02453814544349875)
(3.836732184605864 -0.1984017137197605 0.3096095453717713)
(4.623119436688535 0.8560351506870311 -0.128987448432652)
(5.019045779668766 0.2804686821094448 0.09763997678742523)
(5.177097369541376 -0.04575285783914986 -0.05807400356926547)
(4.827953623421226 -0.1155867642589371 -0.2104714293529029)
(5.047736054702159 0.000621938535217022 -0.03315197495214663)
(4.96000380720628 0.2033062227087492 -0.1432371087588648)
(3.623048890014005 0.006028456433898181 -0.01762852728454714)
(5.078498970346596 -0.02870862835604095 0.01910141899727159)
(5.048592917986378 -0.1017766350508964 -0.2303374314172318)
(5.077747528925462 0.01286951377517825 0.01135191177500096)
(5.080338347081563 -0.001630257944676529 0.02561490736767331)
(5.090537045412405 -0.02947435071169382 0.01530883511714713)
(5.09628231256961 -0.06012624683710664 0.003106130416651595)
(3.854555420271907 0.06399584005082033 0.4166374888959744)
(5.098617858542343 -0.02409272816951155 0.03075726926986508)
(5.071060598057842 -0.007210264963638024 0.01727561042775398)
(4.922398977274058 0.1493699072631582 -0.1281333129311228)
(5.069611507211716 -0.02114982443307086 0.0198697343015018)
(5.015464402683978 -0.0010455372995948 0.004585373363490761)
(4.635037054551058 0.07635128556285387 0.03800520668137595)
(5.028081031505413 -0.0195080139072036 0.009322186162763363)
(5.018624145844369 0.06473336656514823 0.01076160180775193)
(5.106063393737508 0.06539004843272779 -0.1153783336072444)
(3.628567210044712 -0.5263250364412679 -0.9307784898003417)
(5.052676072614234 0.07448651383183329 -0.04920750004308619)
(3.635877038544081 -0.35706729976596 0.7786362375691418)
(3.683287355104266 -0.1545462792053936 0.0452935695104329)
(5.074460336799069 -0.06046227100710724 0.04322975913022977)
(2.374028888702726 1.302621405511315 0.1184587681102922)
(5.066300103480596 -0.09412174496827513 0.06210452854013116)
(3.177374777282656 0.4711831548727718 -0.04934875512426357)
(4.666952430257296 0.1233065951822393 -0.3026867949305626)
(4.519489519653666 0.01469759471452243 -0.03007481378101813)
(4.991247526714258 0.009263830181577911 -0.001646869576377577)
(5.10721085516182 -0.01803356744969126 0.001208668312062027)
(4.860397850020554 -0.05545444051328547 -0.1045419084568364)
(5.036706356373809 -0.001501763437624934 0.0590061136711339)
(5.008842658852563 -0.001012062632376233 0.004566852005746299)
(4.986644665308114 -0.0002138178010280953 0.01688216352384093)
(3.101257635511143 0.1090718918852014 0.04439543996170919)
(5.104771095081198 0.004474980689600591 0.05808287333607905)
(5.084718982447208 -0.01941421418602804 0.03423403002159944)
(5.089331158579489 -0.01845258544300837 0.04523161112557349)
(5.074965801623724 -0.01713038399361663 0.02266778983351704)
(5.089468368143093 -0.02990716706743731 0.0438099341953207)
(5.052786987623923 0.05439847096089864 0.1033164766147964)
(4.988697375411454 0.007283881656459804 1.170750698955446e-05)
(4.988842848515032 0.1657243375656506 0.1942063350752407)
(2.470219674299889 0.1902138473455955 -0.01160675413173582)
(4.819401222875557 -0.001768195980877602 -0.004040054861993966)
(5.075551635447151 -0.02466115274209793 -0.0005945695759521805)
(4.995050870362346 0.0109597350436714 -0.002546272936929447)
(5.071719123824113 -0.009835849487165552 0.02541964784583852)
(5.092588853261218 -0.01862842560168455 0.02163861860205115)
(4.980542384416922 0.01857156737935346 0.005895476867288517)
(4.986202698747336 0.04212371742465841 -0.01597750698172195)
(5.096340695044944 -0.04956918983247572 0.01893075946133444)
(5.033955634216301 -0.01801059366626681 0.005565069832818753)
(3.66482425924772 -0.1635918174885475 0.2400205281806028)
(5.042348257586545 0.06819521560929115 0.04845600811192384)
(5.081784668994013 0.04599310615321609 -0.07571111941147456)
(5.091357040100995 -0.0009673949804843033 0.01041321027404825)
(5.108737622620012 -0.04443622036247303 0.01382937282442608)
(5.074771449648157 -0.02255499795962665 0.0200195822693434)
(5.085961240219791 -0.01186047427517699 0.05760189960774186)
(5.117992525018941 -0.0375107265765235 0.04157056864394337)
(5.000497937092938 0.01033454424891876 0.003779727431663325)
(5.104701006098883 -0.008144094131479897 0.04282712947683015)
(5.086775445505653 0.04350530015121519 0.09166463505109611)
(4.343271170313836 0.1508928939053076 0.1877966063310709)
(5.095137620859742 -0.03675945409091083 0.005879347515579741)
(5.000308009528473 0.009126422629227924 0.001108702796895667)
(4.995412976535729 0.01376419428667277 0.005462068129015093)
(4.75670571317308 0.08472814382275431 0.07017582452671164)
(5.015513760657226 0.009488447460415115 0.006409772345606999)
(4.97281471380544 -0.01460948662135595 0.00330126800209165)
(5.007925697535925 -0.00159758117604207 0.01545057786959974)
(5.079724486284484 -0.02410757036817076 0.01469567675983904)
(5.073664798742688 -0.03502941686035811 0.01645369461942566)
(5.068311425772344 -0.004924222515155029 0.03373555421397447)
(5.082878665682844 -0.01816522347795484 0.02526265872804006)
(5.020205383286955 0.08881314152076847 0.3020370786564546)
(4.983666618986556 -0.007844961223634664 0.1803054967006193)
(4.996703669993631 0.001237271775017418 0.00128446876407568)
(5.105938999295006 -0.03540481970636807 0.06752423240534962)
(4.776815105928991 0.154690966892402 -0.2500692614919581)
(5.115023263669612 -0.0217987676696651 0.0585393450133288)
(5.016248151995637 0.0323475171707369 0.02559614765185349)
(4.962475828061931 0.06522228072506028 -0.04085947578543193)
(4.972937658432988 0.06284644454617093 -0.04576392194743265)
(5.076361417978435 -0.02764338749311559 -0.001729954690798849)
(5.079581406552767 -0.03156747741791751 0.008863947563122573)
(4.997615080995255 0.006410699233349843 -0.01444550346037694)
(5.08679975475985 -0.03628491695438292 -0.00663653757041364)
(5.001433553156506 0.006103489575363101 0.001498795034063809)
(5.095500795835179 -0.04881819543236488 0.02248181688018646)
(5.062025861557488 -0.01815003415225247 0.04091564227693723)
(5.095990901155199 -0.03444917753211735 -0.01592652296450502)
(4.841287945783408 -0.03053020653280788 -0.05813869801895651)
(5.085494112991212 0.03172262844166924 0.04047700608087593)
(4.985366134577645 0.003830978906666509 -0.02352656655153895)
(5.099117330121004 -0.02915251002950475 0.0156740026798691)
(4.377049055822909 0.600582003978811 0.5562768227665639)
(5.018492507889762 0.001657850373481329 0.01129570938553181)
(5.022911068789218 -0.06096095845306447 0.09145525624045865)
(4.261838955191501 0.08343251366862707 0.08927755029229212)
(5.012162956437115 0.00414669740750779 0.00446672452296579)
(5.010099870039388 0.004709753213885713 0.00230743081686237)
(5.01233191659017 0.008775873065231714 -0.0009821699582125048)
(4.007303281494835 -0.04995201526602923 0.07863157233815632)
(4.998934191190622 -0.008135209440311162 -0.007357087126352182)
(5.013679488275867 -0.0994427860324794 -0.01226334008920192)
(4.975953168097718 0.04479149393411675 -0.03065301124066088)
(5.000620304040699 0.000671603572136103 -0.001704054914288674)
(5.02033732920254 -0.006944399092168221 0.003174585091368568)
(4.998993020126443 0.09741891294382234 0.02173108792721624)
(5.040083912738503 0.0580178447219314 -0.056714915265118)
(5.041177292686909 -0.004299233896304776 -0.0817448819225261)
(0.8225956295990376 -0.1164466998725049 -0.4192075905028113)
(3.86169845606865 -0.08905716982042239 -0.1400836261877277)
(4.985374946271836 0.003424153647697585 -0.02709481133941924)
(0.03100563326167664 -0.01792519686171451 0.02992306698862828)
(0.007957614518214952 -0.04248306860095184 0.02278525203811957)
(3.522795690090668 -0.06282866098569681 0.03484442131524425)
(4.135475151232565 0.08871012020040139 -0.175072498996213)
(5.057872594942872 -0.3285537832299322 0.5295475163948173)
(4.054294914694974 -0.6070788113339918 0.7659787026891672)
(5.039642664345156 -0.1569197043545739 0.01681301574790709)
(5.022456625653271 -0.1925922183595881 -0.2534464094535185)
(3.579540301217382 0.09390233916762314 0.2674731506563187)
(4.963536783752452 0.005273926332888911 0.003906028350747)
(5.132906890076659 -0.04833917870128967 0.05799433953234524)
(4.987022166616597 0.00636542177450796 0.008742613427978217)
(5.054323420931031 0.03989191558729878 -0.01690633455306385)
(4.987131123276987 0.01159114929687299 -0.008689295435046306)
(4.949175793414733 -0.07987507610253042 -0.1638641101725085)
(4.947403468592525 0.01889582030921684 0.01600457419970817)
(4.997737083130288 0.01339278736872432 -0.002201094356886224)
(5.040087810092261 -0.03115456569105751 0.1086889736860035)
(5.02736289388324 0.0156742910216732 0.03268496797894634)
(4.745982174730019 -0.09375897181625077 0.03434054269475247)
(4.573880476756383 0.1752340531467569 -0.2305216094439181)
(4.98005064007342 0.07358913354305888 -0.03169649581536239)
(5.121354880542476 -0.01171313096964638 -0.1058719408124685)
(4.961061862955633 0.01566581009535621 0.001184468489251162)
(4.755541294420167 0.2218518585067014 0.09318988025918884)
(5.088762669427201 -0.05971890606180919 0.04433853384905113)
(3.540567009284161 -0.166188902734673 -0.1591900471656836)
(2.13194923900556 0.04251229698045469 -0.09208109708541064)
(4.975208300254754 -0.1525040440525179 0.1432815221126414)
(4.985744714849572 0.04485177871679629 -0.04944525114720297)
(5.082043303769526 -0.06875118529907681 0.04954532694116038)
(4.732431393265066 0.03711506409581453 -0.07436763299998606)
(4.910087232952833 0.1733853000320031 -0.07523539024608623)
(5.026019572149515 -0.008653968368075953 0.02286996827919466)
(5.009698819397817 -0.2328752965934658 -0.08098084272622072)
(4.998045222063737 0.1172635881596671 0.07353701915734015)
(5.114450284319545 -0.0724108376754905 -0.01250675241757984)
(1.791787265444814 -0.1381655827643967 -0.07400236863728879)
(4.086787169395713 0.1166772901915031 0.07121044762940905)
(2.565581995659334 -0.0267554815689536 -0.1129307917270677)
(5.004117204396008 0.06213801016797393 -0.07613684412986621)
(3.541656828663877 0.006224205560263629 -0.08670028384857449)
(4.995189831873154 0.005702147980568056 0.004392539634608186)
(2.980104470709605 -0.03885660766950052 0.2939099003659929)
(2.319425870689792 -0.2605433992303792 -0.1645555724501897)
(4.99712199007549 0.0495649158894373 -0.02084492474966499)
(4.593507688699446 0.007648547009919185 0.01706936964712676)
(2.931015336135509 -0.298402417867116 0.09364168817064539)
(4.995812890689054 0.006614200275267086 -0.0001030045500833187)
(4.984018362095355 -0.04480816237942795 -0.03273560060513678)
(5.02867275430385 -0.01871753687343651 -0.09009561409311398)
(5.01310649979441 -0.01690854237286843 -0.2135824855477501)
(2.708744860963738 0.327302096770776 0.05166964005308133)
(3.391823995500016 -0.02167993857702619 -0.02257698374926535)
(1.068986465762015 0.0008472386136763751 0.2681475059919244)
(2.046596112350797 -0.009082345596757749 -0.08383688441845745)
(2.63648002772707 0.02946578857901593 0.5579402041908597)
(5.079050805379828 0.01962700696722932 -0.06930620164688185)
(4.177599236622008 0.2493260652523465 0.07803199150597481)
(5.14906424956037 -0.04076422505213155 -0.04891639361781489)
(4.985932572769681 0.02706720862049721 -0.003872877501043738)
(5.025437319553336 0.02774320543905975 -0.09443339757040559)
(2.982998266010548 -0.03052328706922865 0.7535882907265697)
(5.149622521760563 0.01328844869035966 0.1398771818589229)
(4.999160030116545 0.003742866469455688 0.004646112054713411)
(5.094201164204479 0.04830086175582264 0.1832747801129839)
(3.590992962541558 0.1388714293617858 -0.2701709077125194)
(4.966875778481185 0.01896731982182186 -0.02864345164169029)
(4.823019644203774 0.3417330271210317 -0.1934736382839173)
(4.909452002939853 0.1481383682347427 0.198602175567021)
(4.425919545271735 0.1746534453391423 0.1159876052838272)
(5.117502937015471 0.01917287723736362 0.09089401746709945)
(4.81989830594238 -0.01044257569583266 -0.01511070116233587)
(4.632236546859722 0.7663347138158586 -0.2105492286438109)
(5.044766685752228 0.02332500227079689 0.04127222161606237)
(3.342530945123704 0.02532456478172129 0.03287426601872941)
(5.058650420392015 -0.0998504534141282 0.0676144044984693)
(5.03516527777942 0.006276799229137863 0.03265836441729967)
(4.858400901033408 0.3991099779045833 -0.2190316996110894)
(5.035676312910114 0.2355438039925998 -0.4538172277899439)
(5.00140862140145 0.004677545733786192 0.003167341428757844)
(5.00389350400985 0.01039706745322048 -0.001271493722934342)
(4.98584004516919 0.02374470087111325 -0.06800846027576715)
(5.059195605749859 0.1097076286345435 -0.1887530249481435)
(3.501072770740389 -0.404990900944084 0.01743544518896914)
(4.191430068771993 -0.1379981199606837 -0.06547359276331587)
(5.074317039433834 -0.04763813772348754 0.01786254229536205)
(5.10759455909025 0.03716236169979897 -0.004828599735697497)
(4.994042088377892 0.001256070481062453 0.002056220910348233)
(5.108993278435105 -0.04196001390683758 -0.006891680784477134)
(5.069925991956898 -0.05739014571808383 -0.02148582584945786)
(4.063146871920941 0.06538284941116985 -0.1151594317400571)
(5.084376778821436 -0.02348270740116972 0.01524284375934335)
(4.988800171334788 0.06141217714764587 0.01198509599544102)
(5.050152729203327 0.04828808098298826 0.07188684710287266)
(4.680758287467577 0.1264920704974964 -0.09544183439227918)
(4.981880882258532 0.001923727767953477 0.002291963676549645)
(5.014699193190356 0.04095818090052306 -0.06549563287607016)
(5.001206904962576 0.0009383405034241809 -0.004095945641235455)
(2.549249824650678 -0.200870555063392 -0.05067115275146405)
(4.710227481200338 -0.06431745683104279 -0.04606717839583439)
(5.100095588251019 0.1415825627546466 0.3055736081488178)
(5.084138397678857 -0.04998153139423968 0.08029797866209974)
(4.931580675095753 0.02558606874123857 0.03944888478613551)
(3.58722740679254 -0.2099551692570313 0.1178939247714795)
(5.042715253678521 0.05084013029783681 -0.02659994902109172)
(5.084180477642377 0.1486303003032732 0.2481317127541738)
(4.650061278654459 -0.01080916738537584 0.01649246653552506)
(4.991934309320236 0.00175643190921014 0.0003492256234561142)
(4.00721663809389 0.2771560307875514 0.3432786224942885)
(5.079585145367745 -0.07516507389641806 0.05477652601930164)
(4.994311102925235 0.006149074007431718 0.005510409430443312)
(5.30585826699713 0.1074271721181119 0.01144919938586589)
(4.732866161704857 0.04746649586226021 0.6198960112425066)
(5.026648976256887 0.05775691314389084 0.04794624026350868)
(4.40329579067134 0.07263587137518779 0.09297505368087011)
(5.074155327724569 -0.01640684210894555 0.0338475780314919)
(5.000697932456352 0.04637985816484205 -0.01962816319182884)
(5.033004823694385 0.03230794961466596 -0.01220806300969945)
(5.068279389840303 -0.02082738863493797 -0.05477329152312812)
(4.999424471128701 0.003262128402636717 -0.0002757326338030631)
(4.094370863896692 -0.8254300706925343 -0.1967692834925716)
(5.012748001767605 -0.09651390949454232 0.02077706913938649)
(5.033183031544677 -0.002600964350083371 -0.03587608866495696)
(3.846128101367714 0.02419784877295394 0.03402370767096202)
(5.043076683538065 0.03859088765514332 0.04648540385775754)
(5.113687884125388 -0.06410344620281763 -0.008427411026117083)
(5.046402585544749 0.2674629584182611 0.02970688243737489)
(4.655486325930931 -0.4427749009904047 0.02266361897724518)
(4.238649221144128 -0.3598239154263928 -0.1004933616784555)
(5.151725568272012 -0.1454708747580889 0.6386978906518712)
(3.832762456641807 -0.35662651467456 -0.01835443528668633)
(4.712806895860393 0.1295810174119473 0.359096210736743)
(5.081736440832459 0.08695211579513289 -0.1213839970017057)
(3.365602134278688 0.6250897645283851 0.2144477978636347)
(5.015097871555704 0.0650679930340764 0.02226775583510851)
(5.107847365361106 0.0154011426591866 0.1054964648521297)
(4.207428441862025 0.1361779249560215 -0.01003982126136412)
(4.968054264162064 0.2224694718873988 0.0664697254237674)
(5.058062904761182 0.09747877373100299 0.02601595008178506)
(5.054270067060923 0.1586522521503742 0.1144648678206204)
(4.900252680608491 0.02802307825543999 0.005373643522348521)
(5.00234477528732 0.0005157659108159153 -0.007467164351998774)
(4.603838231050127 0.05229392203122105 0.01069829882352664)
(5.004634785424559 0.01672214055286539 -0.01557758778753267)
(5.050300908478218 0.1000007110484558 0.09243095258293132)
(5.016173839729751 0.0007173484997179034 -0.002972417167858133)
(4.720808638200464 0.1574163434262646 0.2435375664075618)
(4.878550876228581 0.02595980713122652 0.1776369521262486)
(1.385940314030927 -0.1122913716086176 0.4168095862493285)
(5.110384242397027 0.01100698160396929 -0.08324552923683093)
(2.812390080152224 0.5060654086790469 -0.2299360812734713)
(5.006860554593692 0.1790737624708746 0.0103031731956193)
(4.962889721062668 0.01166478380566083 0.06295558173509759)
(3.158413441081941 0.05584035006140012 -0.5008296959520163)
(3.989546512373335 0.1213788946465918 -0.07375792111485704)
(3.507149100383904 0.1059650301687469 -0.1647234748138677)
(4.668962077555331 -0.3577353901165962 0.01302766091945279)
(4.990138983814469 0.008285078471963945 0.005488481059514434)
(4.999279448693263 0.02693994560821143 -0.06063275953920571)
(5.008186953415745 0.08778845082275781 0.084176973307668)
(5.026458921589695 0.04535870333540697 0.03471070068796098)
(5.022327642429746 0.04701571071315643 -0.009332657801452735)
(4.977234617347115 0.02792028814071041 -0.01391164164622718)
(5.021624956184965 0.007818121681160979 0.01056939428000912)
(5.044608509178431 0.02053727705877837 -0.05925992450665054)
(3.508796866749743 0.1935148399681113 0.06457888139722179)
(4.997135179551111 -0.0153603674348719 -0.01664032310628084)
(4.969379307340772 -0.004038275053521565 -0.01494733226669258)
(4.946582269962149 -0.1461475232905373 0.1288046222457338)
(5.052480172661055 0.03173303146170264 0.09542564702955175)
(4.248339660038351 0.1135366299814096 0.6499645571084529)
(5.076375743422038 -0.004430918877740954 -0.3043078433190828)
(4.977531923931336 0.01487070338173 -0.03113675001296118)
(5.042822110679759 0.02997084029621839 0.0001882145654901463)
(5.021714094483806 0.03036727328075632 0.03325756069913116)
(5.049477804809018 0.03815393311867252 0.05907667416013983)
(4.990885198887927 0.08299743659050926 0.0076779420393707)
(5.002128726788702 -0.02638524939230532 0.007823357699966216)
(4.99274524632929 0.00159151067416726 -0.00944855914790358)
(4.901198900327785 0.2588455009601107 -0.101007911061601)
(4.996550459350526 0.009005872306523617 0.01752481376545858)
(4.963118985709032 0.05331504193042275 -0.06647726085940957)
(5.004198546331383 -0.0005910822463583654 -0.0001884080110732187)
(5.024152336864222 0.07947216219476215 -0.02007819737014126)
(3.730463279379633 0.1003156845438614 0.04944222504139371)
(4.876553389677458 -0.1489383126228983 0.3986810846925377)
(4.999001011630344 0.001754312431645369 -3.188991229600857e-05)
(5.047130545351142 0.04037272012162685 0.01193729574670546)
(0.6430604694540302 1.417561017826043 2.212681473716633)
(5.017651827439026 0.04176707117487598 7.356822479790079e-05)
(4.974910055149101 0.009892946651974436 -0.02644651062730005)
(5.038954519940441 -0.07150377645603709 0.05362600325023023)
(4.970970636941087 0.01368911004469171 -0.003383243822202516)
(5.048824472016105 -0.0399223401581018 0.0287109589908882)
(2.05601004460289 1.159992998744975 -0.07857196217340892)
(4.930516744313226 0.133593432288573 0.0208019097320889)
(4.843390980951233 -0.14152218509516 -0.1320146048627757)
(4.965103532593546 0.01142025730833086 0.000185481731992984)
(5.000315422231625 0.01211117932577965 -0.01269597583870796)
(2.629737395318987 -0.2118985659993218 0.1883578265455747)
(2.823954046819825 -0.3848418032502551 0.3788201751972898)
(4.978193057143304 0.0174612302790563 0.00299333950707375)
(2.370124452664056 -0.02636160646983093 0.03193159044172897)
(4.993674022973015 0.01775024394317071 0.02484850379680559)
(5.047665846444479 -0.255305640633534 0.1488426570887441)
(5.004069940106169 0.1372301073556446 0.09875976164590947)
(5.001149056455863 0.001637546440737116 -0.001327101529198432)
(2.506824747891258 0.1659062473844845 -0.020567137722285)
(5.045057672152385 0.2219022842491022 -0.2238301494211105)
(2.535160539801797 -0.1914873494670009 -0.1745822645575957)
(5.060885165385153 -0.06907069783129949 0.07106518317374386)
(4.965755222512342 0.03202865006117695 0.1060017318572172)
(4.844739083563848 -0.158117045834173 0.2961038568918057)
(4.847694115548935 0.1464359819251619 0.05171120185167761)
(2.236571228193573 -0.5342934474504479 0.2596886143667462)
(4.699392407993596 -0.1779298147381456 -0.07697227007610802)
(4.974711567205984 -0.1285916284480984 -0.05773470449662336)
(5.041750559219984 -0.1756304927790171 -0.08963996274991332)
(4.92796442803462 0.2851893578175804 -0.01947734275637016)
(4.90440331864998 0.03160528071943765 -0.01253726553773961)
(5.002450853988385 0.04696195166443263 -0.0004059165111757087)
(4.182636969612198 0.001295523463325698 0.1606888524756708)
(5.089723484339692 -0.3666777681034537 0.01257775484236493)
(4.992123663634023 0.001329949459739948 0.006543605640913067)
(4.980557486178742 0.03149041546119118 -0.006685740880848844)
(4.931922731102316 -0.04302003913791566 0.08251247153172224)
(4.414786020577443 0.2531447301701684 -0.1049439245100592)
(5.044495259622116 0.01897585768732757 -0.03243573264956161)
(5.073276231111643 0.08371928050962089 0.1484754176361025)
(2.269392330133901 -0.1366054362808177 0.1176589877321153)
(4.398560025553791 -0.3472608084441077 -0.03521589615020767)
(5.00805872201025 0.005988486128490426 -0.01142897494609151)
(5.050623993452242 -0.1304271157782057 -0.06305942544896899)
(5.161703543914508 -0.005435098620407394 -0.03987447543743772)
(5.053719729871071 -0.154648216810111 -0.252470851315047)
(4.778219885755584 0.3222643823773593 0.3802883878811616)
(4.055904613562312 -0.2379235538226044 0.4271634005345606)
(4.563190265415059 0.4272767183578327 -0.4868370777124885)
(5.024691263263025 0.02522903357100419 -0.04202660879343573)
(5.098882803361276 0.1905700398614419 -0.1336484907389895)
(4.996961060196703 0.05978494002945991 0.02508317804077162)
(2.209318885262906 0.222470115415513 -0.1605348551944085)
(2.440960312220774 0.1374680432154729 -0.01759095509545486)
(4.659113930301546 0.08137461100754778 0.1143205730802551)
(4.997119222506541 0.02332272968798031 0.01977052624095092)
(4.9623683701858 0.2799679167076384 0.2087490782181842)
(4.998392973186776 0.003858117079620895 0.006523924030685416)
(3.621801713712585 0.3152764939223762 -0.1237489019352109)
(4.947967338201422 -0.04962778093402306 -0.0118028065657965)
(4.880267021792072 0.09300756916310166 0.01560273990401104)
(5.043349733524137 -0.004965630122577879 0.03916623973362506)