/*--------------------------------*- C++ -*----------------------------------*\
| =========                 |                                                 |
| \\      /  F ield         | OpenFOAM: The Open Source CFD Toolbox           |
|  \\    /   O peration     | Version:  v1906                                 |
|   \\  /    A nd           | Web:      www.OpenFOAM.com                      |
|    \\/     M anipulation  |                                                 |
\*---------------------------------------------------------------------------*/
FoamFile
{
    version     2.0;
    format      ascii;
    class       volScalarField;
    location    "0.6";
    object      p;
}
// * * * * * * * * * * * * * * * * * * * * * * * * * * * * * * * * * * * * * //

dimensions      [0 2 -2 0 0 0 0];


internalField   nonuniform List<scalar> 
78526
(
-0.06996848207371027
-0.03741858167751638
-0.03674727561631147
0.02471858039241804
0.03550437010670054
-0.009731952825379387
-1.160746352017319
-0.05477643032602771
-0.103987388138029
0.01353408451037119
-0.06882216852259401
0.2343275708627846
0.1616250354313393
2.6007647347682
-1.530709328753755
0.01750494675436454
0.08666586725569463
0.09120771309472762
-0.03938671310367305
-0.1670146434565315
-0.5414617061049326
-0.8006016302863012
-0.1174494687463439
-0.02011184359581214
0.0103127511288527
-0.0009022690947091177
-0.01492542555138259
0.02631273611077247
0.08795568381304063
-0.05469794140409322
-0.3282152781857512
-0.006400577543186713
-0.131091668961663
0.01847566261791378
0.05311791695054282
-0.0276535922372531
0.08227982497073207
-0.04887648792051417
-0.0451458790855548
-0.05084824876075127
-0.1424107820731756
-0.02655345010290318
-0.09236294599989195
0.04407511230959499
0.05316411861093617
0.05153099956005648
-0.1132421098377859
0.008052740271954182
-0.0277941000404572
0.1814126154196524
0.1873330175103154
0.002931025070689102
-0.7513082782193511
0.05653892902147532
-0.02885214122942876
-0.133116451760809
-0.1645537498404961
-1.72196884641044
-0.160889676407899
-0.296664859678975
-0.03266124699347171
0.04673762254715916
-0.01629164281120795
0.01835220923438849
-0.02675726280690853
-0.03241824956247942
-0.02815420396818772
-0.1316899979952851
-0.0269854552500544
-1.366653969476431
-0.04341403945413292
0.2584369354523385
-0.4096987658823001
0.249066018752304
-0.05562251432236182
-0.3361604872115502
-0.02710946196480703
-0.1104024865876908
-0.002353598290024829
0.01548214069794814
0.1666192239850884
0.06804430995751506
-0.6257017595075234
-0.5951312021664169
-0.1433038694370313
0.02203295765044947
-0.3463253295316212
-1.253043443892401
0.02214008674860916
-0.0426567046121696
-0.01207882549333872
-0.4283678006073613
-0.04756944342583443
0.06433104915683585
0.04491480707137672
-0.02940956272745385
0.06414881713558035
-0.02810877580372893
-0.1955639984348556
-0.02956882094616905
-0.1436377104554932
-0.1303730286001027
0.01646554799988897
-1.427343454882767
-0.03063505037846716
0.04950245464038921
-0.7273734492738098
0.06169206842819784
0.0172816164709441
-0.976012268133397
-0.1272323026679498
0.01311932850728947
-0.05796543320601169
-0.3820322989932882
-0.188985516453861
-2.314154403338264
0.01741570311122287
0.099498830184662
-0.1791848940363467
-0.001393035733704011
-0.02799741700332999
-0.1665108473880598
2.153446118933777
0.07200131164977158
0.05858483402263207
0.07811126591459307
-0.02947238391796272
0.01984434948827262
0.08827781454921216
-0.136782426645937
-0.4477561333493867
0.05504897873197984
0.1991706065687893
-0.0308296871392739
0.1258825388763962
-0.01678890889699062
-1.073380359296589
0.146619740041349
-0.005890065783422803
-0.0235008336370229
-0.1294615409706143
0.09959608343935225
-0.4360784150924866
-0.005360085082292321
0.05254458262922113
-0.7007283187558325
-0.2549589618679432
-0.07661915383185776
0.06183594459320006
0.1173564863828036
-0.02037500159804709
0.1439162168677707
-0.1437387462568887
-0.02778553510391393
-0.1418932154768673
-0.003733566861461243
-0.04623426869530631
0.008179831254277386
-0.1319651305927261
-0.3898479289216444
0.1254952668193061
-0.2299910853128991
-0.1659073929713052
0.01513627856931458
0.02705154137479181
-0.0005014246508452594
0.01325770925853375
0.0369196804049804
-0.06230428510726607
0.09348032289595795
0.01555280247217441
0.1070632594012766
-0.04561587685321251
-0.4022501735578128
-1.376354851846669
0.02361806415887278
-0.0006969757957610411
0.1106842516561149
0.02350664213513647
-0.02281861338414792
-0.03311856438256305
-0.1577881941137762
-0.7817932333758572
0.1518660516899601
-0.1515387852029954
-0.05192781133659987
0.1686972169775708
0.3855683235258382
-0.04377441893028355
1.385275047932686
-0.08425794367726192
-0.2366223015856536
-0.03710169260183806
2.809346403316337
-0.03038279572280909
0.09104996403243772
-0.1519362424042728
-0.4085609801066526
0.2638270791965203
0.004777230053953267
-1.310300291355152
-0.009482375255509825
0.02920711196493437
-0.03056213856720884
0.02397804476009534
-0.03233649419728752
-0.1979254047960034
-0.608443295394375
-1.634399089722956
0.214491454913165
0.1123961300545618
0.1036819991492231
0.1409366714865474
-1.881327366549639
-0.09150257373165838
0.09161768422307132
-0.01930938639507014
0.0883788491263794
-1.934096780807755
-0.1553281458467485
1.369337782252735
-1.763165362476555
-0.02613913546290592
-0.02116665382286602
-0.04626501190882421
0.1081403077364879
-0.1321069719810917
-0.1128583836018532
0.05612475591439839
-0.1813364578248688
-0.08388549779883644
-0.03253701079690562
-0.01808795212232446
0.1213987733265653
-0.01613600251474483
0.08504555539931165
-0.02819536376753868
-0.03021795413416232
-1.070420938725741
0.4907504938391956
-0.3672775999341885
-0.149725368866438
-0.2942041796994503
-0.1778983955934344
-0.01612940166260925
-0.1198313259706028
0.1998051710711527
0.02468703777512109
-0.08368895494615067
0.1482808782594243
0.1598403483503517
-0.3589917431139153
-0.4228536872362434
-0.09083339719049836
-0.06147250562888534
-0.3813972054907857
-0.419473585684227
-0.2108465051824621
-0.08813566581099923
0.03867621066851625
0.02844735676608984
-0.04998226643863293
-0.7645379455697653
0.04535440804627304
-0.4057412919750822
-0.03389814816291867
-0.4852601721122086
-0.04651318425248593
-0.3278283280031142
-1.037294580963548
0.1236215856877022
-0.5276494497168951
-0.0259336678682315
-0.09946887581686606
0.07159654289707344
-0.0239108575655828
-0.4133477409121555
-1.391099558188168
0.01194952465220459
-0.005680101956139949
0.007799108490963744
-0.02767068192343445
-0.03425923995482719
0.1201180179291178
-0.07730812395670181
-0.3132250268357528
10.64131858722312
-0.01276523167797429
-0.05090075330247103
-0.1712316824889768
-0.03051964307666663
0.01184604161526441
-0.6479158335157004
0.007103767875542464
-0.4498237710220906
0.0850098323233711
-0.1258577828844917
-1.257478260924771
-0.06495274726253555
-0.5776638077799389
0.01291630503613983
-0.03298878352015084
0.4124547891317025
0.04126239057013266
-0.3787119784923811
-0.7110274368929819
-0.4564161937157107
0.01584258568814044
-0.04816550098249746
0.06545967514080471
-0.2807916698222663
0.008990681427395862
0.005291065307340744
0.05759421178310209
0.03792861171444337
-0.0604420838903093
-0.3816598902293966
-0.002322013353597121
-0.1025672520991052
0.03680356274800841
-0.1887729036161488
-0.04262037547688052
0.4543940843125112
-0.1943403772201879
0.2499780487375997
-0.02354341882307502
-0.2169839990523645
-0.0229928642599864
1.261432490327412
-0.03274665380284695
-0.01456586228587532
0.02558881074175182
0.02468466474787833
-0.1113272545294478
8.857352734681755e-05
0.1330912001051737
-0.02575730599226849
1.843773672036673
-0.08797958151398977
0.01899847996626786
-0.02514042854433076
0.1076728258093935
0.0997879590237402
-0.3511496501581935
-0.02078708536205785
-0.4994419180224101
-0.3807967799484371
0.09907570053664456
-0.5840510801743363
-0.01236437291752912
-0.4942544992871898
-0.0361073140778086
0.02184480377922751
-0.333809842797321
-0.008535717280090251
-0.0296087428902947
-6.439564905474066
-0.01249949766117319
0.1052303347726394
-0.006688976758787272
0.1054555538427983
-0.125964024486422
-0.1774528572032842
0.02112559732400521
0.1249631280927545
0.01410651824521978
-0.1184404807276613
0.02056550184791209
-0.03242292172003772
-0.7478749949139417
0.4197641001539258
-0.02366300316949586
-0.9586808054977114
-0.8418939932209019
-1.532141735551018
-0.03697360297638169
0.1002679067630028
-0.03675023327303879
0.09277926320739378
-0.0294104312517818
-0.9971210167361094
-0.04844198651821442
-0.5281121153535689
0.04634903582019975
-1.991599831791704
-1.91393206719143
0.4700905786345285
0.07420590319704994
0.0210740906881157
-0.6236462483797154
-0.7283562767151693
-0.9089162264364583
0.00450544642426449
0.3850013227880001
-0.03519272483665917
-0.4327603310289477
-1.071287891711014
-0.0005070472901003922
-0.1317976584527314
-0.2322476312980629
-0.1218946218672282
-0.516351475676244
0.09356650887870853
0.005245775672250615
0.2775425989282608
-1.092558614146886
-0.5591198564166906
-0.03032845852155857
-0.4798089428146285
-0.200659236223798
-0.2063078771233973
0.1006950029572798
-2.327306930585524
0.002348902864378419
0.06956920822235851
-0.250775542104732
-0.3972047024272146
-0.3773907163153671
0.001325905869096099
-0.1008759424020117
0.004309257788674274
-0.3518739563390217
0.004657088991416278
-0.1639767859346319
-0.8251534260206946
-2.084835458253208
-0.2071540032568932
0.04625828420014445
-0.4698932190426973
-0.3385901147339861
-0.0330332342066398
-0.009675681858995254
-0.4596265517046396
-0.08535023613592679
-0.5513924798525336
-2.425757652584589
-0.5481773514461569
-0.1089907193951766
-1.239088411412326
-0.3537387810735694
-0.3275695325731609
-0.3800596222347564
-1.091066335572382
-0.2049198775765942
-0.001296314716106678
0.02146025672885532
-0.840954810263528
-0.6098249443255769
-1.570702736854305
-1.517480556480021
-0.472833068977497
-0.02465431053786228
-0.4519103543323709
1.163850863888488
-0.5837916069313466
-0.03355329871750897
0.08891361866701161
-1.090657726125798
-0.01332073898974777
-0.041816340838687
-0.4610018324100573
0.04249001206244144
0.6949492408817344
-0.170860851503613
-0.6633281054882957
0.05045866841551094
-0.5766944953641852
0.03440945911951676
-0.5438092999140279
-0.5361185386196771
-0.4716366728969399
-0.850444169246233
-0.007458489559229026
-0.1088825238596895
0.0221020959975591
-0.04505985805118964
-0.03293885253243926
-0.1461921808069071
0.01817983859577301
-1.249870048763705
-0.6415852939121763
-0.27494601165767
-0.3112747427192695
-0.02903484130980114
-0.3693264271601524
0.008189051857599014
-0.4153474819538343
-0.3595954921006656
-0.3596793003309153
-0.3742059869555778
-0.04647780668203668
-1.388308246279773
-0.3926340003655111
-0.3445798409245865
-0.6367898697501341
-0.73193159314818
-0.005314135435539867
0.06270974870615649
-0.3598345550685628
7.491429553806991
0.05506177885822828
-0.2977699034808121
-0.046936363701715
-0.01459965843973887
0.07135053275297486
-0.05414146285333984
-0.4371643219163445
-0.1814146620263449
-0.03228638077363805
0.01550649631025767
-0.4617610330823733
-0.05704492697868528
-0.04149813254194876
-0.2314788466609202
0.4093498167204903
-0.01458533289211913
-0.06177080428292129
-0.3684749337408987
0.1810730869671256
-0.3443535532004178
0.08294931234712356
0.001337421610063924
-0.1381649801806254
-1.371220954001334
-0.1435961316022826
0.07835834345047087
-0.147222242741954
-1.695083404819123
-0.5791269548619992
-0.7209145491740455
-0.2228591442564202
-0.008741739443110701
-1.054250054298963
-0.6210844356472502
-1.633442445257096
-0.3622408022234677
-0.06300366157395253
-0.06215201347350964
0.05021284509100921
0.05805887476623069
0.008552130275873041
-0.1717525759898097
0.041293366320013
-0.001386484095867055
-0.6175643776056716
-0.03876179009811417
-0.9097853020798791
-0.02612992940890264
0.06319807897347803
-0.5047143300223197
-0.040056843504526
-1.120326478927292
-0.9098732971259724
0.07573936093548476
-0.03092707564434302
-1.408207523303782
-0.08917079027621441
0.08461937945526259
0.07957515838561401
-0.1569841534617144
0.05640057773525522
-3.245913157601409
-0.9499985791163524
0.3717382941541612
0.0849394680053802
-0.2171402591821807
-0.3403967412078613
0.07553195694590964
-0.9300231010608093
-3.54764497519282
0.005408170190486072
0.08779050349189224
-1.69245217159058
-2.018576971809336
-0.862430103780496
-0.04781196475493928
-3.318711591020916
-0.09691056790148277
-0.9546539119623051
-0.01476858691504538
0.09541964258684861
0.02955458166022533
0.07210487566914124
0.09090324422634463
0.0801122187110823
0.02205016329916228
0.07895583469351362
0.1492479808700182
0.0704464493709453
0.07131639243849021
0.008756524419398627
-0.01711898005195439
0.0731912223209512
-0.586239526764853
-0.03189801204950059
-0.4271823969289821
0.05718113569668121
-0.3559291063258745
-0.1222295592147447
-0.07555932403187131
-0.02742770212458681
-0.007880518129066417
-0.009886526985257426
0.01506099228946061
0.09198240384233435
-0.1034771691103808
-0.1098610131237504
-0.399010065566473
0.01727250061744053
-0.2840247888193798
-0.3806696622473664
-0.09148514744872954
-0.00913231759824233
-0.03605177228864379
-0.05816996821958326
-0.08907670319690564
-0.0120922341378183
-0.01528991957634572
-0.03226203327540403
0.0002710773235839792
0.09727610950749284
-0.008809010171702105
-0.1545494393097931
0.2348445483754088
0.03343319296920989
-2.341965665770822
-0.09214351206051255
-2.553912453400286
-1.863934289939641
0.08253255640181849
0.00956808299519305
-3.338515087636837
-1.317807204933214
-0.1354254743466564
-0.08138514328594357
0.00280775496459804
-0.03277437279381767
-0.03236922974813685
0.02809254493667707
-0.02421166798500383
-1.505326224080323
0.0262428058699462
-0.02823248367110725
-0.008405571673182797
-0.02590320279284807
-0.076002969002613
0.01519848376755536
0.008639537563443383
-0.008311291783252467
0.007215042462780121
0.02464434626092991
-0.02944936894202531
0.1680829920796214
-0.04417144686893321
-0.04692479441667065
-0.1558314592142943
-0.1808527420181038
-0.1238316161671603
-0.06481179653426093
-0.02308390865040874
-0.08046129407896874
-0.02342282109116136
-0.02465468316145963
-0.01682201832606669
-0.2373500339987628
-0.01709577202002307
-0.9838219981563813
0.03339128028002463
-0.02470669849844375
-0.02315144330044662
-0.03184705915006229
-0.02898532724320542
-0.3330650947255765
-0.1674970611466019
-0.02874834756025609
0.050898366359605
-0.03877494647946069
-0.1614956316083482
-0.02340522500804641
-0.01304153039220674
0.02056372286446632
-0.03337480669920402
-0.1724356617817812
-0.1340218115951304
-0.02158277452303899
-0.03531012470441386
-0.1215869540289954
0.4462792372660198
-0.1886023970693461
-0.100564245160709
0.03131340225629524
-0.01575228146328321
0.0536300368135668
-0.03916599575399055
0.003816239504426877
-0.05048717914542167
-0.363718378620888
0.07990024224470275
0.02291556914248917
-0.09187037866078593
-0.1140548660637345
-0.1751694972080709
-0.03186426839346868
-0.3287357001024799
-0.00311899359131269
-0.08702317093170436
0.0395264318523524
-0.9762660551502826
0.0263015706859802
-0.02987234543365565
-0.09799692391661602
0.05402391589978681
-0.02760091326555017
0.4890104926419229
0.02342582883086979
-0.09344892525941655
-0.02962381062076269
0.1257691945308824
0.08180063674896706
-0.08357296810236092
-0.02641677193515008
-0.326009370413917
0.02085471500577942
-0.0292892422388747
-0.3972297177439274
-1.473233384474243
-0.1087260623946529
0.04384812988261289
0.03904842438777716
0.01838965391137536
-0.01036917159549075
0.1499532520737133
0.02899213912518265
-0.02148748846889928
-0.030620971196524
-0.03819733835008927
0.1898408534696538
-0.03848190989795877
0.01722052561770204
-0.4235105041507117
0.02018369586981382
-0.02846055713718308
-0.06364397585733783
-0.2133439828735657
-0.03301349905190284
0.006280505801461792
-0.02189112227773806
-0.2245436958384865
-0.02629535127675467
0.0113567557617012
-0.09333518035460771
-0.04072367848335944
0.1044975910586507
0.0596794288200754
-0.8330531872582975
-0.03249349829551867
-0.06001467581500455
-0.04036157190351059
-0.201135394207802
-0.02108704775423788
-0.02064764791644398
-0.01126155564974035
-0.04358403739536862
-0.2579108068604573
0.02709983913459211
-0.1469743331735376
-0.02968472236474483
-0.03858211483356208
-0.08958479296456708
-0.04892029801826575
-0.04135090279853241
-0.03055666962893901
-0.1528635800807021
-0.1093029898416238
-0.02492004670390189
-0.6492636692092647
-8.691449895530672e-05
0.01404584709230532
-0.02595001688334294
-0.005816298917375435
-0.2785225576920699
0.02023656802663625
0.01842611274296538
-0.1222955670307123
-0.003329536179963146
-0.02388360383659186
-0.03249057516920093
0.003364257357297206
-0.3589586868505974
-0.1081886461558836
0.4756200224725252
-0.4621852507333225
-0.3428294420849757
0.04080244380015424
-0.4063496853238862
-0.0282273800328466
-0.03736616020470717
-0.03948454812231117
0.01004222375316318
-0.1038187088367599
-0.4925190448001102
-0.05012752115621336
-0.0319644022976872
-0.1205392059270461
-0.1241891831756533
-0.03005199598688548
-0.007870682768130384
0.1150144068881902
0.04612149907163677
0.04035951027704817
0.03011942023761257
-0.4157564842850956
0.03230240216961829
-0.2783734948615733
-0.03395061280484118
-0.00543625773947914
0.03195531192729135
0.03626174027778532
-0.838186147821299
0.0356937636364984
-0.0136288503575778
0.03253189973764454
-0.05408549234519806
-0.3101395885401407
-0.03913878957106715
0.03583742256261724
-0.1839828840173668
0.02711267013875514
0.06893164562860214
-0.1114625492085175
0.006238335765574081
0.02623924230721431
0.04163324248210061
0.02780579411865825
0.02726885677568869
0.03567850834574854
-0.01183037045961664
-0.001179196181472065
-0.02302777482379663
0.590837433497675
0.0512532009610359
0.04005158459088985
-0.01342111217632309
0.1232706607618413
-0.001210970879099318
-0.01604791054087835
0.06352955608848646
-0.009096618924680536
-0.03156039173596373
-0.02475120879002404
0.0118307093887004
-0.01883343322388013
0.09307480654866497
-0.01168876524878738
-0.0159603768532092
0.02150121685624872
-0.002093935899613241
-0.03623677335185967
-0.005325518241911421
-0.03545979014540597
-0.01093159399863658
-0.0800125412844639
0.007158095082071199
-0.1201528723093718
-0.08444279584324418
0.02192062867182188
-0.02384711111150727
0.02294045625508968
-0.6520764615554946
0.04227100107693516
-0.3408219442723452
-0.3527230902393491
-0.3070130863363362
0.05232828321900346
-0.01211974382378893
-0.3850430704868568
-0.1989261087367652
0.3878136425875797
-0.1130834373681819
1.172247864732246
0.01410482997119144
-0.003366366791905079
0.2059067589379849
-0.2181200145354553
-0.4279180121296366
-0.003537397258311732
-0.1177324171227157
0.08292738665537264
-0.09810401366537393
1.415166612814582
-0.007038859677928061
-0.438222257121655
0.03349157878265461
0.3651067604262804
0.002816949293056902
0.2976921463769626
0.001504554025734686
-0.2908306621330279
-0.01635978110121589
-0.3618125145776637
-0.3457394743974835
-0.006482114484891125
0.2014791322878816
0.01623226241349316
0.0356914685822438
8.282177013449524e-05
-0.4205307531411285
0.1002064775266523
-0.03470511464943281
-0.4161829189621438
-0.07514706243907163
0.01725482814598527
0.06694433201774104
-0.2433970678330944
-0.0311841915332022
-0.03830328659246193
0.01849476109970975
-0.07377391387812024
-0.3365851514146475
0.107395092233875
-0.03907443848893773
0.1399920564227788
0.0144155277481301
-0.010047158204042
-0.03004984223997754
-0.4419524252226511
0.2144898534574693
-0.03396763576702867
-0.4877954358076145
-0.02604749710277329
0.03627641494232507
-0.1596642509832086
-0.1600234499510195
0.04399813147076626
0.01346878484995134
-0.1887139603751603
-0.03038659297995258
-0.5867890593269099
-0.02353682036255794
-0.04918201170590885
-0.03534050535594157
-0.08291075844835825
-0.07406974201217954
-0.2011263890853572
-0.1678111631534393
-0.1299701407728669
-0.008898213541573078
-0.04815773190007823
0.04177203591620881
-0.02769539809871496
0.05711830652266073
-0.2125495365646661
-0.01028373091796339
-0.1159273657113443
-0.01189018439826287
-0.02060030079128557
-0.02638268532029406
-0.07486837500627873
0.5172648568893305
-0.0753390294491694
-0.007683270909357823
0.09319522446929127
0.04107461291894256
0.0008994053697027494
-0.04133182947892852
0.0407864136398727
0.03945662491847203
0.01706171791689642
-0.1056854142288597
-0.1981564342498902
0.01223759016296445
-0.8907512228020764
-0.1754538739865004
-0.286916420017933
-0.1800502675521184
0.2384579315842204
-0.07755464757663519
-0.01454413278198908
-0.06700025200342109
-0.1080509942807303
-0.1493804760088495
-0.8358146458661462
-0.1777173068696694
-0.03775809159516916
-0.01704853664690079
-0.03164407383576572
0.01627472391705834
-0.02833968840882893
-0.9144476981729075
0.2089848981063145
0.0152434189499573
-0.009805452799356889
-0.1066444369749352
0.05419010820026521
-0.005874251906121432
-0.1372469233589561
0.1950363093233314
-0.1138440867430393
-0.1583557152912179
-0.1664497896596519
-0.1437728285719468
-0.02681944721078723
-0.1355993899042213
0.2785133609677808
-0.09297261403011217
-0.0100384450361792
-0.01250925219428178
-0.04176891706149696
0.1275013429790326
-0.02926740937665749
-0.02521345573135264
-0.02129404856244112
0.1213814260784475
-0.02654564189176626
-0.1979793817464407
-0.1147315444860189
-0.03896136305493212
0.8853877077862662
-0.04593469883208523
-0.3597282073762045
-0.1921646621293688
-1.287794621320159
0.1294912776119837
0.1253328233776267
-0.3659311007930904
-0.08516548666648614
-0.0404539886644602
-0.04607001717138377
-0.05942925339550541
0.005496529974356732
-0.2113045405197851
0.001759856988002404
0.0353559673472176
0.005577211258024846
-0.5937058686101844
-0.02882778574358436
-1.461959996238419
-0.1172880039864859
-0.1371498114070139
-0.05441601628178017
-0.5122067078221239
-0.02280453130880493
-0.2139058164071591
-0.03674249028097686
-0.1098351486322127
-0.02160981698838696
-1.331941041328536
-1.325426942201792
-0.5804995015010238
-0.1090770564919197
-0.6576537872496383
-1.862246586789773
-2.774551261175212
-0.009946554819028407
-1.183287842632954
-0.01726775921380248
-1.82567720313684
-5.053366917170781
-0.02405316615139784
-0.03441488096316719
-0.2263407927013262
-1.312554042027927
-0.03680689110302944
-0.09072804321457183
-0.0301078574025332
0.1273482921134203
0.106107401198128
-0.9714947025144739
-2.38835458949054
0.01464971731270122
-0.04449368553812751
-0.03008347066288906
-0.02704333604056764
-0.03052976940632644
-0.1026754160286602
-0.03239156371242426
-0.0874672030901379
-0.1118283516104877
0.1408821577198787
-0.1570165559132492
-0.05626569991817709
0.1224697698801724
0.02473753505947105
-3.030005365941534
-0.04315328524252392
0.03086470440374084
-3.880624601487937
-0.3387764961443431
-0.1418997428655745
0.01982125926099134
-0.08770154335087095
-0.8950722362319736
-1.749838809888897
-2.098037770536055
-0.06012416406616576
-0.1170984451314248
-0.3691894371795533
-1.4620038410611
0.07008323749004064
-0.05348290338301605
-0.109224245177464
-0.1061482515211019
-0.07800328953919321
-2.035502768772707
0.4886521815020025
0.1685559994726404
-0.1009529682853922
-0.04370093388349029
-0.07320887658494041
-1.330244998757756
0.1161236367597949
-0.03191839236833143
-0.03178847180629146
0.01472812700376894
-1.54302278007596
-1.812028939267822
-0.01914692163196159
-0.2966177177753547
0.06890284146537902
-0.04134756149531318
0.09303658816045519
0.1201335934341291
-0.3438136848447996
-0.04002853615327466
-0.0463029700839954
0.1081309700119981
-0.1506222104892101
-0.01625566814846003
-0.00309545518038594
-0.4554784619793819
-0.171289635331703
-0.05411875264330721
0.09258480505739621
-0.0003427272064175225
-0.003403665135691984
-0.08157052943459908
0.004875438724247148
-0.1182260365852529
-0.07981427298086655
-0.1450675522356431
-0.04187493290742799
-0.02673386635258634
0.1822675842595987
-0.128668545124915
0.06824816238035934
0.009910913569876898
-0.1186055026978012
0.0538564434384722
0.02480441377048165
-0.03586614043515468
0.1200011065132953
0.02171459768946942
0.004652605511181139
0.05347928738235911
-0.1981082979621825
-0.1139235620380002
0.1035992794709705
0.1540354583036393
0.0456709442651377
0.007705599138924981
0.01859824107979305
0.07642020388844356
0.03790416157439823
0.08890829730472434
-0.6396397662269043
-0.08024009608407398
0.07071637988579718
0.002510955458743727
-0.08239423171149983
-0.3153686040158116
0.02128530548454007
0.05699957211143399
-0.4754452243509194
0.02223700087260931
-0.05487911029822971
0.04614331059276521
0.4256062736755027
0.02848874084267037
0.01466009376732398
-1.173422417010307
0.2882176908240697
0.03173509420316283
0.423278217849918
0.02643479526596491
-0.2232717799840329
0.005526126615692398
0.05562139557856828
0.01637426764549685
0.04408925674878504
0.03828419716478496
0.01039095477655156
-0.02484045522902188
0.05218137122450518
0.02513901144026972
-0.1017427914538538
0.09872471030989005
-0.02286237915353897
0.05372415145286856
0.156240448533399
-0.007596193801567459
0.2214958527033226
0.01840204043058486
0.316847700888183
0.01375087352003062
0.7288966648109342
0.1817054067228241
-0.08709852027496816
0.1464369639790313
0.05094748817406408
0.02741800709498811
0.09298327934844997
0.2659700617193707
0.03572429688282031
0.05212087962249734
-0.03705259797902326
0.01353109410383842
0.1016414245581381
0.09723776559535506
-0.03785151699830884
0.01092309710898887
-0.5045142917077552
0.0655916939076326
-0.08136226832936501
0.05266145901004375
0.1247304871621811
-0.02790639308093782
0.1123451925167236
-0.103244045416718
-0.1606627552095053
0.1246514436014371
-0.03609979920982892
0.1109285280082579
0.01718493216429608
-0.02881758373688095
0.02314487862419736
0.004232253418178952
0.05360232210040922
0.01479545150339103
0.1780891613660385
0.02186047958194811
-0.09584169462018896
0.1478569683171562
-0.1697153285233183
-0.03859501205655552
-0.75426153605867
0.06141688380069361
0.04380190661935945
0.0344823255671089
0.01362474840325599
-0.03281039740189253
-0.8213950063253419
0.0293566400459826
0.02387444495439144
-0.7587290439695523
0.0229082908014087
-0.08980081053287579
0.01767283917577628
0.02755651672150579
-0.07760454651812286
0.1313011614537923
0.08452205518236287
0.0558529474576407
0.1671337869274536
-0.5714673754958637
0.01357443415937469
-0.03874018788054558
-0.05921170615118208
0.001888680980685244
-0.06032303962933469
-0.06335464160869927
0.01558854980379063
-0.06401515463137009
-0.01769115388731697
0.004597356436285983
0.1331914872578564
1.093216825237391
-0.01459401567526211
-0.3473784607007512
-0.1536563484845251
-0.1640297372353564
0.1017454757447164
-0.04733359786947526
-0.3587922080760917
-0.07316709653839389
0.02362345805581074
-0.06954582065386079
-0.1198540301361715
-0.07220939226870318
-0.6487483371499057
-0.08584490277017864
0.01350191131687514
-0.0590929267637602
-0.02246992361506494
0.0752596865028375
-2.1968180157616
0.1346620928014199
-0.06163575990968632
-0.03094197086618812
-0.07798947262170346
0.1883668374575157
0.01606334603745257
-0.3571920841976725
-0.02106239248879126
-0.1764304978083708
-0.04444349223738026
-0.476676463679424
-0.3037562887193763
0.0774752223539843
0.1510367412585603
0.3391393172480901
-0.002276772034375389
-0.04989465532965776
0.05231244754338191
0.04824632062371632
0.0904835246764412
-0.01624515100960291
-0.07003998525247111
0.01993456112536979
-0.08845763037140862
-0.07968059675289149
0.1210165989646567
-0.541533816832224
-0.08767212768666685
-0.1169932747154707
-0.005008383845436142
-0.01164953067414455
-0.07222711172984705
0.01423521162537792
-0.06135326045919552
0.02141658692878179
0.02378340761822665
-0.5041685579586818
-0.0216651468359743
-0.117352338600434
-0.05324203993734666
-0.02893955546433681
-0.02211430329796105
-0.06603848965977972
-0.04299688676221332
0.02051448131988661
0.05449064434248978
0.02117829150495869
0.3127154754961056
-0.03833428556774295
-0.02975796068467737
0.003920123879582626
0.01242239402776209
0.02315875057853733
-0.4336464820619374
-0.01324869081662544
-0.000969685510692068
0.01906895782583267
0.02575657624270268
0.03646795381234581
0.06905508590847342
-0.04390934643884451
0.03149563314319341
0.006111483070900843
-0.04384735412697361
0.1642814981074208
-0.8792158309477908
-0.04734009978112751
0.0268430547911453
-0.04354119304595881
0.06709469366795044
-0.03688313576253741
-0.6066211852121113
-0.03722792110345404
-0.04444864871344388
0.06382091306990086
-0.01344215746055261
-0.05216286485649656
-0.0514358173913572
0.07540157338020406
-0.7129594544540336
0.9666207184278653
0.1049961116399896
-0.04933770378677753
-0.09569260245289843
-0.08114060959129811
-0.7322069387297119
-0.08911767245072023
-1.200573209779424
-0.1448039047191355
-0.08958839798473692
-0.0574307455918819
-0.08985891309919797
0.3096278703153537
0.02581893064148869
-0.02632265345373473
0.01594723516385758
-0.01174541521464105
-0.09550262486357541
-0.0525508274765578
-0.05581497308677328
0.03653126906979681
-0.09720762500277054
-0.0718351677555651
-0.02335406232064074
-0.07561666489538026
-0.1133835415989715
-0.0578551053166719
0.04617417240113202
0.07537499900355545
0.06201715382272464
0.04104530620140048
0.6572515528162631
0.02773045697998182
-0.06681740414596418
0.1015356642908251
0.1110839776711439
0.1071233672412102
0.04767350113807902
-0.02273139803511517
-0.01601258833504674
0.01598682834469009
-0.01547405213250596
-0.09089738318339427
0.04507694050167386
0.06203745008555485
0.07174066067988932
-0.1159189051627461
-0.9670740984307982
-0.03032557191296839
-0.07383220265397558
0.2915643548947002
-0.02107682844871673
0.03318503344635612
0.09614166245025284
0.0374744683473131
0.175725943658751
0.01753921172816011
0.04954549911458195
-0.01470522824897919
-0.01937349508957436
-0.3864405835137105
0.01555514761323675
-0.01712880385489001
-0.01274528204608551
-0.07792312420395316
0.007317708493698813
-0.05823474295793373
0.007181545253130819
0.007931870696710001
0.0322911868537765
-0.01700975774347369
0.0537033885299573