/*--------------------------------*- C++ -*----------------------------------*\
| =========                 |                                                 |
| \\      /  F ield         | OpenFOAM: The Open Source CFD Toolbox           |
|  \\    /   O peration     | Version:  v1906                                 |
|   \\  /    A nd           | Web:      www.OpenFOAM.com                      |
|    \\/     M anipulation  |                                                 |
\*---------------------------------------------------------------------------*/
FoamFile
{
    version     2.0;
    format      ascii;
    class       surfaceScalarField;
    location    "0.6";
    object      phi;
}
// * * * * * * * * * * * * * * * * * * * * * * * * * * * * * * * * * * * * * //

dimensions      [0 3 -1 0 0 0 0];
oriented        oriented;


internalField   nonuniform List<scalar> 
153371
(
0.01565749825070756
-0.8052471102646844
-1.449376635465225
2.238966247492411
20.61904275852861
-4.648259219824526
-15.97045921545929
-16.55977521912575
8.219624663147885
-13.28988778545238
21.63003834142964
-0.3773907401530919
1.002804759256321
-2.773339513031104
2.147925493933776
-5.162293208723262
0.8052196980362047
52.37070151005012
-48.01362799936372
-18.28124874010547
21.9208891016178
-22.79566086175663
19.15602050025054
0.2276720366055695
-0.009930175034015942
-0.03832746252670517
-0.1794143990526929
-13.91391393198722
-12.07976269951021
25.99417471462118
-0.1094614769079845
0.425311052003036
-0.4555410931101788
0.1396915180195649
16.79768046227316
18.26057948229053
-18.54218070469419
-16.51607923986934
-7.3302964727141
-11.02309150056972
26.1333009634208
-7.77991299007627
10.86116587323341
4.909609221292322
-15.77077509451047
1.590136376326004
2.846369160534791
-1.487598385263267
-2.94890715161454
0.309869869035226
-0.9637249591507808
0.6538550900917341
0.1189757688347941
-0.1671264846769763
0.02806493362112355
0.02008578221641086
-5.078863197110246
16.72729592194034
2.823144883100762
-14.47157760792999
9.394568238621538
28.0524487652481
-20.9520640355348
-16.49495296833177
-10.19025864034901
-24.85887586870236
44.44370274767417
-15.08203434385822
-30.34915532993163
29.13058034597466
16.30060932781668
-10.5070441428997
4.569731762045854
16.43849138300171
-10.50117900211728
0.03461635959549299
-0.6074884285738115
0.8540771308226214
-0.2812050618505947
-0.1138617953981785
0.1384430425591293
0.001211307854088249
-0.02579255502043949
-8.944484285173566
-24.3520531978341
21.22956929156574
12.06696819145852
22.7558309980676
-22.15983695047454
0.5021749540147138
-1.098169001603757
6.968337733459609
-2.976664857897724
7.607730153763763
-11.59940302933585
9.648432336118763
0.4362276992472057
-7.435066221162178
-2.649593814201318
-8.911613789099462
7.611704382956985
-3.177921512252435
4.477830918372248
-7.540892728112905
-7.298264906834989
14.838725767777
44.351972649232
-10.63410616524149
-22.34121150815659
-11.37665497583231
-11.26778493605044
-5.807573187118057
17.07630735782352
0.1637297450848069
-0.4905570402828687
0.3968969569961844
-0.0700696618287395
-0.09939595394162999
0.8362145009362552
-0.6933302314553369
0.5580911049319299
-0.6296640907933302
0.7649032172936239
4.852978289979871
6.942725998104993
-24.12920990198667
12.33350561390213
-14.9415005735269
23.74734925055366
-3.416185105506522
-5.389663571522783
26.58381971579639
-24.12489053923638
9.190330670551283
-11.64925984708833
0.04802370815127179
0.1425400987198469
0.3064611651120885
-0.4970249720007169
1.512336815751926
-14.62357622062752
-14.31092832138348
27.42216772626784
-2.280946284354516
12.38984038755416
7.177828656203199
-17.2867227593559
-10.10261175492493
3.661919411317146
-11.81672514789597
18.25741749151689
-1.42956641016318
-0.1321245384036753
-0.6479866370126764
2.209677585536331
-4.877630542885949
-9.486180906851173
-3.427737750321825
-17.14070019268668
14.55135720567938
-25.46263289219522
28.05197587921062
-1.497265936030427
-0.9643912996502745
20.45594376637593
-17.99428653067253
4.407753798116999
-0.01769142139088924
-19.33156295025319
21.12515743624664
13.41289006278413
-10.79069824847646
-14.87648630381816
29.4476956647309
-14.57031322614491
-14.15970588667721
-9.921483822117496
-1.581600853094346
25.66279056189218
5.336354090516147
-18.77962442190683
-5.077878815479668
18.52114914687383
-17.95004766151454
2.3148674458786
0.3166712997814463
15.31850891584195
9.158711334320147
-4.652311440311707
-10.85171613607175
6.345316242056549
-0.077591626189066
13.59250696823709
-6.546577608599104
-0.06617731841807827
0.07289118274362465
-0.003435872165531846
-0.003277992169428264
7.275896309969716
2.772324768221051
2.517772499133347
-12.56599357738522
-19.60237568235607
18.71695546150717
0.8856810474085264
-0.1831637412493298
-0.03242575866869551
0.3900738767605539
-0.1744843768482679
-0.8220114766305479
0.3071828971425798
1.125008021147691
-0.6101794416821357
-0.2378523112427296
0.1647115630559016
0.2119745306302616
-0.1388337824515538
-14.04004097089823
17.86707712224332
-2.562421372852001
-1.264614778456327
0.6072570544439529
-0.02121833166869241
-0.08870794046489672
-0.4973307823206534
-4.447965468439672
13.58623471970567
-1.526564868356409
8.276039604579017
16.64745951546712
-3.798341683795814
8.636788657999986
-9.417478308896104
0.6812936969645388
-8.329111510419013
15.13505166332679
11.09887939823669
-17.90481955117317
-21.67239314038911
-14.9772577738179
17.04727523185137
-4.708362415841373
15.79260422816676
-23.88742458699054
12.80318277466622
14.84938794796753
-11.62176770436762
-0.379596116729281
-2.848024126870092
0.0823346649322446
-1.607702732476217
1.575248062996016
-0.04987999546610957
-17.09344274870994
-9.021962438570633
14.70178100424754
11.41362418303464
-0.02949992853537627
0.01931965389698269
9.727335905761564
-20.24887168466057
-8.186699498767846
-0.4989787946490833
-1.390404028527008
0.4597200503000609
1.429662772869593
0.3057990129459988
-0.5541438911357958
0.7646099220683646
-0.5162650439081347
-1.051236242144205
1.336510776069659
-0.2852745339321163
-8.443377740823559
32.55774311062071
-27.4149275035923
3.300562133798449
-0.454790597356958
0.490915982680031
0.6045408613287983
-0.6406662466785095
39.66487583272035
-16.6347711809641
0.779188874076204
-23.80929352583047
23.52575322305974
-16.29539223637529
4.252650983099937
-11.48301196977846
-6.220075489022026
-2.198068802990247
8.854371991245698
-9.730392244925641
5.606045574299255
-6.401491210438345
10.5258378810237
-17.2128424845351
-16.28469733226273
24.56419784834116
8.933341968481018
-3.234040102749333
-15.90444781183473
0.7826471140241595
18.35584080055625
-0.05997055929977945
4.051624172589366e-05
-0.1198000091199766
0.179730052169626
-0.467910789661066
14.37864611810726
-13.91073532843259
-7.679928883151145
-5.801337713863489
-7.845288691815193
21.32655528888026
-5.093479190225662
-16.72865687071729
6.427508315089651
15.39462774585459
0.1594838350532368
-0.2631707116656085
-0.4839474134234589
0.587634290012466
-0.1189073556010485
0.1050046470860647
0.01012294449051183
0.003779764017914317
13.99455103826927
19.53515220001726
-0.9036042649205558
-32.62609897336628
-10.20516370909128
3.514233736472486
-11.99110493131579
18.68203490399823
-10.15190288534204
7.738441788011113
3.934714373367918
-1.521253276036001
-0.4607865980125527
0.8156301632925911
-0.04904455234740316
-30.54002256550558
25.67253558573539
1.531405570060849
3.336081409716114
20.81380035123967
0.376263848502694
-24.42410430249182
-17.58807871871273
-25.34551908855362
19.08069287768943
23.85290492958822
16.60632269676901
-19.01164477146085
-17.95788430509344
20.36320637978542
-14.33474858886104
15.42397906261028
19.72456987749252
-26.56116503110984
-1.125878728815039
4.119933545353581
23.56711021457207
1.788379111903634
-3.123900324847412
1.488110769315967
-0.1525895563870291
-3.482597797357126
4.908509201299669
18.21434123967781
-19.64025264361872
1.472041018845427
0.1885034817899169
0.4165022281049701
-2.077046728729275
-0.9385544445791996
-1.52106923789335
1.351284217277508
1.108339465204666
8.56234027504861
-8.748187630766441
12.97348956000417
-12.787642204284
0.1974611903659609
0.04953797827211034
-0.1857330143026346
-0.06126615434175244
-11.21731432841207
2.014655316842883
24.94859916700581
-15.74594015543661
-8.056084804955367
10.60709902752365
-12.91347589286905
10.36246167030274
0.101375217919798
0.02397825635202863
0.001524257804249771
-0.1268777320856281
-23.75493174842585
7.419882201742483
-9.022134993186297
25.35718453991219
9.289701574804319
8.778198204323743
-18.06812686005292
-0.02390481296276744
0.07035444312282443
0.03196678899005419
-0.07841641915804454
14.27203172395539
7.285635816896374
-5.887906128178898
-15.66976141262657
4.579624390146023
2.629184179522819
-10.1854734275795
-0.2188854191791375
0.3810865024074255
-0.4254849980674351
0.2632839148320342
0.4099009547078826
0.675098292463156
-0.2632247537500755
-0.8217744934418387
1.709954154261441
2.108357916391215
-2.707550188411026
-1.110761882213255
-0.02897218742751498
0.009192769668453973
-0.03970414715712638
0.05948356490945327
9.073926597707954
-7.310073695217084
7.525848672313832
-27.40471864711521
1.955528526914982
24.24289179498913
1.2062983252063
1.103085481851025
-3.580138261237275
-1.005614212230898
3.482666991677331
1.460896776050924
6.970595985771256
1.295039464638876
-9.72653222636818
7.322232655044373
19.97889076754038
-43.18906780335132
15.88794438076762
2.877108386779321
-19.3386667530461
-3.924550048569063
-0.1201346793136003
0.1257373388356606
-0.1113928657096795
0.1057902061819373
16.38466747246747
-12.80302943936264
-3.130734160828778
-0.4509038722752205
14.79022026912757
-17.67356757393804
-6.352855648406622
9.236202953280012
9.11172704905921
-23.36464851394265
14.85863189539822
-0.6057104305149595
-12.71987962781595
-10.77367485734827
-15.57493424053287
39.06848872569709
9.210080269797826
-11.83656852028858
28.13129693934698
-25.50480868885441
19.29882874915356
-8.686021011827979
-8.235519532904865
-2.377288204407468
-0.8891807138547758
1.961047013697628
-2.768870557282917
1.697004257473729
0.5886083532132996
-0.06677596364319849
0.09119113153239509
-0.6130235211050384
18.88508608963798
-18.96396366607171
-0.8176221562562045
0.8964997326995228
-20.45405369120133
9.364228949148439
11.08982474205687
4.249082766037451
10.60149800328159
4.503059404875902
-19.35364017422616
4.822675862332294
6.975299428121929
8.36249683941984
-18.93604899476367
28.59449310652569
-5.703091543991166
-3.955352567768512
-0.009106774649536487
-0.1634289777083222
0.1357771032671447
0.0367586490807651
9.445970348477076
-16.68680115217809
-1.054226090514051
8.295056894220551
-1.892278657662045
29.901487355143
-2.91862460846896
-25.09058408900825
27.32008307488015
-27.16903014812252
-3.80004130904202
3.64898838228628
2.090641808407856
-4.634071002687257
-1.985858942715521
4.529288137049717
-15.57502600749159
-9.504413923938399
10.25400341506625
14.82543651636582
-0.183765478954776
0.1400123709621822
-0.4170334900332711
-0.1408728921178436
-12.27686299405095
12.41780150542009
27.860429697889
3.221008484024396
-10.75894309848204
-20.32249508343087
0.09307932624388662
-0.0944592976784374
-0.1869043014551734
0.1882842728840146
0.1686252075342047
0.01125530800647186
-0.1798613281087729
-1.918744175530694e-05
-31.88522418544327
-0.4826883162487876
33.64049854565469
-1.272586043905223
12.31455975689593
-6.314991900837175
-4.656665223044892
-1.342902633013862
37.0955106578979
-25.55231533870649
-34.52674710704385
22.98355178786219
-4.260440788502791
-22.44561656199764
2.757524690675344
23.94853265993289
0.155390277385864
-28.52913334610485
-1.045492730112434
29.41923579883792
-16.57053837927798
13.08701892788885
-14.48394468366242
17.96746413505847
-21.59024692017267
-16.49568803200192
10.12421985474481
27.96171509742683
-20.76073476983484
-6.663162203167254
14.16705225949719
13.25684471351905
-16.11941138324917
13.55695212335655
6.85163194332591
-4.289172683450987
18.59693747905542
14.14178037816335
2.998801910005204
-35.73751976722194
13.9364706831882
0.3521877265233914
-17.24061879693008
2.951960387234728
-20.22344471809348
-6.321085576855563
28.07587848376713
-1.531348188781319
0.2114288930828005
0.3985986657870053
-0.1515138378741577
-0.4585137210053569
-22.20141315884078
15.41733798974635
9.94137740215978
-3.157302233060522
-8.120789739939008
6.981344055514433
-8.226582181162209
9.366027865608936
19.98681491172082
-25.72462009963811
12.04113156601141
-6.303326378019818
22.83218789639851
-22.06656418119515
-15.37980044696306
14.61417673176103
0.3898259309595039
6.646267096544472
-23.83825716593646
16.80216413843433
6.200255965288169
-8.3216546825227
-16.82250652338016
18.94390524061601
-22.6404052512289
2.16998193622907
20.07298479322881
0.3974385217675301
-6.76248194544457
-11.49256033355345
25.64259972323398
-7.387557444235154
11.48377235452589
-20.38467930632932
9.051218167524087
-0.1503112157212799
-28.97944555485415
-17.00783536125099
16.95317381956743
29.03410709654284
-21.77887061486435
7.072381247454571
0.5974645690934264
14.10902479831734
13.88161762952369
-21.00350733746422
-20.28282893918471
14.56681168772022
-17.48556044579537
2.91924546837119
-0.08097791489155622
0.7023077626778688
-0.05101021072666736
0.4554169811644365
0.02035488075433674
-0.4247616511988186
-11.08796362470553
16.29827575079716
-9.213495492718112
4.003183366626948
13.58076842788628
-18.67568946626693
14.90749657122318
-9.812575532836899
-21.8686102233365
30.74642810278755
-24.93635758193878
16.05853970249524
23.17789196670579
7.011139775095865
-27.70199903677247
-2.487032705029434
-23.26499562279513
11.40126341252158
10.94401764014
0.9197145701338812
21.60690464637879
5.1871909272872
-2.036431958842557
-24.75766361483362
-0.4501317893121217
-2.17695539278604
3.73017266398154
-0.01570195153727092
0.1097155811835477
-0.1075867953230342
0.01357316566645989
-16.79234402049297
-3.71524860582611
12.2218440275612
8.285748598760277
1.392338712781523
-2.664911338215161
0.3833919116014106
31.03870154776804
-9.158308717937532
-0.9270295197141467
-20.9533633101078
-1.324491209715678
5.209421100413335
0.05945284038720632
-0.6364689203660328
0.3325520820790004
0.2444639978771018
-2.968636193791081
17.53595184622169
-0.01806620715101765
0.05965852992532644
0.09191210778887755
-0.133504430571802
11.34461596104538
6.696104162113163
-18.90888527400361
0.8681651508891474
-1.445042217149418
1.92077173941983
2.203917456733779
-2.679646978951201
-17.5067010276726
-3.56621297521507
21.073251837329
-0.03694353334508578
0.01202113599058438
0.1217587263937261
-0.0968363290419509
10.31978117693528
-4.162702725810351
6.500873659053538
-12.65795211017622
0.2632445053551475
21.58133104988065
-19.48505591499081
-2.359519640240215
-0.475571135733883
0.07043109079043249
-0.8857343356320262
1.290874380546287
-9.801975438893603
-9.425403930600089
1.085897984800758
-10.19955692366796
9.351048690207564
-0.2373897513093465
6.170542375389392
-7.810993474273565
0.2827779404764539
-0.3038730339790965
-0.05374253122816477
0.07483762471342731
-0.09931140506085463
13.08184376235602
-27.28148070114045
14.29894834385771
6.978020688257077
-16.314195173117
-9.491350246905238
18.82752473180868
-14.69464043604122
-2.094178952493334
16.78922373404605
-17.14781423716326
26.8775801943249
-9.730004511858574
36.6678393334526
-9.098200235731596
-16.74827698287105
-10.82136211484819
-2.293212061728995
0.4230279547715832
-0.02214800389765853
-0.04695352291345575
-0.1027099964369877
0.1718115232397988
0.0294819627834625
-0.09842745757855564
-0.04996186080983214
-11.30958303568175
-10.43844858697056
21.74569298334509
24.59292307136588
-10.46835125950965
-0.2429541823342239
13.54521982439999
11.33926820095579
2.62334064814568
-27.50782867349808
1.633765590964906
-5.712635360831542
2.385200204423047
1.693669565409225
0.05756799769703008
0.118429208875768
-0.07099255949263387
-0.1518498004163205
0.01869378363504456
0.160872254041001
-0.02771623726313671
-20.93157396000436
8.1484143366291
6.576624597462597
6.206535025955486
29.21759951501197
-20.03603494780679
18.4654016379994
-27.64696620520846
4.423187299396681
4.843510455883883
14.41538285429539
-23.68208060957802
0.1392222110306912
-0.1268811210265545
-0.002218145518899676
13.09342524688875
-16.18671751082564
-23.76129161106514
26.85458387494813
-0.148531473363079
0.1230072820980744
0.07944950248748647
-0.0539253112317265
0.2151175072364659
-0.08904539378574043
0.03863944960179855
0.5543292025745208
-0.7024519473721009
0.1944111895649941
-0.0462884447721118
-19.97357327560459
0.002935728679236727
19.97085365345405
-23.7940112206905
23.9638158788741
5.815269186351225
-5.985073844538178
-20.99693870006941
3.666448492635066
7.172774469945357
10.15771573752395
-1.560035665699669
26.57977929190317
-10.69885461255777
-14.32088901358578
14.46710358557501
3.551281487431809
1.928099517031142
-19.94648459002509
-7.852995832838791
-12.41456791195572
2.353480356370834
17.91408338844547
-1.547438030282771
-0.9974683729950378
2.094774614010327
2.288481123629833
-2.21579331994158
-3.680349505811976
3.607661702093168
-0.1433159042525107
-17.28502187064058
2.527639999198997
14.90069777568667
5.841958158174538
-27.41438184518921
-2.277651158727022
23.85007484574253
-0.2173238467134082
-0.9250356403929413
0.9990186063146108
0.1433408807601348
0.0222134452999774
-19.99562079531068
10.46108272844145
0.7836973750427814
-15.84700456082527
4.602224457337819
35.21633434892337
-9.091974179911206
-46.46750533571834
20.34314516670879
-7.244841047095592
-4.340470849453235
32.36286923613125
-20.77755733958238
0.3745456818806623
0.007913481678196353
-0.5242106917744992
0.1417515282156849
0.0883419452922254
0.6655735402603568
-0.09888712437884592
-0.6550283611902722
0.226285561429064
-0.01802644313709536
0.2119201806241962
-0.4201792989307014
1.323741236395141
-1.192480347093906
0.50447424258513
-2.040294535488696
2.7283006400422
21.43799555456265
5.091721291243974
-4.457343042365319
-22.0723738033829
-23.05761253323998
14.8480858327582
6.140645679775326
2.0688810207051
0.05135948397512173
-0.3100462569488389
0.1195212318012047
0.1391655411636462
-3.595517960291257
-21.72637022986317
22.60128484979287
2.720603340369308
-0.9504673372321878
-0.6759854368026731
0.1774427644038977
1.449010009628672
0.5159713270781999
0.2498177844716789
-0.520234921104714
-0.2455541904532763
-33.11895393809627
-1.720098294594166
8.336264500943127
26.50278773172309
-24.37630012535435
3.870754172212922
-12.61340798495923
-14.44350991598046
1.054684900072994
-5.756693879730231
0.4227598843028693
-0.185113142673704
0.3721005026158645
-0.6097472442535717
-18.48509897168759
-8.561661672116138
13.80336260626384
13.24339803756932
-1.046622753643849
-9.860637117346135
10.90725987103724
-0.6559864081138059
-2.811623693770647
1.142874229335606
2.324735872449598
-0.2465313199748908
0.5883132893843991
0.8087837794481381
-0.5473640656689478
0.2055424913556827
-0.4669622051386806
-9.607088777011491
-20.25524412110936
9.230500209398331
-16.20788234734932
-1.054131064456716
30.4426143155623
-13.18060090375517
-15.4431677396496
15.93753418486449
-0.4948311563389024
0.03279582585056252
0.2014361893026327
0.04381063129953702
-0.2780426464618114
-0.1322629856184332
0.04212737354633624
0.1093170359124914
-0.01918142384859786
0.07318896882565394
-0.1167116010847162
0.02642687050126052
0.01709576174975193
-0.5170880992238256
-0.0960912935867394
0.1010160214447093
0.51216337134443
5.395570334294898
23.76590958884239
-21.51087080878757
-7.650609114334011
-0.09309282993500974
0.5900442587986875
-0.8670756056621604
0.3701241767878912
0.05095145589253006
-28.53186223950832
25.79020667234458
2.690704111279185
0.3035568245269437
-0.6082898383077656
-2.149507552133868
2.454240565894629
-0.03550466216085291
-0.2418386047879087
0.3907691967609183
-0.1134259298265061
-4.149347602118931
-12.64528874356457
-1.653982169408156
18.44861851511661
-0.06238590759708828
-0.05014361978614668
-0.005992223375853344
0.1185217507543135
2.398813262614314
-0.3932507536200638
12.56961216225128
-14.57517467124523
24.20917021868632
-0.2590302214077704
-5.278915895762668
-18.6712241015038
15.51922957789549
-3.139385232536811
-1.415894744540563
-10.96394960082531
-15.87609137537173
-0.1662428388543415
-5.630058926161661
0.2677467359972636
-0.07373856229801438
-0.02569515798645731
0.01479733023045517
0.08463639005106068
-6.99172985503249
-3.218806117585029
10.77203265850903
-0.5614966858224426
-6.605417565002817
5.868245538042562
-0.9715031613188717
-4.920238501162534
-0.7136759025336176
16.45297100176705
-18.38781167584721
-24.62632435702916
-3.060371571837866
7.249194761384016
0.04889715353356203
0.04422288736125628
-0.03523244020919924
-0.05788760069312671
11.78481792811067
1.859892388631031
-15.06801858657031
1.423308269849171
-0.4980616295603087
0.4467644632267008
0.2996155896551956
-0.2483184233351278
-0.03101748329754334
-0.09711975138845527
0.009690063823426614
0.118447170858366
5.888012489246494
-0.2115620102609272
-25.42320440635732
-0.5506689257988175
0.6519982207243074
25.32187511143321
0.8953545019815541
-0.9469458748029858
-0.3255997932277501
0.3771911660360249
-13.11598350119919
0.2208908308635751
12.89540189867857
-14.55777842365836
15.03542178481944
-12.69918514564373
12.22154178448393
-0.05710978953569056
-0.4018468691095391
0.63611105880977
-0.1771544001845214
-0.8071839834064523
-7.704497246076738
3.903556142894156
-2.53345996635258
2.378924596335963
-3.749020772876555
0.3902365289213026
-0.3778438529721844
-0.1331232443256215
0.1207305683590732
-18.24934821252014
17.08084531675148
-17.0763142188145
18.24481711462751
-0.1487266528310044
0.03710605497611607
0.02219400076999611
0.08942659707887304
-1.725000142626339
0.2434625023263818
1.456141335444753
0.02539630486956011
-0.03977900959026977
-0.08426950443763587
0.02800170307733047
0.09604681094236979
6.230670499786475
-11.036552541424
-6.397382879046832
22.85080362334534
-0.01943081081697746
0.1125728516557026
-0.1379296220352539
0.044787581187972
-19.3452168470019
-3.463387675058773
6.60072217471163
-0.3130688768790014
-0.1604208083208792
1.148587977643853
0.02682288290152978
-0.0978271537448554
0.01480924398020583
0.05619502685177671
0.1164864295529805
-0.2991234689554292
-0.1595822522403784
0.3422192916384914
-14.25462979542761
-0.3033545755182904
13.00103030891601
-24.86081995735138
25.29594790629958
-13.43615825791779
-3.367463228980636
7.948816567247426
13.09686743742384
-17.67822077572629
1.957658261201687
-0.9779449536296915
-0.2492390645708868
-0.7304742430062758
-0.4337750152055829
18.5437834777129
-18.11008949938983
18.95398243002741
13.24570179390962
-21.82590684871542
-10.3737773752197
-38.07059213510171
0.0703851750959977
20.93035774419457
17.06984921581329
4.402868493590202
-30.71933303853878
-1.866157006239569
28.18262155119073
15.6969745428639
-19.43710172214183
11.03888578312001
-7.298758603840419
0.339262324105533
-0.7876002205419443
-0.6604414075910109
0.1835649642226531
0.3209702765154557
0.1559061668185479
8.854808575726853
21.09784775107246
-27.40550813933606
-2.547148187455062
29.20976639325792
-25.17462937364632
0.3677314739800321
-1.250007332860224
-0.08480464019563064
-1.372738215344701
27.80340367492433
-13.26397373035608
3.666715412468771
-18.20614535701071
0.2169644990143045
0.3632954746666265
-1.146002695612609
0.565742721917769
0.4720868695240897
-0.1292752297899614
0.09572604275102888
-0.438537682489629
-0.09130980355474617
-14.36789196797974
-10.75128142880266
25.2104832003585
17.65497845306045
21.89945580703175
-22.2743013218937
-17.28013293819579
0.8265761706210683
-2.155636831853447
-0.9641514004733222
16.75491150161155
0.9003329912366302
0.1531784738662846
-0.01123224864745236
-0.08314947813342423
-0.05879674709425547
-8.543780509473757
3.96557864574731
1.517830291904214
3.205028868233303
-4.778213392004532
-13.39068688028605
-2.599790944955386
18.2834121443498
-2.292934319108018
-26.7952952843812
23.42811953303933
-30.65435341347852
34.0215291648256
-0.217993110768469
1.529507578288812
-2.099480450322322
0.7879659827771386
11.85685672247738
-5.763905973282053
21.20601194331848
-18.58991640795068
-29.63542141475968
27.019325879384
1.843806469924988
14.08590479969049
-10.87173388203318
-5.057977387581809
0.07840815631944884
-0.04245002692266107
0.009605205137264976
-0.04556333454505661
2.798640890160054
1.385304106332785
-1.426073662075032
-2.757871334460015
-7.694221251243039
-7.459379961881825
15.15330215687196
-11.65699125229702
-5.960743403476648
-2.598201088962062
20.21593574473873
-2.39079764432193
1.027317345355129
1.110791726904641
0.2526885720403279
11.24089093586508
-13.51272035202297
13.95472419931858
-11.68289478315816
-0.528114627561081
0.5347327143343544
0.09084985797412923
-0.09746794476355432
-20.17943450657042
11.56305980586637
5.85446636431769
2.761908336371615
0.01569488432087288
-0.2815983566345677
-0.3661574845166334
0.6320609568302034
0.009645498539565889
-0.1244040334422654
0.03257998235466194
0.08217855254146522
-4.960444361683682
20.5628520542667
3.257612652264302
-18.8600203448507
-0.1572439241660727
0.2151741550823323
0.002661696547844773
-0.0605919274724466
-17.00507929514756
12.54399508586331
-5.140293742561189
9.601377951820828
-0.2307702709261289
0.1223851246180096
0.1672579354023919
-0.0588727891036263
-9.910509316785951
0.7865312652517953
12.2223519055736
-3.098373854052637
1.037580366931383
0.9970128652169311
-7.25400004114636
5.219406808992865
0.3480126890414232
0.07029054065180666
-0.4156221388112723
-0.002681090890878167
2.46786891294729
-5.915996084751999
0.001923838950999839
0.5464114903024273
-0.5897177164193658
0.04138238715613093
0.1142207569193598
0.1038332241331319
-0.161295726428281
-0.0567582546368117
-13.23373467525733
1.682479769640308
2.946333285309887
-0.9482446680665998
-3.680568386962666
-0.02150014663208648
-0.3938102719165352
0.7212993574637072
-0.3059889389419866
-17.67333501531688
29.31964647956424
-10.17195114896428
-1.474360315278418
-0.9005674657668065
-0.5245148139433577
3.158488543930999
-1.733406264286489
-0.7645152301967777
0.6919970328109523
-0.6006223214714513
0.673140518817008
7.062205982664087
1.200442321223526
-7.225067936967855
-19.52810935271854
-12.22222349631151
16.89931922441076
14.85101362462268
-1.720290652928552
-0.04816398706332231
0.3263460080786268
-0.3169742851219479
0.03879226408997061
8.156575634521166
17.77553845788071
-37.31379745159386
11.38168335919294
4.978713038806147
-3.326162549755024
-0.005018133669180343
-0.1190784321693934
-0.02919101099936669
0.1532875768281935
0.6605136770589772
-2.016977673697512
0.3873115881746797
0.9691524084436474
-26.03339066180659
14.3764265947443
28.41187556867636
-0.01048011991050884
0.06770966186843552
-0.08535581727811994
0.02812627531243701
0.007327057779961441
-0.1342801333427308
0.1204912927374299
0.006461782814910879
-0.03208530121317007
0.01686688852592614
0.0152184126829304
-9.168898858599977
0.304221001291219
13.84339089612893
13.82386466445774
-1.130539821030069
4.76100418112193
-17.45432902452074
-13.88242330078764
-3.602631222203626
-0.0270868799988633
0.153560344738621
-0.1246819697095707
-0.001791495036782675
24.20821486409054
-23.65294931100204
-3.523901746879029
-0.0728023643025161
0.07223559992547636
-0.03462451032701633
0.035191274699096
8.000606011473808
-13.58358920995201
23.76805119370349
-18.1850679951578
-0.2403340815322546
-0.2276493436815742
0.4576457430160014
0.01033768217757814
0.7327500102035447
0.07392214381791337
-0.01535475145747682
-0.7913174025736194
-0.1632574864534155
0.07460055476798871
0.0777712520868707
0.010885679591977
0.022753119816887
-0.04431244620392855
0.2366768336183654
-0.1824800918965397
-0.5241217017322847
0.02810666969153635
0.678495123929756
6.808175920862663
15.06272744861766
-14.13621839551519
-7.734684973969425
1.562344504192825
-7.557061493996792
0.3234774883679042
-0.1492648201323415
0.1049051281365641
-0.279117796384534
0.005291043247843327
0.100645131504212
-0.09625973595982137
-0.00967643880091862
0.04360826248783772
0.03125331688756942
-0.07486157938050945
-15.79886488880549
6.971412597598655
15.45647858689218
-6.62902629567848
-0.1039224431859859
-0.008477737801803045
0.09778687366011878
0.01461330731888452
4.27281411165862
-21.7791170318618
-0.08309811137033619
-0.5260187837115414
0.362585575108737
0.06792264519345045
-0.04445740169592736
-0.1091984547822029
0.08573321127756188
23.1360055682045
2.7575406979354
-18.85703111766734
-7.036515148470476
-0.08233050539530726
0.07869909767106194
0.003631407721071582
-1.93200283003363
-1.154637168903798
0.05501254126560119
3.031627457741228
-19.91939911242894
19.77155754195703
0.1478415704805726
-0.1856307980840827
0.04471239247651872
0.1024639451425745
0.03845446045577256
-6.834022887926065
-0.5728587939894452
-13.52469227806043
17.84106482396379
-14.76270682432267
-15.2080189629943
12.12966096342197
0.05865341056823815
0.4309214354168678
-0.05909116867905993
-0.4304836773152594
0.09762804082023332
0.02511236993498042
-0.0928717303359077
-0.02986868042878301
-0.1511512231657535
-0.4906157080409308
0.4359576390402329
0.2058092921501946
0.06530612065159984
-0.03400205675485935
0.1376675137305399
-0.1689715776354686
-0.1182266265125733
-0.2283972262147537
0.4631102822791227
0.1272299493209273
-0.5825036764011524
0.4835410441754854
-0.02826731713189901
-0.3090343170341405
-0.2408625657515904
0.4077469394797361
0.1421499432913398
10.77469374416622
0.7896157718703644
-5.741415893246335
-5.822893622799492
0.02626632636305114
0.1705238823616325
19.00377952620342
-18.38914868435858
23.11481306998293
-23.72944391182654
-6.0782516273136
-12.15766911282249
1.551672652774362
16.68424808737034
0.1493492639541082
-0.0811996921698695
-0.09714411492813775
0.02899454313035958
0.2939376157192739
-0.01356557645166831
-0.03280982849604094
-0.4585791409849615
0.5362179581947297
-0.04482898871992277
-0.2502341871505015
-13.09421999019277
13.34443449376539
0.1961138974142882
-0.2186279138266126
-0.1557067908172584
0.1782208072144345
-0.03704783228155573
0.1896400463695477
0.1969764639076878