/*--------------------------------*- C++ -*----------------------------------*\
| =========                 |                                                 |
| \\      /  F ield         | OpenFOAM: The Open Source CFD Toolbox           |
|  \\    /   O peration     | Version:  v1906                                 |
|   \\  /    A nd           | Web:      www.OpenFOAM.com                      |
|    \\/     M anipulation  |                                                 |
\*---------------------------------------------------------------------------*/
FoamFile
{
    version     2.0;
    format      ascii;
    class       volScalarField;
    location    "1.6";
    object      p;
}
// * * * * * * * * * * * * * * * * * * * * * * * * * * * * * * * * * * * * * //

dimensions      [0 2 -2 0 0 0 0];


internalField   nonuniform List<scalar> 
19631
(
-1.464845882524162
-9.372142906388646
-1.41228869406078
-1.006662958449362
0.04079193416943998
-0.5106237802882962
-0.2195590559650244
-2.679448641964678
0.01003474679872294
-0.2242211157200421
-0.4215566274994589
-0.3995207690389386
-1.729648525699389
-0.2697300631421621
-0.324389898865045
-0.5738594569442869
-0.9440565925851032
-0.350536887082097
-0.9911886827904146
1.650268909332863
0.1585283729515442
-0.5878092801667292
-0.09767708063744399
-0.7673472391102402
-0.2911877135835258
-0.2959505257830118
-0.4354015201298347
0.4478339337783911
-2.026240393712256
-0.4210461382360383
-0.3015996961933454
-0.5950586426286028
-7.835087440021626
-0.3636711635580972
-0.6066292008898797
-0.2707238209962006
-0.5110804401010995
0.1331465398659467
-0.2836379229942878
-0.4830151670961602
-1.522524147392691
-1.007106273366915
-0.4429415348551957
-1.015350836953144
-0.3844696091823767
-0.7713014033729299
-0.5750344535048648
-0.3134007607860109
-0.3792505388572514
-0.2226972665988023
-1.447794634305654
-0.4074298486972449
-0.4571560597866645
-0.5188965457209234
-0.2319483840580615
-0.7861005705293047
-0.7625420647616926
-0.3309697639918914
-0.2820695579970361
-0.7450130870299392
-0.5848947646355948
-0.4273028313412917
-0.9273336925531386
-0.5609072562090845
-2.625103630217636
0.2122382017752489
-0.4967620683775559
0.0006958613733687388
-1.021178148846396
-0.213795882680064
-0.9039175808444991
-0.7621984294997323
-0.5605395113187474
0.7037779064401685
-0.4463077248673482
-0.2859900238935852
-0.5079710871241363
-1.071422867159148
-1.647527358713396
-0.3902311355203843
-0.9804689711591369
-1.187289036135446
-0.4891088045999051
-0.7006650390140051
-0.430767683307286
-0.6878244135194084
-0.6182021083920985
-0.8371316659974354
-0.9851631691689832
-0.7396705859227315
-0.8122074969835036
-0.2904808244507056
-3.863747046281727
-0.5430408532540586
-0.5250517427014092
0.3161676876594623
-0.6505780583138481
-0.2144831023552259
-0.5577512740364875
-0.4328450920858377
-0.2919989840118188
-1.943292830608286
-0.339676129973379
-1.56306028029023
-1.047615035046804
-0.6687714443201698
-0.4438353084520015
-0.8228733991442172
-0.2586489236116618
0.03447069625909622
-0.8483681732038999
-1.07588057669571
-0.2226925470816633
-0.5457864229221656
-0.1340286698824867
-0.526233797005216
-0.7387270214341257
-0.3277327386196275
-1.107403081525759
0.09485871904459502
-0.9118461049423382
-0.2280703692624199
-0.4134303900707351
-0.5375675735427939
21.06467574609024
-0.2646462183072399
-0.4885789246592203
-0.3456577267644448
-0.3274170754195109
-0.3779519114052896
0.4123149439761913
-1.009642384862265
-0.3427532355642205
-0.8003285953537599
-0.4640865975444157
-0.4276593209481941
-0.5155279552736136
-0.2677750265413254
-0.07505504210560296
-0.5179065468919651
-0.2655141671917547
4.352721228945883
-0.1928094243454216
-0.6097077428894774
-0.4121809947436955
-0.3438102066269289
-0.2696714181680037
-0.2962263194865367
-1.546027477076794
-0.5524676500926415
-0.4112996308852604
-0.416206386446176
-0.3768582411186616
-0.3685285647408948
-0.3515902666704607
-0.4170208757906561
-0.7550894922131184
-0.4166944786388751
-0.516023434995811
-0.3933977827729584
-1.031768369524489
-0.3247935681088525
-1.028685413150225
0.5499731885663036
-0.3702694136149993
-0.3749347135499677
-0.3519050515740752
-0.3428358207017589
-1.121153144274718
-0.5581563823254071
-0.843874202882105
-1.149347407052423
-0.901393149109003
-6.418031952883736
-0.4876734598140244
-0.96937605406663
-0.2647876734729608
-1.453821091541057
-0.2573073329967888
-0.2656385476267413
-0.6117490415727839
-0.5482021064293342
-0.2503914572220254
-0.361657016355203
-1.273535637157459
-0.9959036959519449
-0.5402634446147269
0.0464541774332678
-1.243464323250158
-0.264843108087682
-1.161593616491057
-0.791327645726843
-0.2962574440383822
-0.1790455566993067
-1.000429029404656
-0.6403117915043535
-0.2630699349037102
-0.7228597830920184
-0.2567674219015668
-0.7961069737780418
-16.82999242811872
0.004662428743692577
-0.9438000831664428
-0.6993267590213843
-0.1986846300845384
-0.4732012392639059
0.07107865147778546
-1.030338878531653
0.1634339449555436
-0.3328122563265943
-0.4128895384457016
0.02689969690103043
-0.6059831821658047
-0.7132144373997377
-0.6793483103955167
-0.9062564639865139
-0.897961344302015
-0.7739359847121537
-0.3409860237309915
-0.4735843648341284
-0.8212489761083819
-0.8212161057046106
0.009897981264468851
0.139024136204551
-3.130601903967328
-1.346898826679449
-0.4177158628644587
-0.3909298951785125
-0.6876787863620012
-0.6844930805745651
-0.538161251843903
-0.6431581084494122
-1.037759558844817
-0.860459373264703
-1.549001991170149
-0.4487786622029927
-0.3807308812611918
-0.5796187482144445
-0.5121835912275823
-0.6002252200691851
-0.5288848254596125
-0.418796973989174
2.595152932229964
-0.5216189322367587
-0.3331499042117549
-1.305081127066167
-0.4452564296759683
-0.4122515249983542
-0.6696253147411954
-2.132875323082986
-1.097079626661247
-0.5211025000037546
-1.158058547059517
-0.814187697582251
-1.618267547725336
-0.7238142001440981
-0.3594957442402424
-0.7338477262610732
-0.9839327952823064
-0.6904563415126824
-0.2052716007248097
-0.8576604733502509
-0.4717521810403084
-0.9796317181241151
0.2181408534859742
-0.7483096481791838
-0.148720702876969
-1.040352519368004
-1.850151876458577
-0.5632892352586091
-2.107342172198051
-0.4988235542172206
-1.00785079130646
-0.3631647235056815
-0.8290408088961098
-0.6546932456386835
-0.5591013340232296
-1.326656677847057
-0.5651521416396813
0.04402911072915697
-0.9788317987110235
-0.7584999756527172
-0.5864165435840425
-0.2985922585310741
-1.055958599089786
-0.611775035389885
-0.9405792880979724
-0.7331868567127838
-0.5371267713176842
-0.4907517713964699
-0.8410360704251767
-1.181413040326746
-0.1804700730924709
-0.3656648768167883
-0.443597984998894
-1.782959503820665
-0.6763270965729979
-0.4171281626334931
-0.2754550240784098
-0.9996163600677216
-0.6551328242388046
0.2997775505390463
-0.01298857582966755
-0.7059734405548164
-0.7944606633377791
-0.3903104597084282
-1.554243509038911
-2.317591055267529
-2.52402412194358
-0.5004755156037427
-0.5560501102283227
-0.974677223566934
-1.559797778755261
-0.5050235405608455
-0.3207269599187891
-0.1868016044009095
-0.3700246383375784
-0.3424389497021083
-0.0301211713955189
-0.08686826724367336
-1.490735286456994
-1.432035233836146
-0.814949882435386
0.4283143231107303
-0.5059419294170905
-0.3078672510663664
-0.2822557758402653
-0.3311950443028747
-0.5469770031754079
0.2748336290076942
-0.07194455928159178
-0.2455325722267481
-0.2139269401050774
-0.1537190758746938
0.1223192354140472
-0.356907945385007
-1.681956588023646
-0.9710482842005265
-0.23123402594194
-0.5047171027012299
-0.3563747849506079
-0.777040890079953
-0.3973646998035139
-1.600706431599409
0.5622691484300486
-0.7843763075291874
-0.7281354088203891
-0.04910739910438809
-0.4494866748101038
-0.35653097121686
-0.5537680498973244
-0.09262827001131663
-0.500778150374196
-1.14884178340641
-0.5047812958593604
-1.476330917920407
-0.3915619297973104
-0.573045830510448
-0.6160205912199531
-0.6223504811635138
-0.5394546268206062
-1.58554676793244
-0.04105124017186396
-0.1498915874084896
0.03073655015611005
-0.4378629831741285
-1.588911010525243
-1.076062179653468
-0.3538189738863995
-0.5793661765346395
0.3978623998748873
0.31024615638264
-0.7597678126283416
-0.1378019483328326
-0.5876120931270058
-0.5908291482460332
-15.13619480134534
-0.3157490794118665
-0.5592485973418025
-0.1790482132767584
-0.949846272960519
-0.3382294570104699
-0.1945491143568786
-0.04813221404342121
-0.9397851804129564
-0.6455477105825513
-6.118096566705896
-7.009647753180076
-4.281130537008911
-0.5126406731122839
-0.6151483040935918
-0.587809241510119
-1.025752573621511
-0.6769819820190662
-0.5276699773332622
-0.5926177164717488
-0.5009564816593707
-0.9855575503351497
-1.119990021993132
-0.5971563991474171
-0.5899613846564662
-0.8747671552634928
-0.3739791701324575
-1.672342082468908
-0.7326699313880305
-1.76288523598908
-1.740617540669622
-0.5820009678612784
-1.052118514819591
-0.629474066794764
-0.7889218871981423
-0.8315782903266725
-0.07863700248845454
-0.7675756686190237
-0.6061355519163087
-0.526888074347012
-1.259346244053842
-0.4720360370098067
0.8532952712430772
-1.100282372950806
-0.1188628441909283
-0.2092712213549261
0.396420654444506
-2.097521036963663
0.003386231291799534
-0.3390277013762695
-0.9557734042454272
-1.107363824172686
-0.2295344993882969
-0.466403915072485
-0.2641570261313466
-2.415893221860959
-1.183072985996061
-0.6638579687039022
-0.3424099403850801
-0.7318344971273221
-0.1164662152999466
-1.768705095343633
-0.4264815165815741
-1.079039136731597
-0.1207178966908135
-0.5949926022228125
-0.8961665512555264
-0.7559800871136992
0.01415506710194591
-0.717796296761823
0.1039453688904826
-1.314526810266902
-0.9907311306708008
-0.3569992553031973
-0.588035896557254
-0.6799081080771071
-0.7400357693875721
-1.089638167225257
0.05920803257885971
0.09003087238013668
-0.2514340289366364
-0.7310049688680189
-0.6120999709852223
-0.6717835864603597
-0.2188367861805282
-0.6150307674654154
-24.56378104098009
-0.3956154076520474
-0.3694103808045132
-0.4503943072484682
-0.8220101163229866
-0.9529418637887102
-1.138618635552476
-0.06027173643482649
-1.371614611211335
-1.010974456544316
-0.2323279443670619
-0.3684908673522184
-0.4259110757202279
-0.7715401901062131
-0.5937786420080617
-0.6231119916145358
-0.9712813989253475
-0.6720736096151111
-1.005096284833525
-0.8183139894589713
-0.1290385632980036
-0.5092129420780743
-0.8493811835510469
-0.5777963485501959
-1.459435929100914
-0.4590721451211383
-0.1854261697687072
-1.934502053130555
-0.184791677904661
-0.930396108311182
0.04281548810642381
0.04145310848608173
-1.034343536036187
0.107035408489532
-0.6946702271984421
-1.293833473628079
-0.6962747466753808
-0.6359071554112559
-0.354018203006138
-0.4148611192448622
-0.6863288532767955
-0.02267165862243477
-0.2605720360580333
-0.1148647777193423
0.3374408837239073
0.0009721930427380271
-0.09847828044654991
-0.2137870834847627
-1.023285189704602
-0.56098609935198
-0.6781308978092632
-0.2165164108878721
-0.2799056294095339
-0.266647519233031
-0.4774160740425792
-0.1218411288633298
-0.8245416929425903
-0.9402482499699026
-1.2763227011329
-0.6861768995205401
-0.5871690628034553
-0.502848072210152
-0.1528227096855445
-0.2941896385155822
-0.9151875081983626
-2.065817900727691
-0.9647968213370858
-0.2511579701040093
-0.1542352703038119
-0.2251152658195839
-0.2288463129306364
-0.204461940751164
-0.2931145084809328
-0.1826974550145724
-0.6430469284728793
-0.6349793409559986
-0.6287042219412982
-0.5191513511097035
-0.9086654138327193
-0.5569195362714671
-0.4575137054909449
-0.6511333623396831
-0.4415251646755126
-0.1447132956388344
-0.2852040644791707
-1.228902186026277
-0.526213302229588
-0.3599814985116737
-0.4865072204671302
-0.3679890815490117
-0.6121789559421179
-0.3861738983879042
-0.8203042091710649
-0.1382211603899211
-0.9226721489827614
-0.7749768242344585
-0.2992825856825115
-0.6801086787431697
-0.6135024807702015
-0.3987280027131358
-0.9547198939189361
-0.800632277852124
-0.225283350238702
-0.2882896461412554
-0.853162729295436
-1.968091475625908
-0.5580262401333455
-0.5916291360592928
-0.7387599899162396
-1.093751698518975
-0.2565325467937823
-0.6799318055467745
-0.8183248892465624
-0.2336427424375505
-1.034200134822377
0.1196262221611666
-1.397788720122218
-0.7292308243692321
-0.1749193179529039
-1.275500165285184
0.1098734533161908
-0.7319652413330116
-0.6123290704029242
-0.6395509653268879
-0.6545164226358855
-0.4082078288658167
-0.7009183871229937
-0.6079473877990312
-0.4324374731005271
-0.4199806707864724
-0.2985322086081456
-0.6470768343684847
-0.9663285425510812
-0.30009779108835
-0.5662111893627356
-0.785176626693709
-0.4139487859069897
-0.8524608687104031
-1.018596708585586
-0.2688384404517188
-0.9532875766683653
-0.7915501173716858
-0.1046217563685165
-0.6806792947154502
-0.2817901725573177
-0.2386957134501303
-0.3803314423379332
0.08692031723831768
-1.47680908061454
-0.5735212965277963
-0.7195203399231723
-0.6959499598259756
-0.772633916198702
-0.9612821328277024
-0.4859637107301474
-0.334685615444222
-1.512099087972943
-0.7831589829031451
-0.6753397516191812
-0.7397506143874947
-0.4864176553911201
-0.3744693351323796
-1.54917184202592
-0.1453606881727655
0.2280167632681191
-0.4758761405209578
-0.3408147651919223
0.2894833530247116
-0.6381113321938938
-1.157004024732987
0.06783411958217975
-2.002186239875464
-0.4202660462010822
-1.071513209686886
-0.3849782435541925
-1.023942087941367
-0.5063276562769659
-0.5684063889876108
-0.3888661788266805
-1.281848936143199
-0.8121926870011329
-1.729251730835806
-1.388114888330116
-1.424853479609219
-0.7125295547878158
-0.9156370173917641
-0.9015120212561796
-1.0943598749856
-0.517387716522324
-0.7082390024110422
-0.9046693846033005
-0.4344041579394393
-0.4205008190114312
-0.8519587777597514
-0.7028555807851593
-0.6356869972951623
-0.766819171529028
-0.5408029130391309
-0.3322963881518611
-0.2435998193635133
-0.6389827976801764
-0.9499885958967099
-0.7622448412393399
-0.8140014941788677
-0.6033154819923865
-0.7269199247137003
-0.3026987825980124
-1.060662372019828
-0.3251911089091399
-1.201936217916912
-0.5623147813670688
0.1159546358706972
-0.4383983039101234
-0.2116631841505431
-0.6918937018685761
-0.6140030212424515
-0.7827528325255153
-0.9458633427770268
-1.264010363350355
-0.6683113418914549
-0.8758952838580187
-0.5042853269513489
-1.008857772702357
-0.7337618885320764
-0.2585141655264862
-0.9834284913797113
-1.191420832024554
-0.295841277064309
-0.7125401690729679
-0.5341814286040808
-0.7436148924429534
-0.2935120083008483
-1.016763381126195
-0.7666749685563585
-0.9081552342986303
-0.9997566428556447
-0.8173455822806143
1.298622255566214
-0.1852522113889926
-0.2163686734181445
-0.1888026519515327
-1.637969535946997
-0.7671659613737081
-1.050058922257021
-0.927185107107531
-2.508737645941443
-1.167689708618877
-0.4475869509418465
-0.6496250120401836
0.5159675510117967
-0.9831535250211082
-0.5634708599437321
-0.3304852290141696
-1.129864813560732
-1.511719500788602
-1.299760009790942
-0.4915024937770065
-0.949083417733231
-0.8008680071710422
-0.6911898966222454
-0.8662052200679156
-0.7582845837003102
-0.6503659179257275
-0.9696739361943048
-0.810658458158934
-0.5080591287449422
-1.033372597669689
-0.42410192070964
-0.2670398428532111
0.0276466187792821
-0.4502142453319253
-1.932247561665774
-0.4944088776498688
-0.9010227095924385
-0.8231930149526741
-0.5867532080989194
-0.5156685345597464
-0.9519952640582918
-0.4834552766115958
0.0006589985699415607
-1.179253660017664
-0.3653987221245354
-0.429568150058541
-0.9564507652381052
-0.4779713851349731
-0.8352940113543545
-0.4647298720467032
-0.9425348810583197
-0.8889033493756965
-1.259928844231746
-0.9975887099045717
-0.1217402788036522
-0.8969039694393072
-0.5050089669571493
-0.8453981215287881
-0.9020984315649015
-0.7169265506336222
-0.5546811775876928
-0.8322831009869197
-1.222847007359745
-1.109830006718481
-0.6233800857459325
0.2839063610133335
-0.4729979396437485
-1.235447207482917
-1.84651507971045
-0.555506554103579
-0.462912909979825
-0.8010567002657052
8.632675850137273
-0.2509888010426267
-0.9909942344772833
-0.5642529537117118
-0.3603604912329905
-1.351725551718336
-0.3997313777204858
-0.9255006514781647
-0.2638671019133487
-0.7877664590452659
-0.6134368060706193
-1.631563347332738
-1.976519694963928
-0.8122532034502205
-0.2841581498227115
-3.616975954990247
-1.655145963355233
-0.3017324347392649
-1.41212507009261
-0.3323397903857024
-0.3496762763320118
-0.4340800655905868
-0.8316570896367181
-1.2923460123888
-3.735812584553275
-1.042477492029681
-0.7081416476789248
-0.2534849020862517
-0.5935027046719729
-0.5386407113750141
-1.456432010597465
-1.40442311721212
-1.774399344729612
-1.022982277055498
-0.8439029829696444
-0.9514773373677737
-0.8018408435446619
-1.254566709336471
-1.2265983379102
-0.3141160186064521
-0.6737865593845553
-0.3693591567277776
-0.4284958146494242
-3.193490358316531
-1.010031077652781
-1.016063716465803
-0.5957890444167612
-0.5997435393068596
-0.531182286093436
-0.6039954259110754
-0.9105454828316102
-0.8800725268031114
-0.7984511748106741
-0.5098656544715177
-0.9239740599325715
-0.3788382424138055
-0.4401433608825108
-2.743418505584457
-1.068211046511382
-1.965491793584632
-0.3662391227758187
-0.8360728106311983
-1.025607294740201
-0.1621092298112665
-0.2106675965124395
-0.4265940963195245
-0.7551840231631023
-0.1628828223811208
-0.1220772717411734
-0.06727879468727084
-1.776446672812187
-2.31638379776608
-0.5219146846140663
-0.8122629050068183
-0.02978641409317081
-0.8023410907187901
-0.4122009716044309
-0.2070806127979498
-0.2033222490322747
-0.9116709509906969
-0.4776842073059663
-0.690762301833678
-0.7649246575772133
-0.8449795819042981
-0.04020224427984815
-0.5079670196010994
-0.4467963201946867
-0.4260250117351111
-0.529313953836092
-0.06264698839989788
-0.5224910153989842
-0.6490729904116962
-0.6287259261479774
-0.9388068183842906
-0.4121472160934355
-0.9224921984237161
-0.3794006598852583
-1.055191736980444
-1.486347377032619
-0.8263671018011288
-0.4671066049029908
-0.7228049339981881
-0.6237177904876187
-0.577032894760783
-0.7772237973305265
-0.2808351071551052
-1.019978322824744
-0.8089950523830273
-0.8541812345859706
-0.6515903621233703
-0.2883910212656122
-0.2649845218843682
-0.7231997723449503
-1.686981170089434
-0.451949738795779
-0.6734586641275974
-0.3659196697273928
-0.3799544625502174
-0.90749744956527
-1.142835261151097
-0.5111853647774335
-0.3558276581797131
-0.2070635803492187
-0.8587832235985253
-2.02184681831673
-1.003062541676928
-0.4186284481626971
-1.104129374807881
-1.051665187655732
-0.6249657379332134
-0.934629921452627
-0.3662131498793836
-0.26284064943112
-0.4259673887757055
-0.6688877507395015
-0.626834961557493
-0.8406971432050495
-0.6667645988723289
-0.6607282836361104
-0.699673653588929
-0.3694054654489828
-0.8308701690055782
-0.9944227300578229
-0.9302074492678084
-0.6669961619651289
-0.6630307076132088
-0.5727760749005999
1.104174384584812
5.704785183899911
-0.5657209569185104
-0.626029028333761
-0.2977204747675517
-1.032039447787588
-0.9144794388967402
-0.9319856180542504
-0.3399891672748234
-0.945747898611508
-0.686823096510404
-1.417972365206764
-0.3952324136978014
-1.445048866335448
-0.9120687950939895
-0.7162303541022405
-0.9429961110916741
-0.9243337390067852
2.899754153997805
-0.06806692321895759
-0.6590846703272787
-1.027099158908745
-0.8571908649054957
-0.1787735356292892
-0.3902702222505833
-0.9808941964657635
-0.5222206822443141
-0.7140717384273046
-0.6721430785248358
-0.6641778398325023
-0.2292362787275189
-1.464245491058283
-0.5648210469315534
-1.371394728730343
-0.2851149701590174
-0.6909882984791993
-0.3014349296668337
-0.5921530297654841
-1.072714833683255
-1.492743275406353
-1.702784062621395
-0.9091586267829632
-16.13123587149812
-0.4844229254143925
-0.5691055580501303
-0.7968362084076914
-0.7306759049485274
-0.815243074794304
-0.2027386842229694
-0.5250008611910885
-0.7006753705194576
-1.339009921355712
-1.660176123437246
-1.316127500007431
-0.301048894948324
-0.5746886117740578
-1.829915088799805
-0.05631105625491409
-0.6768321441691095
-0.8132048216915566
-0.3633677491453256
-0.1235290979282025
-0.6405967467950985
-0.2586145635639203
-0.955211587976377
-1.399073382131922
-0.7070184515273652
-0.6937348482614289
-0.1553855289233007
-0.4325718830246724
-0.9615947378176559
-0.4570179927215039
-0.8761513311140608
-0.2604871298189567
-0.7022962121371259
-0.4412124217569876
-0.7442979592878329
-0.8254191933119968
-0.5395161602595249
-0.4197891725457309
-0.5275925132010179
-2.589911867455982
-0.009214505735494462
-0.4564828616135146
-0.4307552034478503
-0.2664245222918252
-1.430720125649997
-0.9159442366454144
-0.3035504254701766
-0.3125630998383386
-1.429844245279543
-0.6506620130066659
-0.1760559055501313
-0.3316444568843123
-0.2581131660125845
-0.3047188113978517
-0.8321381236919121
-0.2890115458728842
-0.4231371211527596
-0.3085915451323798
-0.2941820321180324
-0.5804974148094547
-0.3382804012974345
-0.1979797207628582
-0.2285885982143823
-0.8129783269319688
-0.1750446467254555
-0.7523245837408777
-1.722591395904781
-1.501137104992914
-0.459125325575969
-0.1707800978177671
-0.2880771577573088
-0.6316939939763065
-0.1616344777265627
-0.08554183187570093
-0.5013502584595715
-0.4688769367590542
-0.3970039772237426
-0.3553764890387693
-1.070267471460643
-0.6826958046982731
0.5259682286988833
-0.3036874081330048
-0.5850708036988714
-0.5304349145515814
0.01384818177808393
-0.2494398738403834
-0.2579881295767235
-0.3723091667071744
-1.327811313718689
-0.5745803825982602
-1.432499240756195
-0.8229414796780291
-0.9852910372844601
-1.103693328466179
-0.2306499428712356
-0.07560652999615033
-0.4771227976830572
-1.05800574644281
-0.9168300299501708
-0.5921761151534275
-0.4144006400998381
0.1009278660842756
-0.6401490149487694
-1.621027323142134
-1.703086720271174
-0.5592419392392768
-0.3837590145770692
-0.3313834267173594
-0.5315747444578069
-0.1854244201212111
0.04443061296446663
-0.9449328624049372
-0.9026684407717194
-0.949997513888821
-0.3307176218317689
-0.7286975258713482
-0.533082769102646
-0.3955911862670191
-1.106767512544557
-0.007354841465594829
-0.9609983110979395
-1.525431460476438
-0.3873579719114645
-0.367010724304167
-0.8340640284668321
-0.7733469747633623
-0.6985558555309882
-1.024934320471732
-0.1756570595587245
-0.4562543204815536
-0.1682982147100019
-0.3598877602786929
-0.2752735117725394
-0.3818050832653811
-0.267089708453087
-0.1695177043804235
-0.72627113002497
-0.3387222352774767
-0.4056654653237239
-0.1234482747737617
-1.073342250895606
-0.7560743892717909
-0.7404578844058849
-1.311428801120139
-0.8907682661864187
-0.7873399086969042
-0.9302412883195362
-1.339516526550664
-0.8628195468545331
-0.4524676473653047
-0.06918056412128942
-0.4259606315351839
-0.6734301021942043
-0.2841876370402909
-0.6419974669896163
-0.3701519608472062
-1.157259964130491
-0.4746539647566629
-0.3569947081091304
-1.603128190940472
-0.5965996426006799
-0.7712382238351347
-0.2112702419810918
-0.1810523665019093
-1.085933614943057
-2.116941597478623
-0.2488545277422256
-0.3610300216098503
-2.163071527938256
-0.2206806758839119
-0.5503923672148024
-1.054715813164015
-0.4116308736687772
-0.869084082106245
-0.5331346005762728
-0.465486001607023
-0.2163113589071667
-0.7986224380272103
-1.205469239649374
-1.015251318449746
-0.8147807204068197
-0.08989765506000887
-1.802651832717309
-0.2526563647127935
-1.712922293890314
-0.8865994795501089
-0.96689720531844
-0.7740428321202955
-0.4926324443094486
-0.759755982231747
-0.3914086990495724
-0.699971656430835
-7.796458975032705
-0.3938022616447658
-0.8054692449472014
-0.2631317002001552
-0.3759092199960691
-0.9306633734652818
-1.508605911037994
-0.4067395741985675
-0.4018959186587842
-1.341254670965143
-0.3888382716398251
-1.063217006310242
-0.1288302012271022
0.1921163348292989
-1.990174549762829
-0.4635438586457667
-0.2288398557715196
-0.4934795692047292
-0.6366675601440017
-1.456451923129894
-0.3669392759690188
-0.4344363124125908
-0.3734560861229712
-0.6238972384576825
-0.430000068405224
-0.4526237981043976
-0.4706900631539163
-0.6604436728650146
-0.6821719884840612
-0.3984658978950463
-0.4325162348675931
-1.07798588072312
-0.959935638478012
-0.3005912361150251
-1.610608043164199
-1.522754580100109
-0.4041769656135997
-0.3515685246814557
-0.4317802158504713
-1.583346190559614
-1.649536774512543
-1.457809280558133
-0.4126075034907107
-0.2115807315903446
-0.2272958714106535
-0.09787935449511183
-0.273494854614892
-0.7634079407160476
-0.2658452477264308
-0.7978729511912307
-0.3608499958561274
-0.378192365463851
-0.7067245503557213
-0.1888837456830531
-0.7908308925813848
-1.462539051080138
-0.3053401238655003
-0.6225181993541432
-0.3373511444235247
0.01879558124740219
-0.1889684350533368
-0.39543668272919
-2.109541745355663
-0.6610306977043404
-1.237393239362357
-0.6582804445602176
-0.1348137829645442
-1.298570532162267
-1.449342440854331
-0.5683132414538591
-0.5689198780636171
-0.2056904806560153
-0.1312401971713574
0.2323297782276805
-0.4841536132279775
-0.5314070926358705
-0.5731871270638198
-0.5425873774849768
-1.261892045394285
-0.1496528770934383
-1.556228726182194
-0.2553134745599839
-1.401782024095351
-0.2853315779775154
-0.2663304095575914
-0.4191623891618999
-1.651959320395184
-0.4105280958103043
-0.6086550083960448
-1.095397798245171
-1.84459482409323
-0.5176525881444153
-0.3141768426802036
-1.899865208768017
-0.3170571658827467
-0.06798376768432052
-0.4108098437162492
-0.1195770925280952
-0.2544447785796486
-0.879790395499905
-0.1838032971142128
-1.720539989954956
-0.1756014508385396
-0.2922394284947713
-2.009090225944065
-1.69834764466169
-1.220163712269267
-0.9892352636360688
-0.5078866481950696
-0.4439386922866383
-0.4251936873276768
-0.7332655715873483
-0.9971298544651579
-0.9600200982334246
-0.2299558535577617
-1.392569034071022
-0.8027067922477663
-0.6802687568265121
-0.4423158513862271
-0.5850239672662586
-0.4591690608648642
-3.403552654408546
-1.451456253001785
-0.04208985764974459
-1.100449993951623
-1.287085421842204
-0.9721601057200345
-1.424871859471152
-0.7148683204428412
1.942845688191738
-0.6210086100096865
-0.9994581532826151
-0.2098967052664893
-0.1924021224141724
-0.4526357443612289
-0.3899322772755776
-0.4352983774480856
-0.3936135598629943
-0.5174577074250993
-1.329824375439665
-0.660526530670169
-0.5644371386381202
-0.4597611954572827
-1.232554322980384
-1.311056387369863
-0.405762268956778
-0.5387008838311569
-1.039293176732594
-0.577027105505434
-1.555908798774754
-0.5513316289926632
-0.5758982745082113
-0.609215020479444
-1.262387803794123
-0.1174652668608033
-2.879644156150607
-1.569926020251589
-0.2692617711092667
0.09900746797563362
-0.3953367687799199
-0.1035128601647736
-0.2074425744068747
-0.7362770171613193
-1.16753584621336
0.09761637945375212
-1.345345730452225
-0.336921763033868
-0.5208714882264666
-0.2497482703497321
0.2862291094401114
-0.4935201742777606
-0.8976879617856264
-0.007040593347329588
-1.575485988478701
-0.4494182156843108
-2.259665142607885
-1.505051482149538
-0.1621981746327912
-0.7585470793047103
-0.679448185368938
-0.6490243553054562
-1.242520733361551
-1.337893613234044
-0.7108813984981109
-0.3497838277252664
-0.3073791970138732
-0.4883448928609251
-0.5449441823041183
-0.2425477454240533
-0.3650198596740947
-0.4487930142192845
-0.904987823608579
-0.7147014886192485
-1.369233013409454
-0.2534660354768949
-1.282836209178682
-0.3645652560721517
-2.038186533973632
-1.686003906246566
-1.002221658759687
-0.4806748563372731
-0.2258671584256449
-1.537904444234802
-0.1276346255237982
-0.6907246041407414
-0.6126689192599846
-0.4287716824324667
-1.982438901865915
-0.5513594120424055
-0.6745746539558763
-0.4369421285850942
0.1874924068582226
0.1098734303251181
0.001813246939708741
-0.82347358330925
-0.6935841982099389
-0.2366110182286345
0.009449699588360101
-0.4138623398410229
-3.694322045799784
-1.391413730536482
-0.2617521042324525
-0.2446519160046255
-3.112246713480165
-0.9434139884342411
0.2083863764407474
-0.643368362351953
0.03652061281310719
-0.2691557214479181
-0.2642212098954457
-0.3229585766562543
-0.4768325247072083
-3.577773246036888
-0.2916353456692393
-0.7693785960737252
-0.3741027853371668
-0.3452505673402729
-0.2309264042678228
-0.5718757739558601
-0.799034574231223
-0.9182613635054524
-0.7164258923022905
-0.7295680799736074
-0.4220347688075691
-0.8366392716034345
-0.3806295384977517
-0.2984680202607524
-1.178716574669823
-0.8944005859160076
-1.7395259844392
-0.4299364232742519
0.1934626827821776
-0.5330333981731873
-0.2266789621382173
-1.552952217017478
-0.3463004466888223
-0.2043178059029955
-0.6821675385487562
-0.4601001355538014
-0.6241073701350665
-0.4074511282153533
-0.5497797573176353
-0.6322386572691104
-0.2216309608041719
0.1931080138906869
-0.7244345432855249
-1.231555818062926
-0.2039788706086465
-0.440857779092842
-0.8278686628577954
-0.214131330152164
-0.01864069624996604
-0.9780174377077595
-0.2542283552179112
-0.5059415929249442
-0.3214464184434765
-0.07086563178874924
-1.03664252670625
-1.856802405293661
-1.167124200817698
-0.3872652405647714
-1.286609810235432
-1.89281951682681
-1.258414636614566
-0.3259844676690523
0.2729710459329883
-0.6298595548328515
-1.207585301965464
-1.518913326398357
-0.5965754008979801
-1.300259104501367
0.1805020498513394
-0.9326089893153277
-0.8878355005748001
-1.531684035534948
-1.118145654005194
-0.6094300526569075
-0.8368593853555344
-0.2665360605911724
-0.2412120084037843
-0.2154734474816327
-0.5571690502634088
-1.026464272707361
-0.8458667091962336
0.8468041486282
-0.6694341073342697
-0.6897986475116242
-0.4260725412881693
-1.085045747621753
-0.2073400560927914
-1.438236617548884
-0.7358112119645783
-0.8222708776654812
-0.5239206880711164
-0.7815920702081933
-0.07370049680653241
-0.2751296212261016
-0.752871381868666
0.4274186368558913
-0.2641194428752651
-2.001082724120564
-0.1490059822444534
-0.4210821361183084
-0.6824851347775887
-1.545010931981927
0.7031863698643945
-1.156070342406549
-0.4094115650029254
-0.6009225659830233