/*--------------------------------*- C++ -*----------------------------------*\
| =========                 |                                                 |
| \\      /  F ield         | OpenFOAM: The Open Source CFD Toolbox           |
|  \\    /   O peration     | Version:  v1906                                 |
|   \\  /    A nd           | Web:      www.OpenFOAM.com                      |
|    \\/     M anipulation  |                                                 |
\*---------------------------------------------------------------------------*/
FoamFile
{
    version     2.0;
    format      ascii;
    class       surfaceScalarField;
    location    "1.6";
    object      phi;
}
// * * * * * * * * * * * * * * * * * * * * * * * * * * * * * * * * * * * * * //

dimensions      [0 3 -1 0 0 0 0];
oriented        oriented;


internalField   nonuniform List<scalar> 
37503
(
-7.346689065060819
-10.99860495043694
26.11881639067266
-7.773522375594238
-17.05264317157744
5.163288187317771
20.26936201541711
-0.01197028785411223
-0.5311936894541758
0.8317153755153893
-0.2885513981917904
-0.09435413527562728
0.1172890048845763
0.001090192989652624
-0.02402506257168683
12.384699600277
7.205882167096958
0.602902948730072
-0.02186499887527488
-0.08532267206777372
-0.4957152777390689
0.08435841173297332
-1.62317390718767
1.573924084392132
-0.03510858881582886
-0.3811615603031634
14.42188555906808
-14.04072399885589
-7.9671102412692
-5.666842202677223
-7.727560041238616
21.36151248486301
1.791586682183553
-3.134418347096116
1.48274952973156
-0.1399178647119409
1.502262985759155
0.1734844845787604
0.408316490623283
-2.084063961025768
1.703169094180211
2.116753632418377
-2.724656594899622
-1.095266131922094
-0.02217421089705223
0.002000269828220757
-0.02315394012498757
0.04332788123249296
1.110817320826381
-3.57636628122426
-1.008627105729623
3.474176065724047
-0.8982248050708302
1.965087978504843
-2.766357926177797
1.699494752491545
4.39582505289072
10.52865728359748
4.52097245726419
-0.006481612059836369
-0.164862366182866
0.1348529258805951
0.03649105243214282
2.086614749580734
-4.632727889335061
-1.995621569372881
4.541734708775407
-0.4440537736678316
-1.221699016993664
-18.03256334599043
11.32430261851115
20.00993629856186
-6.526442812137706
14.11164627683331
-8.103402844989832
6.930902241884136
-7.678091915337507
8.85059251830053
20.26980228043687
-25.53782426806124
11.98877214259922
-0.03202047474443582
0.4320820891428184
0.008065518886146745
-0.408127133255102
-0.4514969633950471
-2.174786690075841
3.737100974060996
1.400271641694145
-2.678481456013999
0.3799850090725772
-1.443413014121541
1.930354610686879
2.208352220585161
-2.695293817489389
-10.04346826730863
-9.201366773709198
0.2327357548422148
-0.2716596977948591
-0.04858473341371239
0.0875086764661856
-2.310278315348405
0.4370811281841477
13.19428527803429
-16.22676222024731
-23.78963820524093
26.82211514779039
-0.1429515062435713
0.1206983113127486
0.07499425611853811
-0.05274106113343389
43.15526171255821
20.45911038630051
-17.67877262377198
-1.542385283033112
-1.012618972718261
2.103507292045389
0.229080127497144
-0.02052054219613965
0.2074057547558942
-0.4159653399755127
1.342238583971831
-1.126627266963163
0.5048930082910225
-2.059687392952612
2.681421651359131
21.50517806439019
4.856848656685407
-4.373865449067185
-21.988161272375
0.05100127261743719
-0.310146627077093
0.1196504067678857
0.1394949477622844
0.2991731149076842
-0.6120912504728452
-2.165086011090013
2.478004146816308
-0.04168717753929378
-0.2357439449087702
0.3796656664084335
-0.1022345438822441
-0.05302063081123776
-0.04615320701642849
-0.005180702631715373
0.104354540497019
-0.4980457933081817
0.4490837771699895
0.2996127540707831
-0.2506507378532869
-0.04493147581577491
-0.3533024625785405
0.5130933493574302
-0.1148594108293617
3.732949543059161
-2.476997033073105
2.266319152507813
-3.52227166250562
-0.1149326709827225
0.02555439342478815
0.02066061593379028
0.06871766166688521
-0.03743606318652856
-0.08272207307034847
0.03111165918129078
0.08904647713149695
-0.02184990533818323
0.1152703463057075
-0.1432572307025685
0.04983678977335333
1.969234363306974
-0.9886061803414251
-0.2442727141371683
-0.7363554687885957
-0.6629570879912106
0.1806733028030114
0.3259895065374556
0.1562942788291427
8.730789779980842
21.00811075489291
-27.18311329854826
-2.555787236357437
-1.261021118960588
-0.09069452286406399
-1.372940953176618
0.4160096471453315
-0.118607101045411
0.08041707757361738
-0.3778196236406523
0.8469882745439576
-2.162781493672997
-0.9944850963856532
-0.2049080925032931
1.511543995840335
-2.083943291489442
0.7773073882989866
-0.1547455513673374
0.2116521446988127
0.004742708986302489
-0.0616493022626156
-0.2361813236601254
0.124384839100534
0.1701984117482952
-0.05840192713227828
-0.8955560775882531
-0.5302005592560789
3.166248535475031
-0.04754858363401342
0.3262130689116802
-0.3186363707047671
0.03997188551681694
-0.001369000579016267
-0.1009674471745931
-0.01989919989327464
0.1222356477069255
-0.001623235762459755
0.04806422507165226
-0.07142685026759375
0.02498586100067586
0.005719137401845162
-0.1324371249422464
0.1215041190182618
0.005213868575531804
-0.06996981179628364
0.07150394638823389
-0.0335692050814489
0.03203507051874516
-0.2365046375016776
-0.2328331146980388
0.457818557789599
0.01151919452146727
-0.1083739780282487
0.04496611772525298
0.06416924552722547
-0.0007613851789561544
-0.1057247494194601
-0.003209627689320445
0.09364714525761973
0.01528723189296219
-1.936128440526023
-1.162965963394711
0.05384883710119793
3.045245566433096
-19.96855156950662
19.12067206117129
0.847879508279817
-0.1328702636901765
0.03852661848418064
0.08432417783402885
0.01001946742393451
17.94932802004982
-14.86879651140078
-15.18736198427546
12.10683047525632
0.07572462882581865
0.02266081947468257
-0.07022592690558906
-0.02815952132377203
-0.1555821420937735
-0.4932434370653538
0.4391218316855296
0.2097037475597387
0.1260951161370034
-0.5873881840028359
0.4884154631105478
-0.02712239504436249
0.1695720798856572
-0.09943605712713217
-0.08965763742133805
0.01952161473274159
0.1961877550476976
-0.2219153370399267
-0.1549152698864609
0.1806428519673215
-0.05902890758614339
0.1371476407055579
0.1744887104690796
-0.2526074435320924
0.8456946780339616
0.6026411190289934
-2.198733932344588
0.7503981353687683
-0.01885199376908498
0.1278439720265103
-0.03908733760320621
-0.06990464060225986
0.04849797521265106
0.008389529466628898
-0.03431311070649647
-0.02257439392088352
0.8254127326967827
0.8417917864514064
-0.04978515669766021
0.01386775942701494
0.03591739729055921
2.861930285651166
-1.639277607796366
0.9043551049463241
-2.127007782729767
0.2271095565524133
-0.09841212186931324
-0.1116717839671231
-0.01702565063962328
0.08690583330175188
-0.02060020004115127
-0.04533887492327846
-0.02096675829053541
-0.08578796721929256
0.4566052754095583
0.4018364001419244
-0.7726537081486196
0.2585386956895243
-0.1869729241599639
0.1594007465786492
-0.2309665180707288
0.1132433245182625
-0.1708788725444444
-0.2454041952537971
0.3030397433716949
0.05322539481517138
-0.1121029583450845
-0.02199740197039407
0.08087496553355082
-0.09211150615171551
-0.01536872917441778
0.0131261000700674
-0.08068313035630054
-0.1000840599595801
0.09152327693225247
0.08924391343358974
0.1879485740840934
-0.1115520582934698
0.02248656672889444
-0.09888308250084986
0.8759504200182626
-0.569954060050799
-0.3464639967772574
0.04046763701243083
0.03977625671341053
-0.3125415729736021
0.3285060982097814
-0.05574078185146596
0.2494922133458949
-0.03316418139785839
0.01855069623897971
-0.2348787281165416
-0.06987246102657518
-0.2258467757162989
-0.1860708246475928
0.481790061419444
-0.04018941087926504
-0.1943050717576164
0.4128050542347294
-0.1783105715438754
-0.1047924032362522
-0.2753375203835395
0.0900184839150185
0.2901114397497859
0.02851105371885899
0.1449559066299106
-0.1960967873502111
0.02262982707687739
-0.09372947763020266
-0.08326778320243176
-0.2622010303176334
0.4391982911927895
-0.2023888186363635
-0.2848541707039582
0.3422196307192076
0.1450233586425927
4.796837783567459
-1.489511221190884
0.05188740998992958
-0.04833954698366243
-0.00354786297629082
0.9900788832423161
-2.217155416711205
-1.451404922696339
0.02932685563884425
-0.02271057519745667
-0.006616280421210616
-0.1795608418566454
0.02613337277788929
0.02996859976480862
0.1234588693629198
0.002438570323549202
-0.06585084526203373
0.1563285356232912
-0.09291626062706898
-2.330571632251079
-0.8283501026022057
2.614725761231285
0.5441959733418856
-0.04003910985089469
-0.08921591637178779
0.1325877342052399
-0.003332707940216353
-0.4395751529773338
-1.181247860488614
-0.8597446873060482
2.480567700718153
21.08472740828998
-0.01173135592543475
-0.3489999156530936
2.936310796344876
-3.713938147736347
0.05957600068113161
-0.09904999700884307
-0.0275610031083383
0.06703499946647189
-3.083741645903979
4.897886471697337
-0.1242342164743205
-1.689910609000514
0.09364160236570994
-0.04359679867199632
-0.2510343355727444
-0.2570166573165824
0.3697940780316646
0.1382569149245406
0.1669093939959852
-0.09855294339006475
-0.01504465583674482
-0.05331179472597952
-0.07272771365469292
0.2399036232547889
-0.220568563629434
0.05339265414052236
0.1823192359943037
-0.2895020801583152
0.3051549419907826
-0.1979720977478047
0.03311586654385385
-0.01767570663861202
-0.04227293438203757
0.02683277450218419
20.18443974414227
-18.67518481497085
-0.362403906097227
26.82135732289948
-26.84011497727066
-3.351835756580203
0.1934873482162505
3.857986569413586
-0.6996381613101037
-2.045663726242354
0.3415836091173042
0.9174796901494547
0.786600426966405
-8.026077989356782
-4.639194825647087
6.867328386672255
5.797944429043652
-34.37799324348891
-28.7307469040069
62.59920031337477
0.7746388989334995
1.572427141156637
1.390034933764721
18.53540100487694
-10.82789947450019
-7.707501530342021
1.20186771433223
-2.36426798841241
-0.05940466606390153
-1.716874376879154
1.144636149986178
2.330124296888489
-31.20922055907819
-0.951199697006937
1.91004646342967
30.25037379228409
0.09996546136548508
0.005053438995315298
-0.118790562429286
0.01377166212838529
-0.1770879888826745
0.01347443578396111
0.1636135531381865
-0.09031255965776491
0.02868314982557714
0.1023951587331918
-0.04076574884844194
0.5377979582373529
1.431644318883823
0.5368390939400431
-2.506281371421827
-0.6127120793061844
0.2124950577482562
-1.761335314975174
3.113216597595537
1.880419270847403
0.7491139615580302
-3.401070946979152
0.771537714712455
-1.900503058337199
1.902575060971371
-3.130791091455472
3.128719088359107
-0.3813331969875911
0.1811418948549841
-1.924733127674175
1.642903813006589
-9.100004100045188
-9.750878593557319
-0.05551604234833994
-0.1514319587925026
0.1147040450648903
0.09224395612918909
0.116980316750806
-0.3429645572209673
-0.3566437564346865
0.582627997040952
-0.5209790674841179
0.3601620670214771
0.1213361461326082
0.03948085452486129
0.4574542615849066
0.2166492173030564
-0.8254965246463013
0.1513930458610692
-0.3572960283101543
0.4848665258164495
2.219640925892403
-0.149642935534856
0.06111639452621255
0.01069688907231404
0.07782965195370417
0.009667582018643765
0.02164340200387322
-0.1192545259588922
0.08794354196245467
3.132679818419877
-1.075177126084894
-2.58201082603247
-1.16321378961229
0.5775553058403045
4.744346413955194
5.587095811858124
-10.90899753179512
0.2040864334414252
-0.7994707161131556
0.4407258709080694
0.3587448452281145
0.07586811248202045
-0.277483295476138
-0.2125760800066581
0.4141912630835428
-0.6435610182688322
0.2485544303455287
0.5511834671302587
-0.156176879118328
1.806193221857596
-26.19116342098579
1.702113840806769
2.839683153372813
21.64936642667852
-13.8592466871625
7.744117005119862
6.692684987535193
0.1732938267248754
-0.06045564655626537
-0.1166974286575474
0.003859248529013987
5.051047666440693
5.806593930218916
-28.12846502573608
17.27082342858558
1.651049035986132
-0.7723296618437796
0.2908650241575037
2.67614768576405
-1.76514499579941
4.076974526195023
-1.740193365137262
-2.951939190372463
27.84197311575294
-13.75260841288492
-14.08936470314339
-0.07618753908698825
-0.005142138392213737
0.09399451116554977
-0.01266483364337396
2.333200852579539
-3.67668586463081
2.058250678322477
-1.838358387634202
2.716418505436774
2.378855562122664
2.115908103961563
-2.161562813695379
-18.3251753226626
7.802208587866041
-8.311363388641601
4.36408049110562
-1.548143800957849
4.174158782177966
12.78807419264862
-7.932616174206868
-4.298816086979405
-0.5566419311986917
-0.01232818921614103
0.07591838003913078
0.00678422008623873
-0.07037441085674656
-1.292369995419941
-0.74252083702294
-0.462656707777533
2.497547540415896
0.38508647068542
-0.2323104526298531
0.1309515623102362
-0.2837275802848529
0.04550665715774198
-0.06362179000592222
-0.2180661907674553
-8.078065540233691
9.073295398780216
5.218430464846461
-6.2136603234711
2.628260855561011
-1.972330320599752
0.6994652599290723
-1.355395794631709
-0.05901475673450694
-9.175358394037366
-1.772546004183877
11.00691915577639
0.2134240300660138
-0.1690362888402295
-0.04438774120521777
0.08104593937391955
-0.1510341216720115
0.0699881823401282
-0.05150136269920409
0.2792764834450522
-0.05443004080231614
-0.173345079890671
3.680644272852069
-21.70815745165206
-4.094613772997979
22.12212695154032
-0.155234688472718
0.1266482928328148
0.1537504787327078
-0.1251640829993441
2.632505701837857
-1.263642149877682
-1.808438705002869
0.1921607433214386
-0.1111148039148206
-0.1467046835101809
-0.05550356136134139
0.2317329659127562
-0.02952472094176044
2.925910113020119
-3.495101400464555
-0.03852312488757097
0.6077144126683979
0.3640354407221141
-0.02295744070513257
-0.02179898124926533
-0.3192790185563535
-0.01330854385779266
0.01607176317754372
0.08919659716961993
-0.09195981644070486
-0.4351731635615419
-0.1127404684704061
0.2678970884245993
0.2800165437379351
-2.312213116385141
-2.114392997760396
-1.456453986615053
5.883060100673634
-0.09145322919173088
-0.1528127143980403
0.1081262375351307
0.1361397060857729
0.08540413034278875
-0.1786314461807664
0.09322731587989841
0.06864967683218219
-0.02093179950334469
-0.09077110598891158
0.04305322871091177
-8.907899658624954
-0.1332976892804184
0.00628226414440128
-0.01614487176452262
0.1431602969605367
0.02295450798537839
0.0419987501578702
-0.06495325809261127
0.0237378866070114
0.05910094522002706
-0.1044243048974099
0.0215854731179878
5.940912594066232
-4.044211240066427
-5.371234485618332
3.474533132011044
1.965849776963152
6.114053999449687
-2.424946742877436
-5.654957033387676
10.21996927372188
-6.585966441011557
-20.80556421893493
17.17156138592459
-0.07739133383534741
0.04695729461564276
-0.07963368050464285
0.1100677197893461
-28.7958999087308
13.8888791493254
-3.125542586631876
0.7203196531820466
-0.3643179308440738
0.7056743975744983
-1.061676119979679
0.728690075194887
0.1473171662172688
-0.7205974535865839
-0.1554097877540157
7.488123926281062
-1.066433712904818
2.23483064459842
-8.656520857853041
0.09838344204050777
-0.1253123917788899
-0.3350408353731296
0.3619697851741512
16.83876086989706
-13.47926067843794
15.17590081343367
-0.6391977820965961
0.1901415414721918
-0.0612022711283253
0.09801124248767826
-0.03680897133250076
0.06948298364271366
0.1221536516878303
-0.1674188233824453
-0.02421781191278487
0.1111437984836318
0.03092861203577658
0.01926041173292238
-0.1613328221683533
-27.19392936903897
14.75512241762881
1.104888999803115
11.33391795109673
0.3220372002894989
0.445840941626794
-0.37470702828722
-0.3931711135659829
-12.74805254577194
16.39417799217577
0.09891466503707705
-0.3895253620513836
-0.1332630524950456
0.4238737496167652
-32.27783372101734
9.177618715367883
7.587689059926859
15.51252594552639
-0.1608975664670407
0.03793996162247254
0.0565709834216454
0.06638662147545836
14.53123061170184
0.02663646428551022
-0.06364124094689766
-0.006594342266258925
0.04359911896703091
0.4471208002005965
0.0621063350429048
-0.5505389272011498
0.04131179196733048
1.430900441947344
0.1579248007138858
-1.026393249045978
-0.5624319934184721
0.02218402342754951
0.3747535400947191
-0.1162884797262904
0.05741985060457965
0.2020503665437864
-0.1431817373454167
-0.07319540592464617
-0.1282217900006933
0.01209814161767474
0.1893190543368815
-0.2084146368453178
0.02051185682780417
-0.00264423656208104
0.1905470166511105
0.1251398711352636
-0.02985679417337459
-0.09528307690966029
0.01908490997844231
0.04256361025212346
-0.0616485201944167
9.738618384142681
-14.15056287221745
4.411944488184928
-0.06168583279450023
0.08168905964805649
0.1807688172990118
0.2125690418841601
-0.1380298688460042
-0.002909319473500266
-0.07162985347469951
-0.102405146500356
-0.3036292723423937
0.830477859529771
-0.4244434406318958
-0.1540571500890971
-0.3263603050043548
0.179095748142122
0.3013217070696332
0.2047092520741155
-0.391867284433047
-0.3653446375685906
0.5525026699654308
13.54701144868225
-26.27233092783059
-14.46860989029618
0.8802167830711992
0.5008315683862582
1.749731393342997
-3.130779744726532
27.91851590617588
-28.10290836126127
12.31600347155382
-12.13161101663962
-13.20153000656101
-16.14791039175556
10.15602943078192
19.19341096718165
0.1169986926289618
-0.03539425899083704
-0.08160443357231627
-0.02384082950339362
0.007170572530415999
-0.09516481867490921
0.1118350757372787
-1.2442922727981
-4.798308160374334
-1.018907463241743
7.061507896449113
0.4045997752227359
0.09115711592665911
-0.5729961625273334
0.07723927139615125
-0.04947105412934151
0.1446666181270515
-0.01422802945008746
-0.08096753449341011
0.04928223601006969
-0.02645126344265685
-0.08248617550712184
-0.02168750805964143
0.05183637775802891
0.08337960058984496
-0.1135284701977092
-0.05250179294774623
0.1156976876021738
-0.06319589462152365
-0.0440052910028897
0.04467951226958469
-0.1264916838692718
-0.04768555026120069
0.1904573579044757
-0.01628012369811873
-0.06322995028060592
-0.03235021387946881
0.09558016421707466
-0.3998397303245838
-0.09100755020444999
0.3957543852157405
0.09509289538548554
0.2004640029034123
0.1785426495417945
-0.3280053797663815
-0.1412082202229205
0.08921755286235156
0.07692898536698124
-0.02493831794236832
-26.18656516173537
25.27064716596922
-3.521555556467399
4.437473551812033
-0.4603440582014313
0.1057903783427147
0.3096174122560078
0.04493626771616721
-0.4097748141908983
0.1646680573443434
0.5199306526503513
-0.274823895731145
-0.1658685571415489
-0.01404423004772594
0.1048338957357955
0.07507889149992382
-0.06567438565357392
0.2709624061766806
-0.2474712204953347
0.04218320004753756
0.04685521145039614
-0.245608668875815
0.06927095837919761
0.1294824991186322
11.86190670242921
3.272695071546956
-1.894545573176383
-13.24005620094144
0.11444064637267
0.02488443328370217
-0.09618610965609781
-0.04313896993474264
-0.08457255353938191
0.2128969732527463
-0.043079841664714
-0.0852445779751056
0.1215186579431368
-0.1156541314877517
-0.1568986480801571
-0.04673389400491552
0.03898773358677206
-0.04211400959564187
0.04986017005336688
-0.06206374650748241
0.4338163017539869
-0.3153550200397541
-0.05639753516139077
-0.07380056940136472
-0.2040902761701792
0.1821346163556646
0.0957562292927161
0.1400374129507377
0.086116800771043
-2.331592293500399
2.105438080056591
0.1216089761386929
-0.01563412961090065
0.03309153471093564
-0.1390663811845912
-1.344216500730824
2.059738237760836
-0.2584370173820612
-0.4570847196335836
-26.86477465647829
1.500587449123353
26.97690153234935
-1.612714325184508
0.07630753790616325
-0.320866629678818
0.3362367630788497
-0.09167767116190528
0.106193914760425
0.01236271937054811
0.07027618536151813
-0.1888328194334525
-0.06548055531526693
-0.02193007661195429
0.06761443201000604
0.01979619995551016
-0.5252391018942861
-0.6139610648855182
0.5961214776427842
0.5430786891608451
0.05646998376294855
-0.2610049739370698
0.2054926779482869
-0.0009576876754235784
-0.2070750509926819
0.009123350101523608
0.2316532794186769
-0.03370157847834987
0.0251706418498643
-0.1002770624064115
-0.01100196816918952
0.08610838875419616
-0.3819390195717541
0.3669200634084371
-0.6608695726521571
0.675888528954548
0.2641037936590122
-0.02676746623002026
-0.6502810388856888
0.4129447117178526
-0.06248048303731548
0.1330239451489751
-0.04603738751488654
-0.02450607455597545
0.1368498832009673
0.2818433251903475
0.009139196532058714
-0.4278324048743581
39.24776183415089
-25.21280917327155
-18.1334011347437
4.098448473740469
0.3469303273468294
0.1047150398453461
-0.1651950917896521
-0.2864502753229606
0.0149544874774484
0.02100907325917706
0.1929831102776866
-0.2289466709398732
-0.6543011171531565
0.1225409241820682
-0.08815473672552671
0.6199149297930553
0.09253574547996038
0.04500564913824128
0.04678920533474114
-0.1843305999072591
-0.05212690666971028
-0.05144195827982922
0.02088052051053375
0.08268834447173551
0.04548097596838321
-0.407841180793154
1.723763705390736
-0.8478733777862888
1.27544644699274
-2.151336774378157
15.54489478758677
-10.97792000913732
-0.04257919562041166
-0.1301947336888614
0.1293840145304332
0.04338991482858361
0.001583719301525163
-0.1265508607867099
0.02195738117289453
0.103009760352629
-0.1310739562884162
0.1257680346741537
0.03990903371624821
-0.03460311203865398
-0.2500452310483126
0.1114006976362128
0.3169321456471774
-0.1782876121511536
-0.0756912891961392
0.02835712003601827
0.0204362886499654
0.02689788055146189
0.08365441993828328
0.02335904837186245
-0.003813702044165053
-0.103199766196939
-0.07432235021748068
0.05536023237643049
0.09708454124172397
-0.07812242334736805
0.671456826664418
0.6940807583445585
-15.23019642375256
13.86465883817758
0.1639281328823275
-0.154584092743336
0.0008013291993019548
-0.01014536928388246
-0.1608078683689362
0.04834307370478245
0.03860861048731746
0.07385618424868202
-0.1910537109766356
0.341998240559104
0.1330618710700134
-0.2840064005470874
-0.03871061836468574
0.04909865622620953
-0.01038803782589256
27.7322101489618
-28.52411309168236
-8.375795877118659
9.167698819997783
21.33844735384093
-2.635104127487242
-21.79806438646978
3.094721160131309
1.959456994193395
-2.203497083995125
0.3425654222046215
-0.09852533219412964
1.830339648888258
13.04619252353313
-8.327580324764329
-6.548951847613609
0.1505966528774147
-0.03787718511725919
-0.1127194676995365
0.0005025308449454849
0.005346968813330378
0.08898966636165738
-0.09483916600185018
0.2803002424993314
-0.121134022403162
0.4401679639022105
-0.5993341839211069
1.828751842765664
-0.1410003471384461
0.2898145171766121
1.218691450762028
-0.4737482014828777
-2.048111758993453
1.303168509801429
-7.328808030234566
-0.2758628125423154
-2.409010772946519
10.01368161515109
7.618476225978357
0.9047765314169833
-8.206180067929058
-0.3170726892486736
-0.2974572995235033
0.1150599555812686
0.1233684364029713
-28.72235795287412
22.23744924418578
4.522070858706668
-0.09853510168913582
-0.1826156641912341
0.2409613550321297
-0.002445773032415542
-0.02135847546606286
0.02380424851671581
0.0961956815738212
-0.05216855851352988
-0.1477461744166576
0.1037190513940682
2.858111013452083
-1.641135335319647
-19.63708021307007
18.42010453454996
0.5328300978935631
0.09743910273201084
-0.7285956913627926
0.09832649082977243
0.05209711689524611
-0.04581595604750928
0.1308664798906889
0.3452217609554769
-0.03945434467157618
-0.4856455822336679
0.1798781659758429
0.1513682697774065
0.04757881606914922
-0.07444885711202992
-0.1244982287046392
-0.09608614811096579
-0.4157708254640248
0.2064887162117627
0.3053682574097017
0.2694611222865959
0.01884958775862829
-0.2654989924167215
-0.02281171754184912
0.03527572831819387
-0.1956506085211323
0.02905434771753413
0.1313205325916946
-0.03559504220748727
0.4691502711552565
0.260972729897995
-0.6945279587588744
0.1983554972902319
-0.2525879551967525
-0.2714591048780438
0.325691562897809
-0.06559519109498074
-0.2857621599790192
0.3044230351766245
0.04693431606915906
-0.04087913979532427
-0.1452217966519909
0.1861009364960991
-16.93012037894063
15.56607129797528
-2.552059046236612
3.916108127661996
0.08394145212374338
-0.1248205918992685
0.1080762151713204
0.0826974619958861
-0.06988587893272777
-0.1208877981882485
-6.728486863558877
20.33229864661199
7.901366281045698
0.7187828291865475
0.01848177362475575
-0.4569643602765595
-0.7998453338559633
-0.3183485121365621
0.6598688609490324
0.4583249852124285
-0.03121294352723725
0.115014352294656
-0.07901341951545508
-0.004787989199976401
-1.059614586956076
-0.4067066196835402
1.358434192598941
0.1078870143546908
0.003590299909742564
-0.01024989088561127
0.03977545754128425
0.1207235078361154
0.04989658052586335
-0.2073120995029137
0.03669201118247981
0.06520994115273644
0.1394550188284327
39.4338058579414
12.2417586593913
-37.4425498707
-14.23301464696443
0.04564174051578671
-0.08839660591344595
-0.0007075985373384867
0.2859517947313872
-0.4876330147945423
-0.348947152386119
0.04925128397022922
0.353985434153295
-0.05428956562692061
-0.2710481942891868
-0.2719361248205494
-0.1747011047576991
0.7176854240280067
-0.1303806160328435
0.1740446343770661
-0.08113108129909945
0.03746706300154354
-0.5340932395360636
0.4567554759529707
-0.0327299020093358
0.1100676656448515
0.06861541310130194
0.01135461449749162
-0.02234475368259954
-0.05762527384742604
-0.6518436117677346
-0.1066354837463297
-0.1535120506821851
0.9119911461821447
0.1114826379732792
-0.005215379985219332
-0.02842594614324408
-0.07784131179499537
-0.3633313311354584
-0.1099680693993262
-0.04767966683999775
0.2549525440314193
-0.1696807009528379
-0.08527184303313558
-0.03617506888600756
0.02225184932179542
-0.120243580910923
0.1341668005256784
0.03001013274141088
-0.1090269163004196
0.09826189481702303
-0.01924511120131957
0.5381684742427792
-0.7406132318322037
-0.1232275203802254
0.3256722780736405
-0.07863501223102079
0.08156930198760634
-0.06360154903463532
0.06066725936393647
0.1395684482203361
0.06663523702644816
0.0006284927791314268
-0.2068321779774665
0.5847512061703295
-0.3645038593772696
0.03277098246398095
-0.1525011347983317
0.1103893143494872
0.009340838046831602
0.0432997128153241
-0.0002369741156565306
0.338496933293351
-0.3815596718914632
-0.09353651319612963
0.01213152660145685
0.0159244313023196
-13.76928346684853
-3.117192511467967
-3.663066895421957
20.54954287363856
0.4601991668514138
0.08082954913379102
0.003782714496307052
-0.5448114304629406
-0.05726959438995586
-0.1789080562644954
0.1719169806415244
0.06426067010845696
-13.27874132353089
5.458133700174292
13.05848158011671
3.23320397089755
-29.57042687457746
-0.1313534340373838
-0.03719411905307893
0.02184286963829481
-0.04991172653036065
-0.09363467365054833
0.1849897456996151
-0.04144334544780077
-0.3805850355093314
2.360073480699526
-4.301355579427852
2.321867134091446
-5.644184214024079
15.81226167471256
-8.337737811868646
5.97437303493023
-9.021973332811637
14.59483681550721
-11.5472365177167
3.242359900174523
0.0427215371363245
-0.6763512936825604
0.7742688978841471
-0.14063914124706
0.1333804843887749
11.01290183501555
-4.703403946812572
-6.44287837263392
-0.1059084741450088
0.006697250040573172
-0.08468758677675364
0.1838988109863466
-0.6415505505405478
4.071338418988711
-5.169981233447873
-7.722595730422369
3.281870296854351
-1.171424409256137
5.612149842847979
-6.640275968728197
3.868905799616609
-6.818543845440674
9.589914014848782
0.007156720620834169
-0.1408650190610903
0.01720024870053448
0.1165080497890254
-0.04289880524765381
-0.3491891621580441
0.3402070335329358
0.05188093394318991
17.36670342076906
16.91217660808918
-13.26547570184618
-21.01340432718282
6.682440169737039
10.68426325091205
27.02848018474648
-6.470843040704801
-3.645460536092609
-0.04266408416658517
0.1627294406171167
-0.05242256784867864
-0.06764278854298972
0.138033501085978
-0.08788473098561345
-0.09281285421206342
29.60863533067305
-40.50718752077289
3.284763078536836
7.613789111459432
-0.05235059172631621
0.0439817624957422
0.002898388184781808
0.005470441114516189
-0.02691542382759645
0.07007662959034849
-0.04316120572711101
0.1417593163979863
-0.1783745224665121
0.3279400148478424
-0.2913248086515848
25.74464211966067
25.9545942790685
-0.09529159152916934
-0.007818076981245247
0.1250282839328695
-0.02191861536584547
-14.0579316242127
14.09774426011943
0.1240289692682935
0.02104279294605162
0.02383974937369991
-0.1689115115203989
-0.02824119527471455
0.01134778564226265
0.01689340966894957
0.1608361413631924
-0.01669188801708647
-0.1765906629240225
0.03244640960967657
-4.404117491751693
4.974556883805947
4.450736167948725
-5.021175560120697
-0.01431732429117927
-0.04918992601952519
0.01421415887441711
0.04929309148500948
-0.05017985912414599
-0.05106152183545931
-0.03524299998017116
0.02092567570393454
0.02006054089395039
0.06136371028499447
0.00190567462335451
-0.08332992576741149
0.05491715011165998
0.1016047999578002
-0.009130265795616519
-0.02611273416595167
0.07249749144147453
-0.113492653283324
-0.1029901070284908
0.1439852689212808
0.0471915525994038
-0.007580032263088008
-0.03961152030707878
0.03069814804995351
-0.06568104471552863
-0.1062753196530654
0.1412582163908584
-0.3046996171003059
0.1259064200386236
0.3193404342385152
-0.1405472369747201
-0.7417609625979681
0.083972657217691
0.4893452104230092
0.1684430950240466
-0.1084399900545594
-0.2021673994041728
0.4252792023725455
-0.1146718127935483
0.3006168675791269
-0.0456213517957868
-0.4948770365655196
0.2398815207936858
0.07574546768594283
0.02175946044318371
-0.02203801477888548
-0.1357454465904709
0.3254941911231109
0.09129853992882135
-0.2810472843326318
0.08135278490125714
0.06661037736671864
-0.1479631622446349
0.09404250335285771
-0.1090896852672372
0.06145911359797156
-0.04641193164194763
0.7892246436300557
0.011271383432074
-0.4613372021409825
-1.264522246082844
-1.297586014092987
0.9355557986139673
1.626552461593312
-0.1078036924815046
0.02862117845987074
0.1119534965210023
0.07206409700924411
-0.03681584321220471
-0.1377796192854836
0.1002171548884169
-0.01678410469503512
0.05434656918175831
-1.172300744616815
0.7499046225797669
0.1933099048278208