/*--------------------------------*- C++ -*----------------------------------*\
| =========                 |                                                 |
| \\      /  F ield         | OpenFOAM: The Open Source CFD Toolbox           |
|  \\    /   O peration     | Version:  v1906                                 |
|   \\  /    A nd           | Web:      www.OpenFOAM.com                      |
|    \\/     M anipulation  |                                                 |
\*---------------------------------------------------------------------------*/
FoamFile
{
    version     2.0;
    format      ascii;
    class       volVectorField;
    location    "1.6";
    object      U;
}
// * * * * * * * * * * * * * * * * * * * * * * * * * * * * * * * * * * * * * //

dimensions      [0 1 -1 0 0 0 0];


internalField   nonuniform List<vector> 
19631
(
(4.99526573286656 0.002727736296303273 -0.009409199377522394)
(5.566522783363228 1.320054452731065 1.88911911096512)
(4.890255945691083 -0.1057634791208235 0.08204622308709134)
(3.666671845716976 -0.01108127564334757 0.1286288453605521)
(4.994791894451024 -0.0002172396009094357 0.002032809364133562)
(5.091397455466926 -0.08202880763149294 -0.04288713266684951)
(5.044201091957617 0.01497072606870625 -0.02753666948585038)
(4.896519947471655 -0.08505619955802884 -0.2259316111998508)
(5.012761601375554 0.1111828011222132 -0.05759145540393978)
(5.020119158329302 -0.0223657239942743 0.01216866370118022)
(5.01039181789398 -0.05419371165294393 -0.05274673318669713)
(5.048366702980846 0.001930355508944473 0.03646003908441984)
(2.211778031224147 -0.1649691013202101 -0.120434420112996)
(5.022985639341581 -0.02434640457734637 0.004906710401198029)
(5.017424189500176 -0.004027991542954717 0.01323907539238068)
(5.025967000283099 0.01097351081985196 -0.03426029970388349)
(4.920645807505687 -0.3501520157428623 0.04625742184661417)
(5.01991119281272 -0.008278604419148836 0.003200189252552687)
(4.987995919825375 -0.005925329358293466 -0.001976317322294287)
(5.290611833080015 0.682901647801484 0.5108559444381039)
(5.005240847890262 -0.01332892681459798 0.01603316655051595)
(5.016841485948617 0.0834355308500313 -0.1001987116437534)
(4.986860728058126 -0.07727390531219906 -0.07193222515717858)
(4.756579908605901 -0.01768988041603497 -0.05617658718120906)
(5.025583150304469 -0.01450113582058077 0.008853614696350516)
(5.018427606918576 -0.02212525797450875 0.000235883933383829)
(5.054894753019902 -0.0006167438541528315 0.01560728475566178)
(5.34510508467706 0.3192483553114425 -0.01368045819739534)
(3.797701813719885 -0.821153488866517 0.336651781424174)
(5.038708365283939 -0.006274837680520591 0.007168550622574438)
(5.009672712745418 -0.009594524459819625 0.0008808960794997873)
(4.87385395778045 -0.1295833725960451 0.1778069483032749)
(1.58246826670618 -5.747130422619064 -1.927218896379509)
(5.031002466462836 0.00454816505372154 -0.00747780969378596)
(5.024538527866257 -0.1446506239105193 -0.02557261785443816)
(5.02488007085151 -0.01130906746461299 0.01665373682593897)
(5.03886420465682 -0.07519688547524278 0.02145523234322576)
(4.998968942277527 -0.04005793743290306 0.01820099544505939)
(5.040290695448771 -0.04678812187551518 0.08220629529008242)
(5.054150186660797 0.03769358018837535 -0.05211548177291133)
(5.021935646275833 -0.06906316425330647 -0.06081642109961785)
(4.285649013848972 -0.1259404244745164 -0.1326884382496483)
(5.080292679387209 -0.06027092051198708 -0.006573625823100896)
(3.881957560768045 -0.03089629348721731 -0.3582384342413276)
(4.901787844565383 -0.04416626717967328 0.01609135812397715)
(3.515261197830404 0.01304497323171561 -0.145762042225874)
(4.613867415545847 -0.1826141854227991 0.2263272596416567)
(5.014196581036972 0.2594334706115836 -0.4983085821275697)
(5.078054063711145 -0.04785428869845298 0.001528125304655651)
(5.024612532112249 0.02894358208120614 0.07239198890478941)
(4.96607784174533 -0.01240568213176429 -0.0005599156234251183)
(5.053031000038412 0.002612802252383509 0.01897743541179612)
(4.230866677556124 0.1371857621151207 -0.04538088664822756)
(5.058124937506308 0.02065561962373128 -0.03331074581849235)
(4.962080919964744 -0.04633690797394693 0.05566409944217381)
(5.006929429244497 0.01233082924885336 -0.2191264430649506)
(5.145373508371709 -0.2083760264855003 0.08323215337426915)
(5.037058828330854 0.001511748541099851 0.01517881375967326)
(5.06133304567286 -0.02751859898741451 -0.065541360894596)
(3.945672010820803 0.1601445888655809 0.09676389873680551)
(4.210096548674747 -0.3574686997874517 -0.2236190388516218)
(5.089398001636914 -0.1999249142523281 0.1274542409397244)
(4.882126572202043 -0.0639612805531605 0.0250247219101592)
(5.094994345920139 -0.09725764392160498 -0.00048593663430748)
(4.184681456763785 -0.5982356379896391 -0.07843433187428037)
(5.003940820452196 -0.08580809424561467 -0.4002089909314435)
(5.047362070297537 -0.009285216884982191 -0.01026151125760365)
(4.98088885296518 -0.01244816273516104 0.01708013427546221)
(3.071250835988361 -0.6445590499184897 0.1903258175792747)
(5.033852127744963 0.01020841946367701 0.05932801939942091)
(3.560000208924457 0.1229943374862391 -0.01899680573627686)
(5.096528252155101 -0.06895670979975985 -0.08699813590297059)
(5.112046202377866 -0.05277515973809833 0.01842612271430424)
(5.272294207073614 -0.1900623026522652 -0.8614219983670856)
(5.071790077349207 -0.04059140837378742 -0.1354611307448049)
(3.775728552212547 -0.1967412553575231 -0.04411572028286388)
(5.021463237075301 -0.0767614702932389 -0.05611465438287006)
(4.695921139747635 -0.5111968655836596 0.2136466617588204)
(2.347933302647341 -0.0636675893850205 -0.1818598226516207)
(5.044694995222946 0.02450082099939755 0.0079538520073997)
(2.537325471786028 -0.4471557374941272 -0.1552519113125679)
(4.860682098846032 0.4583089376111642 0.04988232806330201)
(4.368578899316788 -0.01121642061289952 -0.1958392376726814)
(3.207538058447875 0.2690307500334314 -0.1431091567445716)
(5.092765701500509 -0.05902727947807397 -0.1240781097347962)
(5.127403277125116 -0.07856172532041544 -0.03862520107928274)
(5.117402790399161 -0.1086627635101373 -0.06734809398934025)
(3.664802779889923 0.09593536020198555 0.01223875470657051)
(3.789068919979717 -0.06194074125552596 0.2299287866784304)
(4.60695153027779 -0.3305782187745913 -0.07995312447685619)
(5.057051342263344 -0.09822520492717017 -0.1486912884712808)
(4.211004705665397 -0.1407557675586283 -0.0614151792062085)
(5.102755235932924 -0.1039942703596412 0.02506456789415681)
(4.984862687214258 -0.2086969531372942 0.2207894883121794)
(5.045972785089977 -0.2125013916836881 -0.1414817618672075)
(5.075956753175656 -0.0835900521569222 -0.1302835307011196)
(3.949845177876308 -0.05977625463836279 -0.01707808015242955)
(5.012408436103935 0.02671748715376603 -0.1673020917848755)
(5.045102697846755 -0.1189921357677094 0.1409051669972356)
(5.080122724313474 -0.09923046451048612 0.02910310097404683)
(5.014128054725996 -0.02634107673822405 0.01034852264069171)
(3.160327089517299 0.2586124127634571 0.2079096161035864)
(5.032590960840611 -0.04273432492538445 0.003162593103225904)
(1.671963633464386 -0.2097855075800029 -0.08687368968659348)
(4.469338841645541 -0.365873530653031 0.6318058750656159)
(4.945230404311922 -0.1947377122977356 -0.09920739031633392)
(5.049313293479451 0.006768919222941725 0.0007003897204661843)
(4.046191025583105 0.06839185568609377 -0.2713842096029324)
(5.031638606699332 -0.03900969349055953 0.008383518049079795)
(4.974115122976809 -0.01466324853951508 0.002514000688984071)
(5.055466834135031 -0.1167682221993224 -0.01705219378737173)
(4.243424468791344 -0.124226779257003 0.2616303726120706)
(5.03965725006253 -0.03704796583075543 -0.01790413683110558)
(2.666930137210109 0.03479648803490437 0.1392816608196931)
(3.183188284411266 -0.01052104022328903 -0.0399107872487795)
(4.814943044083615 0.3414470539501013 -0.2733989019385253)
(4.654611065694364 -0.1659598343822686 -0.1154708453691488)
(5.068088074468033 -0.03983784815576118 -0.08878404522756962)
(2.998788738848683 -0.3896724002575496 0.3221565647991643)
(5.006493663894524 0.02226445823422186 -0.00416647984479426)
(4.993360753349903 -0.1518875330409622 0.1304817594882307)
(5.030413973927361 -0.04692549916487233 0.009940803808308588)
(5.029179611309631 -0.01192365437019011 -0.006490337883359643)
(4.953367500463776 -0.03194040712332112 -0.03702361309315403)
(12.73399980701326 0.03178460928966684 -0.5810129389825975)
(5.023779067222486 -5.843806270239868e-05 0.008119409995289577)
(4.462704130017014 -0.08014042605646349 0.2169376351768189)
(5.030126344245935 -0.006627874403027381 0.005799066432863351)
(5.017335351870438 -0.01866811029522806 0.008985797653838059)
(5.036374510714085 -0.01005579978224837 0.02581675453765067)
(5.180874578647148 -0.3147808869230604 0.2430721844172754)
(4.28779702922815 -0.09860380504988392 -0.225372292284666)
(3.835167732990421 -0.3597563460861181 -0.07885988953639697)
(3.369382272048053 0.3093672370429952 0.5837006591202745)
(5.038729848084206 -0.009877039502625133 -0.0245537180678644)
(5.050618812384529 -0.01176085534856979 0.0006193700757954791)
(5.055669000241535 -0.01952495501757812 -0.02995871355807143)
(4.573620492399665 0.03817343307462419 0.1186962732000803)
(4.997290371291723 -0.1859007270370062 -0.08597770412446407)
(5.059199383761228 0.007613674498029438 -0.03962566361811377)
(4.83211897386987 -0.01936048545049519 0.04528927272831362)
(13.38881242138923 3.500584880807782 -1.32559893579306)
(4.986178834287296 -0.040309554380864 -0.2715681213428002)
(5.122075502040472 -0.07876062047762589 -0.05153671404856153)
(5.071692621494067 -0.06000704071258308 0.1053438062773411)
(5.06189705591051 -0.02805987276412399 -0.08180543196199139)
(5.042452400135076 -0.01811990461516462 -0.05231151576292278)
(5.014188481141245 -0.008639018233888731 0.005162639334393619)
(5.253877962881534 -0.2231068883864709 0.05843816908674076)
(4.580310440964673 -0.01641030953475276 0.1826665561350868)
(5.015146311489674 -0.00374720054064323 -0.003032550374394527)
(5.048979007095531 -0.016373995198904 -0.003571760782820879)
(5.04370172570745 -0.04434888629243566 0.00852557883090368)
(5.055405376308975 0.006220853174095243 -0.01853375278673701)
(5.007778653298411 -0.005279366291525285 0.01570187320224396)
(5.032723376142036 0.01340466226868159 -0.04102004352052526)
(3.412068399597894 1.058652886365457 1.411909150878792)
(5.077723391207685 -0.04530685001501143 -0.06366573105895842)
(5.088233642089024 -0.1206407638492074 -0.06401228691391959)
(5.042218922229048 -0.002596434467556318 0.006421494039664914)
(5.020092073771656 -0.0001603329277508832 -0.02075282068377393)
(4.98417287692912 0.04885968011910155 -0.04236016897798495)
(4.15097917037534 0.01018326340077908 0.01402981177328439)
(4.956822511067166 -0.03024527250507455 -0.3209270478885711)
(5.032159514670703 0.01382489962259308 -0.01222702624098736)
(5.035950060229776 0.01357735788507669 0.009196361586729077)
(5.023708008539162 -0.006999152644817193 0.001117256041427502)
(5.019761534637426 -0.01126114736919675 0.003736152901055981)
(5.041930641306138 -0.01056557904237818 -0.004710231859797353)
(4.239101315784402 -0.03216632071645768 0.1381287676806441)
(5.080881506641844 0.1256124101520592 -0.04369675264774113)
(4.878197528700865 -0.02601541263581114 -0.01530811574364197)
(5.038150084576945 0.04335531137664504 -0.03578757785971051)
(5.791265583925058 0.3504697153510773 0.2276227733183359)
(4.970369102586506 -0.07225792993800237 -0.01534893825078064)
(4.597609975983984 0.3861202502521011 0.04055382901866601)
(5.12129618200525 0.05181850841513001 0.005580434856750079)
(3.642092723118364 0.02201275873085928 -0.2485551908592915)
(5.055066958474646 -0.02136775715998857 -0.01196801853324979)
(4.671387606881054 -0.1075971685928599 -0.3964993233711765)
(5.15327558640038 -0.177468250159466 0.07688630920274749)
(4.985130807636971 -0.02481283472719196 -0.0448708026097687)
(4.84366393596774 0.01195489855837871 0.03877076891111992)
(5.103280526955312 0.02146790097122189 -0.03271804511864831)
(3.730179742841357 -0.3928829046468817 -0.4618730657435845)
(2.038529919806412 0.1031322947668797 0.07438811868632428)
(4.085163760646714 0.2257100204413029 -0.1915328112721797)
(4.997109141968517 0.002871069399085719 0.001935139494264826)
(4.291267883590033 -0.5233441634895335 0.005133923217777571)
(5.038750681064812 -0.03565416450175126 0.003166106719232776)
(2.679227352397839 -0.4823295382759 0.04035246599882203)
(5.042256880275966 -0.09245823698325714 -0.03245534089157303)
(5.001011351780432 0.1617240122132192 0.1225371894771458)
(5.013878751686952 0.03598976922415318 -0.07755692433303245)
(3.611193807712993 0.07056666270913353 -0.09111232516956683)
(5.118330283774786 -0.07545103505236968 -0.05145468845816099)
(5.022702487525742 -0.04091339872776771 -0.01215551931797997)
(4.808666314996358 -0.09625896608340509 -0.03585279970716621)
(2.814623029123028 -0.1722205551636177 0.08011824319267138)
(5.003743081508565 -0.2715031948946349 0.401233146482361)
(2.171514601533588 -0.1340220329820337 2.716732862100627)
(4.962014542134948 0.0775913567995684 0.1883633211136387)
(2.238718671930397 -0.005914349599321838 0.2103280373745327)
(4.156363506120639 -0.1280477998080825 0.1064011097475295)
(5.044286774748714 -0.07093542849946821 -0.004192952060658545)
(5.014359850007573 0.003395589891935507 -0.02200024901733761)
(4.953002791525959 -0.004557593850608381 -0.0125638155228988)
(3.451391758741419 0.1509475214374666 -0.1519321794072851)
(4.977008777568708 -0.4174920465449317 -0.133693613794483)
(5.049858561981358 -0.05469468346134521 0.0899135541866633)
(5.068895185103604 -0.04526917608912698 0.0292972053242332)
(5.018128125564271 -0.1160445276011354 -0.08656563386371165)
(5.066701638590139 -0.1073576438083479 -0.03244304987467796)
(4.988796518748302 -0.01354675965366524 -0.01024206791100644)
(5.075870051355632 -0.1055830357831621 0.01300823937431887)
(4.299997191626389 0.05560913817050453 -0.217456555643697)
(4.856089233088059 -0.448306222767956 0.01567594724419961)
(4.883388671135727 -0.1948594595318521 -0.1238495653376636)
(5.041462157534919 0.01018699539300164 -0.03820365670200223)
(4.926668728686525 -0.1725440295239719 0.2073806675497487)
(5.000256128118087 0.002208221871330547 -0.01512212856657176)
(4.981501296552944 -0.3021652909445982 0.06276154010963185)
(5.209559517894383 -0.001120219166346711 -0.09040494978465458)
(4.908880395384099 0.1748734829007523 0.219591090471354)
(4.87284411026725 0.08974653038950015 0.510969561443771)
(2.902239339713153 -0.09338702429299772 0.09554573277467368)
(5.074372852305789 -0.05940692527688935 -0.002845440579444473)
(5.075544616471859 0.04334536202036527 0.01292586355810626)
(4.541277986671775 0.167902374619076 0.08882840135369879)
(4.726859055111978 -0.1366135983589364 -0.03758873597160228)
(4.842418160354955 -0.1730762978632072 0.1300517320410288)
(4.743094139501327 -0.036167617803647 -0.006369728173873546)
(2.748874192307976 0.006354080723300961 -0.4793092185301713)
(2.055243221087462 -0.1235392936730849 -0.04675622754113358)
(4.929934976311925 0.006666242570775628 -0.006207892101824578)
(5.068258688359154 -0.05273021875560279 0.1079601602853582)
(5.025016330630757 -0.02100303168759306 0.2031019015598359)
(5.081475225729361 -0.07969225404686096 -0.009280877016058436)
(4.152700759628244 -0.1763168775200425 -0.01069558447256597)
(5.085805150872182 -0.05542025189306866 0.08368508547837929)
(5.008877909110121 0.01683873314901119 -0.003820728006911619)
(5.027026421772261 -0.08555197326859384 0.0105539380176079)
(5.927300997343309 0.0571264444248457 -0.02194855930025807)
(5.012923086070407 -0.000462839337392454 0.0002938726361668858)
(2.704182097678696 -0.01983554300890393 0.06946638567880446)
(2.641683999072824 -0.0536389433504022 0.04469815902967467)
(4.981625263761101 -0.04864438672376121 -0.05156540052481656)
(5.097011609072045 -0.08896246424484867 0.031836247350709)
(4.238344828527472 0.009112432802529309 -0.0597508124397419)
(4.765263720770629 1.711154250418761 0.7798478973491935)
(2.494262516711379 -0.1406787752016652 0.04361473611634233)
(2.94623500458533 0.0729331086915084 -0.0810141619933481)
(5.146613326197255 -0.08146868979544389 0.1889036860182782)
(4.81144859778093 -0.1245693559532402 0.0728527768272301)
(2.186886234732355 0.1622792482897939 -0.1897012940456083)
(4.865145575077015 -0.9661230486076773 0.8066678883704542)
(5.05429414958274 -0.02851539833074316 0.1087349959744102)
(4.294803849481988 0.05611955313376136 -0.01772951241781903)
(5.070051503830687 0.03441056380619916 0.0421476108931931)
(4.073492210142721 -0.05207218430189411 -0.184440449796057)
(4.11291095468652 0.1618107756618987 -0.0827080631177475)
(5.073075026822139 0.04154464530834124 -0.220241725343243)
(5.051314760283197 0.07281887932326966 0.2388179487535755)
(5.525300408230674 -0.0510158432228642 0.7370131549093716)
(5.098620380812228 0.6134355798847259 0.1508955551011663)
(4.031975131864327 -0.05279767551461461 -0.1025175445769104)
(4.412450915183374 0.06058796770642991 0.1192141053419967)
(2.774512129330627 -0.2344675371662558 -0.0003273566349791604)
(3.686828798408821 0.02493760702733868 -0.00641440476975679)
(5.098244635410014 -0.1133815685508874 0.006346365866661617)
(4.066112496357219 0.4948818856840238 -0.3669441107541364)
(4.972796702155236 -0.0565086577371855 -0.3283713064398737)
(3.486956604118141 -0.1408294872933145 0.02802745355547628)
(4.942237358918468 -0.08394379228552601 -0.08259947917028045)
(5.038412584761616 -0.03559295865817694 0.02191725199204605)
(5.123398750218283 -0.06309797850056068 0.03899091553207346)
(3.754683513892668 -0.1409751193425456 0.1831474644177616)
(3.371683445242595 -0.5658409205844094 0.1468071765508871)
(5.100804624190652 -0.09129093289753701 0.06745635814131147)
(4.96667956477333 0.1007269326391701 0.01237862035428988)
(5.072444131921561 -0.2586219791113223 0.2103450545481899)
(3.090461953930354 -0.1125596980947512 0.3574619840325321)
(5.067459732510812 -0.1002033856802378 -0.008722873942418212)
(5.076626488885329 0.1512710986884452 -0.1166779829816356)
(4.364468701716 -0.142984150209967 -0.1612859280020914)
(5.054339048614067 -0.1230939548993935 -0.01538400928377493)
(5.012146472032704 -0.001306174557697099 -0.01993120131716062)
(5.070966008597798 0.005355823027838548 0.05381663254987671)
(4.685111534441847 0.3803540117669534 -0.2607542166157766)
(5.023776064269543 -0.08932782140506597 -0.08785348124450305)
(4.970310100825069 -0.1980764518081994 -0.618473863919521)
(4.589853212763355 0.04914309958664454 -0.03420029169349959)
(4.996316317188614 0.09776383208802758 0.07137606731898762)
(5.040476830636065 -0.006688044687118999 0.009497223351574512)
(5.00701079913047 -0.002910000735258437 9.759869510376839e-07)
(5.128638866777684 -0.0370970670483755 0.5045401338437161)
(4.777484969066684 -0.2118903907857374 0.1265471428796249)
(4.156378058992343 -0.1202794406966009 0.0616028007750247)
(4.557381065028748 -0.2519666279954038 0.117538396305145)
(3.028490429255309 -0.1378688532300476 -0.03649422434851255)
(4.020861515304953 -0.1942080535321537 0.007206302028574648)
(4.865881703558726 0.3213951189995241 0.1660927661284793)
(4.914566089500023 0.03910783912530645 -0.0242925897787923)
(4.696598215481364 0.1787935704819736 0.3525131208182452)
(4.498133939613837 -0.0735139372924599 -0.1771078722240787)
(5.055284501714725 -0.01962398105780283 0.06361415191690988)
(2.238170942162947 -0.4732506381953749 0.2346251729024444)
(5.02346273733707 0.01197404994801048 -0.009259773207361519)
(4.963301529622622 0.01085262997811434 0.006876297825829995)
(5.022059300135159 -0.02430653762243724 -0.003922681393774529)
(4.993483484296762 0.01214943319923336 0.003829107903143983)
(2.84704597898541 -0.1781866991427317 0.2671268240232383)
(5.074745120300149 -0.3657663231554193 -0.05173927910443989)
(5.09169498456144 -0.05318187683907315 0.02167345619518393)
(5.04302270853568 -0.003732903307521594 0.006136787400478667)
(5.005615608042747 -0.06673877847117521 0.08658736163600923)
(4.975653559393802 -0.01288006844709701 -0.01840051787982087)
(4.976727099529121 -0.01297086893868858 -0.0003218023398337265)
(3.818783163596536 -0.2773464423180201 0.02736328415440592)
(5.000961601877512 -0.004949791873797731 0.0087827656717375)
(4.884499726830999 -0.5174575262371403 0.2107311768320727)
(1.384713052620944 -0.1669652427184154 0.00781113812378143)
(5.025754436346276 -0.008808183273491112 -0.2666543573370996)
(4.742547889207578 0.06721850992847392 0.0412519072224311)
(3.781818581611393 -0.07115876965245314 -0.003401841081818825)
(3.83546146820297 -0.2854369919914874 -0.02313513953643705)
(4.871423444251667 -0.144105077039707 0.02090310968933929)
(4.72293242096097 -0.8579633546986255 0.1435686586608026)
(5.117626889077097 -0.1248115382194593 -0.05052379144243919)
(4.960051527465603 -0.1320229118698095 -0.1038903272749749)
(5.002928731958951 0.07118310486704924 0.1085886162272173)
(5.053652276830229 -0.03711389566673374 -0.03400868212463401)
(5.016143267133067 0.02034900091249704 0.07259864018799872)
(5.012214329472238 0.07362639808728808 0.09861139410666324)
(3.973091300808652 -0.04737235365187777 0.01874070514787867)
(5.016210019338297 0.04691456140341968 0.03000406194702735)
(3.52591824174482 -0.3008005369769272 0.1779932909588938)
(4.254832976120523 -0.1459658982305097 -0.237656294059451)
(4.999233899451855 -0.03761305986396078 -0.04790612726440303)
(5.0816323480414 -0.05103261993860293 0.03083049907531316)
(5.045012631180285 -0.00268240319787132 0.03901620085968862)
(4.756474674940375 0.00763689640765397 -0.05137213927970761)
(5.066304647447069 -0.03252153520265212 -0.01472433861207746)
(2.822223520993492 -0.226200103191426 0.05496306835029682)
(4.738128237995681 -0.3598750213422721 -0.07001463305851593)
(4.11387945676059 1.166692951792114 -0.3582836349889327)
(5.035616382986433 -0.04524516066964365 0.03307025833535426)
(4.951795405103287 0.1522008265989171 0.2808902679252299)
(5.078442431374096 -0.09690629831741966 0.01962581889918479)
(5.06016244366453 0.001843519472469203 -0.06314410405799582)
(5.102285570329173 -0.06149803400856091 -0.03103817094706093)
(4.875948941464116 -0.08519122252300892 0.142490364829135)
(3.517312675806908 -0.104783359559825 0.1337824458822715)
(4.053055657900982 0.01215505469964237 -0.3750190040435776)
(5.08244754125665 -0.07091480195432286 0.01879693266034919)
(3.999784249641511 -0.2165896525572824 -0.0575931284360565)
(5.069708772144761 -0.04344908404050704 0.09869442839132833)
(4.178708425441949 -0.1647063534772341 0.01633091596692064)
(5.121461448463433 -0.1649498433420322 0.1763915587848704)
(4.731480756797939 -0.0645355319295781 0.06863047327135155)
(5.096327390187008 -0.06156569101712968 -0.01150437219859118)
(2.880199920622331 0.2248891742738541 -0.1044696234081334)
(4.975896793538731 0.1504157405329817 -0.2229726985710525)
(4.999005346299157 0.04466391722911201 -0.04749050900117054)
(4.919815084980948 0.2650113575868299 0.03557356015603888)
(5.067231251047644 -0.04564408710112111 0.02926931816960452)
(3.245741223129678 -0.3063484661949515 -0.3633707485204243)
(4.865258462178865 -0.08129948166857455 -0.1088885049823533)
(5.059628572785504 -0.04847260734978823 -0.006071801647856256)
(4.71551060762883 0.01232324137297588 -0.02430804511596302)
(4.994952973667227 -0.03306639450470202 0.01782833866874715)
(5.000925262690394 -0.01045351516949646 0.01932054034839855)
(5.038841486071707 -0.03003467110708302 -0.02171481936242031)
(4.988484894313659 0.0491698560845127 0.1279709430180947)
(5.118400596914308 -0.04710982817515431 -0.04416648832485966)
(4.997030573837053 0.004682856658541307 -0.0009435751031012811)
(4.545594784131353 0.3312550017498708 -0.07904667845759056)
(5.033861000607108 0.002825108774493346 0.02134132135568937)
(5.106524553618492 -0.02505439692027185 0.01057229781647755)
(5.019474431121182 -0.05973007407478224 0.05089171200187403)
(3.497670699886711 0.06697577631482428 0.06651874701737821)
(5.023241509884028 0.02073476473609126 0.01323306921461363)
(5.001218603835182 -0.0249887510768395 0.03554356241163856)
(4.99886496412262 0.007226533394395837 0.007245140419811827)
(4.422163964891515 -0.6254256023137517 0.02128517143762208)
(4.893576965979661 -0.9816792377172729 0.4054984047102854)
(5.245378222053379 0.03003306569275381 0.1363642456601326)
(5.15200920031481 -0.0237270985429246 -0.04830899327788322)
(5.18088826282918 -0.1695489407397538 0.1442029097911873)
(4.448718317137178 -0.1295261168078249 -0.07634238902488649)
(4.585151546453531 -0.1221283485434477 0.2121608858485441)
(4.983154372390063 -0.004747327193247235 -0.002871080708718434)
(2.202832790897812 -0.09716056400210822 -0.1717027054941746)
(2.511192536625126 -0.1446437774941482 0.06864401614161261)
(5.075748050201741 -0.09847134762883464 0.1323907994232775)
(5.000460128735145 -0.002302582855858474 -0.006194239290100541)
(5.00911847460047 0.01078949809448732 0.0025551747950591)
(4.648003302410357 -0.129938308257293 0.1911903365247296)
(4.805753958152591 0.1015025784374914 0.3884450036261988)
(5.011490190663126 -0.1310787805719024 0.1329092185280956)
(1.898565978224693 0.01393345611863624 -0.1081686157744284)
(4.907828088854645 -0.117532094318865 -0.05305761780008755)
(5.102674560364531 -0.2492883458533916 0.03117990075198096)
(2.517542390905409 -0.2146136715802388 -0.1260554523358644)
(3.845216174754454 -0.1101986607964753 -0.2401051674346542)
(1.768206557624038 -0.3135739601223037 -0.1553863141283562)
(4.147634086715558 -0.4735227634458331 -0.1249105203840532)
(4.776310002229551 -0.4145574532642509 0.3626469361875764)
(2.537696630978726 -0.3764477306582499 -0.1684596417388808)
(5.035362275453534 -0.2431755024211592 -0.1386012970994942)
(2.005327952271213 -0.7275308960528805 -0.05689625170236152)
(4.415715467567399 -0.3000580048409281 -0.0759137341095157)
(4.99591002336525 0.08475665170230209 0.002537709033700476)
(5.09869995296397 -0.09869260553028107 -0.03155447637792036)
(5.109574826278957 -0.08422284098936361 -0.02419874460244975)
(5.024275044526939 0.09238113840618276 0.05102543330824175)
(4.06515519926817 -0.1693810376884695 -0.1165655143751426)
(5.039491587844388 -0.0003698281864602802 0.1555796453167191)
(4.213880752988609 0.1352516293331811 0.2333973181211271)
(4.148317852812663 -0.2097699447779841 0.08625787865127611)
(5.002277926416909 0.04957020903452244 -0.04690844917667695)
(5.015842565911216 -0.02713083706882246 0.01957035257714293)
(4.8999015448377 0.2747524862585243 -0.0250917270872949)
(4.55252321173208 0.01225243307397412 0.4469192459493807)
(4.968132883433251 0.1128439464722039 0.1351757600777296)
(5.0720012072395 -0.001704388388874516 -0.01214973085997408)
(5.120135607136585 -0.04339228503676908 0.1064614278393193)
(4.84372413416119 0.06813154995925516 0.1326351292565806)
(5.038523654483838 0.005151275000465161 -0.03238261311860212)
(5.054672022978509 -0.03098943857501173 -0.004425983730319147)
(4.975120074029257 -0.05588584297063659 0.08587550247214741)
(3.439609597875552 0.2608284160564251 0.1347207298559161)
(3.893243413143493 0.1895660381437747 0.1327297274001294)
(5.06843486442938 0.01470779098418996 -0.03551174565173892)
(5.024523022854726 -0.1341320147174142 -0.2507115201976116)
(2.032036270352803 0.2838038860533086 -0.3053551740510863)
(5.00440165659418 -0.003733595632627046 0.004570115096718669)
(2.601827892015534 0.5195029581794252 0.3616095803953114)
(3.877840134997403 0.2104685286537835 0.2796258699780989)
(3.291392392414791 -0.02678117140233696 -0.1167162003391186)
(4.999487746889982 0.008266128288807344 0.00591049263432049)
(5.110174040676792 -0.1755554028363541 -0.1371766020021227)
(4.852201607813174 0.2602571026344246 -0.1333621459589495)
(5.126230832099658 -0.1461586423187862 0.1685599244647196)
(5.00513325694023 0.006811732655904354 -0.001983033364622304)
(3.069920416931196 0.125655104431493 0.1655802178595214)
(4.994949677968435 0.005237193818718905 0.01513622533605877)
(2.696315160400778 0.2435913792883995 -0.2315905166978128)
(2.35708880923164 0.07951966000317749 -0.5223822991391981)
(5.063894885506847 -0.05322168175407433 0.01611915851153784)
(5.01379027439936 -0.1186774767104626 0.1662323940658194)
(4.893549532744236 -0.06290992555531316 0.0005220620396449568)
(1.972310585434217 -0.08129971747539466 -0.07851114848816881)
(2.855809436932164 0.02419854758808595 -0.009936876666515024)
(4.997347526852584 -0.005167323148091939 0.002125814756715904)
(4.998258411677689 -0.00288336591067082 0.0003177168577114132)
(5.016656968485067 -0.02017398672294116 0.002157212113801027)
(4.966702024022132 -0.1255445807136268 0.05874761103000111)
(5.108221789739745 -0.07220654033700567 0.05280603980783299)
(5.072245619455818 -0.02821287889942307 0.05460884546676284)
(4.772392857572515 -0.015445076441839 0.1174015136560792)
(5.007751222355271 0.006852430896160877 0.03726760077211392)
(5.109569529105504 -0.3414574704449624 -2.111328333534119)
(4.991225082441519 -0.02945624744202191 -0.0368096270489995)
(4.651024083896068 0.8961478995321485 -0.3510733920543516)
(5.069552135616142 -0.03797652910694132 -0.008245068987918098)
(4.375901158314335 -0.001732450188267995 -0.1997303912428067)
(4.054567604146673 -0.02699638520589982 -1.056854222241365)
(4.925664549422846 0.01426676296422628 0.01030182228041184)
(3.797000002599911 0.1803442139275858 0.07023060967841549)
(3.623363346097901 0.326167175325589 0.4591862036853379)
(5.012305603096378 -0.2748198746636169 0.3314464741951345)
(4.990203428457709 -0.03633384700191193 0.01381679988983261)
(5.009782580365996 -0.006831917426700456 0.008967368319976462)
(3.142460010480028 -0.5608682399709429 -0.2800466542263958)
(5.128833297294646 -0.06330210904369164 -0.03897916164164103)
(5.042292591831476 -0.04002615084139418 -0.05537650758731873)
(3.877319054048913 -0.1039308515716003 -0.1869204517891043)
(3.779587711201534 -0.117458226106388 -0.2548021229677388)
(4.689571071536467 0.2846294868735591 0.3038058710715349)
(4.858841148779612 0.0240585438826666 -0.1905466418703056)
(4.57750798780362 0.1814981046502636 0.07025330217626491)