/*--------------------------------*- C++ -*----------------------------------*\
| =========                 |                                                 |
| \\      /  F ield         | OpenFOAM: The Open Source CFD Toolbox           |
|  \\    /   O peration     | Version:  v1906                                 |
|   \\  /    A nd           | Web:      www.OpenFOAM.com                      |
|    \\/     M anipulation  |                                                 |
\*---------------------------------------------------------------------------*/
FoamFile
{
    version     2.0;
    format      ascii;
    class       volVectorField;
    location    "1.6";
    object      vorticity;
}
// * * * * * * * * * * * * * * * * * * * * * * * * * * * * * * * * * * * * * //

dimensions      [0 0 -1 0 0 0 0];


internalField   nonuniform List<vector> 
19631
(
(-0.0003525166700483764 -0.006725472150106904 -0.0006963169988509012)
(-2.060853355874526 2.373644006102137 -0.8120601485936343)
(-0.06233897480151651 -1.2393798654665 -0.9089281707900905)
(-1.457466731973716 -9.645734711206881 3.484242565708048)
(-0.01011962906936462 0.002477650024045086 -0.01946525426053439)
(-0.05937653264140905 -0.04205302216107575 0.08061518443755904)
(0.00123065962787126 0.01110646681098136 0.01258251345404329)
(-0.4617189285352408 -0.4064196754153123 -5.567283281303817)
(-0.0288876465973417 -0.01413983083939208 -0.04703357480428472)
(-0.02167027495507213 0.005779826035497395 0.0009452972259663128)
(0.04214840139491439 0.04620641495522117 -0.1422326003373478)
(-0.01434717514223023 0.05850951500935282 0.00832219663864691)
(3.997105775697177 14.70528998961877 5.5926239290389)
(0.02421124410078185 -0.02701081670333189 0.00381091045177448)
(-0.01416030601411626 -0.001793441431562231 -0.004335340957447059)
(0.03080792539498243 -0.03372290744731218 -0.02479577759527178)
(-0.26201709707445 1.443355578803451 0.6971158822158651)
(0.001470807454102224 0.008637925438010089 0.002197458417578963)
(-0.0313376953647066 0.006573812698513185 0.02091340998185613)
(-0.7056110501804407 -2.133363676634299 -1.331914635389987)
(0.0169057563676415 -0.0002491670861052902 0.008860425870523318)
(-0.05043702070535551 0.3967388412820733 -0.04500540624110085)
(0.03277800206695523 0.01650018938840418 0.1704177182550898)
(0.5413951681290129 -2.13793812111756 1.291148698869911)
(-0.008394333150335833 -0.0007395066072459753 0.01078692814683566)
(-0.01394046830858029 -0.03521659189448076 0.04964074468414967)
(-0.0003497792331936637 0.01147653419213743 -0.03044585689314356)
(0.06286871955938655 -0.4606129534417611 -6.433114690655119)
(0.2495071977596932 8.009893838698581 -1.283943009336744)
(0.07790252692470244 -0.03068477819981488 -0.1449475163530076)
(0.007978179438766358 0.001653007646958709 -0.01282757597402993)
(-0.3358673037310836 -0.04518837562056804 0.03954967307693573)
(-2.977886934693521 -0.1612742179373834 1.613553382853933)
(-0.008950390351269143 -0.003752585622194913 -0.00924815586583114)
(0.1485195297935864 -2.386267589322628 0.2597659898546467)
(-0.02249418289263957 0.0005310993140726292 0.02131240207448806)
(-0.002331958647591392 -0.07489681707447893 -0.01161748647893018)
(0.1588120070424086 0.04972120150279825 0.02962501992997817)
(-0.005106194045956462 0.0001505299038006558 0.01240268303774559)
(0.03956231521884173 -0.03467772367148747 0.06619323934318333)
(0.7428414514989117 1.870469645182252 -0.6333508566182429)
(1.880568537430779 6.754969508298785 4.415887602369375)
(-0.04080692410371554 0.0002887298975009361 -0.01310757537132366)
(-0.5962549574629115 1.3355401989346 -5.572960811735151)
(0.6972821885447197 -0.2600211007932897 -1.358402204432402)
(-1.573287433734613 1.157185075394115 3.255083313735206)
(-3.837385317176403 -1.12259149362423 0.7908849410373393)
(-6.945583333127184 -1.17347996078129 -1.206940530231851)
(-0.003059368025692469 0.006353825897770962 -0.01594392849341658)
(-0.02214938556927558 0.03787241616771561 -0.0108841766646769)
(-0.01856832792641754 -0.006783879109667288 -0.04358588897142669)
(-0.0468930896691408 -0.01767595884258624 0.02678195999623029)
(1.795066053415223 2.954527512404289 0.87531864496149)
(0.07874638244188105 -0.04697159713467005 -0.01080384822252751)
(-0.05837954638845054 -0.3468422190991975 0.09886701611696413)
(0.2798341753894973 0.5728130290001419 -0.5011253492109506)
(0.6731004406578669 1.297816291501914 -0.09323699343228989)
(0.002367720051785508 -0.004754628059295333 -0.00220300249920221)
(-0.138724562887729 0.09061520261049963 -0.007651933896890624)
(-1.668328198068934 -2.919005706569304 1.106863990948409)
(3.495352338561596 -1.632632123031713 -11.16632751423365)
(1.183414690992363 -0.3559152841536868 -0.0701639278885961)
(-3.532823983117767 -2.22562829210156 0.1932433141222186)
(-0.1678642863724912 -0.07741433871578332 -0.02609780123186467)
(3.849420300068212 9.185980483447393 -10.20745950865472)
(-2.390423260760053 4.682349433614608 2.236523946108111)
(0.08392864189807626 -0.007008235655118365 -0.00961340921129996)
(-0.04414932160232989 0.1779136562353905 -4.749875755326666)
(0.07566652186211886 -5.369563273013911 -0.9889991470160527)
(0.05205679911197464 0.2423684664554799 0.09190669952939999)
(2.912004542915757 10.07735591510174 -1.440716989575929)
(0.2532536155583847 0.1815114658987672 0.1098403333876979)
(-0.05732747213786241 0.05005281793152023 0.01315188254592629)
(2.072652490647072 4.289717614123771 0.373351109745361)
(-0.09440017332889031 -0.1683802382656139 0.04530127467769268)
(1.863957835535752 0.4795093649561111 -0.7163370650722548)
(0.1478097301229959 0.001541834665202021 -0.003546303468880432)
(-1.011773370756047 -4.040600502272111 0.9867262226465746)
(1.246895216202818 -16.43714185190572 -3.89417743323269)
(0.06417049573095022 -0.01414559735047502 -0.02006465813751445)
(-2.555740743591206 -35.30815855260231 -7.443928957278562)
(-1.673413910925911 -0.1685847822088065 0.9416382565029509)
(0.611787591661428 10.78239586192336 -2.34279214816536)
(3.52534516624478 2.159873145495554 2.117149507794452)
(0.2387296944361454 -0.04503538048549711 -0.08059720273134637)
(-0.004290971485632636 -0.006672959913519837 0.072023986408531)
(0.1627699267201285 -0.27656627128055 0.4762818655374222)
(-0.5296677710167736 -0.495775814549294 4.128062698744299)
(-3.457937393740751 -2.196046939071422 4.359040155417516)
(0.1808808002993088 -4.535792691523189 -5.186114854271746)
(0.104166582547975 0.4799777119179539 -0.2510432086090466)
(0.1669352710756693 3.010493739558468 -0.499219354055521)
(-0.810901309249378 2.581747111825103 2.394885329368012)
(-1.441615772325764 -0.4599481613898463 -1.598086372119517)
(0.6279879215445179 0.2407030795833962 -0.1709758641360098)
(-2.67628276353643 1.328444489557571 0.01762553026116231)
(-1.562066510047756 -0.5259175237801158 0.677781285646283)
(-0.2436493821680598 0.194881215080517 0.1418265101357443)
(-1.099831511698619 -0.4142975130379686 -0.06828074444751606)
(-0.08948336495490855 -0.08197672540252771 -0.06936738718304818)
(0.03219884737577964 -0.003113101690183627 0.006962772735020962)
(-3.608857062056009 60.54166105451811 9.199528059726491)
(0.0335271673033353 -0.0266398151779626 0.01742506814144178)
(3.126484781307679 40.51961152525025 -8.733669981687525)
(-0.03575591622362906 -1.117328687978452 0.3757565817522157)
(-0.8757757900150034 0.8211995357374913 0.5886608793973693)
(0.09311830147669194 -0.03530042751939438 0.02512096815792939)
(1.395680073042262 -7.643497057132093 1.280911668758863)
(0.00772642955197245 -0.007273274505270062 -0.01542340413169441)
(0.001612263451973292 -0.04437929396744894 -4.54648856112569)
(-0.2248184664418522 0.1442290199280306 -0.1782973083959812)
(1.769794048460698 9.126362696631135 3.918838285345894)
(0.004671158331715723 -0.009093042704211329 -0.01453549169258367)
(-0.5141034134037255 30.38864533944109 0.4665278687009073)
(0.7865514924663535 2.633338319182645 -2.332253503478544)
(0.9131086098252026 2.270706556904897 2.399974381347534)
(-2.137605970400787 4.611282460029898 -3.835194559447654)
(0.06808350823994105 0.0244711441977724 -0.04086528144338815)
(-5.952728674266446 8.644438121969671 -7.49046404606699)
(-0.01064401901895097 -0.004638716321337531 -0.004736131308570014)
(0.2460737564620996 0.01166532888265166 -0.03281102354555072)
(0.1620719970666075 0.06464221178104447 0.004484570220511611)
(-0.02537165735645894 -0.00640195639273301 -0.007495066876829111)
(-0.2708769699776796 0.246020082481436 -0.191759242581722)
(1.370470008785222 2.287151577331995 -4.457455572696269)
(-0.0173791413342251 -0.008043074474741518 0.02255160495004561)
(0.07613540712434279 -0.008139642761983031 -5.329497801834015)
(0.06789683237039944 0.03411583327908942 0.01390467043335865)
(-0.03955389737492074 -0.01698707905867824 0.02922383480925094)
(0.06487461312683368 0.02909925072096363 0.01913752133246607)
(0.2225663927145266 0.09181148145662307 -0.1204707369220185)
(-0.1036197060787367 -0.2152665471144373 -0.3478004079068701)
(-4.791082095722559 -36.82649817884661 5.539592637834716)
(-2.073739031528595 -2.33167212243464 3.707880229760825)
(0.01312048816941258 -0.0200583154598645 0.002134153220536771)
(0.03719495559602393 0.003212531991038686 0.02936892695096021)
(-0.1998227881857247 0.02545489003780383 0.0130023882820418)
(-0.205099618478448 -0.3746816941252841 0.2533333303720441)
(-0.4713091127731256 0.03330948715970816 0.2858894830115026)
(0.05168523845110598 0.05003305198923298 0.008023749616979362)
(0.05238111142382729 -0.350107288498159 -0.2717196627051339)
(0.1320478570083275 2.222794072758453 -15.07077972977546)
(0.1773493410475371 -1.372415849010525 -2.140718388015671)
(-0.02928581809405491 0.08121649016215399 -0.09449173715651246)
(-0.06474653141199782 -0.00473261690387667 0.05311450711045183)
(0.03025388715295063 0.03188363128131494 -0.06874607398570011)
(-0.146302495213505 0.03085048555472701 0.009523531184705267)
(0.02893127130012883 0.01644324990421289 0.01024304888309533)
(1.782597730907196 -5.676804882935597 -3.991271484398215)
(0.8478797314544997 -4.567659452491114 0.8816227819983193)
(-0.01014978351225519 0.001050714929529733 -0.01159811703779412)
(0.06205983701736185 0.0360873059623951 0.05886437172115438)
(0.03714394445332604 0.02944315029210386 0.01546880069940649)
(-0.040656014571905 -0.01068848493037556 0.01192368900935207)
(0.02539907527230637 0.01820473970151928 -0.02135784431461111)
(-0.0431396101221579 0.0305170353170216 -0.1865630210532773)
(5.192746834384912 -0.9893712573702013 -26.15211528447366)
(0.3102451460926438 0.07184120548993561 -0.05243868111799972)
(0.1678199633030971 -0.1016657576148983 0.002764021717490663)
(0.05124027679899601 -0.02950028614063345 -0.02992154344728836)
(0.002039989087787794 -0.002330336947307235 -0.00488219666178131)
(-0.02489368960317664 -0.1270679923355296 -0.07583217703180743)
(-1.560137315252838 9.392717165505079 0.9240279949307697)
(-0.06786459921269913 -0.1385180286573108 -0.09786838363817772)
(0.06034423722098678 -0.00367210059584187 -0.02102885779106712)
(0.008845523464820907 0.003195575430540797 0.009058751392654345)
(0.01466513855082427 -0.006707295909729681 -0.01239769020085134)
(0.03842941960582336 0.008490099557700144 -0.007304506585395635)
(0.02726620041417636 -0.01737486545192197 -4.208248717016903)
(-0.6630043335080885 -1.692209088213448 2.637832959437241)
(-0.269551407307145 -0.07457801658889929 -0.1788037094668162)
(-0.07101069624829409 0.2921381099067707 -0.5250934403206517)
(0.4550837746762701 -0.215538153012694 -0.4892465467482009)
(-0.6491217301870718 0.3290079625980128 -0.4427557143681325)
(0.2000528618069926 -0.2253013639493026 -0.1098961953915478)
(-0.1088652750460298 0.2669178190166216 -12.83665446138159)
(-0.07555301198205512 0.1216497451931015 0.04623079391106498)
(-2.2544069075569 0.1158716169683487 -5.647461469150174)
(0.101517605165625 0.01727352019377263 0.04046018891418944)
(1.027031157264885 2.399432468308185 -2.554955535887037)
(-0.1416365092177201 1.448894554103172 -1.393435006959399)
(0.006661439489056819 -0.007787718983470147 0.004912886071100377)
(-0.07684854085972534 -0.5030594280649576 0.02755777436472317)
(0.02976390032939768 -0.07481720533040284 0.07061359098107253)
(-1.097980063916127 -34.38061150229195 2.097681922863194)
(0.05855959164088966 -22.57012495004602 1.193232880501713)
(0.6357760861585968 3.063697066196695 -0.4430417843683809)
(-0.003926339700637158 -0.01051613594525818 -0.003929258823890508)
(-0.7250804105041885 -4.085615272064845 3.18129241514004)
(0.006756375539230489 0.004814255150997253 0.01680765461258935)
(-1.129318191612411 -22.35070036868716 -0.9515712778920786)
(1.702865292681044 -0.4068063560696406 -0.5783097053419992)
(-0.2826541747782695 0.04086830390031251 -0.08543858644821253)
(-0.01021650447162852 -0.001882785987991259 -0.03289898350986283)
(-2.360528716371788 -10.47042748052074 -3.658275775243744)
(-0.3695157653269626 -1.048473711758272 -0.2428694305604537)
(0.03498671170577296 0.02441658718490303 -0.0172543979409812)
(-0.3961695046515591 -2.216119942651587 0.1686326825751506)
(0.603454052301192 30.23520765044999 -3.311145550875937)
(2.609926549857216 2.735209460789737 -1.017496705037001)
(0.5733991899527918 -0.02489169190106111 0.2584519359414331)
(-0.4648434255710979 0.7332119208435455 0.5933115824367239)
(-0.1505453711660227 42.66685271885842 4.385132837982489)
(-2.315628288838521 5.838256962202453 -1.39685413515658)
(-0.01372210302758377 -0.03469689089569668 0.004657035419165358)
(-0.03472776111737895 -0.003303700705161924 -0.003947982461748855)
(-0.04088374341207601 -0.01651297141983312 -0.0406740210770929)
(0.1758857879273366 6.746877673540947 -3.796787560761767)
(-0.1560899205711569 0.1074425095145228 0.1417977177153262)
(-0.02419313900237193 0.00334190761403123 0.06989008279311995)
(0.09852477281820241 0.1062645360973415 0.03607768137260565)
(-0.07108921114209538 0.02368064651788822 -0.1294499615006172)
(-0.1810373693633756 -0.6413376224903569 -0.1725762946508905)
(-0.04107831914477323 0.1472870290566231 -0.074051877241413)
(0.1469781323314725 0.02023980241416377 -0.2184010577571301)
(0.6116384881133488 -63.75102424244307 -3.109731707598696)
(0.4567235564562813 1.445627061591006 -0.135580169922092)
(-1.275930023987415 -3.313410858033221 -0.3858716627622658)
(-0.01453927790151269 0.09549343524046536 -0.0009206142171589438)
(-0.4357450794955407 -1.354297830088461 -0.03255305184881419)
(-0.00668212011772014 0.001096438574294771 0.0004254231608452613)
(0.9507262344969649 -1.046527858369439 1.807369601946047)
(-0.02657076697825099 0.2017098103567105 -0.5254085894261515)
(-1.512176907591511 -0.08886590124958521 -0.5279268976775358)
(0.1349963919227516 0.1809858304480542 -5.617689089515943)
(-3.095956708380446 6.742378605581415 13.06926018535002)
(0.002591103723616234 -0.0139545247243547 -0.02170591944460643)
(0.06601042220513854 -0.02858086133504578 0.06909388383238174)
(-0.3906543636579166 3.776655066160583 -0.2779135185593302)
(0.6159666373098408 0.3510078024339069 -0.103163429394266)
(-0.1449179096809692 -3.214239639177527 0.9332104333495712)
(-0.9855512612233481 -2.105250573127593 1.099630809120597)
(-0.7789098017336162 -27.12746006778765 -0.1728757832408221)
(2.499387633612126 49.57631735449256 0.9414670129886069)
(-0.005297093308793039 0.1210373983708467 -5.921178022930781)
(-0.1836265772864184 -0.09484396646644404 0.0733309124901324)
(0.3686112876505251 -0.1952703017043905 0.2287845558824178)
(0.02316567923008271 0.04423217821496545 0.04667410325165335)
(-0.08162818747666467 3.785893383737663 -3.123702263870977)
(-0.1750618410678794 0.05236253479997649 0.001188895773525648)
(-0.03149054499102625 -0.006591176083299632 0.01244851746969119)
(0.07512770327151308 -0.006239346248446243 0.01974108536082294)
(-0.4067523021466586 0.1724567800850552 0.4513397883834362)
(-0.002240612237084222 -0.008570899246022324 -0.008381040543614635)
(1.812623499800909 30.63283217816802 1.297978871345542)
(-1.034748174002728 6.771212973458836 -0.02383360489193898)
(0.002187846075911558 -0.006232214732574351 0.005383087881984126)
(0.0931660140909836 0.04977226202436134 -0.05373858340385038)
(0.1457258828001721 -8.07732355549682 -0.3726938071880928)
(6.02577708808664 18.25227157104091 -7.230491223373926)
(2.459914116841876 12.75761591641728 -2.570287385248902)
(1.917386064519119 -37.14917684341152 -0.317119268825292)
(-0.05308199198181496 0.9529640311527927 -0.7108061094477862)
(-4.27651959983277 -1.503024480395221 0.7177085612489715)
(-0.7036034782848098 27.06800771278014 3.604439184018932)
(4.907618462484726 5.884070237217703 1.873425303904082)
(-0.2977392822667791 -0.05587716626070897 0.02321561656958897)
(-1.543671392479664 -8.530835049235396 -0.3061698238427224)
(-0.03532890169869418 0.1308441135916911 -0.02959002298352262)
(-0.3539921605558355 -0.1965435130237476 -2.602090958715167)
(0.3209680739874954 2.515297653844241 -0.1684586049989834)
(-0.4147426033788099 -0.0908554382693367 -0.5630064137139221)
(0.1864048085683878 -0.1124415792969419 -0.1551683665984556)
(-6.800696472957438 -4.276133564058428 1.753144993715903)
(0.5904531283342582 0.06871836484597146 -0.703626722144638)
(1.194178384955169 -1.227367578454087 -6.200150797877529)
(-0.509805903225129 -2.623354400263778 0.2481510287342551)
(-0.04639617994026124 -10.12806894166752 -0.5617521654361771)
(0.172071500495842 15.55957420297739 -4.021294319273538)
(-0.009247037898410665 0.0244002047342633 -0.1627521353784971)
(3.729130628654819 3.761583272654147 0.6297245964619949)
(0.5787986078565441 -0.403189984794614 -0.3009531313795854)
(-1.482605340531518 -6.641039064957527 2.508928266857172)
(-0.06015384880417843 0.08639354984731534 0.04215075368830094)
(0.06016526015607775 -0.001063714241677706 0.01071742768720309)
(0.08941149917742827 0.059739597244015 -0.08240467736877385)
(-1.837618657396994 -0.8394260230153852 -1.179152474252104)
(5.028472255278826 -18.14482792257132 -3.867580620386565)
(0.07233397399239061 -0.001442489256119686 0.1089773538222989)
(0.005080674346054647 0.1192763718123905 0.6425329489959783)
(5.070295547310554 -6.300121427585014 -5.657825193561588)
(-1.610358502678724 -7.275697066070744 9.139414428942761)
(0.05123746252373858 -0.4135572695187107 0.00808541316460018)
(-0.7886188495295042 -0.2717784453249856 -0.8045543376417079)
(-3.872825521777176 -0.6622898254451263 0.888317425857843)
(0.2973032181237182 0.188343331134551 -0.320937852980116)
(0.001978219677196061 0.007556442082014784 -0.017326895410257)
(-0.04307385989954218 0.09899817640882493 -0.41249869294779)
(0.1537905406243214 0.4814390404763207 -0.1957407802600528)
(0.007281291641504789 0.05212998499809409 -0.02667782990159666)
(0.4267111636296569 -3.089019744034552 0.2677626264580453)
(-3.912894478718224 6.754086031546591 -5.088294036905282)
(0.3432982407855924 0.05335140439736646 0.1860721422498791)
(0.02351995061539163 0.008895160133924485 -0.001266762189942771)
(-0.001894819499104288 -0.0001476209041296676 0.006933755149545748)
(-0.7473697170885646 5.133769683222048 -9.080780798713862)
(-0.2114138406765314 -1.187918686370106 -0.5782189390467095)
(-0.6203175777678438 -1.512028594667703 -3.334043709410211)
(0.6345519699897777 0.3109534615345129 2.03756422949048)
(2.276440934601075 5.78663230606432 7.011132799720193)
(3.227911612894196 7.6033166099122 -0.09318909602770309)
(-3.107043457795597 -0.9244247162729322 0.3949315999361377)
(0.04510490843613887 0.009252249590374005 -0.05779701760620513)
(-0.8406550995967863 -0.06924612447637879 -0.04786250536079062)
(0.2259893015843681 3.420158004860029 -0.3914194797317107)
(0.04236962732365476 -0.05003757148016603 0.06406583620344192)
(5.124886129228059 42.74162616068375 -2.024271099423294)
(0.01266630891294564 -0.1020315709912883 -0.06377694890471902)
(-0.01250098196575351 -0.02404476745103103 -0.07091822454820353)
(-0.0119215713020147 0.007806941200672698 0.08791767484228205)
(0.02882721208635445 -0.09399951547076137 -0.01051093411680319)
(0.9180770269302749 32.85256695408594 -0.2974035729576865)
(-1.149164554915345 -0.6055837279500815 4.928103663137136)
(0.07203863395910688 0.03304875320474387 0.07039633297873144)
(-0.001654163231394024 -0.009151858574165003 0.002887437962989117)
(-0.06967112337691224 -0.04606493692204743 0.02288717883455323)
(0.0120908867037342 0.0152077169895817 -0.01426810843748061)
(-0.003275709824526407 0.0008906048713622468 -0.002080168308827861)
(-0.7879767494162969 -2.611081366156549 -1.197454719432942)
(-0.002352841064402326 0.0005392060242672557 0.002263126864813422)
(1.51457888222046 6.547290255557972 5.637179539986236)
(3.905141470466411 38.49547388127721 -0.00351929606405077)
(-0.5011787485811934 0.6434933215445666 -0.2576944234175607)
(0.05540231479847367 -0.02371772873857092 0.6122793382606587)
(0.1973611038768344 -0.1968420499415037 -5.909744154705544)
(1.465661600831521 -1.86416126801895 0.4626456241008757)
(0.7595706691450871 0.3289718749607612 -0.1041774395123469)
(-9.327321289895417 -4.731251234370419 6.341640904898111)
(0.3757015913823853 -0.2870713153712932 0.3750100150565874)
(-0.3176595821995508 0.7199068425019495 1.038755940547183)
(-0.1682584711283385 0.0502201189190459 -0.0197868303913731)
(0.05091754898419187 -0.0109507365021489 0.05035028338621698)
(0.04393583179976614 0.0125246352261894 0.02252127135974282)
(-0.1292124481260057 0.1259199932225787 -0.06370451097304575)
(1.636684460095258 -41.18109682995206 6.233068640589852)
(-0.1319193011207406 -0.07264351268010517 0.07184466527469824)
(0.6533047781236654 -44.74149858010085 3.25801313599347)
(0.3955161353569059 5.384634252727996 3.113561723771942)
(0.06133681071421877 0.0233480071428205 0.008407179688925931)
(-0.05934013486137431 -0.001525953553219161 -0.006407838427809169)
(-0.01449444608139099 -0.01737002924726129 -0.02224803442401183)
(1.094223676337215 4.062303224614109 -1.020235260286676)
(-0.01327878003311571 0.002430002742315182 -0.01015120065884626)
(9.44180464346411 14.8109583890137 2.339044058555824)
(-6.700945098622925 -4.203410595105201 2.413143703313079)
(-7.136756958782476 -3.552468908599214 -5.077152145053254)
(0.04151067697127635 -0.01217518152798109 0.01548913108253197)
(-1.182191313190335 -0.06172296843883121 -0.079788280708191)
(-0.1224166588700127 -0.02637339793482839 -0.06971902414324177)
(-1.139451202098987 0.04826205553272953 -0.3310442115095865)
(-0.02853435718405783 0.003723067403353347 0.07978401718777189)
(-2.011510732614361 -0.8149680131276337 -0.7159809079082645)
(-0.5649792199668976 0.2346389768457203 -6.418749291512387)
(-1.298876351831467 9.473127687237728 -2.112141846081532)
(-0.1171801192803393 -0.008228857820996069 -0.04212180375563603)
(0.9179080580093741 6.648882392330407 0.5179924890108545)
(-0.1863325757274256 -0.05100469377183074 -0.119167654919675)
(2.013066938138958 32.57125552968063 1.754146366300428)
(-0.6193677548666502 -0.1017656649319037 -0.7862408016762918)
(0.4152122629438652 1.360524882710012 -1.45748274223637)
(-0.09511735625081441 -0.006536895672141912 -0.01926565302420363)
(0.4909099689836927 9.801243463092851 -3.646528229176599)
(-0.121244237462858 0.2071470078776784 0.373833229691229)
(0.01137031295827348 0.007551596118160179 0.04484255255357008)
(-0.6410095241161393 0.06609925262412389 -0.4140097006375322)
(0.0149099412217306 0.04374185252808027 -0.02562611190394487)
(4.120697269262883 -9.724306504367563 -6.839937940463662)
(-0.1446017268083873 0.0083683795873747 0.2372852817395137)
(0.02968740424240537 0.009206800083144494 -0.0367009743522413)
(2.622414387746368 0.4131487728850431 -4.085044635315342)
(-0.001491989373910815 -0.006240294495262643 -0.0006109549483843246)
(-0.004100327471474181 -0.001678722311749659 -0.008607040922145252)
(0.3480391841407947 0.2138240122700049 -0.4717929732704807)
(-0.1029006632084204 -0.1747091471658945 0.3069898108374925)
(0.2929923333424649 0.1059850035999809 -0.1568823683193314)
(-0.007451712546926644 -0.0007899781397449328 -0.0007937101244981605)
(0.3048667244724284 0.7146457612047341 -1.422688708330514)
(-0.009575570536956197 0.002058982207822416 0.003649156987596205)
(0.1447913557665247 0.02993658373717313 0.020346624882076)
(-0.004512140146375644 0.0147241428090436 0.0319456740146809)
(0.9060272721642227 10.08673249144466 -1.077180472540659)
(-0.03638073385108261 -0.02315504709010651 0.03904372173751852)
(0.04222126538007617 -0.003315573557858194 0.01897048206724024)
(0.04098105203927359 -0.01216916748623741 0.03191294016140275)
(-1.202778825483078 -1.93583988417874 -0.003258781643231567)
(1.734457123959898 -0.09073797326137245 -3.969371900534067)
(0.1221190251336129 0.03804939045616056 0.0104569700827577)
(0.3347793965409745 0.1866691747327488 -6.869517270778258)
(-0.09283585190482337 -0.1525552655405781 0.02858347445328374)
(-2.564839190545523 -8.446846533379375 0.4256498534129224)
(-1.214060821518248 -2.837229161507631 -0.469804774021603)
(0.1214752651750945 0.03614026128516908 0.02016188870590955)
(-1.731153774084874 -5.765457127593433 -6.568726767563383)
(-3.161271331038279 -34.4731031531452 0.3949379925302621)
(0.01565416350832302 0.02025503446612384 0.02960932877780869)
(0.01435574121697467 -0.02237187298966121 -0.009041716824227195)
(0.006968365522656016 0.004429017947702165 -0.006339729861396586)
(0.6635720013101234 -2.267131134994342 -1.095028039659765)
(0.2379638254462161 0.4247253608038969 -5.498416476654736)
(-0.002942626063038412 -1.23087541208399 0.8023309951049987)
(0.1190725871885997 -45.81654103476308 -10.97553602035676)
(-0.3315856707196188 1.26590063352443 0.3682224570546592)
(-0.7229467865520283 -0.2800680284129304 -0.2717171959704984)
(0.7757782691544172 -15.49506303763354 3.967619826996958)
(-0.2666805140361961 -2.270970412071559 -9.391462715376527)
(-5.192994785845594 -42.5805051847299 2.789957561301682)
(-3.456593567599441 -1.693686471070831 0.9346371921401004)
(0.7612290178717487 1.77018051910329 -1.117780645645272)
(-7.900974535218653 -49.96761421485238 -8.054691265376926)
(-2.184028491944311 -0.7704565043091774 0.09816100562889385)
(-6.879768718939593 -37.25283307327572 -4.229652611304576)
(-1.512797470548597 2.674676749957437 1.060920051100569)
(-0.3564749099873976 -0.06193460608941939 -0.03051520078130748)
(0.4688704664217008 -0.1659174229391534 0.03566120504880402)
(0.01044705431065024 -0.1221274733503185 0.09285779710840418)
(-0.6208891760137654 -0.1746675438649464 -0.4563962774452964)
(3.440970683893403 6.54768781295597 9.131899867246071)
(-0.04832829596998246 -0.1048862886957279 -0.05262999396130456)
(-3.706099368172321 -46.77520024610659 3.34430565413913)
(-1.822962144232134 2.352833377560881 -0.8038277811076591)
(0.02883441363085576 0.07985033893134201 0.03202905184714692)
(-0.03428847910546972 0.006286464041275814 -0.007049536268224339)
(3.018230491398708 1.056607751013664 -0.5034984178582257)
(3.23337783031668 92.73844537306246 -3.801694340016275)
(0.5225601060305803 0.164630654920484 0.1481491318722091)
(-0.03310766611822882 0.01549798070789691 -0.01965337929979103)
(0.5182386950350417 -0.03189924823234151 0.03224839759602201)
(3.279806915826361 1.150518871115407 1.098742491478191)
(-0.02682054938502535 -0.03291325141558733 0.01236814749952944)
(0.00987667813200164 -0.02382808556980626 0.005035268079505353)
(-0.003936974963866545 -0.1464307371682336 0.09017837914272295)
(-1.365854351529203 81.19350200394247 -2.571938115684894)
(-1.560319884648132 -1.486492378690556 -0.3460295191874254)
(-0.02279082761502436 -0.009103157827433095 -0.06831125262776215)
(-3.873139765765666 -1.512278069253855 -0.1412568046662507)
(2.654427343425631 11.82418578164063 -1.209700191732666)
(0.01544401934513941 0.001497536243302648 -0.002467137690862584)
(-9.545553412237243 -19.1558955658462 -0.2310064660830445)
(-2.243800976995642 -4.413615996911417 0.9510013680726767)
(-0.09390467749881951 2.247264767986843 -6.009724367045939)
(-0.004508733308703772 -0.001168757252140325 0.005618210911674738)
(-0.1969767872551176 0.1899717000066955 -0.4015449497304075)
(-2.845754700624906 -6.208832612376732 0.07615553605494707)
(0.6562969882296144 0.4814742977349217 -0.9871353353386315)
(0.004661168006592449 0.001362702514371469 -0.0005849462658003343)
(0.04642682976900042 -6.052969071837585 0.8409347807004548)
(0.0004681147086632517 -0.0007853310386623264 0.001130638962146662)
(6.628745295053484 1.187633678616125 3.772908955070021)
(-4.195535833505062 1.415799864462985 -33.28476233441823)
(-0.02344856944433751 -0.02836145102360216 -0.02054390582559403)
(-0.2144041378864722 -0.6077436585896426 -0.2962679567842728)
(1.393193039532677 -0.1909825215473217 -1.100083344247564)
(11.50095737274654 10.29677938093466 7.427959164528743)
(0.5433363255837108 -7.11678252615613 0.429362097241357)
(-0.002147994412228123 0.005159307159481883 0.005484068348011578)
(-0.003691551495447798 -0.004667787170607236 0.001354190233808168)
(0.0340887138076757 -0.01774833507991841 -0.01625375754843804)
(-0.26763247566082 1.07244734815553 0.7617470485642535)
(0.009162152233999622 0.02418653155967072 -0.2319378555914152)
(0.3917219435758061 -0.271293228448182 -0.4780585363881014)
(-0.145794076315647 -0.5658710006220329 -0.02160659995020727)
(0.005100233248075807 -0.05511833639605274 0.02097260052361065)
(-0.9097414041859211 -1.969311121166099 0.4516272752138185)
(0.006502972950676698 0.01506521071565391 0.004957581578160185)
(-2.074181744975048 3.073250417907383 -0.0963783258589459)
(0.1050839555265613 0.01602903816839139 -0.004906466129582759)
(0.9378303415007974 4.158075728549477 -6.917919379870284)
(-1.021500521098668 0.6131940263708169 -4.861350398473505)
(-0.04739686505017277 -0.05779735808810966 -5.919704808369021)
(-0.5424271364638797 -2.10476374585943 -0.17320800258883)
(-3.398066987425028 56.01236688030179 -0.8491551078066113)
(4.298250784932452 3.721197030097731 1.139986591001942)
(0.00772985897836545 0.01760013168335686 -0.01072106229057349)
(0.02338239797356322 0.002390350992554759 0.003835421245200451)
(-6.346847826479311 -53.34015850361551 5.276896122237225)
(-0.3209349804576702 -0.2064320577785362 -0.02044530208883814)
(-0.04968420843413912 0.03352591221231041 -0.04782629209077228)