/*--------------------------------*- C++ -*----------------------------------*\
| =========                 |                                                 |
| \\      /  F ield         | OpenFOAM: The Open Source CFD Toolbox           |
|  \\    /   O peration     | Version:  v1906                                 |
|   \\  /    A nd           | Web:      www.OpenFOAM.com                      |
|    \\/     M anipulation  |                                                 |
\*---------------------------------------------------------------------------*/
FoamFile
{
    version     2.0;
    format      ascii;
    class       volScalarField;
    location    "2.2";
    object      p;
}
// * * * * * * * * * * * * * * * * * * * * * * * * * * * * * * * * * * * * * //

dimensions      [0 2 -2 0 0 0 0];


internalField   nonuniform List<scalar> 
19631
(
0.699619207289907
2.907083900126199
0.9372182845758757
1.375897501061167
1.011017704660478
0.3426821359042387
1.727183831778439
0.2143929158852751
-0.1019481857946896
0.5417444319293787
0.254822028728708
0.4276537176475553
-2.490917313907043
0.2857548878632425
0.3992558672634571
0.9461225831367865
0.5262440803353111
0.6982577058304357
0.05103220177074257
0.2015391426939646
0.7733115798835922
0.5036511291815253
2.339697987503476
0.5607391147136529
0.5609031549198022
-0.6994513557273492
0.4189458955957379
-0.2389776354094656
0.7547262537330451
1.891145570918449
0.5000288726407605
0.4677142098927596
0.6648522859106059
0.8857903104129415
1.913584911160275
3.195148249790209
-0.05713830686698301
0.9379205125926227
0.6695913295298074
-4.854594104107189
0.03672679630753987
0.7198543954002052
0.8249753074840449
0.7836475833778809
0.1870378292690558
0.7907083796389153
0.6500527801930966
0.6911605963442098
0.655210966606785
0.6018266839782458
0.3334612192659587
0.07742262011593995
0.5514069667525843
0.3132720893363757
1.031290353278094
0.7874776378273525
0.6498852931299582
0.5191742738431874
-1.129047854988067
0.5479391019060019
0.4407993892822212
0.2677407639156899
0.3863669331970448
0.9095865652960011
0.4776131284057402
0.7173816113755171
0.5461696491568717
0.5536770829116547
0.6908701481590227
0.5333217063490947
0.5486408680342963
2.219227258368993
0.9387155664592809
0.5020587524402997
0.5790959229856455
1.282688826446208
1.416749121077427
1.009501750742375
-0.718305888956198
-0.3172985745644311
0.7402455548811767
0.8368606506461939
1.14387560623361
0.3664463001754804
-0.1364951869544839
0.9003138866500775
0.6085601713442051
1.090867237506107
0.2755436625006194
0.7949566209647615
0.6723741549865199
0.5632528337329277
0.496642378184786
0.6087173475729856
0.3762200498965418
-0.4576381183620498
0.9960696427160342
0.02618292283671925
0.4046283658067494
0.2999229009934439
0.5169408101943679
0.4125521365621319
0.6171614482726243
0.7302152738407586
0.3529258428053684
0.1183522138604775
-0.4935803179552928
0.458757944443194
0.3731074176433566
0.5480154299033403
0.9920347760977134
-0.278729933511516
0.4610967406845009
1.734566440907751
0.9684414304357213
0.4147605533161726
0.4011884531329123
0.5155143427037789
0.6052451257787976
0.5960410089227058
0.5194392094475404
0.5202463655033028
0.4683660997640941
0.3926510756661055
0.4403688751394541
0.5406687200196529
1.393304027445219
0.536976214307132
0.5802754425881375
0.9363214110175926
0.3821635412694831
0.8865848990938267
0.6422540728122518
-0.3168742594447712
0.9225965740307763
-0.6188199867524032
0.3209070243668186
0.4129380369824282
0.1578120712161294
0.8519389931074981
0.1658239119272702
-0.6562153365647956
0.5253762288124894
0.9220587224959715
0.6739687621559389
-0.07404951458139934
0.7282604049450953
0.738238134166522
1.161544707475783
1.051504932138576
0.6016336481255778
0.5637147082759867
0.5521787728756498
0.4943481252691079
0.5617178215649515
0.6661519230417824
1.457548111216447
1.267099483400162
0.7504114228932161
0.05032864060023009
0.6155530051118993
1.199626882076594
0.5463171061652515
0.646855095541815
0.7560203737819249
-0.1630675775446116
0.4772552391828712
0.3726962651321949
0.07586398083748323
0.7426140501915032
0.6141809354288837
0.4945059446408072
0.6184162176741496
0.5531987207896248
0.5497724015853014
0.7069385917329332
0.6196582207531625
0.4936278677834842
0.6188677576986537
0.3237253201992328
0.5967872536602413
0.4900113308586249
0.3779486443273657
1.529128381715659
0.4747556483437003
1.096035834153048
0.6763518419946775
0.407190059442136
0.5575182163829809
0.5199364372759335
0.5800949362158702
-1.641538454750412
1.069598839309964
0.7164615484902869
0.5266865417108734
2.008913841170105
0.5612762072071834
0.6970447745719307
0.7907157056631591
0.7650753926178613
0.3516143775704175
0.4003053849633023
0.7469525833212864
0.4074138988103669
0.9347949798172567
0.5156997399129679
0.4789098584264023
0.3679267084737404
0.8940152858321047
0.5496393547316898
0.706148583284867
0.4827067137940392
1.475491708928302
0.5323741049751343
0.793394846060861
0.3805283423658574
0.5502637086412915
0.5384241872286463
0.5623419403181673
0.1566888502681685
0.3961400727439621
0.7309023605201519
0.4427027486801735
0.8342364668683383
0.3494845462168962
0.9125591746202649
0.9007683870648667
1.030361214926791
-0.3529065291774764
0.7841509616773669
0.8575844027060493
-0.2960425857836352
-0.3842305458654693
0.5979340379499682
0.08232103586297242
1.053243697278092
0.6826393691105052
0.2573445047576183
-3.173029213628848
0.6666461357247231
1.208276182058327
0.3720862730919223
0.2119502557298965
-1.663303041507979
0.03747441070569443
-4.44409510382203
0.7591419774142738
0.6759224811498565
0.181687698047035
0.7419680531848257
0.2861927319935338
0.1486816823431728
0.8838617689520016
0.6007847180110948
0.9415625130125806
1.697425159009805
0.9660356586217865
0.729414321993777
0.1216915986019279
0.9634684696846479
0.9057307770312337
0.338715470727575
0.2887160010017891
0.5523249018822133
0.5806632383050262
1.08766147245329
0.8902974962939095
0.9029237609664807
0.6746164588030301
1.547861765061768
1.078583340278197
1.14439931050468
0.6579321126515899
1.195109056192182
0.5980738669982637
0.4580368977777097
0.9254401207361834
1.516996069213578
0.1862323571888935
1.323932165704467
1.044906582358025
1.094094915106929
0.8053828184427854
1.508055580219457
0.1410386023986179
-0.5094705391357124
-0.2283873281077663
0.5937180337215174
0.7245335116658473
0.296876579301539
0.7239161513229084
0.344592065209434
1.191169201542549
3.802456664639714
0.5472540285392025
0.6612270019734574
0.5106368070507031
1.459013464445827
0.9627741206919944
0.7107243147570997
0.2920568918330332
0.7104153870735934
-0.03149724334985601
3.123489147364265
-0.3846537984546488
0.7023759491091242
0.2430831648160738
0.4395424380387566
0.699124733297856
1.229865318217692
0.9435959614823007
0.8302024058817521
0.7903237465535907
0.9459466403056365
0.648950114977401
-0.5041711873529846
1.349994345043377
0.762606058137197
0.277601864538311
0.658981386886898
0.3923415980046484
0.7007030415181316
1.258535888310522
0.7939451325029468
0.8770714853091008
0.7707483042989876
1.709600955210327
0.8871819548158864
1.25726500896641
0.8469235216281148
0.8132443517955591
1.590787437615201
1.257585805709062
0.6029807440442974
0.9143162897243023
0.6334242624540931
0.8396399016943746
0.5686348889647316
1.460834612202443
0.7596815903546852
1.979047922651328
0.591303466233835
1.031122325902317
-0.8625005185610737
0.2749026352966653
0.7236227406592705
0.4200614035781134
0.4997532607814921
1.078841921374254
0.4926781429984893
0.8984039128379876
0.7159078695291484
0.265533630881833
0.7311949952478234
1.209989519197778
0.5530165609482364
0.6686030628262363
0.4869210887216203
-1.496870899789622
0.1326070296900304
0.1918746914196751
7.982114237044905
-0.1366654603313967
0.8668481760601087
0.6760758743084375
0.07461513697038981
0.776354727739585
0.5689960700027074
0.06936760877345824
1.190508741661066
0.7759513551864812
0.8316129094720599
0.8962997522744751
-0.2207866381436241
1.871278144492628
2.425425258898794
0.7268588721070253
1.581160523987698
2.20539499754886
1.069370370591463
-0.3848036017666188
0.7505486800672344
1.605160620346686
0.7259208183725621
0.9140406613581976
-0.01498910975603161
0.1795201593607412
0.67113805166277
0.08635756956888575
1.027256886659926
1.069745057784147
0.9083500997377005
0.8321190523392394
0.8177055531396351
1.537582603600322
0.5778059247239883
0.9375254504355004
0.1889316663885323
0.4032010058675408
0.318876175100796
0.5779178573035785
0.5511808685070473
2.382523566305117
0.2511191163489527
0.3819094208252448
0.6570594848930938
0.8378826935456568
0.7040288340068195
1.066250849308711
0.384438408997036
0.9320083551092865
1.360299472476437
0.6411524680929811
1.18420816486445
1.886481591872902
0.9058031673729869
0.5937734675911688
0.758417389316665
1.110102103507946
1.151577677390753
10.77099819087534
0.8596760839374439
1.139407207161303
0.3357474522925185
1.031150921224526
0.4108661636133891
-1.140193133777071
1.28295374923837
0.7036099581615962
1.054180547548125
1.162333325355075
0.8153777211307967
0.5618330379442605
1.0306419375981
0.3313900566328906
0.6314232406270384
0.7184489767546203
1.030584515469553
0.7362880843769866
0.6679538866106354
1.180332630118659
-8.229786367013737
0.6083467778419459
0.6340320201684656
0.3022376947006234
1.690962456345696
-0.162260646890396
0.6515132531471147
0.5029704882834726
-1.299256222536658
0.9586231376741282
0.3766625053496362
0.01578747362626257
0.7515873635754887
0.8777060659245358
0.649077383476609
0.9277640059734364
0.9512245836187546
2.417546677131237
1.31832990924322
0.6141295316594768
0.1707661205081081
0.5194195848339069
1.415768714477332
0.6721950335330532
0.4712780106151772
0.9148042207409078
0.1536204796692977
2.292335793007503
-0.1487961942211172
1.107329098052775
0.5714358345418032
0.7756560229086974
0.04381899275604215
0.8151461629397112
1.821325340805284
0.6514968684283383
0.89802429587891
0.6936184058199126
-0.2491738357279487
1.421696454155102
0.9822401904733382
0.8354851299642457
0.04723354333448559
1.405364108247774
-0.1449417940161469
0.9549490336805795
0.347595125164685
0.9759830570050498
-0.273570367592015
0.6787338252820152
0.4433083787531806
0.9881264775414104
0.2225743702649525
-0.3181739097336378
-0.03167126339097235
0.7757818623682282
0.9035105741627982
1.053762241912052
1.066020768105949
0.8295558837472469
0.614954719779005
0.9671968113138735
0.8992806037897555
1.313581422399702
0.6557889054036748
1.042133824855849
-1.631462625989342
1.139979093475112
-0.1751932942740636
0.6929993291862135
1.068165420170945
0.9774361924310137
1.262050616383861
0.9669768313656667
0.6797538486971223
0.07048690474832212
-0.07593383591678975
0.7044929742540598
0.4439666359826732
0.6849611607059339
0.7378374664070952
-0.4290458358647429
1.015182544184748
-0.4664614415664188
-0.3456233365634081
0.9784219721368684
-0.3150554473792184
0.9208409743746802
0.6769211653782337
1.775267488525611
1.670745496756331
2.730021232088496
0.659534912535628
-0.1751036558662743
1.145693444740099
0.02959841346315973
0.8497491156805237
0.1796563818493451
-0.2039539822408845
0.9981882886183175
1.17950656907317
0.3187633981488252
0.9558157064735936
0.9502033844037996
0.7023181066042948
0.7119216698771146
0.5840889064506831
0.2479173521591816
0.9320421983831959
3.855290487524095
0.7220944195496333
0.6860996656589198
0.4374984407956711
0.8077281064998406
0.1923966474617251
0.4463766937069936
-5.046172637411325
1.074492531680626
0.9129146672672729
-5.352371859547241
0.3142515835204481
0.006240277570882377
0.8003657554297505
0.1160018491138912
0.3312596724703938
0.3918321634469331
0.9334724944191727
-0.2513458190150288
0.4450320850586632
1.018103926359694
0.8172587038806287
0.8119036358910919
0.6569551154517383
0.4322860731142312
0.881924924693653
0.7226794751947961
0.470101344084449
0.7267655363590187
2.321410859168609
1.168337148846507
-0.9950383323421159
0.4021858086086672
0.2076612327689533
1.089239469402448
0.7408608578803263
1.581815442008391
0.1771493942023984
1.142288720720047
1.062859228253355
0.4655916054590619
0.4282153237228308
0.1205271896380501
0.5624021636134616
0.6411787247686175
0.1792392491757951
-0.3261345081542181
0.938586005889502
0.6876594291087067
0.7828471340347837
0.5614073071037703
1.199522590615868
0.9206052472224082
0.7845142116428299
1.50535469006621
0.6588676568769865
0.4786386069146954
0.5443475179977285
0.2357832480392281
0.8273325384361326
-0.3128920297327541
1.144178697727984
0.8762871645108342
0.6913510037224487
0.7134729900816247
2.542413754705168
-0.1681556839727456
0.7343969135108345
0.08776368068878754
0.9790467699531828
0.6405149013007855
0.7082982363160502
0.8909376420397087
2.758334661190816
0.9205320819520961
0.8700074746018402
0.9606429886318131
0.4963502729435695
0.3099366455443951
0.9019662210645534
0.9609496084964072
0.7794155016283807
0.9881493872782511
3.161823992667312
0.7407624269186254
0.9890343796934434
1.377439211591069
-1.013092062494284
0.9698125245466481
1.263327678437991
0.05866626340092335
0.7247759441540813
0.8846375560457754
0.4831647712550596
0.01409578701897257
-0.3148394589380859
0.4462831641615099
1.074741090680614
0.0704310383424806
1.007183966316195
0.004599703999538768
0.6584160214156289
0.3847141482153138
1.223173509244051
-0.3653606644288135
1.014330962415201
0.4821525974701484
1.730215367046701
-0.5419800705512369
0.1897079502887737
2.237681984106971
0.7977663827858141
1.366185740198782
0.2690328327265499
0.8114656946335117
0.6797766752778084
0.2697131913903298
1.006674995612397
0.8002969811906461
-0.5353368492456028
0.702201847791963
0.646219697952052
0.1892324353297038
0.7650165690724482
1.925426390687023
0.4137345348233757
0.3600266198215812
0.6361902803742099
0.2092257319026016
0.5101445347806671
0.9337164028290383
-0.0188926995501714
0.4060033881953554
0.3220922553619248
-0.3827632851920369
0.2661447772478423
0.6220903542620092
0.7669486514607042
0.758505419751995
0.6852304848376818
0.7181021678790631
-0.1102829943469795
0.04342060803666841
0.4977309421048626
1.129278510450795
0.6603035699078262
0.8110866797286621
-0.02867088724777981
0.8644648088934372
0.8496536181768374
0.5009207537628502
0.1558837388726937
0.9471498366664192
0.9167753237586636
0.07126108902766973
0.9261677631543156
1.782106364533008
0.5206423250789527
0.7265531212341907
1.051152537810517
0.5448820992047868
0.7149058472632716
0.328137193428624
0.7505086503597976
-0.08456873124847289
0.5997495950083339
-0.2092265813260172
0.3839015578605192
0.6865096251109006
0.3160415152464494
1.069026112125265
0.8392959847391166
1.531804938213535
0.6715280237596021
0.8115358754501344
0.2897464633462913
0.842566532475911
-0.5696824134677488
0.6095987214564766
0.5327151683420238
14.99726593595543
0.1323179706438311
0.3580723343598642
0.5752817553671993
0.6242129811801602
0.5060669443549022
1.354951865416527
0.748622146101263
0.2510831041901092
0.7258312145561233
0.09984685133124693
0.7914045975241403
0.7709510446001572
0.9530554572448899
1.231125882609745
0.3016383206902767
0.4886173447185417
0.8659025558024048
0.3267707858634141
0.6289105743332487
1.051575847040042
0.2949485113594968
0.2570692741949362
0.3958182917568973
0.4941563399453036
1.033654671500642
0.2411289231937272
0.4392938019987742
0.2321688019000173
0.8574870957637691
-0.3460839881608024
0.3591090474234686
0.383073521176569
0.03133196604209846
0.5499892430305253
0.2469015464815318
0.9474111324617298
0.5870345346957079
0.9669816654105957
0.5270116361410768
2.026028068922475
0.7041862938011312
0.6458783741872908
0.6158207035635017
0.4862449262096223
0.2721417050173789
0.1718561848066765
0.7500691737379529
0.4601027656782753
0.7896599677347725
1.01173765663459
-0.05126181761559709
-2.271195979620552
0.5763190683741669
0.6137727077640079
0.5637726047503537
0.5118710208321264
0.9108097399072738
0.3073945432600088
0.7140256109010004
0.2257009702437969
0.7738767861444105
0.4015405100864072
0.3273933658140261
0.5998431436267345
0.3451182612044796
0.4415256845517129
0.2702797511517511
0.06190858440510873
1.23575038355636
0.6835043586776539
0.1989742592332494
0.5786199657378469
0.5537379819997289
0.4031264524952278
2.477735616258235
0.6241663425792748
1.766583860452392
0.6569320496097645
0.9464390381024366
0.518435642459444
1.461551510316679
0.245633624276889
1.208363162312265
0.9556662999948276
0.6129809498175517
-0.03320331370650163
0.15057974482114
0.1664996967992588
0.4844922037411515
0.5582528065959996
0.2272510634876138
1.252045717361455
-0.4017187140441362
0.05524277972694891
0.2821557182784308
0.2751691315829807
1.214949381979128
0.3508447353473891
0.7083043144778012
0.487321733077717
0.4039116360749302
0.6761647478627467
0.9656594339261579
0.5112728791977468
0.718200584791454
0.7769029491590497
1.141461469220176
-0.1126857861681113
0.4066873794649753
2.131694295151794
0.481058908675346
0.6313987695984259
0.4353220433665997
0.6519691320758932
1.165147411979987
0.7331822403051387
0.6315281287349341
0.2249039165755081
0.4033141025268032
0.790054364543361
0.591973560778872
0.7886173256719452
-0.7919826533998576
-0.008924426112533392
0.8917793492283265
0.4029494786423118
1.850781465826721
0.5769868398993
0.2820320456142545
0.6244746197928592
0.7799766722393618
0.871810247622785
0.6590872377332725
0.7403327236100095
-0.0948328645433114
0.4770276032624107
0.5865513732701074
0.877236843364068
0.9338834915811048
0.9059798078295013
0.4964383072448402
0.8718371001464029
1.276427635577476
0.3820722364252362
0.713068568254935
0.8994877651611752
0.9635942691087593
0.09366769795639922
1.237527071202694
0.9544044215923262
1.713129998858949
0.2637232974776104
0.2673059615252819
0.6887019192355219
1.149477074992204
0.6694118848234055
0.2773114819043984
0.1090185702977074
1.257293942554924
0.9782211672342795
0.7490765695039958
0.313978796618641
0.268424059075869
0.6535372447342634
0.5263329035811427
0.5717058907645393
0.6443625185996728
0.268498773596811
1.624038662735462
0.4206001045091493
0.6938879939664224
0.7902517990098369
0.4223395898126285
0.9147812701487205
0.3190499305697311
0.6884452453611052
-0.224374548190186
1.164961016336028
0.6163358895118722
0.4174100022636205
0.2113552215152573
0.7640912367464592
0.9344225757452039
0.7020881749235751
0.631552307898927
-0.083566658239554
-0.6968067585948011
0.09061759360473218
1.38354392517951
0.5143000402672121
0.5566323014450365
-0.150261561230102
1.892240068675745
1.931223418222247
0.1889681684939275
-0.3607168332700769
0.739948970849287
0.1210813327373585
0.309331205623306
0.6456156176647019
0.821044416486474
0.9781638381477841
1.421342638404217
1.10701398778481
0.276699888584435
-0.07322900491638572
1.048214308512224
0.6412620476687138
2.024309071673351
0.4587742345993427
0.7125844914014703
0.7757083402167952
0.303943745679426
0.9205868092284708
0.7516141975620552
1.174697040518197
0.2920093860741116
0.933255981077772
0.5126274727145151
13.29009983185019
0.7452176107077535
0.8056976958382167
0.5900432992488716
0.5148044974097886
0.6176892131782977
0.1513740715773537
1.046023156455779
0.4241215155681785
0.4963469213162987
0.008319668753289287
0.1416987867140305
0.5543985792052503
0.5476619580084784
0.9905951522536711
0.1778430334126584
-0.1898394589607444
1.032938310288828
0.5612758025500267
1.107815424346343
1.017758058686662
0.9889106767435665
1.564032955264284
0.6171914188371296
0.5724125817743464
0.5089207482434797
0.9225218525935343
0.6595500898764525
-0.4633865383946751
0.9906788492646578
-1.269062582973189
0.5454628366440167
1.059292082848231
1.294957084104837
-0.7710034595732715
-0.8787932510232381
-0.8936826806922911
0.7563387031897023
0.9674266818403344
0.9575530238993982
-0.1657471943877231
-0.5379276920225944
0.6812438148915022
-0.2810725179726627
0.8391514517261912
0.3116040141231766
0.7058065607822451
1.14563290040902
0.501128987037057
0.8020794517650575
0.9354545631700758
0.9465077446163801
0.5274355393426521
0.1568386127574001
0.7686845810089602
1.811597842590672
0.9946207724621816
0.7242184441319771
0.8195462174625467
0.771481267234312
-1.161886452912827
1.009819317998456
0.6078492404204533
1.024505451315129
0.92968380425527
0.1735940052902011
-0.5287998198278113
1.354299788380238
-0.4802031898277258
-0.1947552075209514
0.7706497975016211
0.7198495919893408
0.635670891084824
0.9620893751578204
-0.1824971656963544
0.3877878104903085
0.10121405963517
0.4311518414799853
0.8078434919926757
2.409098605039305
0.893924796517696
0.2298362787393134
2.6749025370888
0.06577615531410201
0.7647519447611087
0.9447938586781045
-2.056476811505628
0.6222325541962134
1.133040374233741
1.973681061919173
1.100349976578708
0.7371185229040388
1.07664245720038
0.1279591041068403
0.1033729016005647
-0.1748820331072753
-0.1538374447121553
0.6595601303244765
0.8251355411785432
0.6896004668157341
1.38311302858772
1.053818125269469
2.185915424959784
0.8815491186735668
0.8835909978540136
0.4805794862045353
0.4275609273497289
1.070707175694752
0.6025198849943748
0.8083892135703565
0.9791423176329653
0.006934738559647294
1.904259117181895
-0.1806876935765523
2.59600805159391
0.09388235173978732
1.988377211376812
2.495740296454182
1.103874253516899
0.7676627765579151
0.7658867305967004
4.668823528854716
2.678329370708941
0.2026000945575426
3.85066051745974
3.883888035122507
3.612042313422602
0.09101408814096656
0.1127452123514052
0.5676037275504064
0.03115710226151894
2.63909981173886
1.073677467356809
3.178688548976186
0.7979696080600878
0.734714722759283
0.7740127738127155
0.8057231850583713
0.8158947154979516
0.7743119554827194
0.703071700256956
0.7481356364837615
0.8123563655760835
0.8018589763156783
0.7089668986605591
0.6628851070931427
3.231729799747091
-1.48829770937525
3.476490507962915
1.110008464554208
2.774887763969235
0.457024485039345
0.1821875988445456
0.9897973657813836
-0.7470951283108226
0.06450855974435782
-0.5206056369802678
2.545555242446396
4.158683076437087
1.163737433288082
1.598699877574019
0.643427196780107
1.835295431486369
0.5121075148659037
-0.3214556143314711
-5.049897606631714
0.8072049790405693
0.9899588254733513
0.5598523492861632
0.8310049535858626
0.03372967305518517
0.968041457522238
-0.4908370201951044
0.6319781066812011
-0.1149637875599383
-0.3902542772955796
-0.8738286724836121
0.7039095737320973
0.6041181403916958
1.081439707952628
1.063992363901279
0.2668990026656844
0.9548118952924088
0.3974579956195186
0.8556414265737388
0.7504827268074402
-3.288996416224323
1.09732461999388
2.0300522126077
0.6109898724766049
0.1529209515086208
1.535860116313659
2.062409210207053
0.9663377474650972
-2.016513351852402
0.8819933167560421
2.471184397790099
1.7257612654632
0.1004043333526747
0.9172416390219915
2.036691633897553
0.9598430747651314
1.780669001034549
1.034014055778194
0.783658137876226
0.8459074066739967
0.5575691912714255
0.7907970582028577
0.6040164533680624
1.048311643001902
0.1183736197373722
0.1472992346834062
0.9476479238766032
0.9720013111244842
0.6450825806848927
0.6886169303662568
-0.02786788161303726
0.830535866540963
1.12108005364976
0.8045577774994193
1.006110422329968
0.369979572543384
0.8933546203334733
0.7106946926906447
0.8957351226427773
1.04253596136601
0.8076837147064515
1.212243070623349
0.5372589311306231
0.02357365347102885
0.6427384523513764
0.6673644972890366
0.00342706494914962
-0.2055778844673829
0.3603911952406934
0.5973620194786592
0.9070791126950188
0.2083105361452089
1.078757958953933
-0.1139432512948464
-0.5454190499765675
-0.69254046019093
0.1878705868657912
0.8529769177567124
2.459296767217013
0.2947885085945929
0.8211530111319295
0.5063349390325018
0.9534144921245128
0.8428513018757308
0.9035479825458828
0.6090410769810443
0.5049913408976191
0.3497053749510537
1.108148004676863
1.391882958852609
0.8329509295151439
1.604868606022214
1.183554784434968
0.7142594729987927
0.7776882012583898
0.7980373115908065
1.136133295013045
0.4845804821074259
0.6793034926751701
1.251743811364703
1.797895984378997
0.506063125318019
0.6547668070703213
1.04281390369818
1.000420156015371
0.8933250462919937
1.146906846674145
2.532859369999663
2.047263482363066
1.743312379910256
1.115115487247821
3.164393396319897
0.4507967380043741
1.179758151227759
0.9868471343973872
0.820347543637757
0.9139862294745043
0.8424637913239983
0.126256554112029
0.7337884009089916
0.5307861064326401
1.185315557067955
7.251763574235093
0.6474435347407181
1.181939502941889
2.544417677967565
3.754071951836792
1.232374041390321
1.325456959427159
1.437170102127179
0.7724905250337363
1.021168950621455
0.7143883038746422
0.697461163352128
0.6787121201417808
1.249042641142857
-0.2784344895068565
0.6948660101584437
6.371929587966132
0.6869075954809611
1.234753192727516
0.8305642942557734
0.3850108177801281
1.151500848650151
0.8455280921246144
1.022782511379659
7.982550269341169
2.241417725721552
1.142977800649499
0.8147487066807798
0.6896267063415
1.220659888871776
1.20631698560162
0.9849286106743372
2.413265515081087
0.6721586832650941
1.433450506237968
-0.02281630285533502
3.846950444593493
1.293682147879127
1.698569839884555
0.6283747340612985
0.8048677897734272
-0.01142748935816259
1.149830423359767
0.6831168664356914
1.495959501307277
0.9746430668384223
1.352574340610947
1.085437402901775
0.767894888156093
1.238943664418929
-0.04983184444692545
0.5227515489094283
0.5709514692825753
0.8104124705022132
-0.2342201917120486
0.8138842897412838
0.8798301832978841
0.07233091099801239
0.02391562465686715
1.639743046023769
1.053299994509333
1.061020084658423
1.127264161785128
1.131252074968816
0.9106191706651208
0.7215492319296468
1.188281616841077
1.392324897551159
-0.3899989566101559
1.126868809374102
2.653118323487391
0.7182177896733025
0.7623308701865654
0.2441889795321887
0.3939511430843076
1.261303151888022
0.9696114160908728
3.388830667480633
0.1973967060040062
0.7802041115643937
0.7179753912270431
0.6837016046767769
0.6302921558926794
0.8925512740914914
0.6224098124187518
1.274446440175996
0.7812346721181501
0.9003556390728128
0.7865809041303664
1.398360301157756
0.8602419229370015
0.7094712210416262
1.118389259613002
0.7480786783718523
1.219447764976434
0.9034592937091853
0.7106889200818709
1.148406971804686
1.233034501460599
1.033682063199575
0.8424779111235137
0.9539991236122987
1.106552554260256
0.43520200636915
1.217304421667606
0.6235896891473732
1.175831359883034
0.5976250782211439
0.7596878276343453
1.063639113049285
0.7249787759637834
0.8497535672809199
0.3381240729916288
0.5626433058517578
0.6706273934299316
0.6121934798805237
0.6556684739692655
6.326702076756251
-0.02935601565743999
1.080006833515303
0.817716426894069
-4.03215126988476
-0.2498503148009394
0.8526829549071797
1.173714352310589
0.6974867795162755
0.3345668444811288
0.8210013503647232
1.20415504453165
0.619699397680012
0.6385318053220549
0.7620391900947363
0.8275453329320877
0.7213043678412746
1.17970006561138
1.134571108183093
0.4707411432312062
1.154045180938796
0.7625605802313373
1.088863283544954
1.043753036506092
1.005101499427967
0.1760617710164853
0.6022838781492796
0.7577578063457789
0.7415368342815236
0.8857017598220839
1.043017902213629
1.009964439432142
0.953314853201895
0.6989713183191784
0.6079996917085165
0.6253999075871887
0.6523342700685761
1.215931235898576
1.276349871188009
0.7731327238332498
1.079786078400935
0.7554637656029347
0.5792916565546238
0.5894940306289924
0.5021959278071213
0.6089335602028293
0.781982874714799
1.005608102619146
0.9296494221268313
0.7112678145084586
1.129926128572238
0.806566127593313
0.9055249674011395
0.8252745669953271
1.103526144362842
0.5757419261124823
0.921482367400177
0.6541817127783718
0.8952323135484813
0.9045549397749555
0.7605602264418512
0.6387460730343064
0.4900384706193979
0.8590443093593334
0.766878711730862
0.8840941234211432
0.6830448817524456
0.9669031031170408
-0.9993841990955332
0.8711742577556826
1.617277328279453
0.8160939582775812
-1.31296653819723
0.8954349643138344
0.7232404479915435
1.588396256317622
0.8188627594454256
1.086688938715586
0.4184400168168105
0.4411230948121206
0.2821356781026856
0.74132802716807
1.022487740297808
0.6882394339736285
0.5676169440452861
0.5591523453568394
0.3847693624961382
1.262483706765531
0.1005830300077571
0.7871369623206561
0.843770493586781
0.6369735625528699
0.7472470670224619
0.636247507822322
-0.2439450941233334
0.8096129296674255
0.6167873954190122
0.7407376311594901
0.9270692293470046
0.6512149704473478
0.8812035877865289
0.09086981673431092
0.9194348178818808
1.445146835527408
0.9476586544152864
0.9124419219561144
0.8329804302394831
0.4890798288004718
1.058648413740082
1.875211654403824
1.717986627889674
0.5552391059949053
1.014207459268487
1.192642387598793
0.9002359198017141
0.836800176406577
0.7742714630922833
0.9105810653505786
0.9159573013181666
0.4836779162918889
1.699411224410266
0.7498231251447313
0.9842502449014262
0.8366198033465948
0.8339062353206723
0.7508970805327446
1.245474983482895
0.7068789888106803
0.3911659340634931
0.2478475308075197
1.17438682846069
-0.2651123888646879
0.8025832172379513
0.9837971878868043
-2.090929237714028
-2.183614260329235
0.9866258700707279
1.313920695592733
1.261524101306159
0.7236236532858634
-0.2152642823309857
0.8524222744514851
0.8531542498167115
0.7931926715488185
0.9784737284146158
1.052080033774265
0.8467084031023029
0.02845618146773184
0.900169947788395
1.227147021462229
1.001981875738791
0.07682478663397947
0.6834381011889392
0.7812902233063563
0.9062576333629297
0.7647116345437205
0.7111689331818359
0.9669883999215305
0.7815817068175501
1.079355638406021
0.7393487604605324
-0.2196188486153451
0.6423594274920427
-0.2500779017712511
0.5452787472101595
0.7256393029562472
1.105896972743917
0.2618325557366481
0.836670502465916
1.123412663446872
0.6478423674711773
-7.461015796709559
0.4836338136122228
0.8275216045544764
0.7436026354265727
0.5884332124614372
-0.03436176719954868
0.7586290348183856
-0.41963626361302
0.2005973801678922
0.8393932248845883
0.6808472408973936
0.1387967744079344
1.008668736975816
0.4591754241847425
0.237938896977548
0.8243951929175465
1.086685786739898
1.09782355058143
1.260588116705185
1.073561164035705
0.6812998656129784
0.8503099832279007
0.7731644334063397
0.8328420750728498