/*--------------------------------*- C++ -*----------------------------------*\
| =========                 |                                                 |
| \\      /  F ield         | OpenFOAM: The Open Source CFD Toolbox           |
|  \\    /   O peration     | Version:  v1906                                 |
|   \\  /    A nd           | Web:      www.OpenFOAM.com                      |
|    \\/     M anipulation  |                                                 |
\*---------------------------------------------------------------------------*/
FoamFile
{
    version     2.0;
    format      ascii;
    class       surfaceScalarField;
    location    "2.2";
    object      phi;
}
// * * * * * * * * * * * * * * * * * * * * * * * * * * * * * * * * * * * * * //

dimensions      [0 3 -1 0 0 0 0];
oriented        oriented;


internalField   nonuniform List<scalar> 
37423
(
-0.1134933411864871
0.4189820568404236
-0.4542843262670565
0.1487956109196708
10.42722582992692
4.829681913941558
-15.2569077383488
1.55699778318264
2.847097513501376
-1.483486753892636
-2.920608545074782
0.5645983305453672
-1.101551060092803
0.5369527229448501
0.1148802154677488
-0.1667684067994848
0.03007363140118261
0.02181455892265933
0.03643325613422366
0.1574355458048406
0.3053691909149409
-0.4992379967327182
8.854871628916987
-4.015744441210263
-10.89277707019945
6.053649882191084
-0.03714796339268074
0.0391480115363477
-0.0007291852273375211
-0.001270864813005304
-0.1681297432718102
-0.01410065476581072
0.3120775919277108
-0.1298471955680258
8.612237294996039
0.5877182386314047
-0.4246864367373156
-1.439859703570698
0.4079597037475118
1.456586434825837
0.2889485935968976
-0.558926504801767
0.7665264875782382
-0.4965485835485919
-1.066204562693893
1.320597551254419
-0.2543929908880632
-0.4710019875328333
0.4857359651029577
0.6136607214972636
-0.6283947047238776
-15.87786612317748
8.53478989772055
-0.05669886911710124
0.004799864916097739
-0.1213060686598605
0.1732050713977525
-0.457868915313584
0.8025847588087106
-0.05576725300967234
0.1890685551489052
0.04740638564552838
-0.1839052168164217
-0.05256972639004928
0.09845939879222883
0.02485692554446889
0.001984855865261957
-0.1253011819297143
-0.01733971849284363
0.05419423852111931
0.02150413957713735
-0.05835866137713513
-0.222819202049431
0.3753443149353137
-0.4204807630238143
0.2679556488187448
0.4060047398423876
0.6770628549960426
-0.2609963107271519
-0.8220712891278812
-0.115307469093355
0.123186088880568
-0.1093586067571578
0.1014799854080454
14.49595232253662
-17.37344366230987
-6.201367368555777
9.078858722152386
0.5923024833198816
-0.07810114561393401
0.09652578707224116
-0.6107271254687646
-20.48974510111436
9.322485866982626
11.16725923493625
-0.2051295197543098
0.1559703341752874
-0.4087097326099412
0.06896145578294277
-0.06969448373765055
-0.1497497112393418
0.1504827377706854
0.1672646334048413
0.01039817504942908
-0.1787481682142764
0.001085357124806593
-4.33550591690929
-22.03164402362543
2.584225246009141
23.78292471518519
0.2143457298120312
0.4009116549825466
-0.1564447809552627
-0.4588126062416821
-0.08879922855801339
0.7091496971435364
-0.02216193360659601
0.1083116566712941
-0.09753710974645029
0.01138738496602003
0.06060678533201272
-0.6334029559262147
0.3240527235916441
0.2487434431415466
-0.02005567845820002
0.05221375102998817
0.09416900738841029
-0.1263270827294879
-0.03335584855260362
0.00882610202239335
0.1202236434660724
-0.09569389808130373
0.2949141357018251
20.96860043102321
-18.77029501176803
-2.493219553945721
1.17681646750767
-9.958029462620145
8.899249999162056
-0.1180369931467272
-0.01984617660227497
-0.05516938503034934
-0.0950848705602938
0.1701004305558375
1.816527181235374
-6.362678399570634
2.682679528329595
1.863471681305916
-0.1352716029966431
0.02938058078543273
0.131282636463861
-0.02539161525945499
0.5605439409698632
-0.7010781962492458
0.1895591988962052
-0.04902494530746921
-20.96664261328515
3.733142897452296
7.115816842785988
10.11768288009811
-0.2153870899629285
-0.9169455799855122
0.9929998390569084
0.1393328233149201
0.3225467388945616
-0.02485293532516393
-0.4347316085881732
0.1370378050953185
0.1202073804559178
0.6187517342908045
-0.239015634542529
-0.4999434849747778
-3.590727104968881
-21.55214208778641
22.43015171402637
2.712717480172151
-0.9578351168871637
-0.6780646652344769
0.1977042852680357
1.438195496535164
0.5177673313677994
0.2462276850450641
-0.525794500595808
-0.2382005174565766
0.4187075827666857
-0.1728523216225016
0.3734125331562365
-0.6192677966417853
-1.625537596285013
-9.10875570132027
10.73429331015839
-0.8134494112544443
-2.832884816213915
1.501223274684283
2.145110926124655
-0.2596586287719297
0.5895669823570256
0.06147450015463386
0.1179056231102587
0.04210273384108475
-0.2214828596816543
-0.1322358246300679
0.04269040427728855
0.1081944588146917
-0.01864903986918294
-0.4780252052681545
-0.08486428511886654
0.1051592996150924
0.4577301840765589
-0.07014811794070321
0.590301535117486
-0.8589151253304494
0.3387617053745258
0.2614346525898965
-0.07152604497809359
-0.03057494098044471
0.02120744098323881
0.08089354404378452
-3.21531719503842
-0.5666842294471982
-3.072476499717283
7.226455617094255
0.03122293004830653
0.03249046455339545
-0.02631957268937107
-0.03739382305166539
-0.003096794555193858
-0.0702860726239987
-0.002198788399339319
0.07558165470463107
0.3944738216486581
-0.3762443627213422
-0.1358294388708546
0.1175999765147794
-0.3032301060575505
-0.1610965351069353
1.141389491652878
0.02146630124606361
-0.09319321845903342
0.01890288907439451
0.05282402618871841
0.1108675474074081
-0.2979616626937016
-0.1535125416833687
0.3406066552173002
0.3480947309957067
-0.7819433662967825
0.2080585409026277
0.3596711291189994
-1.130195012935112
0.5624653395194851
-8.485640313144026
3.893183256040676
-4.793606932930611
0.07374869343176341
-0.03335297025865228
0.01616874036977617
-0.05656446577402734
-2.382399597691962
1.033095145457245
1.097455257665111
0.2518491903487666
-0.5386423816780009
0.5279341061344085
0.09204207837598417
-0.08133380687700195
0.02252751422360465
-0.2942062184820812
-0.352281937975587
0.6239606416514958
0.1151629911704632
0.07894054865207183
-0.1529207325616151
-0.0411828098575045
1.639745231720811
2.94110353588671
-0.9738254139555595
-3.607023368761061
-0.03422979393586588
-0.3854798269441068
0.6940015059135189
-0.2742918926808483
0.6727836082702954
-2.120348595104127
0.5322849619728466
0.9152800196044484
-0.016649404530372
0.0080773546338378
0.008572048854421914
13.83151096835898
-1.235780818394999
4.764356450481459
-17.36008659261459
0.731090983187185
0.07083831132424838
0.04161652922995276
-0.8435458258815712
-0.1876322248990651
-0.5231235505683697
0.03366196247442323
0.6770938107598176
0.2880533372263995
-0.1288911979312093
0.09732082844750817
-0.2564829704789933
0.005673567593974059
0.06858097583501561
-0.06364874629803445
-0.01060579880895353
0.04049130656098354
0.02144385813567671
-0.06193516568251481
-0.08480347499823079
-0.5317907101205687
0.3569355562233645
0.07057789190933414
-0.04209511191701884
-0.1103934161140338
0.08191063459403394
-0.04567838553137225
0.048194371449039
-0.002515987158117383
0.0645345379167246
0.4276184163559154
-0.05934479906065505
-0.4328081576894434
0.03507205901154683
-0.01078357562168103
0.06333065470354997
-0.08761913943384032
-0.1139183851422804
-0.2337168783453878
0.4585028099467052
0.2964227407765325
-0.009429472706911048
-0.02363138120511298
-0.467948928504785
0.5370199693761232
-0.04543966217503845
0.1590281707715823
-0.02705382783936077
-0.1637668941965238
0.03179254855422
0.00764698971016832
0.04697698711530418
-0.01379293063838171
-0.04083104760536226
-0.1172071886994238
0.5249658001665187
-2.06077397636041
1.653015358798876
-0.6331578475600963
0.7911219493380998
-0.1217340512298719
-0.1836519375222259
0.2377913104852399
0.3945219328711506
-1.186694645902162
0.5543813991223208
0.4669300556620569
0.01504187405981837
0.0595777310183457
-0.06620451769248788
-0.008415088708813362
0.03601764072294466
0.04997452424379682
-0.1802784585837651
0.09428629177472947
-0.6151430316913443
0.5873193184438755
0.2279140497493193
-0.2000903382862485
0.08387110395582356
-0.03834885235285946
-0.1081554088376649
0.06263315570660358
0.06611389968325063
-0.07644713885128919
0.4604632964746503
-0.4501300583889437
0.05396177988248698
-0.08214690434565496
0.1198024219026928
-0.09161729908619776
-0.1058837353689327
-0.1420791578504425
0.3773882146934541
-0.1294253210990788
-0.3230749958745844
0.4706934749604056
-0.2535022138842461
-0.02848396076182932
-0.03102758509021502
0.1246149431779408
-0.06510339886681465
0.1199580007693872
-0.04763039899421601
0.08825750666691223
-0.1605851106379849
0.09487376118885806
0.00949308798732278
-0.005085694221706756
-0.09928115600137795
-0.0360168077243035
0.06914355625516209
0.08744280524816642
-0.1205695569184216
0.4151952811290682
-0.5207320432806627
0.08807386435525107
0.01746289699475118
-0.4304697494203472
0.6505524740039021
-0.2205165745105831
0.0004338474332319087
0.05757595538389729
-0.2156874743400257
-0.192018104412297
0.3501296215298759
0.0355002760692827
-0.0289629171649654
0.07172718539980485
-0.07826454565914158
0.6152887430975827
-0.3757533875387499
0.3083034572757307
-0.5478388177315301
0.09457426711718148
-0.08025842898231615
-0.02083805427129239
0.006522214534250612
0.119238698352926
0.3162850103897909
0.03140634423312852
0.4542150007635608
0.1929578021275669
0.6688402807595534
-0.07718292203291958
0.1878220354470722
0.7951194483893952
-0.3141012059281224
-0.2028977668500031
0.1155778609616561
0.1534866592696766
-0.06616675506543888
-0.5140618816284185
1.296769701782343
-0.5618343600063718
-0.8960318793991775
-0.03217903946238698
0.08703083039729002
-0.0187469956844271
-0.03610479652101214
-0.1799299651640718
-0.4816950423554821
0.3931468335008955
0.268478165666897
-3.132596841581877
-3.017889246632509
3.770075035805734
2.380411060332007
0.3141336154313089
-0.3048558244545927
-0.5477424765129836
0.5384646807521871
1.783964535757605
-0.3916255552225055
0.5176273272698633
-1.909966307886996
0.3446385419138317
-0.5271030151666637
0.2430712557541654
-0.06729741151293195
0.3367778181758986
-0.5310624991759472
0.2615820910714513
0.1101828601811592
-0.1125262645373642
0.05324289254618742
-0.05089949051692778
-0.1248838705782844
0.03973341553691228
0.3166374938610319
-0.2314870412303489
-0.07531105506496805
0.01745280107662788
0.05839395143459388
-0.0005356989684158634
-0.1930386819951482
0.004694844178789279
-0.01605635642993378
0.204400192428783
-0.09656001988112212
-0.4924545233522117
-0.01239293767182867
0.6014074778786325
-0.154574341279614
0.1067593186892492
0.04781502184257443
0.2233454678253416
0.02301193037782431
-0.1675920242121497
-0.07876537729092785
-0.01509531074614015
-0.04681168315652446
0.08427966154744501
-0.02237266920619842
0.2070708136445913
0.02885140014729665
-0.07251366483374488
-0.1634085508956605
0.2857539391778491
0.209090974308069
-0.6714336461570858
0.1765887294431151
13.66510362760772
-9.143649052440963
-22.47196919149942
17.95051462335532
-0.5972106378262567
0.02809249159227615
0.6019020401012987
-0.03278389739524639
0.09278226471925459
0.04027706144547726
0.003864543103176452
-0.136923871600607
-0.06802660914112472
-0.5352716801059253
0.6075228423251146
-0.004224554415056769
-6.636479841843166
-5.445463152498071
-17.32544774923064
29.40739076159556
-7.773704680949507
10.95695066249666
4.244302385664839
-7.42754837347404
0.08436159039031198
-0.07480422497439528
0.04246794225351029
-0.05202530925886564
-0.4748504144413099
0.2336021587060052
0.0735691071088302
0.5318656885593021
-0.09064721316054462
-0.5147875851993887
0.2372652117468431
-0.1204092204967895
-0.2589351499340689
-0.2525904691813087
0.4730332628167225
0.4175560033099277
-0.6379988016408925
0.01287265593364107
-0.1471570690040957
-0.4492942105049086
0.7499200440033956
-0.1534687678386654
-13.65526274906919
5.952162636841005
1.246329996995012
6.456770123085662
0.06514866674844266
0.005032094089270387
0.1804797134914248
-0.2506604761677001
0.07381077545334998
-0.06494919855923917
-0.00886157803595463
-0.1681594881854698
-6.763660341354299
6.931819840631381
0.3940807733434545
-0.3689236741690223
0.4782480858202479
-0.50340518716706
-11.06553933291516
10.59628607807559
10.52944495451007
-0.03853173912136665
0.5246545904764933
-0.1009186572050139
0.08718472872395487
17.73663533560683
-17.77961069559788
0.04297536431798372
11.71430453920805
-22.72388107147532
11.0095765324114
0.8845429577420207
-0.1597009539355505
-1.624362326925504
-0.07640279869387763
0.1232169335195547
0.004586164157755574
-0.05140030016359744
-0.1160344178916824
0.175428393991177
0.2287796391537033
-0.2881736155642615
0.4552049337843866
-0.4417762587689897
-0.1882548550896892
0.1748261784551149
-0.094035691747449
0.5094042507371185
0.4585798604178227
0.07483135584294316
0.05689031710500692
0.476615066833835
-0.5997581532532994
0.04180927678548273
-0.3065519051573429
0.100326806284328
0.08581587789822422
-0.5412698455026739
1.379944848195546
20.54526935897304
4.458632792618265
-26.38384700403199
-0.5867946863085465
-0.2111307244617806
0.4857241041794528
-0.4105097007526473
-0.1298166375894217
0.0546022323216117
-0.04619499349448788
0.1831356968511147
0.01294611136419708
-0.1498868157269681
0.3396950628376416
-2.606532022201826
-9.563957036817454
8.955171873774418
-10.50985517694862
6.407050784709836
1.496272376912599
19.16368380045654
-8.782063763003698
-10.38162003612809
1.11736657367639
12.2909048139755
-12.82055314270078
-13.55649656354658
5.70663593800256
21.04885120328363
-13.1989905784734
12.54980155605487
-11.81509836113355
8.400446631721803
-9.13514982914492
1.143954616951288
-0.5910385692458014
-0.2446125961430322
-0.4803597869376272
0.5774471698679774
-0.135619122920894
-26.59261584036423
10.08484385106667
16.5512658318666
-0.01760261379492275
-0.133906277444753
0.1883695577429541
-0.03686066868015504
15.91691214552073
6.641022089336591
-38.17710924040938
15.61917500343745
-0.06542356639396162
-0.6018758087867692
0.04803157778582848
0.02542453583550918
-0.1359356065748087
0.03766363700246085
0.07284743173664153
-0.004911793139628224
-1.656048271927853
-1.983842183397965
3.923595750938883
-0.2837053036275602
1.841590750195186
-1.169548192621947
-0.08368034398823399
-0.5883622180224207
1.365606111724481
0.1073931835453485
0.4654385720514607
-1.938437873112995
-1.138095080564832
0.1093939904074504
0.1897299085578323
0.8389711724342875
-0.07132338715984568
-4.676293312723995
-5.280039757700778
7.336340925663455
2.619992140159852
0.7191976592870368
0.1853157770651925
19.47982961648952
-20.70317484864532
-12.33315133718245
-0.1897677656119489
0.4646956873035027
-0.5240201993334797
-0.2683048893079554
0.3106300412104828
-0.3858884174655996
-10.33658408011263
21.08766169192862
-10.75107760774149
0.7792666064036086
-0.5988927493100428
-0.6944357434538769
4.010209251671571
-0.1405382874346201
-8.545964280109095
0.07758850215949838
-0.03556461483476123
0.0404010679415316
-0.03821855409364537
0.03338210027518652
-13.74017242426358
14.77521750275442
-0.1900495789532244
-0.01771519055417355
-0.04203636817419811
0.2498011347086743
-0.2300697345690565
0.01795019389355373
0.2453896111908345
-0.03327007222459733
-2.772303183766525
3.532889601247183
7.138974691639845
-8.700870380510112
-3.23171124062647
3.866980834598858
-10.01989306784742
3.380609056068725
-0.02162712988882517
0.02174594361764933
-0.052378355411651
-26.29375265632879
-0.6363942210382301
2.172996266116859
24.75715061959622
1.928231662335892
-7.798152290006462
1.613938008653427
4.255982597466555
1.883150561923421
-0.4069485163820067
-2.949406443908035
1.473204391823796
-8.653402391588203
3.899523267839908
36.19445199436778
-2.945424467755129
-8.439207672798364
8.102613113809042
-0.7757543986360793
0.04008750529917276
-0.04797809142699118
0.7836449824504824
-0.06292815243311353
-0.271258714803018
-0.1379186316845176
0.4721054946393874
-0.3556002174595225
0.1653134702799242
0.05130246697291501
0.138984276373775
0.02172352398708304
-0.01604995754109121
0.03510241021966087
-0.03210257467385321
0.1701778197462615
-0.1731776573794132
-6.515689081551529
6.553129272914764
-2.973206350318514
2.935766149213318
0.0002076584416230989
-6.094436778826949e-05
-0.0001467142646818169
0.0002076583571873495
-0.007129115740005165
-0.008152009895790447
-0.1122793008751432
0.07154807821837597
-0.01506724477304493
0.06172382535993577
-0.1182046606355448
-0.1795488990303805
-0.2858010660173458
0.4386874027737716
0.02666255994228858
0.3960516417807524
-0.4875089774125657
0.09262584537986075
-0.001168510592515744
0.1686230337031726
-0.2360719461711726
-0.08801598510326705
0.1554648956171146
-19.56094439085193
-6.924679054452733
-0.03740057441806451
0.1193862859692402
0.007849499999769288
-0.08983521349726405
13.01388555013074
3.772667357893081
3.294045731479597
0.03429422091181175
-0.3661442384596261
0.03118607607204495
0.3006639387467634
15.17764192359403
-13.89052297257231
-9.581819527543352
8.294700576875169
37.63672191490183
-19.57765364496154
6.421213807228356
-24.48028207615757
5.158708437280072
14.78182204358311
-1.504727347400519
-18.43580313094483
19.52938764204591
3.050292000311612
10.94736043206557
-22.8264355794408
11.8790751448729
34.86212481244102
4.709716784887688
1.136460978463222
-40.70830256063894
-0.06997465300317138
0.1208984916101944
-0.232877045675825
0.1819532042853543
0.1899600375772204
-0.1366911118919134
-0.6194278127441268
0.566158887568157
-0.139303068357217
0.2614599027491205
0.07649830218543563
-0.1986551394885247
-0.06112860924585934
-0.009258934441807641
0.09226103580964458
-0.021873492762015
-0.1180194476157263
1.994699310715503
-0.3999788455722798
-1.476701021299571
0.2927699962352073
-0.5257176654698517
0.2248012667169377
0.008146401747952376
11.9798826388425
-5.573312501208606
-6.406570133478472
-0.2327602356127234
0.1208916500179363
-0.03470117011162638
0.1465697541762268
-0.3494015218210134
0.5013929640843221
-0.1875904025594372
0.03559895787035842
0.1303320669252025
-0.09522965742676982
-0.05493301187740341
0.01154484003309867
0.04338817107118274
0.6195021636823093
0.4859779050328783
-0.4990578019033948
-0.6064222756219325
1.916681047331414
0.3754579563477916
-1.066942152067043
-1.225196859467026
-0.1255179552562245
0.1085312217028876
-0.103732436452082
0.1207191679597131
-0.05081815477429665
-0.1218396364339035
0.07516654906891244
0.0974912403414982
-0.8227508327418009
-0.7452133410616487
1.708888691570381
-0.1409245212513073
0.4326738008265494
-3.935072001584671
3.339357432720341
0.1630407567500583
-0.8312528472503465
3.395148209384792
-2.586266378053609
0.02237101111352354
-0.4773971157263698
0.2354187874645407
0.3017357181992926
-0.05975739273151787
0.1863518834552745
-0.3221466097594
0.5038381320265765
-0.368043408263416
-0.0632702626561699
0.0690069908429727
-0.005736729479092646
0.09661552118970196
0.1345703212570685
-0.2311858427981276
-0.0651792600895203
0.009330685528225593
0.07081177978660773
-0.01496320655862594
-0.05624188951754015
-0.09907325703224666
-0.1035322562305226
0.2588473992920913
-0.06601592714939263
0.09630827450511892
0.1525987580693095
-0.1828911074683037
21.18663034296505
-13.63782654824543
-14.0111155571678
6.462311768861913
-0.01326224217012251
-0.03451352647869015
-0.00173783850674484
0.04951360576920603
-0.0282632633712969
0.0363927329592189
-0.008129470115979302
1.965910567807886
-2.581908798647666
13.6464536408712
-6.425928813570482
-7.220524822653058
0.03881289250186185
-0.07929817081079014
0.004494524489096596
0.03599075231413974
-0.04927763386413046
-30.00060634164683
-0.1627445620179564
30.21262854290476
0.1025527788216816
-0.06267065120330047
0.2052722895116193
-0.2451544190490983
-0.05171281900390404
-0.02349015961328164
0.06582857433540229
0.009374403209985119
0.07212962983170802
0.5844515751314758
-0.2543391364202621
-0.4022420738244397
-0.06373780088318355
0.005964301997686654
0.0577734974991885
0.02653956978490545
-0.01698568825794237
0.06339595347555085
-0.07294983617776966
-0.001790044128627541
0.02067996705953967
-0.01188721057923537
-0.0070027136957605
0.03963062179201944
-0.02745689741571316
-0.01217372549990545
0.00369145463997808
0.05725735555119556
-0.06094881144838076
-0.1471216620530815
0.5674581664759515
-0.3925155555144471
-0.02782095165814889
-0.01037704994923435
0.07647150276230712
-0.07817528390096615
0.0120808292615239
0.09083358319935035
-0.428208866897264
0.3725288330715535
-0.03515355391036106
1.139291373436963
0.5674169590091697
4.182238240975481
-5.888946578289447
-0.2853640477154536
0.1420370643078279
0.0446358671567821
0.09869111435438117
0.08462927506159801
0.006232353438515257
-0.090861630245372
-0.03229135749213642
0.1223199337252478
-0.6105538328212126
0.5205252536220618
16.42956346867443
-21.07288658437255
-0.07100907540144537
0.1445199851920776
0.0004682926816835292
-0.07397920376883907
-0.459431514724895
-0.02025101983229018
0.4796825280640897
1.575128630516446
0.6091247101156261
-2.265556359766109
0.08130301996032896
0.764013341561546
0.02061456964942445
-0.6118041187554242
-0.1728237946281539
-0.2130371050656882
0.2812955782978797
0.07015682680261802
-0.13841530224618
-0.0515631744718637
0.3234411382373866
-0.3437858841305243
0.07190791693400103
0.1499425117463604
-0.2845397908597866
0.1540972753015861
-0.01949999755230525
9.411508194929
10.32449452516122
0.05368067678099641
-0.5194055587083906
0.03847564868502748
0.427249231265977
-0.2285103870258625
-0.4333031074769695
0.5877164765295719
0.0740970175295126
0.01679758850887346
-0.1424899904305211
-0.01600024521650141
0.1416926453981415
-0.2673671927193442
0.004457392205641075
-0.008608290964624371
0.2715180893519545
1.434714531032773
-0.5551272299144476
-1.673229266569684
0.7936419596091746
-0.02722252777609779
0.1238808886634014
-0.1058518007017253
0.009193437509648088
-0.01317557320680158
0.02634805368836683
-0.1024139959199182
0.08924151432770326
16.04832705327327
-23.59116604884051
-3.115670993076396
6.245202323113775
22.74891570459909
-1.370244956326981
-0.1749886641421282
2.136863427967134
-0.5916298106371127
0.1617188245104862
-0.2571404175529683
-0.247364659932229
0.3427862515247982
-0.07588716816073218
0.01437467584950238
0.02496783173116748
0.03654465899287412
-0.09773524518670991
-0.004206727269372589
0.08515310509067976
0.01678886645939073
-0.1228628731942866
0.1688292535741791
-0.06581255870827456
0.4460787200345643
-0.1922602197866916
-0.3582089891862262
0.1043904865036666
3.119705909128443
24.51142814089222
0.06955746794232509
-0.01110564984348744
-0.250938622300482
0.1924868020203254
-0.006358062892234442
0.3966571082189972
0.06037029137019605
-0.4506693393401712
-0.4679973507174135
0.05843064279171752
0.05909957075201495
0.350467134584283
-0.5183372487326808
0.05342882533617334
0.2498079592424572
-0.6043648542118962
-0.05398299588392119
0.7016792021185013
-0.04333136098190486
-0.02724335040775967
-0.2422619795181258
0.7427155675116832
-0.4732102424964491
-1.511987736581292
0.01560697461180231
1.496380761618707
18.56500691630521
-7.344249034366781
1.793127667060037
0.157133638918874
-0.2755207127300566
0.05129394095887221
0.06709312945542636
9.012317394691582
-32.47073230271212
32.13222815373211
0.03619788408702521
0.06188503642644466
-0.06206528089447464
-0.02403109732145688
0.1493646268006753
-0.01653657160962612
-0.1087969594303539
0.0548296118521761
0.02630175033339519
0.05180408355952708
-0.1329354470572977
0.03174193241318472
0.2634167031054791
-0.07579353468612024
-0.219365102556989
0.4205198031729366
-0.3022464590759787
-0.5008934705559936
0.382620123554853
0.06997839544696771
-0.02697207718497157
-0.07295248264333512
0.02994616339248817
0.4775145251730585
-1.099156168487575
0.2406748557925106
0.3809667811654341
-0.1009368112467147
0.0586238299748784
-0.02869609497149591
-0.06883382520610022
0.06006309670256477
-0.113491745842966
0.1222624734126048
24.27675362215974
-13.06144605113542
-20.73972418952086
9.524416620152937
0.1916202057717505
-0.16502984233457
-0.02659036465359051
-0.3143785803283305
-0.03300877775433237
0.4569336858172887
-0.1095463294475872
-11.57031665024592
14.80705525650168
-2.153977413666056
-1.082761201335209
-0.01630447651538684
0.1132187985955749
0.01309928790327799
-0.1100136110318319
0.0556826442594749
-0.157922714997895
0.09088964581730624
0.0113504231260718
-1.288922803192461
0.9520352059349302
0.4549168903726248
-0.1180292954785009
-0.02207000675831633
-0.1950658286212432
0.1930377746782445
0.02409805918551173
-0.8199368607798798
-0.6250883748878602
0.8539866640163252
-0.9836742378214172
0.2031646993630242
2.545875960474482
-1.765366421053613
7.024238675881328
-17.46787824586314
12.2142436254516
-1.770604035757602
-0.101208895849488
-0.5436920810885432
0.7394042297863372
-0.09450325241028833
1.592189686034379
18.24699784177889
-23.42991463574186
-0.04185748342736525
0.07620066092228399
-0.02496531492420349
-0.009377863903115386
-0.5084122762649191
0.3060379513588109
0.2284717246285938
-0.02609740219806149
0.4846803215716934
-2.1611869952689
0.6855335783284192
0.164299632050908
0.05597565872674259
-0.1507896630953189
-0.06948562979906736
0.490985106305479
-0.03952097526414828
-0.4816347981228226
0.03017066726187544
-0.1097370686816141
-0.3934957816017476
0.2999626124933095
0.2032702353486196
-1.840667230461149
1.708575322538692
0.1320919061636498
0.1145287368800396
-0.1274449395127236
0.005873109618878705
0.007043090873744311
0.005511210359587834
0.1001019425416722
-0.08691722620842969
-0.01869592798981503
0.03077192584840267
0.03235016809878883
0.06166334908091362
-0.1247854445610816
0.0001875501762175105
-0.06521417898036642
-0.03999742512251992
-0.01597149540852931
-0.2794638485920883
0.08397871048018583
0.2114566321916092
-0.1430317184823682
0.07292163648433923
0.1111631087719362
-0.04105302854348542
-0.1033306040882888
0.05297293861335165
0.09595827634602155
-0.04560061436474125
-0.5988033946186274
0.7162487509530143
-0.04987397290726677
-0.06757139272534667
-8.077795361923293e-06
-0.5157818707515537
0.1032621178139927
0.4125278299913501
0.009293951329870712
0.002392984548007205
0.1429363759567497
-0.1546233126028967
-0.3202952035114499
-0.2035870266441898
0.4282359288677657
0.09564629780491034
0.0001029800364413898
0.1781629285288656
-0.1579403453593728
-0.02032556558057766
0.009021718626100931
-0.1419590365013902
-0.02502705199581125
0.1579643679545783
0.6905134021449656
3.908221318138141
-3.762729225760947
-0.8360055196364412
-4.738281913829277
-41.43268256261121
36.0451230196082
10.12584145774435
0.05878892016843801
-0.1481966198629973
0.07584292686487688
0.01356477142829587
21.52798009873521
0.466274379022274
-21.31530459283404
-0.6789498822799696
0.1490330249914388
-0.1995607933076501
0.04297854228775019
0.007549223711432042
8.111757963871675
-9.760811195123388
1.904159683920525
-2.52914120275035
0.9244425033167988
1.604698697436985
-0.1101953636710079
-0.0519138136064838
0.03343601330095498
0.12867316173343
-0.04254180169554678
0.03659271347159757
0.005949087020413137
0.1278456955452424
-0.07098292645940882
-0.2352262580580943
0.1783634865851838
-0.000777034283021807
-0.003304632292758441
-0.05818443488011695
0.06226610058865055
-0.01838426156098334
0.09388469272158702
0.008922667643842582
-0.08442310058410579
-0.0681725022901865
0.008201001267801118
0.1636690265498275
-0.1036975273700365
0.01998220469549397
-0.06441379312937355
0.03010348959599686
0.01432809727271934
-0.04937858170096258
0.001979531394040989
-0.004547190374236415
0.0519462393052543
-0.4386374300484703
0.09542516739929857
0.3432122613030125
0.1121421151469351
0.07612633782616211
-0.1549150560760215
-0.03335339827944025
12.54783758976947
0.5362637999693198
-12.50657892050217
-0.5775224623746951
0.1812769218564557
-0.1177364913190764
-2.206322257114349
2.142781821646718
0.3141364402417232
-0.3524207973077948
0.5112557843138041
-0.4729714299942613
0.6409662860062243
-0.4414193717809496
0.06631951801671906
-0.2658664345992962
0.1966942648221872
2.190608562323944
-3.605606294376368
1.218303458024963
12.87491440992638
-12.88358455830852
0.008670150028816333
-13.62313063714301
-10.29746964903442
10.18042787089456
-0.2215969843129993
-0.2073665819453627
0.379702832106741
0.04926073085121771
0.3719927969284981
0.1661814756304919
-0.5381742784289025
13.82247912627523
-19.44684361669301
-0.1811565791999449
-0.02883557374925751
-0.1683143127593934
0.3783064631364895
3.192511933715126
-1.023745859818566
1.682897086778777
-3.851663150659014
0.4171832029821542
-1.011433581949204
0.4743273693492623
0.119923005098071
-0.01931026897867381
0.0003994898847794423
-0.05833605717324404
0.07724683439660125
0.3641256860505775
-0.4875983319572761
-0.07037875446243072
0.1938513991473063
-0.2485472870429977
-0.09472293602969822
0.2383266612322856
0.1049435594526368
1.290889632728409
-0.5178569973020599
0.6616818912151504
0.136738310632339
0.07425127138898324
-0.1088973883250464
-0.1020921953183244
0.2332743003628415
0.307552621438438
0.01696523109135225
-0.5577921543566251
-0.245313715366783
0.2194165169305601
-0.006100287591316535
0.03199748237175933
-9.504655623662343
-0.6543027664259287
-2.635193425960139
12.794151813674
28.22014034965446
-0.5867695317053031
-4.405306941913292
-23.22806387749363
0.0006252131423960382
0.1401156909624639
-0.06229357348036701
-0.07844733363336
8.276691512707103
-2.41337472241464
-1.33450747974156
0.6984235697417602
-0.3947695807705896
0.2519980149094803
-0.5556520091057495
-1.282593520974267
-0.2271672999410841
0.08957522241664462
-0.3495919355802359
0.487184009646278
-0.09574536525945698
0.0264150876927897
0.06933027729171312
0.3162074984174801
0.06383415035055066
-0.3960131458567913
-31.68322350768426
7.113859734428407
-3.782923573535369
28.35228734815623
4.287901143705279
-0.6199600658754159
-1.81013778148868
-1.857803294829327
0.003253644876260375
0.02546530079650038
-0.02871894666092363
-0.1864885756548223
-0.01001062189170297
0.6130767191723023
23.31218197712641
-0.1069696574907958
0.01374769936720886
-23.21896000814392
0.1859602147251126