/*--------------------------------*- C++ -*----------------------------------*\
| =========                 |                                                 |
| \\      /  F ield         | OpenFOAM: The Open Source CFD Toolbox           |
|  \\    /   O peration     | Version:  v1906                                 |
|   \\  /    A nd           | Web:      www.OpenFOAM.com                      |
|    \\/     M anipulation  |                                                 |
\*---------------------------------------------------------------------------*/
FoamFile
{
    version     2.0;
    format      ascii;
    class       volVectorField;
    location    "2.2";
    object      vorticity;
}
// * * * * * * * * * * * * * * * * * * * * * * * * * * * * * * * * * * * * * //

dimensions      [0 0 -1 0 0 0 0];


internalField   nonuniform List<vector> 
19631
(
(-0.0213400981965577 0.1645832765332788 0.07187534166731571)
(1.012907486313845 -0.806181669172128 -8.668922325794892)
(-0.02995385961185781 0.0009465484360499979 0.005211393999120032)
(3.432797463010524 1.048532754200331 -18.27219664115791)
(-0.1965974802304787 -0.4035427424216343 0.3436154778827645)
(0.06339545557681076 -0.6521373973381431 0.07150006684038147)
(0.01615009619639919 -0.1461045824094136 0.4319073889739072)
(3.268748770697895 6.262205418533503 -3.13032712918687)
(-0.5723437739790784 0.3447497397284476 -5.906526402370856)
(-0.06298323379608514 -0.009431635984840666 0.01155087102609687)
(-0.8987376075918228 0.1385746756876054 0.272620533410231)
(0.6775438289963752 -0.6011912737233658 0.175282399423841)
(3.663042745626128 1.02878963648021 -21.53958380807801)
(-0.233032259004024 -0.4881842606344471 0.2991415649866397)
(0.0100987687250857 0.01179153378105843 -0.00636046845176411)
(1.058823048907695 0.4645566245613506 -1.429636345604096)
(0.6907381064058863 -0.6285452848535293 0.2181735306363026)
(-0.8551949685398412 5.551195596866998 5.808606167821484)
(-1.449868581437085 4.2167530435351 2.16540285802702)
(3.819648151948685 7.383815471025946 -2.332567100004925)
(-0.08679335185037111 -0.04445399065409066 0.01221586626364847)
(0.07187653331009064 0.08236402924133349 -0.0664225788124115)
(-0.2380817103148917 -1.426718185384235 -1.105440424062807)
(-0.001022156625280903 0.0357376694785682 -0.01209726514593975)
(0.8010694034159064 0.1778008545218429 -0.4103695871673131)
(-0.105733895240652 0.01642345755167647 -5.5331493593524)
(0.1318692199777355 -0.2761904070302415 0.005560867604943981)
(1.766459077630969 5.607660195775541 -6.64196118946926)
(-0.527113276180621 -0.06360529716490335 -0.1646018967740186)
(0.01221203670577572 -0.01095808813760219 -0.01635941122509355)
(0.05462666274737323 0.04779238437976339 0.03915882054306286)
(0.07292552729379276 -0.01286350373864649 0.0179583595736556)
(-0.3924776381334116 -6.765101316519377 -0.06352832921637633)
(-0.002086977330521468 0.009680423255021713 -0.02078136880397852)
(1.808121738263992 0.4043042562753007 -1.56542351760026)
(2.655122171375769 1.686623629445123 1.931714008341716)
(0.01222542121337369 -0.1023419373055967 0.01729496757789284)
(-0.3458069727367896 1.568430973965673 2.543103530182465)
(0.944716643792871 -0.1075461007271306 -0.5781308291796087)
(0.165413964921338 0.239458719748084 -2.33941404707038)
(0.6920762645623719 -3.144311787162753 -6.510510142415464)
(-0.01076285901851284 0.02340684870225384 0.008644127259155542)
(0.07476621200479637 0.02175669800586841 -0.01615784870874606)
(0.1618108349547699 0.0155399868599075 -0.0466396053388242)
(0.664656089062982 -1.944870035352666 -3.252738012642435)
(1.532711122433844 -1.326445586499783 -0.7994313045806587)
(-0.08591367181217563 -0.0248413571723017 -0.01767677075790608)
(0.02117178810173437 -0.04843256950918358 0.3525626838868973)
(0.002367779958576122 0.09163394811104422 0.006732615550480259)
(0.1208577825565416 -0.036816473417899 -0.1370988441924323)
(-0.2761552310754933 0.4576324447244317 -6.906916668474144)
(1.821663995743395 0.3311929914868265 -2.399564706079039)
(-0.3343303368685427 -0.1189839430394969 -0.06236342968153535)
(0.3309172895992219 6.964006543610277 -4.294742812790822)
(-0.1026472721344334 0.8669125811567978 -1.660416560898588)
(0.7255719010032162 1.37316562475369 -2.964526662691748)
(0.2349885616795978 -0.4752065289951501 -0.05105024741746514)
(-0.5934808645449493 -0.846029908296835 0.375953733002124)
(3.305381627106972 -6.86483555566971 -1.332872163753436)
(-0.0006317077119492379 0.01005803629594935 0.0128812391325166)
(0.00664086800246427 -0.00384957604616382 -0.008620734646675853)
(0.6184623208608402 -7.025567779113286 -2.709144127278006)
(4.03435348141238 -8.46185278245286 1.688292017597788)
(-0.04616911621517288 -0.06184134333158101 0.04665209611314328)
(-0.1867787847762303 -0.1122450533027821 0.1178091892991946)
(1.273067804753331 -14.40181239478222 1.315639053549542)
(-0.171749179868071 0.0390014144717601 -0.007311633582614392)
(0.07764254172504445 0.1904061270041239 -0.2276692218747128)
(-0.361973930035064 0.3093487030652096 -0.05966661672365733)
(-0.0156907074886911 -0.000331442955706111 0.011385191381984)
(-0.02254497405532524 0.01793307924162152 0.001186746153178327)
(-1.666017206293426 -14.3268072285924 -14.14020075614078)
(-0.03531836756688119 0.0461543598914424 -0.03870424361751922)
(-0.3538794388845364 -0.2479557417123646 -0.06806860090214338)
(-0.0009575388134857614 0.05590846580998182 -0.1981224674780067)
(1.582405388745324 0.361964991035773 1.335591378298188)
(-0.02751954494678454 -0.04437782747192329 0.07626895335737152)
(-0.9365040869970569 0.1467908863500879 -0.8813521754598802)
(0.122554014166394 0.990329950643096 -0.7885805768648355)
(6.340732325413326 -9.310917995185529 -51.48906870099218)
(0.0159044177218515 0.01226775292001524 -0.0427119057108856)
(0.975172831261903 0.5805056090977534 0.4385805048384329)
(0.1189934919777558 -0.02246148758627734 -0.09908699564091425)
(-1.934797788757537 -0.7108987705154961 -0.09764810691674095)
(1.44954183216262 10.21965331628169 1.280334547182677)
(2.957310080094863 -42.45018219649923 4.764278057168273)
(-0.1420078853773765 -0.278240756688362 -0.004673776558998852)
(0.7301925932501168 -1.571791691663087 -0.8622397127936241)
(2.777992045571403 11.69225172613301 18.09467130687724)
(-0.02736463279777769 -0.01378669648831352 -0.02025538033582531)
(0.5152485612911043 -3.396176888830817 -0.906828011347162)
(0.01640379418064677 -0.03395382070799639 -0.1230829111524746)
(-0.2036390746936563 0.08150351124851787 0.0942322423358796)
(-0.5881740517272526 -0.08822844357819432 -0.1215899259024911)
(-0.7639581218712732 2.282249519208043 -1.193291939477858)
(-1.13464723955313 18.59502043991861 0.5510742249221871)
(-0.1329641280743865 0.05672482003654353 -0.03033093898998732)
(0.446783717427526 -0.5901971984889443 -22.03799607008242)
(-0.7157277317602482 -1.169197345576283 -0.2805652752256895)
(-0.4760373652928431 0.07834343038560841 -0.1659189381107834)
(0.07272401777570434 0.06329017489200287 0.08818329703431158)
(-1.65190900345364 11.77239384466817 1.417304369116259)
(0.3589277289467595 7.081717638734311 -1.99901982551944)
(0.1019535238159046 0.02371442048149605 0.05588734120385663)
(1.962570409942259 -9.516074771294614 -2.304338234777765)
(-1.291687408657602 2.247797792863428 -3.950241059273183)
(-0.8529374532408951 6.359732466914038 -0.7436554909982119)
(0.04080385881403725 0.07253101195143594 0.07283449119907788)
(0.03391532246351256 -0.180803216251992 0.4331028946719666)
(1.349893786465147 -8.471217618662712 -4.232668323712204)
(-0.2737030519639468 0.1899878268158131 -0.3317255594851582)
(-1.733484208312378 -1.664130024499809 0.3233332660573175)
(-3.672372915948446 0.4208511525840405 0.07381040997965249)
(-0.3379680496470201 -0.08254138862546911 -1.251644400080792)
(-0.02793046044662383 0.04975554444314117 0.01254387477406531)
(-0.7868296599982625 2.270069316047616 -1.674975229338056)
(6.453035002115135 8.863493170995685 0.2459584949599356)
(-1.030507672559571 0.2511529723973978 0.1795652074049975)
(-0.898989926524848 0.9206343038850512 -3.9702888560997)
(-0.4461565881509522 -0.361607848695226 -0.0187266441298008)
(-0.09488895479303112 -0.156395993292844 -0.06731842720306781)
(-0.8165349738085678 -0.3788247035556602 -0.4394694536796775)
(-0.9661004854012047 0.2807994520719481 -0.2000716245754486)
(2.837981987434773 0.6040638599868361 -4.225118466680542)
(-0.07116437943801408 -0.3061184532706591 0.01476092492138276)
(-0.1037805209761022 0.05087186451306363 -0.1501352173884384)
(-1.831859557153669 -0.3028569600645062 -1.159860880451168)
(-0.6383158754950868 -0.2506473066683392 -0.2143949959977028)
(-0.01382621095590227 0.007263788835372468 -0.04584948017341291)
(-0.4676667952826596 1.579759287653268 -3.189596467293123)
(0.06215608201100402 -0.03297044427834676 0.09549531190795214)
(0.06277138523091161 0.03104877752526497 0.01522762015615028)
(0.2124421219205921 0.01316403534566092 0.1808878360346632)
(-4.40914458604969 0.09635201589079356 -6.31310467787873)
(-0.2687524753522801 -0.2867769960083106 0.2205683263083633)
(-2.250565035300288 9.056271999041984 -4.907192659291502)
(2.774067293935135 5.938424760483227 -1.648389135365768)
(-1.472040613055069 -0.8474921689782406 -0.1846850587123577)
(-4.9794951179793 7.772346385806326 -29.20319532205888)
(0.459738979883783 0.3247436756926749 0.4250681173742423)
(6.11953917180578 11.36947901749116 -7.42783237171959)
(0.2510201808139549 1.31039624599066 -3.64021403158928)
(2.083812898590137 1.796676703384485 -2.706720015690111)
(-0.01399169641552534 0.01128280755540171 0.0168436191534131)
(-0.01827407721183272 0.09513831024741282 0.152426115089782)
(-1.406762914838728 1.5801953784347 -8.688349182631793)
(0.06979202480967203 -0.01183740962852126 0.01632839279626731)
(-0.01229236676874975 -0.02313260649441054 0.01892288979602244)
(0.0390558222021563 0.03214844084327292 -0.02010424276797992)
(0.8796318967723936 7.011999300967669 -2.095040142731202)
(0.1177910010968732 0.2067615011117833 0.250326335876674)
(0.003388399219147853 0.2909012864967323 0.42558112343126)
(0.1276672588173839 -0.1145691783801223 -0.05254147246120043)
(0.1372246328036776 -0.2644666366572529 0.1717223570671335)
(-0.1145147228361861 0.07359834292776758 0.05763445178733574)
(-0.1351128830339079 0.2522426824929036 -0.2967550319966747)
(0.0050918746439261 0.0115822355780882 -0.0269635470932143)
(0.626746880003244 -0.5994256739274246 -0.9175710898918434)
(-1.251731039653112 33.59834459617647 5.852444472623383)
(-0.2001923930351876 0.1111636591919786 -8.390575061691326)
(0.3224666758763884 0.05834676177470924 -0.05686827144298176)
(-0.06164714582581411 0.01410511358638701 0.05879298751989097)
(-0.09493281249431203 -0.06768517268835696 -0.04587415867243656)
(-0.165751874540402 -0.1510066720094948 -0.0551780007177254)
(-0.06805957868998137 -0.005799848569993736 -5.44550583575318)
(-0.03094061998545516 -0.01059345904549768 -4.955058529096727)
(-0.5979723116406752 0.05834078585330343 -0.1007029980120705)
(-0.06233480873928968 0.1520335876023446 -0.1124056562779332)
(1.605332845868512 -7.207077222498461 3.80699791759458)
(-0.09153615954351813 0.008369094149876487 -0.01802617936511587)
(0.03709396268107161 0.02014587411621123 0.6766252796621018)
(-0.9517906995526397 -0.6227847250425208 -0.3871023851357278)
(0.1279446586756935 -0.6229195610039493 -0.1889730036606028)
(0.1298814323947258 -0.2482164494421254 0.1871177282555853)
(-0.00758159254369993 0.03023356624841358 -0.02577270975031524)
(0.3902712708167877 -0.000649882474711109 0.014874836107746)
(-0.07351542286507404 -0.05040708449486118 -0.01458913353441062)
(0.005555032312113448 0.8778946179296345 0.1195177569846665)
(0.3252771906122628 -0.1731722844716179 0.2350139640209901)
(0.5738433416042629 1.366303423503851 -3.836596104313041)
(-0.05762069739620979 -0.659477443159198 -0.1762449828023485)
(-0.01238015980002574 -0.01460489122769419 -0.01686532825999937)
(0.03935982019944639 0.03383270496080371 -0.04966789921304476)
(0.05427618533342292 0.01859844314845484 -5.293598465810997)
(0.000831283157469484 -0.00246679475141752 0.0686361019984401)
(-0.05598514824650824 -0.04199957336231255 -0.08122333084713501)
(-0.01008328525392417 -0.2173651409836159 -0.3090938449842691)
(-0.1514082027690367 -0.2595408750157069 0.01726444158023064)
(-0.1841243901761942 -0.1003003229767065 0.3040150803908)
(-0.4248796660398293 -0.06342057349169711 -0.1395741833084762)
(-0.03389944609235067 0.05137658719222738 -0.04246164115136995)
(-0.04711402219305663 -0.5936065725298402 0.1119820899861587)
(0.08867545756880699 -0.1653177911077164 -0.008884153191172611)
(-0.01644137675419721 -0.004409848324419033 -0.01413235752162056)
(0.1857031805956353 -0.03984406697246472 -0.2658030091503916)
(1.358385818473625 0.5807883589032192 -1.697765843567333)
(0.07626736294115853 0.0939667949051988 -0.434584346692098)
(0.155110048033606 -0.06389119218504251 0.07454197290702885)
(-0.05686099366435571 -0.08999859815903746 0.0005079222190709392)
(0.1224306785106798 -0.02973736504178751 -0.1250527492633541)
(0.03372447054037184 0.4096727492457234 -0.1601335553016441)
(0.06033818320935373 0.1240256315851164 -0.005068948848626825)
(-0.1856441634723184 -0.1230959693417836 0.08189032425278944)
(-0.2631637585590894 0.3332390996029481 -0.2762922994736012)
(-0.01144276527794771 -0.03886048208685552 -0.05538979958075314)
(-0.7553695988735296 -0.4582903720884683 -0.06592183534437282)
(-1.715691727143776 -0.07594245271115396 -0.135307494302267)
(-0.6935113511396453 -0.6835083623335082 0.2759680944145647)
(0.01146737290430397 0.09743491132630494 -4.662382537774924)
(0.9912927464082097 -0.3477186172207647 -0.01075065440160367)
(0.05814209698818788 -0.1217901428041148 0.1162467119257331)
(-0.3016058952029084 -0.4103180133945918 -0.08455734359933699)
(2.630116344880608 -0.5737498205750065 -11.35451434847418)
(0.07423465951544514 0.01556245461949103 0.01866543023944083)
(-0.09386720025596745 -0.02262825549930821 0.004260989730750828)
(-0.823424928587158 -10.39691137623345 -0.5677358541934439)
(0.04196003116445908 -0.004622142460798487 -0.0194977088619568)
(-0.01850753137718716 0.01949423513186986 -0.003859140004591945)
(0.116349844161255 -0.005201464442618549 -0.02038567465640743)
(2.383046331179664 7.025576010327418 -1.392707598490186)
(0.9304805753554435 0.143995929827709 -0.2241187843529479)
(-0.2002816269680597 0.1140160980519301 -8.868392321070839e-05)
(-0.198444667175297 -0.04575179788026985 0.1355798473454468)
(-0.005857191973864097 0.004442747053078689 -0.006320163525001869)
(-0.03375817433929557 -0.01562393646513514 -0.02056967354242283)
(-0.07842628382234212 -0.01560629565766674 0.01320963125333937)
(-0.0009723572436529139 -0.0003123695846951116 -0.01407314476563712)
(-0.2447562648018477 0.2799512238699521 -0.01678621135035054)
(3.500446354216422 8.923068759730324 9.534146026284468)
(0.1060818552474631 -5.336676774077341 6.286488664120654)
(-0.01877520701322959 0.02948381366082572 0.01989429226989992)
(-0.5726443542187909 -0.5725606618692884 3.052580794280695)
(-0.3513023124033675 0.3833881693520566 0.8494549136970242)
(-1.842077712514 11.32125444644469 -4.056408812605716)
(2.528850604869219 -0.7852292375026855 -5.904685690868446)
(-0.1740882050356705 -0.7729390388905081 -3.548720595564343)
(1.352222593828516 -16.88062923864892 -3.405783550201123)
(1.388474767914782 -1.201332792877227 -2.044270991904121)
(-1.793549472478923 0.0348686884914936 -0.2504437831108475)
(-0.71035308993068 -5.848793989514572 2.238559824671785)
(0.08172727876900408 0.03382577260633894 0.08164178326105673)
(0.1384220014598442 -0.2098056139859568 -1.311121549392817)
(-0.135035291925208 -0.08504171503252825 -0.000820964281872269)
(1.006639439161563 -0.02804019191608187 0.7373618499910907)
(0.05221089193738406 0.003630261234436123 0.03847970340385012)
(-0.1229852860109508 -0.6692614485098054 -5.241463852471904)
(0.05214494986346024 -0.1315535549527485 -4.745715695739603)
(0.009257626304930605 0.004716093115908654 -0.01362396867427831)
(1.714104088917303 1.521814948746321 0.4970297323303966)
(-0.00260391723549934 -0.01443177759058878 0.01767566787441292)
(0.2158201251260689 -4.561295914715745 0.334872969450874)
(0.4427940117654208 6.846031332249736 1.821746493114971)
(-0.02808051834148804 0.1370939447461328 0.07359646198736944)
(-0.06426462792376564 0.003954472590716018 0.4765738532505523)
(-0.09540849335098464 -0.001118910655849126 -7.687110267463324)
(-2.102436650497877 -0.02078934043237085 -1.101081198104858)
(0.7429461048454948 -1.553839894503314 -1.766031035668)
(0.6516649055543944 -36.9198718530895 -1.251711260953229)
(-0.4980542862620714 -30.85107100457298 -3.409871044898349)
(-2.7476358518948 -0.2918433120079315 -0.7974656326817195)
(0.02689273713924605 0.06344853275467223 0.03132535729637612)
(1.853979234390355 1.479172578562669 -2.596016417550149)
(-2.372845040475893 1.011185047655511 -0.8785715142803988)
(-0.3605822419613729 0.314889142575118 -0.1019908418128004)
(-0.100402142736949 0.006479885692531037 -0.1525042197243921)
(0.01484656277051349 -0.03655823289580626 0.01973134286867236)
(0.216491379983599 0.1448055254266881 -0.0330132022408989)
(-0.4400980381620367 -0.945445691763102 -0.1443998688958109)
(2.223843602511053 -25.50026019886709 2.94399091299552)
(2.626037562873143 -1.890683572046205 -34.94333226853033)
(-0.5256084287250966 -5.204199981911682 -5.172434504977988)
(0.2774709608645044 0.1089201020318634 0.04075567145030192)
(0.2384004272586266 -5.330263338690609 -5.381499013503768)
(0.01421856914762037 0.01435789981871356 -0.003369941902530639)
(1.054431336568106 8.544175997446507 -4.569417133964649)
(-2.554451545304007 -40.48705451650481 1.642263738451979)
(-0.007320143092872012 -0.03704076785851756 -0.03619380895332606)
(0.1840473272946806 0.1236967833282894 -7.15580098895529)
(0.1680679896481578 7.705316880011008 3.126905313375831)
(-0.04370087212364807 -0.004878533043912201 -0.01667081307654963)
(-0.01359164329935267 -2.412941585474 1.330362756584601)
(-2.382966347397366 -0.4695460465699134 -1.709374373045551)
(0.4731217579095883 0.3329774626853181 -0.8719925796440304)
(4.19508268883565 2.492653196647673 -44.10280160987827)
(-1.031157349318012 -4.205610194654064 3.168224521934749)
(-2.919107844258962 -11.51849583153223 -0.9241697018419585)
(5.346772770673992 -12.26266425597492 -36.72137325750973)
(8.729654518863528 34.70147652805046 2.127434037286147)
(0.1379587917624495 -0.1026344170229257 -0.04466822757492384)
(-0.3112224708396381 7.861293417040207 -1.298216759361591)
(0.7150768790834136 1.171189556691311 0.8469504087109069)
(0.06056244233122242 0.04339063632665215 0.05401116827224127)
(-0.5589417880641396 0.1894842007426671 -0.5309446077545402)
(-7.631924651282706 -11.7283007536026 -38.52360768321049)
(-0.337603083688449 0.1768192291296528 -0.6849021767712)
(0.004896056852302619 -0.003970265033902323 0.003510542065685768)
(-0.3277280204564259 0.8335493107267238 -0.8320500551993573)
(-2.469235029267881 0.9359546441552598 -27.34652877837055)
(0.02283855228447541 0.05195634001813799 -0.02892923087676443)
(1.146416912405442 -0.6555764591019949 -0.6452667490544607)
(-1.813979828827357 -0.4701589490462617 -0.3080916561525454)
(-0.7938104147081083 -3.269418056687321 -2.331066673939577)
(-0.08544845335789492 -1.374632916833311 -0.09836628600837281)
(0.007121384658110214 -0.2365612139046951 -5.123630231359726)
(-11.15946954791116 0.9358182141589562 -2.796202625158442)
(-0.03401361144676021 -0.05369030402812602 -0.04295762696838526)
(-0.3619594681663949 -7.391046619810424 -0.9482066566559966)
(-0.5713082025999479 -1.729470446996522 -0.3756267015144125)
(0.07572830470215232 0.04202004935179119 0.1238152027708301)
(-1.726148529226368 0.03659980189507783 -0.398012720322414)
(0.5318877516803761 -0.6438434171414726 -0.2856116248193285)
(0.004447789453091751 -0.007855955741116104 0.001737321312704239)
(-0.03428926960621988 -0.009276202944927994 -0.009972000639510398)
(-0.01421486230064638 0.05639282353022043 0.06880496855425909)
(0.7210575396021122 0.8321613877169673 0.2790702595832524)
(2.566633474088705 -3.56794554366064 -11.4016070810575)
(-3.223493203577111 -14.96923468786943 -0.5338341532200269)
(0.2937867367147391 0.5015219639131937 -0.1566949252679682)
(-1.555331475246239 -0.05838261219687524 -0.09344458006891543)
(0.0302350035388033 0.005084938292226344 0.0007658150907820203)
(1.645470553585908 0.7268381163639501 -1.739634468299711)
(3.918090159072331 1.113093862365003 -0.2021035390276116)
(-0.5378360906219465 -3.011847028280883 -3.417445284726208)
(0.1610510589233523 -0.08746224778704167 -0.08836376483114977)
(-0.04662875624629712 0.0817903563031219 -0.07960946898482892)
(0.3100717233117594 -0.4106104791208656 -0.3350694441654047)
(0.507066451513828 -0.4671904304617567 -17.55063430323326)
(-0.03956833444569863 0.007315395498610312 0.03385797459876311)
(-0.179077734703568 -0.01006861774386064 -0.773736988959316)
(-0.01321757322545436 -0.01223257748108637 -0.010594155343143)
(2.067232349285122 1.215763972971367 -5.223815663894798)
(2.828972146646964 -4.089787362236322 1.646749653037655)
(0.2373793838204373 -1.966242797691408 1.398859239926395)
(-0.1202350470845498 0.2766323105925762 -0.792487580365422)
(0.07266190879780973 0.1015132405705058 0.1307981553486512)
(2.949575836738294 -3.292664420340527 -6.147735261450469)
(-0.1163440863612203 -0.06328644782792814 -0.087044468671922)
(-0.2168123441188328 0.5389159708064651 -0.9304806320161634)
(-0.2676644051755256 0.4841426670793861 -1.275868782211037)
(0.02003192275219669 -0.001002291867023772 -0.1574089598590312)
(0.4928466468891444 -3.476278647545061 -43.69182622316832)
(0.03271963240328619 0.3491538646295748 -0.08144184323832952)
(-0.007354357690143391 -0.006202674991699758 0.006111378578753735)
(0.2810321199728266 -3.169128844159695 0.2336090812852787)
(0.1203578303987357 -6.250834375564629 -3.628306961878331)
(-0.02050672203479159 -0.02873628035105224 -0.01546532621976734)
(-0.9345442818765145 4.53772622493934 2.583758520580244)
(-0.1819512188556015 -0.04675992417877728 -0.05275207949339765)
(0.02060481195038754 0.008324763311161797 0.009982650635159893)
(-0.0362628664261327 -0.03115071969033145 -0.05107533254908126)
(-0.1089606511987951 0.1584923371994397 0.1587456425125525)
(-0.008035472234575014 0.0009663061914574745 -0.01551319476605313)
(-5.920948549119672 6.989652821438737 -5.431087448101795)
(0.07015741766908284 1.31865976499372 -0.8615537641130693)
(-0.0468422928139923 -0.1138574329390669 -0.03120696307942522)
(-0.7197774558359146 5.637364694309063 3.320562136946506)
(0.01147924845659042 0.009770706808838993 0.06692772967957632)
(2.338168673062953 1.389555820899372 -2.08671051580196)
(1.421025604414504 -1.09771013631409 -18.24516123867235)
(4.500220394170562 2.4059334620755 2.758000970974112)
(-2.719229393678132 10.85119630386731 0.8000824278836677)
(3.482747481474488 1.620341419798803 4.515398367550805)
(-3.028760521324623 12.67658019840517 2.88047235342635)
(-0.7586608881016181 3.463198900689772 -0.2211512847468855)
(0.08197408444910884 -0.07221403802033306 0.5217996757985968)
(0.6700886119065829 -2.575868157071563 -3.171769590017619)
(-0.004406867481217272 -0.01599074156835832 0.04234946029000748)
(0.01837343446812966 -0.1225240281360468 -0.008553730142620522)
(0.5436689298544959 -6.607426453778773 1.516956843859615)
(-0.01432885833577989 -0.0369784729823054 -0.002832925039592898)
(0.01809211252296214 0.06300067891536859 -0.09507794658367599)
(1.406207452601342 -0.1335374019164328 0.3738686483392111)
(-0.1101128109729161 0.9861010865988347 -0.6337793967848835)
(-0.2252265968197783 0.3086760609408045 -0.03889006665884853)
(-2.526462104990902 -1.38367619051881 1.098105850251725)
(1.020465677822139 0.1782627095337204 0.09227924343981814)
(-0.2454304987058777 -0.06686167090520778 0.09308055007908371)
(-0.01347276899001421 -0.008289700625678628 -0.006478392265216798)
(-0.9962843482596508 -1.039335134701815 -15.75746985381307)
(-0.2388977411209953 -0.270704639938205 0.03033174012967985)
(-0.7177983247432369 31.31064543781222 4.583027582520352)
(-0.1243029458666776 -0.03340690817915497 0.007922826199106434)
(0.4481498900327547 -14.4710288535128 -8.048075267878485)
(1.58836715734852 -0.1220013207908518 0.1200975423670521)
(0.615086749472196 -0.3945162649974714 0.2732707563359579)
(-0.6115755391215068 0.8994929911813521 1.832291078823247)
(0.1211061928470295 5.926581462678514 3.968152845978097)
(-1.487544227355832 3.124091348407406 -22.22012349478153)
(-0.6793377535521141 -4.77717710581771 -0.09885446272529319)
(-0.005832533012534738 0.02416890807023368 -0.02958563998787022)
(-0.1188355855414596 0.00782781932891574 0.001078337445442344)
(-0.1374968853542116 -0.1157941872748706 0.1047738192479445)
(-0.09253728186277112 0.01787830324041702 -0.005151895722905857)
(-0.0171814754469589 0.3503618920082875 -0.02223511438588351)
(-0.1577432152799002 -0.03493109646428545 -5.466338883366001)
(-0.004660786523174705 -0.002838891901245359 0.03312046342542478)
(-0.133875226244167 0.005801850668940331 0.006807700743829061)
(-0.4918821843516802 -0.5167733716568356 -24.7056732821171)
(-0.03094338213910644 -0.03589600407603763 0.03706740054395452)
(0.9324096631074204 1.352515301874245 -0.1178956274219717)
(0.5356961920240209 0.4132800424403632 -0.2429274453165766)
(-0.1990091994657878 0.1185814323297228 -0.2537280020005298)
(-2.323604204227473 2.746962109072115 -6.846070029675503)
(-0.3352980699831041 0.1201280893002772 -0.148143716789903)
(-1.550520866299833 -0.4047629538218728 -2.090923737640414)
(-0.02202752915633336 0.03148422788979643 0.02435031826375032)
(-0.03739750087625159 -0.07527323678571204 -0.1512200565712936)
(-0.2246132427471111 -0.1298769817891679 0.2123065103994501)
(0.02517518406897219 0.03661872077858094 -0.05703196882134085)
(-0.1110197831391432 -0.04831818808971059 0.05109474584828678)
(0.152484007042853 0.01788076674300293 -0.05216297673661735)
(0.3225990221875826 0.5036586038886562 -0.1718278035657096)
(0.01396422728348706 -0.02206664151724055 0.04570127585855848)
(0.07936611536591463 0.0391904319570328 -0.1065219123726884)
(0.009710352220536025 0.004026177034949299 -0.009273666653254643)
(-0.1639658447455606 0.09052268979650137 0.0030974216828097)
(-7.25347826789989 60.32168979943733 -11.443954330567)
(-1.592447118927401 1.084037308002955 1.406913179311678)
(-0.003989539403618854 -0.03638213340706913 -0.0520140650699072)
(-0.04355630507881268 0.09294275444982969 -0.01519170983964719)
(1.98080901324306 49.2749312282967 16.87959499414794)
(0.00236762075223014 -0.0127970956191492 -0.05073232593094491)
(0.08008736320829708 0.06526493633661062 -0.0411304403004894)
(-0.7843037198426319 0.5036631234519101 -0.3125157983121393)
(-0.03906717382584186 0.005953996340679094 -4.973398233359664)
(1.627853159181359 0.4978966793180412 -0.7526914914409347)
(11.23096913103517 12.47870812259192 -44.46664756479453)
(0.533751747901813 0.1738373284557811 0.06482031823509909)
(-1.057114408861681 -6.942602365642638 -0.7331541707418672)
(0.004227559919577469 -0.04534137139527114 -4.76904298764345)
(-0.001837497320473457 -0.05717445484615917 -0.04678651930720566)
(6.274698912169195 46.2455832754349 2.780231550023792)
(3.694207257131958 40.19132784515261 -3.514518872325386)
(-0.06051977297214228 -0.05789119640326092 -4.978911394765537)
(1.688717277366271 5.715093997766221 5.690134341022286)
(0.03897743347888902 -0.01587691144708639 -0.01301038393337417)
(0.06467981845311199 0.4501512589485339 -0.4239512689569879)
(-0.2952284387392425 -0.06583807201047792 0.1467655102036874)
(0.00199539191726893 0.004246220281840889 -0.0003270814817188067)
(1.652791330561942 -25.01763856671841 -1.2617441225192)
(0.5108050780951179 0.1795212304866555 0.03420929017589672)
(56.08815876488588 -38.72787232966902 -94.07237406395583)
(-0.07076103244531931 0.04421502088037955 -0.0282433464534346)
(-1.971727351083878 -2.055138939892867 1.50617583670308)
(0.6994467538565743 -1.808834124438307 -1.99501024628691)
(-0.9668473664429427 -0.146345235898446 0.2698429667081692)
(3.202516087589157 25.47145242556766 -0.1180357469185441)
(-1.038407616681621 -0.5735614283812533 1.234984321767124)
(-2.067209606405346 4.874118650773967 1.309094163549212)
(4.560581168206665 -6.004738684072474 -0.6427340222312414)
(-0.147898800524376 0.01291923589189055 0.0589001978250215)
(0.4432473184589968 0.6237851412478104 -0.9279185037205451)
(0.1665846756737231 -0.1924931702204882 -0.1607825613368767)
(-0.4251194504353302 -1.320273395934859 -23.52907011734348)
(0.2770186948311221 -0.7727774010623389 -0.3190141331874408)
(-0.01645061007580747 0.02042970652724597 -0.009635368613965035)
(0.09316196808118972 0.06299040721972288 0.04321732511681418)
(-0.2199345257740198 -0.03398391389275812 -0.5072702215855863)
(0.6636259226882881 4.149179196099425 -3.645388118255659)
(-0.03211308614545643 -0.0374828243055703 -0.1037518406881364)
(-0.26035402139806 -0.1158465461133196 -0.07680968131965575)
(1.946086507182747 15.49143733012998 -6.608487458372204)
(-0.3032880742209151 8.636775387635884 -0.6258954858559439)
(-2.590170210817894e-05 -0.01270808650663273 0.001578080864966208)
(0.589643918755408 0.5882752823439478 1.144191403530136)
(0.4642763492868002 -0.3856504142885918 -1.87641442173453)
(0.6864731164630786 -2.171510367088185 -0.6833480655023014)
(2.314915430147721 0.9812108712024323 1.094839705388288)
(1.286361505103427 -2.189492744439993 -2.896763875325664)
(1.583558325489807 0.9250493852151001 -0.4157305089269029)
(0.1763759385787039 0.1917298258422609 -0.09484252980094077)
(-1.811986264152265 -1.987005156822906 -0.4956453394646745)
(0.0868281826626511 0.05755347386404699 -0.01943882818669935)
(-5.455725312515777 -5.833941550516023 -29.1716510340729)
(1.607346249926699 32.20484082711867 0.2135171545155554)
(-0.8395282920671603 -0.5074032288696587 -23.11596735442312)
(-0.0207584274492578 -0.03954819043787789 0.006243704924007113)
(-1.614565962850319 0.4657365366244061 0.3399656498857828)
(0.007189392488733541 -0.006420303420642436 -0.001377377133216099)
(-1.230337225072016 -65.0777231555673 -2.250403899965153)