/*--------------------------------*- C++ -*----------------------------------*\
| =========                 |                                                 |
| \\      /  F ield         | OpenFOAM: The Open Source CFD Toolbox           |
|  \\    /   O peration     | Version:  v1906                                 |
|   \\  /    A nd           | Web:      www.OpenFOAM.com                      |
|    \\/     M anipulation  |                                                 |
\*---------------------------------------------------------------------------*/
FoamFile
{
    version     2.0;
    format      ascii;
    class       volScalarField;
    location    "0.5";
    object      p;
}
// * * * * * * * * * * * * * * * * * * * * * * * * * * * * * * * * * * * * * //

dimensions      [0 2 -2 0 0 0 0];


internalField   nonuniform List<scalar> 
19632
(
-0.05992435848286482
-0.01366589439222034
-0.01646343452873164
-1.041599059657837
-0.01942386835452152
-0.01562133963771193
-0.05253861322405926
-0.007216417813058917
-0.02089550844653768
-0.08498493109239826
-0.270748960378015
-0.01608717059311345
-0.02019911549798193
-0.02643156911982445
-0.1216817961701798
-0.007715444368835117
-0.03457887123951865
-0.05303546266721584
-0.009031694349136124
-0.0117956133659976
-0.1326726800129369
-1.631047591177154
-0.08521186286332096
-0.01007318277174914
-0.01078576960464282
-0.009289353352456868
-0.009270188668606721
-1.387771057764174
-0.01409587104299334
-0.02449131769784766
-0.008316199024486982
-0.0683155022209931
-0.2626981688087373
-1.003266871703529
-0.02491694622463695
-0.01972493160542719
-0.008229737079117505
-0.009212547923254856
-0.009112784520694309
-0.09721322699870853
-0.009498481984648501
-0.07174557343800739
-0.009313123038089821
-0.07416583686736392
-0.008584321354716587
-0.00578026842358023
-0.008489251598796462
-0.01142961655387817
-0.0170266895134901
-0.06732754245921321
-0.02358035621937212
-0.01828318040355624
-0.007095725070558613
-0.01424630869876822
-0.01870165003054118
-0.01761335052605602
-0.04474013845588641
-0.01282838755243445
-0.0091391470188042
-0.07766575478488053
-0.01136484680915679
-0.01110382617445791
-1.007064663384637
-1.664750545130997
-0.008904092897274601
-1.503167398133153
-1.693070468106502
-0.007476133505002031
-0.02116172569586069
-0.07347051142588215
-0.07115151125147362
-0.01526821434889467
-0.005697634876510344
-0.00538702502199661
-0.01001625291582087
-0.009956379457565086
-0.005947176687456803
-0.1603270569389547
-0.01346858334892846
-0.1632059897194248
-0.04383632724240561
0.05029882871320456
-0.01707061145196198
-0.01862851193506663
-0.00855415750908412
-0.04411248276677263
-0.007989476363159567
-0.009289312471695481
-0.03697970428434912
-0.02049865610465934
-0.1343880687333273
-0.01003810518096766
-0.07468570335598829
-0.06946108651096049
-0.01339906332661116
-0.03100863188573967
-0.02169935767739896
-0.01998180301556721
-0.007536025759733308
-0.008954638039013568
0.3977856200119114
-0.00727610411928385
-0.07415311116728486
-0.008797975518106306
-0.2639714825562138
-0.2536292698197665
-0.04877756719503932
-0.1937256414200277
-0.007773132681475186
-0.01270855220784372
-0.1087857587152914
-0.008999394884245508
-0.02669568191756507
-1.959352145878649
-0.01199245249487318
-0.1964617930178377
-1.272502671232848
-0.2321400631607318
-0.03830922236628045
-0.008128304550217453
-0.01117805379137896
-0.03144981980822949
-0.01692184577350097
-0.01322701450469007
-1.127275919147113
-0.269518475107858
-0.008860030165010769
-0.03956092263311012
-0.01659169201265854
-0.004938953293938322
-0.0224045312877698
-0.01574076180184966
-0.2801835663130131
-0.006280513304885374
-0.02425050135357993
-0.1360413724336801
-0.0474637983109259
-0.01590849850756454
-0.009908439367741571
-0.06681076869821351
-2.857149088257626
-3.836152417867294
-3.174787704618133
-1.518659691563072
-2.333610777758087
-0.006574431752088235
-0.01121971944671793
-0.05823981410156116
-0.06723981310329891
-0.008559213958397807
-0.04794474402499981
-0.05080852334110305
-0.0395244505166718
-0.0127750463316472
-0.02286039448945584
-0.04078609386664486
-0.00622615563086034
-0.0119814484396759
-0.08352247261128939
-1.919134096557137
-3.702073273550961
-1.914754292229481
-2.756026173120835
-1.127992734073908
-0.03325617051802408
-0.01032717209305631
-0.01098251134586918
-0.009966330462524131
-1.63960266466661
-0.0178746288895418
-0.008938513036561735
-0.06726009536891962
-0.008834093082189104
-0.0173819860691904
-0.01775137576991903
-0.02724640249321564
-0.008536718409469395
-0.07026648693226267
-0.008922908017505117
-0.008580804912231493
-0.005425276278525638
-0.009050103896320745
-0.007997863510546569
-0.01044811731345228
-0.0100148033847177
-0.01002109882997889
-0.01518204315454708
-0.007254524153110783
-0.01144384089546171
-0.008532293443265606
-0.01107691455182922
-0.1087049239352188
-0.1735071454450193
-0.04637450216668752
-0.00496475880049593
-0.0170579216193594
-0.04475360263337285
-0.1552343966361312
-0.037622687598882
-0.04857879481582863
-0.01330501962865572
-0.08373829846849255
-0.009663630034176666
-0.0292463545656035
-0.009006688457129325
-0.03967410467457238
-0.009349620848795072
-0.02863593868493967
-0.007722889988431346
-0.01246458943415397
-0.07025124616279593
-0.009746394646478624
-0.010454217284303
-0.02020277587399031
-0.01533543643367001
-0.008735253592725215
-0.04179029185651042
-0.01125654439781894
-0.007435963868828887
-0.0415064847277069
-0.01043389139431411
-0.0186015545067285
-0.01320469399696305
-0.007867287329917079
-0.01471869911893472
-0.008541910703945716
-0.01623036447713276
-0.03124226058308206
-0.03022745938421365
-0.01914934722655871
-0.009404796027388841
-0.015207584919705
-0.007806108251685572
-0.01657603595436712
-0.06740195289981854
-0.008036983945275271
-0.01444068087216297
-0.01476588417602876
-0.09022355297842317
-0.01651268627352141
-0.01021871747701657
-0.04612738568662098
-0.1047260729902123
-0.01020931599888123
-0.01613331919270267
-0.01844825789502683
-0.01348866095444545
-0.09451625597853476
-0.008555574154327263
-0.009970155752479068
-0.008587990754549375
-0.01343663770871591
-0.01246487418042737
-0.06996893159523118
-0.06696826903842257
-0.02639990513991431
-0.007953055142413673
-0.002956310497652749
-0.1849573558462503
-0.05832238957381197
-0.07986330857940639
-0.05346199117529459
-0.005023080180454028
-0.01711488387977639
-0.02720213344081438
-0.01510667815478137
-0.01797687343224973
-0.03164520384721708
-0.01610461716662836
-0.009700408353758539
-0.01689075256871666
-0.007696316324535543
-0.01095503237240807
-0.008889337389992919
-0.01838302558383099
-0.01189074722767098
-0.05165911071684674
-0.023824158851938
-0.01027315484484703
-0.05465068633799779
-0.00559825615196672
-0.01356528428875832
-0.03366315981624095
-0.01971565498415855
-2.213678176541512
-0.03548110992695502
-0.06019120608702556
-0.04826414189890628
-0.06924298041393233
-0.06533165386863601
-0.01351765194079387
-0.03596239882051949
-0.01438384943083511
-0.009019594864313535
-0.009275239591010002
-0.006934841156539536
-0.00915420648736588
-0.04597681230966338
-0.0149240483738321
-0.01472161596351406
-0.1800781764272726
-0.01483930069168344
-0.01626104699821159
-0.009851300626717125
-1.573000770776209
-0.07748822587544577
-0.02001964255508521
-0.008468237499098419
-0.01363681505594813
-0.00796958343923454
-1.248230221815112
-1.157036111626952
-0.3477709418683589
-0.07386254955850481
-1.847676124138017
-2.791913434278378
-1.882881880899156
-0.00621249707353839
-1.865235663366801
-5.055915731939996
-0.007943479072451329
-0.01076614620701278
-0.1013553389360861
-1.81199009938439
-0.01435428780671452
-0.0637757622498915
-0.01011373995755368
-1.177006293109529
-2.512851006568611
-0.01705445967289583
-0.01565950582037896
-0.009158973168203233
-0.01049140027144727
-0.06507276551294251
-0.01183971666427885
-0.03377008128867215
-0.02244208409643569
-3.58268863520312
-0.01731847304046527
-4.761070846294928
-0.04049348483398529
-1.760737806464126
-2.053042471476362
-0.04773318402461386
-1.285138780660264
-0.03882739244802233
-0.04640240491814297
-0.07910345724734176
-0.02675771434970953
-1.537020827692741
-0.05087985567829895
-0.01690222025757974
-0.03092520672555871
-1.022066267258866
-0.01000614139635473
-0.01022360541062967
-0.006422595207046199
-0.01642816359376861
-0.01668731192628409
-0.01713377949061102
-0.1098689209192293
-0.005353482627105633
-0.1582739443403386
-0.03295371419777646
-0.02668703455975988
-0.04950696075114996
-0.03194000644490379
-0.1449615661315573
-0.009218145963170396
-0.0658428067759414
-0.1071707897785782
-0.01279257944055769
-0.04815884814783847
-0.03714424527592926
-0.03878614638844871
-0.04494973214088882
-1.3050561743121
-0.008974471631798989
-0.007929996943176311
-0.04094255955790739
0.03430248987802473
-0.01684658873349682
-0.04043348830877506
-0.0100689820370394
-0.1689830532674677
-0.01596954331839182
-0.009718202397044302
-0.04249621192678623
-0.1098697177140383
-0.01713718899263061
-0.01500930378116448
-0.0419238088949914
-0.03838648674910426
-0.01372338763651605
-0.02807260295700888
-0.02847277876538329
-0.02928253441206865
-0.02920203397098261
-0.005381885945928872
-0.01862761420201157
-0.03749250625474587
-0.03493763142978752
-0.06642242857419488
-0.03773259612717754
-0.04670963342208814
-0.01698444466712276
-0.01420839622628463
-0.03380996358660872
-0.1418056422067585
-0.007205499242582985
-0.1470882593834764
-0.02027593864792054
-0.287767615077565
-0.02355789550081533
-0.02670734079747412
-0.04306049845486271
-0.03723160606282606
0.05126120658724394
-0.04145212523154466
-0.04712926921525058
-0.03410587513802568
-0.02499854187308324
-0.008240195832032202
-0.05911828163609968
-0.01942779352113538
-0.008978998574295797
-0.01641836071658979
-0.0145490592122947
-0.008198010258046468
-0.3979528254389854
-0.01714412051039706
-0.01695210173504008
-0.01919310809047734
-0.01747163578049988
-0.01616218450630617
-0.01672975860066895
-0.01779619229350417
-0.02143813822679082
-0.02102004682465948
-0.02015064540513976
-0.0362354442294974
-0.02583347018753806
-0.03391860468989755
-0.03248997184198853
-0.02409969432333495
-0.03506679051519458
-0.008471462928791581
-0.03861285714186995
-0.02096799837072129
-0.02254944611588053
-0.04038604695374001
-0.02901483704275199
-0.01148960210455987
-0.03055169238864651
-0.02338109564125789
-0.04336712522940406
-0.00832586595771099
-0.01093639667817829
-0.01069700603067841
-0.086411209572254
-0.06259092036875072
-0.02417394948683751
-0.03016130742549593
-0.01255929963140564
-0.009950384541188335
-0.01096927441839394
-0.009992682928894913
-0.0686161586470648
-0.00545757378151288
-0.00904522878570283
-0.009918285253894845
-0.1504878448826928
-0.04197960281880469
-0.01451960570115027
-0.0110706623775449
-0.02852225588578895
-1.173014648310802
-0.009882473752859588
-0.01435962083253365
-0.05155196428174207
-0.02908354858859158
-0.05468101540623195
-0.009365463147237782
-0.02492765826968153
-0.01848155756746874
-1.115765903182711
-0.02416812947114636
-0.05259389700545628
-0.01320099500067216
-0.02110820200058661
-0.01078868856290622
-0.05273169146574211
-0.05581057848287834
-0.02441806070799727
-0.02428883441195967
-0.01977240942306306
-0.01334205942632051
-0.03037500701089218
-0.06506085444165099
-0.03869429168553541
-0.03254439890209873
-0.03397942057964075
-0.01165418120128552
-0.01612394418459177
-0.02786799977006342
-0.03388322613748641
-0.03791054118062614
-0.03247429572478223
-0.03392895243235147
-0.05430138956199307
-0.03003305854493554
-0.2501243881486672
-0.056675118746982
-0.1182697400232005
-0.06336698722887985
-0.01452791760297259
-0.01028791472341027
0.08348962477606524
-0.02243723491766093
-0.0954734394375735
-0.007947971967435111
-0.01974369251016132
-0.02068125422335484
-1.006357220887522
-0.03096483758105432
-0.03752652451060291
-0.02413207231490011
-0.02974501203040852
-0.01381773098647551
-0.04934758204671114
-0.02211272283910837
-0.01399223093286645
-0.02126563756896499
-0.01232850249801543
-0.06935128192357612
-0.0494959419178626
-0.03741193207261073
-0.06040656853776976
-0.05570560253816847
-0.08405925758829294
-0.07342723265804245
-0.01354715405833225
-0.01412654002200606
-0.01424249448388356
-0.03182331040550467
-0.01732972550345263
-0.1270125967604824
-0.01655499844654192
-0.01877310010702749
-0.02774903995661511
-0.07466582569587596
-0.01355391700710426
-0.009314659000368286
-0.01015429765725849
-0.05636996403886506
-1.11320066267443
-0.02853560973588019
-0.009840537775946666
-0.01164829389173867
-0.01048207113390693
-0.6582627779254897
-0.06160205970347048
-0.1017634140850161
-0.04923550903175834
-0.0519446601388619
-0.05121668885161168
-0.9912338225673057
-0.01167685436542129
-0.01327308638016186
-0.008451880292657251
-0.9966043806573032
-0.01027500714188434
-0.05189648111227051
-0.0467711896924291
-0.006735423355126953
0.3605724385455439
-1.519729221707684
-0.1663357557552101
-0.130611828932436
-0.00857370579171513
-0.01972843736133056
-0.06976838560343332
-0.2129075293109712
-0.02039759040742711
-0.02691577421872007
-0.02319823166903922
-0.01800182475901754
-0.0322849491465943
-0.01799686426351763
-0.02712046509623132
-0.2862912819495199
-0.01690086851619138
-0.02321177530174457
-0.4338119185793154
-0.008997357975850055
-0.03114042133334939
-0.01942391612340647
-0.01148829018926938
-0.01148140630111241
-0.06274364710392896
-0.06054382226409489
-0.02144903821041032
-0.01172228400820145
-0.03999237559793418
-0.03359729166993362
-0.01392072971228149
-0.05855201169418131
-0.03776433285421341
-0.0588714149556907
-0.07377151951268822
-0.0155840286167196
-0.01482887558664267
-0.01341053217219337
-0.04241662772682651
-0.01574092157673035
-0.8233663247170666
-0.01497272432434679
-0.1142944964984592
-0.9012962127887502
-0.01377718144039921
-0.01485947940926084
-0.01606724499057191
-0.01542126508650224
-0.0091430391869834
-0.009304290276586734
-0.2903980574202277
-0.01628386047726017
-0.01496963530061911
-0.01376371862671538
-0.01382007327345395
-0.01539157042136677
-0.007381138814184303
-0.07682161532564344
0.003375325212648065
-0.01747595455909748
-0.01626519881693408
-0.007268573892726705
-0.01143911338176725
-0.04205552830518407
-0.008248620838712148
-0.01450234260291203
-0.01597209963096028
-0.03198075953346389
-0.06144503948315581
-0.2259623892688992
-0.03031843134112992
-0.01159225370971641
-0.0215758812734219
-0.01120206616403165
-0.01213796749945215
-0.08254417297468458
-0.01210511040011944
-0.009310752226070147
-0.00946481581285033
-0.17344158650494
-0.1044090624536562
-0.009719950070295939
-0.0106554992043751
-0.01768245666744552
-0.007548983701031595
-0.6485091406548361
-0.04991476752468867
-0.006321603816782166
-0.07242935832874815
-0.04597107680938375
-0.007568853319714753
-0.6665547016204797
-0.01547802564848506
-0.0201638641935934
-0.01387314488996236
-0.0317186239772748
-0.01361661842627335
-0.06061467592992081
-0.0572572896103876
-0.1102272862451124
-0.5655711891490972
-0.2975681068534881
-0.0509152527090953
-0.0302871544113288
-0.02242445754494714
-0.05270108002936022
-0.00823276154548213
-0.04912868323764236
-0.009953345668597771
-0.06771974772354732
-0.009835766947138289
-0.02821147743763309
-0.03290809290470779
-0.01132698933835733
-0.6363677773869265
-0.01058333409252846
-0.01799843019899825
-0.01196832751989904
-0.01127576996036797
-0.02182751891809209
-0.01399899948134618
-1.142750805297487
-0.01762037509646077
-0.02009073447522316
-0.3307919661580399
-0.07456282847372461
-0.01454197326497353
-0.3546498315409013
-0.6981791225749875
-0.04409395639215177
-0.01968025204046116
-0.07122784369390053
-0.01638764809043817
-0.05545225489450765
-0.07135780838989036
-0.007433231469895054
-0.07244455450807689
-0.05913408064210759
-0.007030141940350925
-0.01769934913498782
-0.007204800510058024
-0.4933394630485225
-0.04832110468822916
-0.7372731809962433
-0.07053440759142811
-0.03947953240546313
-0.07174564761224006
-0.02092256888467666
-0.07333565870345467
-0.02804984522790523
-0.0703041319758214
-0.01683509398894293
-0.03680238746666324
-0.06197001613178413
-0.02621171098717227
-0.05654253122142114
-0.02884686408018913
-0.866094640039485
-0.05404543325770957
-0.04870077708830441
-0.3331002982195895
-0.9139217293817375
-0.04149126199069947
-0.01286306410906896
-0.02969650493144077
-0.0480165426117358
-0.04256277956233462
-0.02823128222812512
-0.9231752330555529
-0.05421962556696314
-0.52015842420122
-0.05746853031237666
-0.04707181573768289
-0.03548875810746478
-0.08988742962029767
-0.04771598739881871
-0.03249048559964285
-0.06425269050676438
-0.058507555769382
-0.03829016552414782
-0.06373636723464268
-0.04883200541178647
-0.009910541039264953
-0.01177300859200785
-0.03804195914818426
-0.01221800500122402
-0.01053022047725623
-0.008589035719785405
-0.007609837992929311
-0.008142383058641437
-0.1022621764640001
-0.1210606516264225
-0.007672961058111666
-0.008108647655404429
-0.008774651713861249
-0.01061186333994324
-0.008335093267234509
-0.01779317530232413
-0.03730534416875637
-0.04151305429617818
-0.008515822831704928
-0.009584723484522386
-0.01134036418310248
-0.01115731929367437
-0.01148884989314397
-0.04156029139900842
-0.01068367765805783
-0.08889549561747082
-0.03329354471779303
-0.01023555963472493
-0.005406485059707723
-0.02879661603209136
-0.1928716248845127
0.04149393870305207
-0.01237400197782837
-0.01194491174895333
-0.06560961596304175
-2.101601334952769
-0.0847890275893558
-0.04062466783752775
0.2496044393061533
-0.01308007224929308
-0.09514800691927498
-0.0599390784648688
-0.07454830776654374
-0.04936097979955563
-0.02582346448996443
-0.2293320053887698
-0.05499437289132817
-0.08301889801085993
0.6617880916466098
-0.07553014596114575
-0.05255683476325817
-0.1038232280043922
-0.03975989745696954
-0.07316001043505754
-0.07708566495288213
-0.186147848634469
-0.01499237267624839
-0.10674582835715
-0.07131103096477397
-0.05768452869665425
-0.9317623363450844
-0.04663746926915747
-0.03066113772245946
-0.009645530705613942
-0.07432832010193953
-0.01615206229969835
-0.02023749967736699
-0.02228703977661015
-0.01870252038446879
-0.01972949591307076
-0.06445547848570254
-0.09051839843785421
-0.08042521594933164
-0.07521204785145966
-0.01759947446801415
-0.08307687087017554
-0.06643657993864752
-0.01487832818996315
-0.0578194817306192
-0.07698522795557307
-0.08505236369324254
-0.09973223304378408
-0.02127245177028445
-0.01259365016760454
-0.8352368492148261
-0.03440899910030135
-0.01506392638504409
-0.02266186670274423
-0.01199702761716115
-0.02910034819761573
-0.07223489653184723
-0.01453273065963939
-0.01203674259237971
-0.01924723029125214
-0.01489805968416041
-0.03960817352788876
-0.03359629555591922
-0.04639656399321784
-0.02585221894622795
-0.04268943905618284
-0.03917258478083761
-0.2237437379558685
-0.01837149593578115
-0.01141049178034783
-0.04203424594557139
-0.03499128301581023
-0.03530943566139628
-0.03794617544205701
-0.04403319903088573
-0.03989438344065639
-0.04412192961696156
-0.03554708802908849
-0.02700497515880195
-0.02517233522330972
-0.02407622220231989
-0.03615664878867667
-0.02310491691553544
-0.04045745404419426
-0.07281826437887001
-0.01027534930358468
-0.03647855234115534
-1.907346200376226
-0.04353403204762921
-0.04132451108323829
-0.02930884812174181
-0.04322500123946107
-0.04723239923294335
-0.05230906475510869
-0.04876254705689299
-0.05849514165138717
-0.07587940267402754
-0.1840172442310598
-0.02571903233025482
-0.1747836501438481
-0.1846827298366866
-0.9901256215514468
-0.04374631699254772
-0.8439037646702662
-0.0916372665190984
-0.09814816845237544
-0.08339641115030234
-0.0297127941850905
-0.01551532862844781
-0.02024965381780221
-0.09190611525542215
-0.03393314590432097
-0.07648466240910555
0.06177950488778568
-0.1504096984075385
-0.08113515314183994
-0.06985255988813845
-0.009140952353138639
-0.01475715330551078
-0.01783508032505399
-0.009042609519411333
-0.02992808163184335
-0.02059241202991329
-0.8607854871419074
-0.06806176438382959
-0.08197890404485704
-0.03819288330226597
-0.01203009515103136
-0.07584942317080699
-0.0743019860599243
-0.02253982313060425
-0.06983784807752015
-0.07104175923048384
-0.1068846767162491
-0.02210446394191493
-0.1804981551164467
-0.07416782916988314
-0.04818545495644828
-0.0427509650353972
-0.00940951897553873
-0.01303290341138273
-0.01084377021008124
0.2932812539360453
-0.01151834944651993
-0.02113183724633433
-0.01270312329921918
-0.01212744111358395
-0.01169441391347839
-0.6086045535385578
-0.01384622845098579
-0.0566200363799582
-0.9248126126797664
-0.0369157131125166
-0.0333981162387683
-0.04571351372115102
-0.04855295202408248
-0.03774737165527829
-0.07446088041309139
-0.169016658400174
-0.0394927673147011
-0.117435811961241
-0.07108212848049962
-0.08380697695066028
-0.009985522279606149
-0.06268621206762647
-0.03516647102504292
0.287898545794677
-0.06193742255112729
-0.07630136615118358
-0.07169319299592493
-0.07879491326397715
-0.05775751216340356
-0.01938886792176928
-0.02127387404737304
-0.01046690310633096
-0.03821294420470572
-0.03538526891565093
-0.008639220471972643
-0.009329434348804601
-0.5736849439001365
-0.0211996352653204
-0.03574245955891958
-0.02251398258793255
-0.006313858688027541
-1.778410143225889
-0.003918427967923127
-0.01085249782638813
-0.06094998361622799
-0.01140933280094679
-0.01059535741452517
-0.01144444370866641
-0.01229207248659587
-0.007339319234219544
-0.1195485970325682
-0.01012556756227258
-0.01128563208715616
-0.1179439257595097
-0.05477328749943548
-1.338700469518385
-0.007311572851648349
-0.02109542594062444
-0.02289585059051917
-0.01309924127966806
-1.132052343541496
-0.02623780037753882
-0.03840953192180546
-0.01753266151575329
-0.02022846696701829
-0.1041739118948129
-0.02200040786898749
-0.01854672388013513
-0.0169316828200013
-0.01880734871061796
-0.01996878652682601
-0.01682500486096557
-0.108101748390892
-0.01771200927868975
-0.1513574484853619
-0.01466069557411317
-0.1035236527429489
-0.0174445735452762
-0.02102439290346146
-0.03108733950188101
-0.02166761208313246
-0.03460880910847625
-0.1708499365499304
-0.1722805936129017
-0.6337183368530409
-1.072364646195388
-0.07257550344324769
-0.3573182004878269
-1.758277621641963
-0.1724018922575953
-0.02134459860213745
-0.05970688002932379
-0.04763075700858207
-0.2082595644135314
-0.1063616866338991
-0.03655891307670522
-0.08254764398206202
-0.3460874540090625
-0.3477388028299465
-0.1925958099305807
-0.4701309394254209
-0.1127639546144164
0.1463831564255147
-0.1101427504889076
-0.2194758760072065
-1.289063346611638
-0.06870172714264335
-0.1701373620278639
-0.1400520985257729
-0.09236174694039909
-0.03325721491869458
-0.2043312823513847
-0.09663382021070813
-0.06214042738537878
-0.1436393601290483
-0.5980529720208294
-0.09600213911249127
-1.124131751158153
-0.1800735449020852
-0.2289348773493408
-0.09729227291883567
0.2932059165715171
-0.008436364491407021
-0.02941043707666852
-0.1022572020947685
-0.248635729031158
-0.2790991365864772
-0.07338218163856955
-0.146883664591178
-0.3398931671877608
-0.002244954805654438
-0.1084513067932077
-0.07931339467771265
-0.008479935654687383
-0.00928179470112161
-0.008075375857944642
-0.008035538770302329
-0.007842075669583528
-0.07542283760554161
-0.07110822804581812
-1.764451161707567
-0.09511016530593548
-0.05439708785954983
-0.2396211908260883
-0.1124348198545225
-0.1165761982778128
-0.06398926648591377
-0.05995211732303404
-0.02155146192254851
-0.6953458319965801
-0.02380228801924782
-0.0108977775700765
-0.07229607286507121
-0.06168929533723988
-0.1185304217263409
-0.01613004891634811
-0.01757553338267998
-0.04836971641101343
-0.04907866741549583
-3.665252118994121
-0.01572314225325037
-0.03519885086429578
-0.07690624905546492
-0.1051045953929476
-0.0207229228914878
-0.01186658329049644
-0.01679434850245379
-0.008906701785009701
-0.1517145443057341
-0.03125806035152312
-0.08050554219609159
-0.08181305207519053
-0.07802382870510804
-0.01731910234133929
-0.04426792887374417
-0.0652454399723474
-0.06661111054876567
-0.0525704233543067
-0.09049775702818766
-0.03906014317709247
-0.1428183195137008
-0.1342125120768591
-0.08682029337681721
-0.09117587323282372
-0.08153477540457067
-0.03133106406104758
-0.005421286579672399
-0.04440797343299904
-0.04467123527009974
-0.1222799273514822
-0.0984833375981455
-0.2070778346163337
-0.02159644136108831
-0.06623459852623934
-0.1785117269909349
-0.01898665405518971
-0.0232709645001539
-0.07452575205733597
-0.3090095440673706
-0.02287674580259207
-0.3692486175402644
-0.1653616468259421
-0.005248856303596721
0.2452542408495443
-0.04132782128210028
-0.0370817655605526
-0.03722721136239495
-0.02997089337555119
-0.03031261653288056
-0.03095714178424583
-0.03552791637945918
-0.03148858641821396
-0.05639824082949364
-0.03615422756164085
-1.115755577224306
-0.02701417766244556
-0.5874200464479749
-0.02705088856672997
-0.6949471683602284
-0.02321704580560024
-0.4868749162918476
-0.01564512100932107
-0.01573478019687547
-0.01465872345378001
-2.050096479858013
-0.01327321819968675
-0.01501856276337054
-0.04958223164274811
-0.05038193275399146
-0.05232817519246204
-0.05574182697926164
-0.01873587362140278
-0.02010630240458776
-0.02345753156679088
-0.02666653173974015
-0.02474579614536501
-0.03469302221583115
-1.317748630612252
-0.03286686106468428
-0.04191442439689935
-0.07459938933286032
-0.03973381674778923
-0.03979883214861346
-0.1251141329930326
-0.09863265830633454
-0.2651091004479676
-0.2050124205529383
-0.0575815209927313
-0.04549502949910877
-0.06314093846718447
-0.06556668275169755
-0.04957376833750417
-0.05036799679816389
-0.08637740416387363
-0.05291870932124721
-0.04376211920673832
-0.05299333605646963
-0.1225710719020132
-0.04182336017166702
0.4010179841869665
-0.06920942434001578
-0.03129779125191446
-0.03642464830010596
-0.03541419346246683
-0.01043858954318092
-0.04473226794927011
-0.007295125189173043
-0.03551573867905913
-0.1154759303530484
-0.01093275399429
-0.5626760425395099
-0.07037418570848669
-0.02324399889658082
-0.1772381000165176
-0.11461792304964
-0.0202255931062403
-0.01774169716094258
0.4249966942254446
-0.04304107924089585
-0.01669945675071837
-0.1081137050673619
-0.1201513523713687
-0.01862292896160444
-0.03055447197107211
-0.01857118381671665
-0.0111715296529749
-0.02126478213540953
-0.06602539301560637
-0.0167054633209623
-0.08278176011764836
-0.144115830678077
-0.0988995753910928
-0.5333250086101066
-0.02683147386914923
-0.05608442515085676
-0.06668363213115334
-0.02548282498218786
-0.03691360677460736
-0.0183881058069828
-0.008005557024646365
-0.02064215053008443
-0.01494399384133103
-0.01066545137823666
-0.03531992399140726
-0.4541352800159519
-0.4955294335412248
-0.06778354685880793
-1.076983790907498
-0.02711356281293023
-0.07041333787765862
-0.5173114766834388
-0.05375077820708436
-0.01651044266895764
-0.02360587754478245
-0.01706558594375974
-0.1110328225883688
-0.0312426850061282
-0.0308912865400771
-0.03051452018384215
-0.0320454314336393
-0.2292703941256993
-0.06084516749182615
-0.02374502242261758
-0.01165914561655608
-0.040278507583585
-0.02062644577084319
-0.05891148576094564
-0.1025502921354142
-0.02994834079154017
-0.1165957243536943
-0.03450805549167232
-0.06544132696632393
-0.1375000223155098
-0.08176098095846795
-0.1219225508931892
0.95327089508422
-0.3569055412070034
-0.06995650432717521
-0.2127752202959743
-0.5585208744238865
0.1976561424215744
-0.4527579035648642
-0.1531013448098842
-0.5895154123048291
-0.5063367720167641
-0.08825437543646635
-0.0703649757851786
-0.1202157255228623
-0.8250964988728252
-0.6340419773607091
-0.4532537349418393
-2.254058323233512
-2.117492169574037
-0.1008403681443669
-1.53884104862462
-0.1949663141909551
-0.1342068565463573
-0.04038191999007999
-0.09475830181475753
0.1035445834600578
-0.7382685489583062
-0.06372685314614326
-0.6004083527203332
-0.03475249105490753
-0.009329231094800161
-1.146646773993672
-0.009633154883616312
-0.007781756551069267
-0.0446521975126784
-0.07037921027698432
-0.01368336701430964
-0.02916791046419443
-0.008452368005962069
-0.08450999330026256
-0.07316718281895004
-0.9211191297991165
-0.08883522755553575
-0.09085126578057967
-0.1987002255704707
-0.05100800373286882
-0.09019859863445957
-0.02063625547472451
-0.02173395794195824
-0.03254837668511244
-0.0664353762184748
-0.06188731770722714
1.434662271760069
0.01466807390419081
-0.5333928672382048
-0.05990884398161463
-0.03215669625344109
-3.346035447290013
-0.1593670565141972
-0.02267779805687209
0.02063208788131805
-0.01010731648249113
-0.04771974731100082
-0.01057342922650018
-0.05342059888939059
-0.05693623986721053
-0.01752237522543811
-0.01414300428114851
-0.06706722216896904
-0.1752600297654247
-0.01421320466216467
0.02474974891698448
0.05577806506489653
-0.3547172437597206
-0.8638320853024724
-0.1442497623408146
-0.234801880142102
-0.02426324224488977
-0.06114093458836597
-0.02216447980368482
-0.1241927522302382
-0.1285152180886052
-0.1439664950486968
-0.04111865710139143
-0.1143390867122113
-0.3374564545685068
0.6415338479854981
-1.363976260290106
-0.3377986497481572
-0.8373774217232874
-0.05626195901625832
-0.03142630322758181
-0.07136624179535944
-0.01569762137010364
-0.5395635781412967
-0.4292627121337177
-0.1134977227254437
-0.2971145352836282
-0.07628846776835121
-0.7486300135290328
-0.1036321067394951
-0.0604192380773961
-0.4682873961577792
-1.684351324768641
0.777680520560221
-0.04580552065900963
-0.1955247612491396
-0.07573950002520682
-0.7663224090411896
-0.0900417077085779
-0.4884842698953579
-0.3038602210906726
-0.5760377345196955
-0.6704910293763218
-0.4063004006698802
-0.06935188992765189
-0.03365457440677684
-0.1756148752014774
-0.08864756702667939
0.02257790335568388
-0.1677181698965508
-0.007072532931161581
-0.01126041859805231
-0.02877441255256999
-0.007343428985287058
-0.01929333598854516
-0.01995702188624522
-0.2844847103180162
-0.1569695434429972
-0.4158341767674761
-0.09607864220576257
-0.01157938574820688
-0.0146969558450122
-0.07409167433061777
-0.2721657899833363
-0.07175116493069451
-0.1100369019998294
-0.01082904121394749