/*--------------------------------*- C++ -*----------------------------------*\
| =========                 |                                                 |
| \\      /  F ield         | OpenFOAM: The Open Source CFD Toolbox           |
|  \\    /   O peration     | Version:  v1906                                 |
|   \\  /    A nd           | Web:      www.OpenFOAM.com                      |
|    \\/     M anipulation  |                                                 |
\*---------------------------------------------------------------------------*/
FoamFile
{
    version     2.0;
    format      ascii;
    class       volScalarField;
    location    "0.3";
    object      p;
}
// * * * * * * * * * * * * * * * * * * * * * * * * * * * * * * * * * * * * * //

dimensions      [0 2 -2 0 0 0 0];


internalField   nonuniform List<scalar> 
19632
(
-0.1893236371937828
-0.01287675464619267
-0.02246920984531164
-1.134833169807489
-0.02562792908369735
-0.01894959175922823
-0.07982987631233973
-0.007548979862463216
-0.01759350499003165
-3.32150587227992
-0.6245857745672106
-0.02207870209733262
-0.02696989779900813
-0.03594993523588288
-0.1039366190707982
-0.009360842449246098
-0.05422638389922017
-0.0628045320832335
-0.0100160647731919
-0.009278353354298392
-0.2523428513094457
-1.29563986656357
-0.1119819856179617
-0.00846899647628848
-0.01157463683849377
-0.008461096886226234
-0.01000208891565772
-1.3896397383111
-0.03113457825034324
-0.03276271528368523
-0.01124713212082651
-0.07805709515997872
-0.3338344061958032
-0.310309859170191
-0.03475466509094576
-0.02575418621417743
-0.008272028286183827
-0.01059097201688314
-0.01195525786572855
-0.08938865090379063
-0.01159896726197952
-0.09431814684974332
-0.0109588248464039
-0.1054624247090548
-0.01116626594850406
-0.005829840682588773
-0.009782473473126595
-0.01428162948510435
-0.02356073226032904
-0.0945954273989757
-0.03018850584004274
-0.01317505150026937
-0.008323636682827627
-0.0299969759892351
-0.02722144237680887
-0.01327538639730894
-0.06156926287333112
-0.01245690145235398
-0.01178821028349736
0.5276809581531301
-0.009859219209606803
-0.0135800669783283
-0.6765754492961549
-1.163082209202439
-0.01022336957150261
-0.5072972797426416
-1.281162178883907
-0.006080335514549694
-0.03027583249320465
-0.09672755874336794
-0.2093066020840186
-0.01981096933150117
-0.00601875746732744
-0.004607290358913994
-0.01233985572903861
-0.01204556397853048
-0.005989154141529514
-0.1766322708960766
-0.08733164279648253
-0.09624075926932868
-0.09100734628586098
-0.283270737817845
-0.0222264569604194
-0.02500325852802537
-0.007913115209294665
-0.07089285775557133
-0.008383288291600602
-0.01044773656190523
-0.05659711144609429
-0.04149601674857778
-0.2649452029821436
-0.00983715300240263
-0.09745465539742577
-0.1751543874148827
-0.01240336059904555
-0.03806018353692005
-0.02609344636322517
-0.02625802804585233
-0.008492409940658566
-0.008980557535800753
-0.08314861334134907
-0.008027623596214584
-0.1579846887998871
-0.009213212785473875
-0.8345046439930038
-0.2790189312497147
0.3370871724560588
-0.033480960252599
-0.009155200906283443
-0.01116817104305725
0.02520731289109298
-0.0110283528954342
-0.03788130676546075
-1.201096649093415
-0.01188169441220575
0.6177695309450104
-0.7343787277724678
-1.156413455254059
-0.05479928941606215
-0.008760536368505639
-0.01121749022147507
-0.04884228291639864
-0.02296964576885789
-0.01720708438446352
-0.4199095611266064
-0.2361672498883295
-0.01017898541417865
-0.08943758886748766
-0.02565007117308214
-0.004201663467237648
-0.03030179256871299
-0.02001297238532413
-0.259793311218483
-0.006408230884573722
-0.03168327045167067
-0.1287709523348154
-0.05739462476250889
-0.03321237396693872
-0.01085825602801732
-0.06558595956233119
-1.953411502594491
-5.17885408072394
-2.668900051352998
-1.261963028694539
-1.737637577656628
-0.006848434139283081
-0.0135844028256612
-0.09815209493808223
-0.2094999700701863
-0.009658344706024185
-0.07113757179373498
-0.075372324629372
-0.05903166376812244
-0.01223430121115243
-0.03332098756146228
-0.06005424302786174
-0.006161007914878602
-0.01123018304652356
-0.1138419893452634
-0.8834912078103253
-2.993475723487818
-2.161626814620878
-4.419694962315099
-0.9992855605183399
-0.05382378740009175
-0.01155114378418462
-0.01201023510347233
-0.02640483539573439
-1.591070144352023
-0.02641551272268763
-0.01001632473127689
-0.1362329540072113
-0.009355642157489494
-0.02266546245430104
-0.02361679825662168
-0.02782843121471714
-0.00894465619854426
-0.1871457726534432
-0.009573480528392738
-0.009535129141356589
-0.004621690392943053
-0.0100632113477269
-0.008358807472243681
-0.009497951116577372
-0.01051642619256626
-0.01250845475655464
-0.01990535240966783
-0.007482431235107661
-0.01398397019325102
-0.008977732594104143
-0.0173797205394903
-0.2192797904294962
-0.1392134612994848
-0.04912794030896673
-0.004567562256436751
-0.02345983536851219
-0.1054070808991421
0.7718624639430657
-0.05416844662345037
-0.07993601265369359
-0.01166588218992481
-0.1865254339540847
-0.01191263150602088
-0.05664668397529586
-0.00940973573546549
-0.04525978273351956
-0.01057385047186951
-0.04654846390899473
-0.009944732836822142
-0.01540085408435568
-0.07288023672830814
-0.01192004324678196
-0.01369176449434014
-0.03280770365561456
-0.01378707469681585
-0.01018066587909783
-0.0491753801771759
-0.01118847010009547
-0.01013694244985318
-0.05863520456136213
-0.01207624521961666
-0.0293968647413368
-0.01759725137611633
-0.008145549709466677
-0.02083662994932011
-0.01077115854900009
-0.01970839082600752
-0.04815312639518803
-0.04124368600417488
-0.02565383805247889
-0.01118546790720058
-0.01951517892190095
-0.01014148104734225
-0.02129918911943955
-0.07626256532135975
-0.01167264896527621
-0.01834328239635589
-0.01559060909431502
-0.09648476497017087
-0.02177721358914188
-0.01183264045697821
-0.07199485166721187
-0.07852072338594086
-0.01434050622899593
-0.0207852393266989
-0.02693323227173509
-0.01158629488635519
-0.1046675510899887
-0.009209425346809266
-0.01460570055368931
-0.009894302725142204
-0.01714462732072763
-0.01562579059147525
-0.1263507330663584
-0.08865979946002349
-0.04457914828969751
-0.009185818837581048
-0.1435705515073207
-0.1756390841010143
-0.08231711583918315
-0.07134605149662654
-0.07160253598048756
-0.003115095389095364
-0.02217939848192105
-0.03303109175125445
-0.01938441571471727
-0.02351216224447177
-0.04962609299633176
-0.02096616067883031
-0.0111143785074964
-0.0218491994844544
-0.009433630584738313
-0.01217446707819448
-0.009251120488867538
-0.02655894446120845
-0.009879139674066754
-0.06123568997347192
-0.03892113830364588
-0.012821335477118
-0.09542319965310812
-0.006613925284598672
-0.01645560110661624
-0.04676598133621655
-0.02624224252115614
-0.623915135730112
-0.04900703157405337
-0.07970428212236981
-0.05633359264494946
-0.1012120932286849
-0.08263057670291178
-0.01703351967262317
-0.05757020285121534
-0.01680346526599115
-0.01141197082447456
-0.00751398755508263
-0.005832924219528267
-0.009982356778261259
-0.06939220150816325
-0.01969979016621189
-0.02168741560717236
-0.1563175145465529
-0.01923261455125602
-0.0225894790042225
-0.01141873573157429
-1.75983782994584
-0.1016523898637258
-0.02706313980567767
-0.008996921264981328
-0.01830443356921947
-0.008758123877667242
-1.165474250770995
-0.8962573185932164
6.584095088822994
-0.0686509831147423
-0.8219399055094321
-1.325194431028626
-0.5716433178231418
-0.006343741712998752
-0.9304378170338342
-4.755218980347216
-0.008468605477225713
-0.01277103769153094
-0.1319385370803302
-1.876901003721363
-0.01804803417146524
-0.06817454365187509
-0.01376770292730702
-1.284212614108744
-2.386146437291777
-0.02021101492648504
-0.02232973696720316
-0.01090069033725807
-0.01379598586693667
-0.06724842607025129
-0.01239602972192247
-0.05011113643419163
-0.02969512662786203
-2.955463306533621
-0.02134212754175892
-5.131556505161189
-0.05694718622203997
-2.305644482679674
-2.726800937332146
-0.08048883569400377
-0.8940086352070504
-0.05713051848782824
-0.051142584672942
-0.07147372984914456
-0.06708221509018285
-1.151128732712092
-0.07074869018889351
-0.02150456972233631
-0.03962375889853473
-0.352211063193643
-0.01061312637217538
-0.01269620177899181
-0.006410258463432291
-0.02113654596506626
-0.02174729437285343
-0.01897474100334001
-1.003161321221803
-0.004977429015799684
-0.1328535959898121
-0.04402723390453899
-0.06214322075198927
-0.05577660427269858
-0.04622555739844527
-0.1158471495678327
-0.01047966502915956
-0.09226738776061984
-0.12491860779652
-0.01201652933549828
-0.06229873808705429
-0.05181513491755839
-0.05416802788083636
-0.08208153370866449
-1.169944283202456
-0.009747446298165008
-0.008458085427986407
-0.05762622109927385
-0.1118925341698299
-0.02191642782939086
-0.05532334980528967
-0.01164492658724534
-0.3286415239576422
-0.02070261775093787
-0.0115411150502798
-0.06242753330914857
-0.3376926562419443
-0.02231815815236271
-0.01928572223950122
-0.05734201968586887
-0.05192030551681603
-0.0181880210365239
-0.03765476472431838
-0.03824621388162227
-0.03949736724492182
-0.03984319660432238
-0.005144149654719771
-0.0239485030179392
-0.05058054912804517
-0.04767656509041143
-0.08954467428750214
-0.05081076101680022
-0.0589690620729668
-0.02590357275582245
-0.01852228115624973
-0.04526686240586684
-0.1380689750712802
-0.007104037093713134
-0.3038003997933021
-0.02733841239413339
0.2696045359466807
-0.03226749741221818
-0.03288250665847794
-0.06061849348416285
-0.05173100576844084
-0.1199824526728033
-0.05835404236866982
-0.0800754075042306
-0.04681303581364674
-0.03423122466369258
-0.009493916139562651
-0.09347136517912621
-0.02650340427921436
-0.01044595433086178
-0.02187459287993885
-0.0189414753455336
-0.01027696827613472
0.2752524874209179
-0.02278805775793686
-0.0223981390787232
-0.02502802658517054
-0.02275668718316399
-0.02162262934034808
-0.02237302537632855
-0.02336108307448862
-0.02913017950608118
-0.02841502483467831
-0.02689096589615695
-0.05512248231237748
-0.04814779614872163
-0.05058524240778765
-0.05713064000916851
-0.03363827886967511
-0.05367752001768693
-0.008145095008443909
-0.0607257161067962
-0.02843757302697794
-0.03105136297490337
-0.06122422818308144
-0.04171726914998122
-0.01435106848610647
-0.04364767210307535
-0.03257523106366293
-0.05603446339788533
-0.008893043856315635
-0.0157496429975839
-0.01569818575675865
-0.1155307311868538
-0.0882020168387449
-0.04094910226222385
-0.04445292097547592
-0.01916897829492631
-0.01413826481275602
-0.01421583101041079
-0.01273209058558003
-0.3683671242457509
-0.004966319567533612
-0.01046818359578165
-0.0124546904212276
0.1689645393614617
-0.07984929707841766
-0.02130688036382498
-0.01565566584485134
-0.04537591032299924
-0.9148722008320442
-0.01229313871462442
-0.05017748075283317
-0.06445232706747499
-0.04269103695810678
-0.08395038465261016
-0.01115816080875771
-0.04267472000156396
-0.03344682986242266
-0.2137114479007016
-0.04042054965735518
-1.37726005619196
-0.01718591967211604
-0.03656530139990326
-0.01463832074053013
-0.07734899273095386
-0.09056412366125055
-0.03974647600155438
-0.03977047528602606
-0.02799070507617595
-0.0126433517913293
-0.04673074786897743
-0.08609869252300506
-0.1184428309411779
-0.04536609911816541
-0.04835046691753706
-0.01541586103522744
-0.01961268950851596
-0.03979739567915927
-0.04664764343503853
-0.05218144783340115
-0.04421003774715269
-0.04821600499206279
-0.0747062635803437
-0.04263337737258793
-1.018845483112364
-0.06452378878198715
-0.9279906082075577
-0.07362999027079249
-0.01870619856284057
-0.01321051715869921
4.580195628085424
-0.08328802466134845
-1.733893243972554
-0.009065622910177162
-0.02786051299475193
-0.02823786293428406
-0.2983630131574143
-0.05403379645656507
-0.05928153284809037
-0.04173034293388148
-0.05447994084939366
-0.01738548439488657
-0.06183219018609477
-0.03243535379072884
-0.01767852824437715
-0.02883317374873973
-0.01609733280084751
-0.09952482296217613
-0.05829896814256835
-0.05587231364164897
-0.08565147754589167
-0.06156290350343026
-0.1106514789825414
-0.07794204150606696
-0.01750603426826885
-0.01810848342582841
-0.01852846148961824
-0.04455166569064022
-0.02451478308470423
-0.159384388934947
-0.02137332523936919
-0.02445472778707366
-0.03754182717813922
-0.09494476325482987
-0.01757154904353405
-0.01056985383400254
-0.01208448418422808
-0.06103131556748424
-1.994639157181167
-0.03852163313294028
-0.01141848017466324
-0.01580991785318726
-0.01242489184008829
-0.2618904520446625
-0.07234161233752295
-0.1302241275004559
-0.06063199233043243
-0.06699666972220017
-0.06926441181674786
-0.5546019026482922
-0.0147103819468258
-0.01462460607326919
-0.009065658959950682
-0.4743732981402728
-0.01369026792638583
-0.05285209961810467
-0.05683618408789823
-0.006360263621379365
0.2240083744064205
-0.5262577411888694
0.3854996993598533
-0.1537091103165255
-0.01167319768839578
-0.02750632583835784
-0.1303073499715862
0.141776375039724
-0.02687788219100112
-0.04324179010085535
-0.03834401210313222
-0.02335081340605599
-0.03910564492203426
-0.02333415896421277
-0.03621422516614978
0.1139538359589488
-0.02207729582333877
-0.03219677823277037
1.027925600906129
-0.01062400974880353
-0.04633088876384506
-0.02533476636309794
-0.01367347617046569
-0.01442374757844449
-0.06931393449167399
-0.07177401137703625
-0.02883732770474881
-0.01655290053899795
-0.05304441647176097
-0.0476918241529173
-0.01829108044459606
-0.3393101204196511
-0.05134761637480772
-0.1398136632737108
-0.08279328792271692
-0.02106216578831781
-0.01976093205606848
-0.01773895227956044
-0.04614973157902429
-0.02006673614472728
-0.8695660392398002
-0.01892373565756766
0.06325580221313491
-1.392708911502762
-0.01884797427551469
-0.0193202969982857
-0.02062037731307675
-0.02041977312703819
-0.01048102669306273
-0.01051337339154837
0.6377429393114679
-0.02162935190046254
-0.0194662065036207
-0.01861050579720201
-0.01995950910056724
-0.02023726865270024
-0.008081407237508583
-0.0885174331122474
-1.265801127805983
-0.02434610668376273
-0.02150420716864734
-0.006824735691946695
-0.01448904108428768
-0.04806754950282943
-0.01218407835980462
-0.01979812129182289
-0.02089816676354976
-0.04656356308734839
-0.08605676396368914
11.49350685904128
-0.05072442448966764
-0.0150562629684602
-0.03168669183299204
-0.01454230769870201
-0.01568047134210246
-0.2908560828297397
-0.01573704061244579
-0.01133693965793249
-0.01144481402237385
-0.1619023652615637
-0.08219769213499188
-0.012143685897002
-0.01352362439793479
-0.02336291319849838
-0.007844233206659328
-2.458328949388871
-0.0724095278603383
-0.005723370803540055
-0.416463310643108
-0.05931143231486956
-0.007656609263385215
0.4253144438173932
-0.01995230319873955
-0.02431651834535403
-0.01820012957042122
-0.04554819423291436
-0.0158187427462806
-0.06600425230413989
-0.06496473299984507
0.007720051593397911
0.8258067087711322
1.182934078463903
-0.06573606897460296
-0.07489840874743751
-0.03089783768902396
-0.1768614463344178
-0.008269409625775175
-0.06050265488320782
-0.009729129656169302
-0.1013969996402699
-0.01104472073276249
-0.03899667565754693
-0.169309877888018
-0.01422512885811523
0.07247525757701011
-0.01322110550061163
-0.02341943019504792
-0.01506901415425006
-0.01417673194737052
-0.03103915256983948
-0.02299804120855206
-0.6869576025844948
-0.02426509172555156
-0.02734383522879892
1.348545161274642
-0.07244132351680228
-0.02071733511746562
0.923575109936318
-7.88099824920557
-0.06651368140641832
-0.02613109333268699
-0.08413261146979129
-0.02557108367430159
-0.2736804864164918
-0.08037276551295572
-0.007379214856326244
-0.08306452124784156
-0.1083539905021446
-0.006872159553128038
-0.02214051864074545
-0.007024130539334933
-9.030290918662969
-0.1474708016109446
0.6061402491448219
-0.0825986671623961
-0.07308252213701424
-0.07374938111983534
-0.02772258130999135
-0.09040450122040432
-0.0390961563626473
-0.07303735747215416
-0.02204182117168863
-0.06062280629491878
-0.07062189591513822
-0.0352466193945464
-0.06609180126774522
-0.04499516585187163
-1.150407937140883
-0.06361037356072212
-0.05388169669318782
-1.490914784624509
-0.8860503958224565
-0.05679862142105279
-0.02104218530452077
-0.04282654829888043
-0.04721465141763634
-0.1635099148529221
-0.04141882045243272
-1.425717289891051
-0.05774436310872411
-3.551173570789259
-0.08499625709854992
-0.05431357837146532
-0.04496174330129288
-0.06341049407351342
-0.08418953828241717
-0.04180930782645698
-0.09658824588594107
-0.1023561559347942
-0.0918153212219885
-0.1017641812397167
-0.08093669082448621
-0.0126104395508872
-0.01483228024317749
-0.04800285294605144
-0.01554102224188823
-0.01325427648744166
-0.009823447891681747
-0.009327358683151732
-0.009341620618740254
-0.09113522953201604
1.148148379896287
-0.009132071112313313
-0.009707778684041681
-0.01008008492493282
-0.01278240866460887
-0.009674544265497118
-0.02549795932969941
-0.08916655262584842
-0.05447402747756793
-0.009860618797264823
-0.01167213989711283
-0.01440323916213384
-0.01421432425660128
-0.01476483398851448
-0.06590842819578162
-0.01353964745601494
-0.0919176008653956
-0.04789761909243568
-0.01275401270026018
-0.005273092538042999
-0.0411164538511875
-2.781281066725566
0.2390924061466381
-0.01548543712397657
-0.0149297838676712
-0.08884050152803649
-1.939280927805485
-0.07290160970122689
-0.05233947513499924
0.517540782170636
-0.0127253556577402
-1.003164722931065
-0.07428782849527314
-0.1005525190535136
-0.1592205572653553
-0.03437041983378723
0.1315339573373676
-0.09044584232808429
-0.05893613661646572
0.7187403583071428
0.08727412905022845
-0.07145616068076423
0.0857020374558657
-0.0666216078687157
-0.08767491851207095
-0.06824237844299509
-0.2381954475284885
-0.03993601945971167
0.01045018570839588
-0.07883061801006645
-0.06612708098595117
-2.307221655688765
-0.05651147317111238
-0.0478734385079754
-0.01214488295722032
-0.1358693576645268
-0.02207836991981462
-0.02727840871855296
-0.03033820304819124
-0.02533489180166481
-0.02656929259516115
-0.1243342899865442
-0.1298690772310782
-0.08197255852615717
-0.07535263565175765
-0.02375573992568191
-0.1093157580096921
-0.08908247516367448
-0.01838623974293507
-0.08514419328822401
0.2404635604946828
-0.1165530447020534
-0.137018449772186
-0.05269028403836533
-0.01670619831797526
-1.208492357132848
0.4816578632411997
-0.02318988744439268
-0.03068377193005449
-0.01456289141790731
-0.04399509582724351
-0.09605572917200836
-0.018626611381513
-0.01489591464569129
-0.02549503333694288
-0.01975814500343538
-0.05394028655258452
-0.04446835690483841
-0.05966948447066721
-0.03821014403108369
-0.05733095070402103
-0.05256998654346372
0.2448175541895129
-0.03358565046626594
-0.01324794210206639
-0.05562317630267832
-0.04624815755547363
-0.04819885923394378
-0.04942295696114509
-0.05923874922051872
-0.05499694992759718
-0.05735950976372429
-0.04686761237863215
-0.03545815649456099
-0.03355939775716169
-0.03209941305392609
-0.0422167539616726
-0.03066962887500288
-0.05454480225392556
-0.1328328743064131
-0.01230137726492968
-0.04772791835109517
-1.633153781057889
-0.06729956969983354
-0.06332558550237732
-0.03911566721785476
-0.06950636345713217
-0.07850047165048565
-0.07777642051818305
-0.07748099653135535
-0.08942750412051909
-0.2730933743778982
0.03328216774043978
-0.03407783328142654
0.2183561662027189
0.2341824475608728
0.5002357986467489
-0.06058097448214571
5.877932874863817
-0.03764725929153445
-0.09053328156691749
-0.1616108991163925
-0.04333432685574663
-0.01870214020677328
-0.02709760524040291
-0.1917217181438441
-0.04563538667132673
-0.09163160628327957
-0.104182092328628
0.1577196712677793
-0.09637861775976497
-0.0709465650435229
-0.01031457528217946
-0.01495012721099023
-0.02354512167914564
-0.01062095200591291
-0.03984278475847931
-0.02577615557288026
-0.4567825499345236
-0.1453251993171612
-0.08867956688341576
-0.05388866425336162
-0.01316543979970002
-0.08864768265352445
-0.08630374521320661
-0.03374355296082712
-0.08206692873478932
-0.07901685673677324
-0.04763724809996343
-0.02925535228206933
-0.7053752818299853
-0.2225324917069796
-0.0864478764870328
-0.06277586316877805
-0.01069766786233973
-0.01644170599614035
-0.01328382264179899
0.03649439364949895
-0.01441557507990865
-0.02792898211491594
-0.01585664268550174
-0.01508970255190916
-0.01456003501109426
0.8480141658953453
-0.01683851184443846
-0.06442448400198328
-0.3674194612876354
-0.037839576948695
-0.04203816752835075
-0.05309736286559152
-0.0568149628615773
-0.04652455783114586
-0.05865466011621234
0.3939745895414763
-0.05207641604602372
0.529392104653825
-0.06194828187806049
-0.1213025056760719
-0.01249402770949283
-0.07070966784725988
-0.04755868363733357
-5.353327267449603
-0.07051776638601157
-0.0741531326395487
-0.08354667854663375
-0.07425773859318033
-0.08005876896051631
-0.02590750381158188
-0.02881271952841814
-0.01299911687718266
-0.05093592433035381
-0.0493290801568319
-0.01154663149541003
-0.01210165126336464
0.5390532988010467
-0.02874914790456086
-0.04774721028641066
-0.03104471465118071
-0.006256159793798267
-1.094130327021566
-0.3561743350803431
-0.01396560187144978
-0.08520814177439863
-0.01465618086545537
-0.01329772173782426
-0.0145990341255983
-0.01594526585267597
-0.008022613702912117
0.4501878695390191
-0.01222085733250337
-0.01497188660683227
-0.008906047103778384
-0.08703871714416289
-0.4339241082622434
-0.008029105385368787
-0.02884176714849187
-0.03160772089945649
-0.01704674034303781
-0.2107728781030032
-1.017576399178395
-0.04998863952357585
-0.02391657572107557
-0.02677374785356861
-0.1268363223084286
-0.0305462508031831
-0.02514538568693738
-0.02315515269502241
-0.02653540854972749
-0.02827854471350983
-0.02312458798505966
-0.05035099613076752
-0.02441324145208684
-0.1775768044790944
-0.02004258500927564
-0.04734680678985661
-0.02443098256118579
-0.02972634872805663
-0.04204146494190571
-0.1581881195402952
-0.04540464525289695
0.1085186379230698
-0.9915790124023508
-2.091371545183113
-0.810827114130146
-0.1114735306207411
0.2686016244522728
-1.741328940012986
-0.03861087561825458
-0.03011020083268318
-0.1106852753133325
-0.05661144360379506
0.2852611389993945
-0.01669693225726616
-0.05010674289567577
-0.1919778584516093
-1.354951229605184
0.6731980346335049
0.6699281482176355
2.784196561310268
0.0350269500930251
0.3028868738827122
0.05841801455668055
-0.1142454248681417
1.753711690447493
-0.2777749996084351
0.08551014112059181
-0.0339001353810498
-0.05228630169825841
-0.04078735801837288
1.908109256147622
-0.3154588712457101
-0.0678334088607654
-0.02376850733922969
2.222850511987672
-0.07076266690083378
-0.581670889935809
-0.1578829225740987
-0.3917764762096081
-0.0848328660607221
-0.2995548868211477
-0.008640155803288387
-0.08479251318757637
-0.179601220520918
-0.67477587973181
-1.325583148617031
-0.06960963815467541
-0.05724022175227313
-0.3975846621801811
-0.2871927297447769
0.02004534219666977
-0.06204784311439199
-0.009077453286477662
-0.0102809676575842
-0.008531022370243063
-0.008400823182659386
-0.008197486226273427
-0.07424023180774049
-0.1088903802148886
-1.581943747046978
0.1031433864179393
-0.05405893252065169
0.4168095697882536
0.01039806786314505
-0.04323291233739462
-0.06756890377413632
-0.08038737431527354
-0.03327739171471735
-0.1470568674065861
-0.03153049384515432
-0.01349661839941782
-0.1858289824718229
-0.07235718238157848
0.03900657220123332
-0.02082233178093923
-0.02283267060411252
-0.06248634563342016
-0.06828324741208559
-3.745434776413576
-0.02001611279184063
-0.05296321611473999
-0.07050678412743562
-0.03881839815362582
-0.02903759246668353
-0.01457526830922738
-0.02182983133703873
-0.009560400354969259
-0.1322099241291078
-0.04537906726283047
-0.1120044863548823
-0.07979933559823507
-0.08446238910596253
-0.02293589292043108
-0.05364562155819748
-0.07201422728769753
-0.2161517406131577
-0.06159239778354916
-0.04020295091464662
-0.05447079189882415
-0.1072236925200953
-0.09842157764007324
-0.061175530859416
-0.03004506050252709
-0.1138904638582925
-0.05574736448880961
-0.008043127240731808
-0.09009538169611021
-0.05320359204839251
-0.08582540303964771
-0.002223938340711688
0.2451454829059464
-0.03430996511748124
-0.1046940634898085
0.2395519390135634
-0.02475956052577634
-0.03138227825255341
-0.09508987161355791
6.339468280516782
-0.0306521987942729
-0.1523239739394185
-0.1270192311835792
-0.005195819444145178
-0.4506342326950329
-0.05391208531930523
-0.04853969697908366
-0.05035069664749288
-0.04227628881966351
-0.0403352220665708
-0.04480458041053705
-0.04779821566746974
-0.04477816917345125
0.1639597461473556
-0.04973784780659395
-1.1416712729222
-0.03685256201287376
0.1325687238659768
-0.03709488779870252
-0.8702874115736113
-0.03206590724067184
0.7412307406448504
-0.0214438918244935
-0.02119420175240131
-0.01987605561729754
-1.703715422197566
-0.01797590703675958
-0.0195789265702909
-0.06918980068150862
-0.06846617764441959
-0.07347049704466313
-0.07664624835204878
-0.02462509043569071
-0.02671930105229415
-0.03101556407078304
-0.03585814743143251
-0.03338828282339385
-0.04852171455539453
-0.5566049074862177
-0.04709720729385661
0.244907607967019
-0.08907912434801071
-0.06790717967172029
-0.06563629697200885
-0.1267450097040679
-0.008004073471511818
-0.2005605900046426
-0.1974811800890496
-0.08915894836026496
-0.05938412131267017
-0.07053554743480674
-0.05737192780611475
-0.06379133525067643
-0.0665998038417057
0.1071445982520887
-0.06643535395267235
-0.05653256113186078
-0.07061786811743584
0.004004715939562392
-0.05760256119948023
3.380546218195803
-0.0753377078151129
-0.04193764010088551
-0.04960895970262279
-0.04274410692512113
-0.01310521339862951
-0.06025122910957974
-0.008165561432112566
-0.04899441198258882
-0.008649834554061729
-0.01346724126170868
0.1235292881006619
-0.06531635561318268
-0.03255588651380408
0.006690273655700269
-0.04441660944092156
-0.02788958381804195
-0.02459026338041557
-0.9399546445257858
-0.05541714871115282
-0.0229827301887866
-0.0537169281161767
-0.1460481700515907
-0.0284782698664047
-0.03586589160311165
-0.02634862908215793
-0.01525783902812207
-0.03028179401892783
-0.06452413461718463
-0.022699374684054
-0.06138028331113708
-0.02080233293077885
-0.03845648981210117
0.4544136822384711
-0.0429263829687951
-0.08580390331386641
-0.0911820044220135
-0.04008477384409553
-0.04967650666740582
-0.02521942218395434
-0.008530211421199559
-0.02793526917147343
-0.01893474905575214
-0.01444563122769846
-0.04981116816840477
-0.5479623675986993
0.2584756306803033
-0.06652721236450992
-1.000480032076357
-0.5098772397717654
-0.06511506547525871
0.7862509614564211
-0.05494370762708776
-0.02253288164477835
-0.0332096697271233
-0.02305505822729118
-0.1478943147219575
-0.04584790514723999
-0.04467082794351166
-0.04956667242925795
-0.04254301974047902
-0.05611045886539923
-0.08841983275375202
-0.03133433669673881
-0.01462145363548274
-0.05275587471074224
-0.0298420450718412
-0.06564440935171827
-0.07807236561753085
0.1472379802903152
-0.01004369850477177
-0.0471545283051905
-0.07259505460718349
0.03282943301526268
-0.05857978505659931
-0.1103888429181526
1.747951308825836
3.978590993520867
-0.173899607487469
0.542071206997768
1.759360849168092
5.636540722580348
-0.5452134486938512
0.2012987715977883
0.2743617732026503
-0.3086347492976597
-0.0004909935127233719
-0.0684535188558853
-0.04949431912085858
-0.005729264777435501
2.184840284916016
0.5632417447326108
-2.444307265139153
-1.03064078876851
-0.03988794324988799
0.6429147805605819
0.1945781881941616
-0.04936151270869509
-0.06043502437376699
0.2136232459803522
19.222467558726
0.704598595674116
-0.06655057258045913
-0.04080966974454171
-0.04601898786452582
-0.01058069982593641
-0.6313360299509897
-0.01116501864332631
-0.008214270942995525
-0.06472805429975756
-0.07169896252304137
-0.01782397793048107
-0.04031338284933873
-0.009344065113965168
-0.07433358299799048
-0.05387963298565667
2.796779658728135
-0.05867925871467312
-0.06190696196763966
0.335485600375952
-0.06788116053080512
-0.1189198437890535
-0.0334042537706293
-0.03430016297711687
-0.04590245956964682
-0.0799259685159151
-0.06694735234517886
2.0553805151901
0.1711867956321294
1.147306017478186
-0.06712300540410393
-0.04622461422065266
-1.903785966802495
-0.3388868970976077
-0.03321694328011738
0.1807306752543993
-0.01218350159408955
-0.2999879334108883
-0.01287370310408843
-0.05602582958313881
-0.09612435594078836
-0.01970053386485353
-0.0182102979323283
-0.07002281982560014
-0.02691117828754752
-0.01819233967383749
0.3548239709471762
0.3160846367500074
0.3579417957592303
-0.1202591880773937
0.05637981072225213
0.1677624937917913
-0.03165654478473735
-0.07543640366682526
-0.03342690447491066
0.02272953895725194
-0.1067646253480561
-0.0621077712748867
0.5380968509509607
-0.1236775348353431
1.513641846827879
1.173641975074748
-0.7888899328841903
0.6598243862532882
-0.3586205318248362
0.8320616940541181
-0.0422928228389009
-0.08735485302382415
-0.02155794889493033
0.7839668324093755
-0.07284697768944441
-0.135522023081593
0.1070876415351242
-0.08304318789334979
-4.542641480365323
0.1617073213196334
-0.5643855290817402
-0.8711328755124008
-1.557353470675877
1.474476035585455
-0.06294705727900608
-0.02936375914500607
-0.08247035228645379
-13.24474575517545
0.07386316187516097
-1.911973936735732
-0.2828412224126139
-0.3239152804648553
-1.504586428195501
-0.3206210226167034
-0.09472426822883193
-0.04437944784095391
-0.06014291557972273
-0.05783653268373743
-0.2426325337991432
-0.1406637912984072
-0.006330291048874473
-0.01402305102896849
-0.04192669236536963
-0.009776580015283651
-0.02665905530995791
-0.03187517779885669
0.3198264518011135
-0.2684607436495642
-0.4469923197008567
-0.1775590790557988
-0.01404785520091805
-0.01893995725374866
-0.1121847807917841
-0.4289838846508033
-0.077341980948542
0.1573823998997722
-0.01291972098912338
-0.02282693602737179
-0.2346138026326316
-0.01364147394299956
-0.06778727332504905
-0.05931578527487894
0.5892526753989533
-0.03382532652922582
-0.1575318223954476
-0.0291521549248455
-0.03846970625276644