/*--------------------------------*- C++ -*----------------------------------*\
| =========                 |                                                 |
| \\      /  F ield         | OpenFOAM: The Open Source CFD Toolbox           |
|  \\    /   O peration     | Version:  v1906                                 |
|   \\  /    A nd           | Web:      www.OpenFOAM.com                      |
|    \\/     M anipulation  |                                                 |
\*---------------------------------------------------------------------------*/
FoamFile
{
    version     2.0;
    format      ascii;
    class       volVectorField;
    location    "0.3";
    object      U;
}
// * * * * * * * * * * * * * * * * * * * * * * * * * * * * * * * * * * * * * //

dimensions      [0 1 -1 0 0 0 0];


internalField   nonuniform List<vector> 
19632
(
(5.012413068474844 0.005034876440285668 -0.006742796997220312)
(5.000009818564886 -0.001263010054559741 -3.249451998728538e-05)
(5.000188179669756 -0.0002742919915645571 -0.000140249695064907)
(5.190808291074354 -0.01128156847320121 -0.2185475797105624)
(5.000145011194928 -0.0002329205293691878 -0.002088392265963532)
(5.000257259781008 -0.000179400189568037 -0.0001213108617321554)
(5.000467737519155 -0.001132920082050325 0.0007727364427872176)
(5.000094475608698 -1.562565213006917e-05 -2.499844595159368e-05)
(5.000075590684459 -0.000123320063268763 0.002358922533164415)
(4.954022553370818 0.0799463970473713 -0.02121601402678356)
(5.05945881116708 -0.02338595164742526 0.03158991026641885)
(5.000511507587923 -0.0001294829290712805 -6.582073185785464e-05)
(5.000063612320501 -0.0003427306661597475 0.0001812560651931343)
(5.000499754443968 -0.0005343938304359621 0.0003556168018699173)
(5.006035289204518 -0.008724785944277162 0.01167143420590551)
(4.998987883917116 -0.0001086372797386396 -7.708769216844756e-05)
(5.000053945582517 -0.0004027092946336904 0.000327000205950175)
(4.999992217699116 -0.0004843472421511296 -0.006964389001048571)
(5.000067025713411 -5.65500141823534e-05 8.118970523972439e-05)
(5.000058236896061 -0.0005752243377792521 2.450395684625402e-05)
(5.021528828679062 -0.01375690775232403 0.00876248281709854)
(5.229810711711777 0.1847812677008152 -0.07765307416390398)
(5.005697566107449 -0.001714082081539927 -0.0003425840737371314)
(5.000066662429398 -6.934327632514941e-05 1.634664725214826e-05)
(5.000039196739486 -8.859897103182773e-05 2.805332855862807e-05)
(5.000036706036937 -5.449040549374638e-05 5.266922668782608e-05)
(5.000044708027596 -0.0002067508813282604 -3.524667476776435e-05)
(5.174535786725276 -0.2496148462719208 -0.2175154802538092)
(4.996426989905147 -0.0008268293253171755 -0.0001041831188554675)
(5.00003755340004 -0.0004083349778918464 2.364733541836595e-05)
(4.99996425674419 -8.899238110190315e-05 -5.769016545213618e-05)
(4.99919399930999 -0.001870769379040984 -0.001447014424651111)
(5.051503964512311 -0.02112036568592087 -0.01769648499562056)
(5.236376341212165 -0.0813048025810575 -0.264068683075766)
(5.000846266556342 -0.0006254686081496535 -0.0008019064244313716)
(5.000044991228796 -0.0002692794894810928 8.226241897655318e-05)
(4.999998333707151 2.287138715801073e-05 6.400395616539169e-05)
(5.000044168435356 -4.193059531831391e-05 -3.560491273696205e-05)
(5.000005313523334 -0.0001161468996793821 -3.276214956477071e-05)
(5.010289734069095 -0.006407745599471684 0.00245613124282239)
(5.000026787452228 -6.489132074400144e-05 4.792711489042545e-05)
(5.00012677912148 -0.001350751060695145 0.001372092362756958)
(4.999992324353975 -7.440758996699202e-05 -1.942752724774899e-05)
(4.978071482502525 -0.004852013432040603 -0.001030828292382527)
(4.999969403878343 -9.705408754312559e-05 3.844207915130237e-06)
(5.000096321438923 -3.123437249450194e-05 -1.320671460411287e-05)
(5.000090478153241 -8.139396163276613e-05 -2.046128443163649e-05)
(5.000139133430689 -0.0001329785750361846 -1.972096326789162e-05)
(4.999903116239038 -0.0002858511036119019 0.000168815678350881)
(5.000408389528124 -0.001184369250435424 0.0007249941596114914)
(4.99993294448667 -0.0003628228193974708 5.566552730936757e-05)
(5.000092297475621 -0.001577266044317559 0.0001108154525219284)
(4.999953353629438 -6.310972515178494e-05 2.674681410811857e-05)
(5.000908559108757 -0.000166622742260593 -0.0002949202109888555)
(4.999934937514358 -0.0003497997881837191 -9.924308669258902e-05)
(4.99994112390866 -0.001754673122457167 -1.129962078423868e-05)
(5.00032690212466 -0.001258909385611267 -0.00194272066949288)
(5.000058476464388 -0.001306865188436805 3.63015530034434e-05)
(4.99997652669602 -0.0001325914703595026 5.966907715587854e-05)
(5.024888858112119 -0.01770626207559616 0.01325109852528046)
(5.000069755877356 -0.0009688662388453705 -1.956114535403185e-06)
(4.999994649556565 -0.000118007203263265 5.438771429193746e-05)
(5.061093379735 -0.09970669204875952 -0.1154120327442499)
(4.69329056695915 -0.03915434518817004 0.1781371667319208)
(5.000193778086328 -7.785667121361526e-05 -6.898946761038963e-06)
(5.139023150562887 -0.2359651109662371 -0.5408834971708322)
(5.303579284884337 0.08110271684669985 -0.09869758561460641)
(5.000096666904425 -0.0003680665210878885 -8.987778068288132e-06)
(5.000241704792899 -0.0003525117468310502 -0.0001444982006317269)
(5.00014711798843 -0.001551702891451185 0.001195337906254423)
(5.00927144084179 -0.003889650821459738 -0.0007461156808763846)
(5.000112385320897 -0.0002504749951382221 2.660568070174087e-05)
(5.000045725255115 -1.383235987060954e-05 -3.597062003735393e-05)
(5.000085423001105 -0.0001979212515195361 -3.846941925648061e-05)
(5.000054074695703 -8.553727046477137e-05 -4.030052407094098e-05)
(4.999983111912083 -0.0001003976128595857 3.880164122745342e-05)
(5.000075267223126 -5.014063569098059e-05 -5.505630476979182e-05)
(4.945821082492787 -0.0008783542750750827 -2.02155611875895e-05)
(5.000737892951531 -0.002181260010798229 -0.001468691264415642)
(5.022028786392095 -0.006942220511081879 0.008794393006477157)
(4.987045058812249 -0.0008547201487091324 0.0009229339568532696)
(4.928414018290566 0.3694709872636202 0.260302881365669)
(5.000689553928826 -0.0001939261751057069 -2.839932491735748e-05)
(5.000050462680463 -0.00028442586962883 0.000126255994893327)
(4.999991827308141 -3.246439349472695e-05 2.947701189319017e-05)
(4.999941416634403 -0.0007485790725221279 -0.0004099178066419857)
(5.000044508961648 -5.579237620970767e-05 2.715596137618909e-05)
(5.000067496931104 -0.0001066395081318557 -3.911227527033563e-05)
(5.000641546287727 -0.0007610705945330249 -0.0007560219656552856)
(5.000764884833933 -0.0002273112496272601 0.0003666514862800161)
(5.017246532511619 0.01075062201710402 -0.02714364295368811)
(4.999993015788935 -0.001249254722468164 4.418104343194642e-05)
(4.998973870806 -0.001599393972524681 -0.0003157246169283401)
(5.014326338101556 0.001920883371256569 0.006393183598547446)
(5.000049518808268 -0.0009746084804189983 -4.930166244061375e-05)
(5.001946268012691 -0.0004998532934173843 -0.001049122218924355)
(5.000111923227949 -0.0002443084744166048 -3.87530894255563e-05)
(5.000252163080422 -0.0002280130131326506 8.451090750479206e-05)
(5.000067406320121 -9.340958404719471e-05 -1.74729617193094e-05)
(5.000054742031275 -0.0009127393969450056 -3.263732337446812e-06)
(4.764807468947151 0.2698947375112923 0.5297680929294067)
(4.999991246257053 -9.14638048993101e-05 7.968626637963316e-05)
(5.006701842363225 -0.004954106041573274 -0.002825798031138603)
(5.000033868133057 -4.97563426523609e-05 -5.078719709577097e-05)
(5.061009948857616 0.01860284049370598 0.2005551691681959)
(5.040179147214608 0.006062747078244639 -0.03097312039898613)
(4.964384805486012 -0.07129315482998998 -0.04509185485971724)
(5.021425412752529 -0.01170422162854752 0.01062970518072358)
(5.000066351417907 -8.205952811374477e-05 -1.573124896379767e-05)
(5.000061779589833 -0.001307145923447405 3.45338717237133e-05)
(4.905971193291673 0.1393015839070186 0.3519147468986893)
(4.999915839010846 2.098707074639481e-05 4.826634085807346e-05)
(5.000937010733808 -0.0004546963687282501 -0.0004402673759582208)
(5.268268800638879 0.08793020199980664 0.08651116827862075)
(5.000013422741291 -0.001032226730124094 6.195495697340025e-06)
(5.016880314662042 -0.04395047272844465 -0.01086518145393616)
(5.17589619566945 -0.1986083194395173 -0.6303402632634091)
(5.037173305021213 0.1625132229253774 -0.01189045166128841)
(4.999869451680609 -0.0009351737870260963 0.0001518759154317354)
(5.000071389790488 -4.928351695741371e-05 -2.875421822592327e-05)
(4.999997272552995 -0.001074261883872428 2.388970123793851e-05)
(5.00180161380399 -0.0006980107169285206 0.0001418690460722487)
(5.000013488961112 -0.0003251356824039086 0.00019214472595478)
(5.000107968372627 -0.000204597996283199 -2.694417587391576e-05)
(5.217442075472943 -0.1250536655158203 -0.08109733711046761)
(5.098185156002064 0.01279396146119609 0.03752022817586163)
(5.000003876764295 -6.312382159079437e-05 5.697787729457205e-05)
(5.003537831268646 -0.001280228006650354 0.0004495171665614333)
(5.000096806337948 -0.0003275457265566875 -9.128126905006686e-05)
(5.00006494987285 -1.243561198582096e-05 3.928867280359203e-05)
(4.999980195305688 -0.0003170811268880872 0.0001091864834866294)
(4.999954454994493 -0.0001555040235943178 8.433252221517364e-05)
(5.035032089714863 -0.02462526455736223 0.008510662813270099)
(5.000113076405281 -5.201217716031917e-05 -4.987743196654867e-08)
(5.000853640653254 -0.0004316046258207811 0.0002609113339521382)
(5.010699093546598 -0.006036155840752774 0.004585505273702059)
(5.002920823171819 -0.002047773972976465 -0.001640302966247132)
(5.000803561877172 -3.577081756377668e-05 -0.0003359259738562849)
(4.999993792913796 -0.0001263527940092596 6.783566609185748e-05)
(5.00070097911605 -0.004064099005072894 -0.002527217663766003)
(4.789657580394887 -0.7527374369734341 0.3710690633137452)
(4.980980752353214 0.9070822050156173 -0.2182252132217031)
(5.363031231291282 0.4920759226494031 0.09327237550010142)
(4.355466915124238 0.08502311817733083 -0.03110245775081789)
(3.349632423830928 -0.7522896580636075 -0.3673403942901953)
(5.000109489727857 -5.717202777586824e-05 2.365638349897547e-05)
(4.998718794013294 -0.0001919965536866034 -6.99029756323908e-05)
(5.000921065217752 -0.001079383526687248 -0.0002389120681686241)
(5.00992035631203 0.00131053566991453 -0.000793258715891459)
(5.000034714409883 -5.73222857918319e-05 4.112465168449085e-05)
(5.000650585023383 -0.000579821196338931 0.0005164900039843399)
(5.000544776432496 -0.0007358460424558853 0.0005520110226857763)
(5.000584532265384 -0.0007754125466408381 0.0006331863784681612)
(5.000028014345562 -0.0002162530280385003 2.312787751157968e-05)
(4.990948541165402 -0.0008361649316928767 0.0001005267399152455)
(5.000800679984143 -0.0003396668028159092 0.000628885658293451)
(5.000126722034777 -7.231773692656753e-05 -4.18541125006227e-05)
(5.000027085502357 -0.0008413615860632423 -3.164238102868338e-05)
(5.000361043435256 -0.001958814231182527 0.0004186126011461628)
(5.123536156084546 -0.3515559594053642 -0.5533962498701136)
(5.209964692336981 0.03405961870758965 0.4111231786887341)
(5.140996832965736 0.2435910245721174 0.005029597122852572)
(4.65349670200477 1.683795810266129 0.8886403253931512)
(5.244283442867629 0.3333770103701023 0.05701816840078551)
(5.000499701232615 -0.0003954322387297945 0.0008748733298956422)
(4.999999410940318 -0.0001084962023806116 0.0001619465543707686)
(4.999977799130785 -8.013519670179574e-05 -9.391056402986867e-06)
(5.00075387935004 -6.376715663939446e-05 0.000549560218251076)
(5.162244495879296 0.3412141772414211 -0.03754236893895327)
(5.00091920698667 -0.0001320281264982154 -0.0004821611324474945)
(4.999961810344549 -9.614722734008826e-05 -0.0002050739406765264)
(5.006584512506816 -0.003315723314689112 0.0006465293955666032)
(4.9999918465922 -6.236956928399654e-05 -3.306913037630263e-05)
(4.999984300842593 -0.0002730915363786701 2.104084691733782e-05)
(4.999883761169936 -0.0002575224652682098 -7.203490933671471e-05)
(4.994766764936798 -0.0007099381192169964 0.0002541338616032557)
(5.000208724297687 -4.199336380407303e-05 1.380925601597807e-05)
(5.008501864503019 -0.002874752622392603 -0.00119372379556619)
(5.000184147328523 -6.47611232681594e-05 1.711334869935263e-05)
(5.000144850499582 -8.634918384203926e-05 8.848962920485354e-05)
(5.000054334787948 -4.311140292630146e-05 2.700455664648563e-05)
(5.000183375608619 -4.884532932074247e-05 2.275985240361961e-05)
(5.000154482905977 -7.032846441246299e-05 2.437950481175604e-06)
(5.000011343760711 -3.059632867244651e-05 -0.0006482644790286166)
(5.000046437945804 -0.0008736217022233436 -2.672205017618491e-05)
(5.000047569345207 -0.0001144005030982058 -7.022785004936978e-05)
(4.997728796941776 -0.0003205089766348151 -4.697178625442027e-05)
(5.000053893137012 -5.994813826623986e-05 7.480421035712507e-05)
(4.999972429070439 -0.0001279418800571648 2.932531343631799e-05)
(5.000247165369916 -3.199105648466292e-05 2.981287645756346e-05)
(4.999980883851068 -0.0001437045292047266 -8.379089804704224e-05)
(5.014895557757109 -0.002903030924163938 0.001904994586820432)
(5.015528997941355 -0.01429331786504656 0.01134769564527839)
(5.000326169712695 -0.0003830616139657686 0.009148022140428138)
(5.000081850771944 -1.718118100489735e-05 1.685127176558279e-05)
(5.00021308887777 -0.0001787769059115982 -2.788871573501846e-05)
(5.004914755905331 -0.0003644132241566859 -0.0003380697514128581)
(5.009865258751403 -0.2361279181107112 0.1947798774321421)
(5.000315056806244 -0.0005410161908887149 0.0003937500120784865)
(5.000403408402718 -0.0005015755103072717 -0.0007488217241357022)
(5.000083283569794 -0.001232893053751887 1.528417285446917e-05)
(5.008129594373869 -0.007833575041041058 0.0003184575568239514)
(5.000008023349308 -7.78199199139193e-05 -2.580520684451688e-05)
(5.000309391240357 -0.0003280365656413564 0.0001769921064426323)
(4.999980561183557 -0.0001566412518910666 7.092243653782415e-05)
(5.000376038864629 -0.000549873826760118 0.006114823005183767)
(4.999992723094744 -0.0001014621144341632 8.638538265748233e-05)
(5.000142836254049 -0.0004751724015343541 0.000107035648038921)
(4.999979759731398 -6.882143770732125e-05 -5.937006669309951e-05)
(5.000144515534823 -0.0001785928958461606 5.572504413025607e-05)
(4.997987071583189 -0.002874339071094719 -0.0003090144581080194)
(5.000184743449461 -6.885758261850911e-05 -8.727433827194832e-06)
(5.000043458460633 -0.0001219063802653961 -5.77933204144119e-05)
(5.001027262353207 -0.0003210352653076525 -0.0005774338620074794)
(5.000157160094712 -0.0001157451697329527 0.001504609738664665)
(4.999934387495066 -7.394777929219581e-05 0.0001600938394091254)
(5.001590256333994 -0.001531617211605732 -0.001179450742459257)
(4.99997198086718 1.329377489994659e-05 -1.858821181430802e-05)
(4.999949078847104 -7.857808451875604e-05 -4.037297901361674e-05)
(4.999951183975789 -0.0008703786535339444 -0.0002488847677138327)
(4.998384348794397 -6.256620533985156e-05 -7.889387854677316e-05)
(5.000256932204375 -0.0001603368504721379 0.0002153186805688294)
(5.000053014320286 -0.0001557760347812987 0.0001005042863921116)
(5.000061092673374 -5.073272487126813e-05 -2.568252532165914e-05)
(4.997113926846398 -0.0002468516684796177 -0.000231008276126206)
(4.999950225112106 -3.484275195805403e-05 5.441438867125377e-05)
(5.000039222373347 -0.0003918605265074823 -0.0001941667533757558)
(4.999974861334704 -0.000382606621454928 0.0003736614177209376)
(5.000792598342124 -0.0009523338224503156 -0.0002722780536889994)
(5.000617460532999 -0.0002615399529848275 9.423823126688913e-05)
(4.999979499530892 -0.0001099654557951617 1.824482656299274e-06)
(5.000765199625849 -0.0001322016192518518 -0.0001021737387428876)
(4.999965545574153 -8.270275766211426e-05 -4.382365976077904e-05)
(5.000625594259371 -0.0001180978421903484 -2.191496711723659e-05)
(4.99872763434422 -0.002605859792395793 0.001130756459250187)
(4.99999967407399 -7.560407080004836e-05 2.849616468611176e-05)
(5.000043288333112 -0.0002049486972485685 -2.187453635851392e-05)
(4.997661723285548 -0.0003023963766770291 0.0001415128754282764)
(5.007839654822047 -0.002174962131805258 0.0006445238217573633)
(5.000073946957198 -0.0001728599406493413 4.372680854974655e-05)
(4.999948045534539 -7.732450093591638e-05 3.640885470786053e-05)
(4.986941405631826 -0.001988019710163544 -0.0005408268451154816)
(5.01003561464639 -0.006796038907603299 -0.003401492853194488)
(5.000024669395144 -0.0001122733798712533 -4.955116344902808e-05)
(5.000253996964259 -0.0002897589014861974 8.547053552080637e-06)
(5.000047334099825 -0.0003605797243153439 -2.853260256858798e-05)
(5.000088620574952 -0.0009163578725358616 4.334860221405469e-06)
(5.01170093766905 -0.003173464792627933 0.002931375957930083)
(5.000078680426167 -4.554109459241349e-05 -9.396034490506592e-06)
(4.999962832286659 -0.0001203537496780642 -0.0001255515765053652)
(5.000145413189842 -7.101245750439368e-05 -1.939830821807563e-05)
(4.999993385011353 -0.0001712877353916843 -2.864312483758651e-06)
(4.999967262531775 -9.542565100246111e-05 5.598877389352652e-05)
(5.005974372768863 -0.004032543239184894 0.001852765287491988)
(4.99911190122393 -0.002116621199420623 -0.0001698328966763399)
(4.995006161471571 -0.0006683467120384821 0.0004247702656722514)
(5.000060541930223 -5.638055178413926e-05 -2.148094403261295e-05)
(5.002714229990535 0.02285364327380159 0.02071622332083126)
(5.018918568461351 -0.01202639213750343 0.004092040885894973)
(4.999364080147584 -0.001282166104674965 -0.0001185075298122013)
(4.99566407107916 -0.003463151885987397 -0.001865752639705348)
(5.00012098529901 -0.00155097230026734 -0.0008213816287124844)
(5.000069399921077 -1.108854330963534e-05 -8.941457522236374e-06)
(5.00035526247601 -0.0002525577319884503 0.0001332479617530548)
(5.000000416830964 -0.000302313050671871 0.004631151454383293)
(5.000331712937018 -0.0002287096337420742 8.346480098750407e-05)
(5.000393314372614 -0.0002728161919276747 5.512234853384651e-05)
(5.00010518468003 -0.000619933865163637 -0.0004237449717314902)
(5.000282243035587 -0.0002389507908368499 7.793129456912025e-05)
(5.000048111615449 -5.21797881959353e-05 1.006304377472217e-05)
(5.000443478891727 -0.0001832074133033244 8.065872935824372e-05)
(5.000030400129209 -7.154487637918781e-05 -4.062029874696934e-05)
(4.999954165952555 -9.979694256514812e-05 -0.0002302509881239225)
(5.000074779065658 -5.130457058231169e-05 -1.704000231385677e-05)
(4.99996417752505 -0.0003220937045399537 -0.0001857992435744518)
(4.999991769661618 -0.0007071035085896814 -0.0001091655795230803)
(5.001684924245875 -0.002210359971020261 -0.001278792973094409)
(5.000832170439264 -0.0001566436929483013 -0.0008195603585710768)
(5.000102911262254 -0.0001106552751707128 -5.432837148379551e-05)
(5.000064735306671 -0.001277327854722516 -0.0005190081213031337)
(5.000054713305586 -9.986595851081431e-06 -3.80460727803994e-05)
(5.000526029278446 2.369645373106995e-07 -0.002564183018244365)
(5.000001740077898 -0.001035923720779615 0.0005506397227067962)
(5.000150507382518 -0.0004436108948321672 -3.775084321788213e-05)
(4.913323693110721 0.4456727558024894 0.4208389466307633)
(5.00026921483209 -0.0004152701815675091 -0.004419973185227423)
(5.000056021572983 -0.001874593180149777 -0.0005690916110022358)
(5.000250537514525 -0.0004977810670972119 0.006911930227861669)
(5.000514189312499 -0.0006171682010645876 0.0008355078786883434)
(4.999606564314258 -0.001844619900561094 0.0008319866723616999)
(5.000288957552278 -0.0002019149988067163 8.43251842595949e-06)
(5.000136370829313 -0.0004748052982081518 0.0003000524378871888)
(5.000033492637567 -0.0001924973025838763 8.305793470156421e-05)
(4.99996067904822 -0.0001119035895234354 5.430906012051908e-05)
(5.000075737904297 -5.831940924528954e-05 0.0001026643904728583)
(5.000059708393137 -3.671968172118377e-05 0.0004325415399669659)
(4.999985283167466 -0.0001326015528896214 0.0001473537778506089)
(4.991128940003539 -0.001474627737180341 0.0003362686456442731)
(4.999909542188595 -0.0002430960008300462 -4.108547464312774e-05)
(4.999938946596641 -0.0002104307185331386 7.428815259093056e-05)
(5.019044198964082 -0.01600379769338087 0.006231583039608852)
(4.999963327232526 -0.0001810201373554467 7.017195939776704e-05)
(4.99995756484308 -0.0002297187695047279 0.000129462753859168)
(5.000061000642061 -0.0001222958248135074 3.873065506984799e-05)
(5.179567989182477 0.2693054891045399 -0.3422642949215408)
(5.00039025518717 -0.001458462466199641 0.0010989710151886)
(5.000236821311636 -0.0002481969388592202 0.0001609311060232279)
(5.000081958314324 -5.027131897964609e-05 -3.530263125223394e-05)
(4.99996019316454 -0.0001704652819801747 -5.006135454032465e-05)
(5.000100880567673 -4.417865144198203e-05 -4.2740579720219e-05)
(4.567345443827596 -0.3135968923630396 -0.4733616834265568)
(4.241913220972572 0.4083360361385399 0.1316543304308798)
(4.982259129431658 -0.387657563553563 0.1102316210661786)
(4.99865539343714 -0.00349446858238524 -0.001553724110535517)
(5.112113092659436 0.4365727068266692 -0.193114374775678)
(4.413001229511239 -0.898380342527581 -0.03840520626341151)
(4.237514673713707 -0.08488638239214273 -0.08737258151022999)
(5.000089550736646 -4.324657877003094e-05 5.638626997146317e-06)
(5.285874505876806 -0.2175479827562633 0.6454355194062364)
(5.065001431240066 0.2317600813239446 0.490447085281846)
(5.000072532265369 -6.978935672847947e-05 -1.09682198542428e-05)
(4.999976014383222 -0.0001678589112143038 0.0001914779376243849)
(4.961443181531638 -0.001442697359464509 -0.002427758649166236)
(3.596651097049466 0.6047755520700583 -0.9748034706192021)
(5.000069687084737 -0.0001863187727600578 4.81939395612304e-05)
(5.000118190624232 -0.003302533301624773 -0.0002627298025745046)
(5.000027494220366 -0.0001332826548282749 -5.079823707994385e-05)
(5.032163828340745 0.3733860902166649 -0.4191463844203869)
(5.051847073628499 0.01338398357636274 -0.09540420938885306)
(4.996793220976667 -0.0004142335913983646 -6.240775287823049e-05)
(5.000569277871896 -0.0002726966328311387 -0.0001087604634699104)
(5.000025792683185 -9.834015665807911e-05 1.340341076515616e-05)
(4.999945479821252 -0.0001341867222221498 -4.520040084402105e-05)
(4.999051465972645 -0.002360765850714667 -0.002458950544769578)
(5.000025379002338 -0.0001006524178049461 -0.0009128620522854342)
(5.000062666820857 -0.0005762624519939626 0.0002190944621069183)
(4.999959927566083 -0.0003575571563663478 0.0001343769153655012)
(5.300221859456453 -0.2234002206978481 -0.5733900535613436)
(4.997148247850054 -0.0003544694249849438 -3.965877550710514e-05)
(4.082043298550909 1.479362357291105 -0.8753562979440003)
(4.99985599396343 -0.0006966249868469663 0.000394725675890322)
(3.055305402258496 0.3513366721689333 0.2389684290801806)
(4.413606979135531 -0.06648022509729412 0.591513573766778)
(5.002758431294472 -0.00179643692773156 -0.0001963397108491347)
(4.716448835216468 0.4878361395545042 0.03224225248091127)
(5.00232403634238 -0.001158963275963063 0.0005092451362844752)
(4.989685868290143 -0.0006431580663671092 -0.001068994900773232)
(5.000264846830657 -0.004257707219693006 0.003186234412745391)
(5.002582211170814 -0.0005839667387316796 -0.0009026840551651818)
(3.675339558106754 0.126155413434167 -0.0865466788582919)
(4.999617096690135 -0.001036101309887588 -0.0003401350973520928)
(4.999999563705935 -0.0002607005073378114 5.872033849141059e-05)
(5.000483144423947 -0.0003361713203819712 -0.004434932611392921)
(4.336919066643156 -0.4360425911938449 0.1583288383550313)
(4.99994949052186 -0.0003213456479747454 2.115050668703504e-05)
(5.000040375744533 -6.067398594004286e-05 1.285430886378875e-05)
(5.000065307057359 -0.0001041008582483464 4.840431856672736e-05)
(4.999910973659868 -0.0002850091595615578 -0.0001248664928420992)
(5.000387028852487 -8.936900038196069e-05 3.811076722610542e-05)
(5.000074079538964 -0.0002917855184428458 0.001943095062874364)
(5.015477198512063 0.04710870509243151 0.0009805756596690228)
(5.000076012489689 -1.862122553246433e-05 2.041388586014042e-05)
(5.013926300432195 -0.01386546114623246 0.01322018943180062)
(5.000763254868546 -0.0009630341789019355 -0.0001870917738286328)
(4.999905740118553 -0.001345661647468343 0.0006972300768205405)
(4.985780632541164 -0.0007291837584708963 0.0005635643573331365)
(5.00004969183887 -0.0004500270972798023 0.0002114766577659654)
(5.012922649447217 -0.01244586955588215 0.005849013005809203)
(4.999969205577563 -7.375626603181203e-05 -6.208353703667337e-05)
(5.001363606872493 -0.001820593533439574 -0.0007797969043030848)
(5.009797850355928 -0.007263240532600438 0.004216427238156586)
(5.000076308919815 -8.594922768367806e-05 0.001608767872123131)
(4.983709707649164 -0.001004427980682912 0.0006802427046534089)
(5.00019859389792 -0.0007300780787000635 0.0002963517612877158)
(5.000102981962995 -0.0008782702010989233 0.0003610657787380559)
(5.003236291553297 -0.001459183052754518 -0.0002613152354049544)
(4.06193328512404 0.04402142338448772 0.1053834583558348)
(5.000046646520344 -9.142029721683051e-05 -2.140018157389131e-05)
(5.000078202794016 -0.0001003051842656447 -2.917582172000525e-05)
(5.000064092093358 -0.000765593690705578 0.0003432842151120478)
(4.997043047801525 0.05554238713330142 -0.03698270969649045)
(5.000171311898372 -0.0002345239285574821 7.202036067477327e-05)
(5.000016125853567 -0.0009480231343081034 -0.000432422393051304)
(5.000070423125858 -8.097860982462721e-05 3.666822417781026e-05)
(5.021827906489778 -0.003273562529499931 0.001227920793555621)
(5.00015656382189 -0.000246440583915155 -2.636324159531718e-05)
(5.000060937941385 -9.117071825753369e-05 3.990809408546181e-05)
(5.000210352013823 -0.0007756811510913676 0.0004803754974113739)
(5.006170605460921 -0.005703797188548531 0.0111545577127704)
(5.000189694287116 -0.0002450811791013857 3.084772595133413e-05)
(5.000266409730385 -0.0002254475440675951 2.010228487269312e-05)
(4.999876954148249 -0.0007830245782711654 -8.086467671905912e-06)
(5.000108766772255 -0.001039297907745595 0.0002873829264307061)
(4.999982513092802 -0.0001608602669500558 9.285389932484074e-05)
(5.000068347703165 -0.0005654866504969327 0.0002254205816235901)
(5.000122468690255 -0.0005828386318935158 0.0001677041546967576)
(5.000113233828866 -0.0005401153113975695 0.0001570593899719966)
(5.000105433918724 -0.0007030925165833625 6.668362514050512e-05)
(5.000099076395528 -2.930572051440192e-05 -1.113911686640168e-05)
(4.999971164382828 -0.0002477810013092496 8.666770680260934e-05)
(5.000167919796006 -0.0008066238399964148 -0.0003066347423430766)
(5.000013767780475 -0.0008344648092763697 -0.0001066201166647043)
(4.999297890898548 -0.0006275672743778129 0.0003919770252111857)
(5.000146319736172 -0.0008250029113360583 -0.0004153661571973585)
(5.003533986539124 -0.002672555107726819 0.001021453205505013)
(5.001288494598482 -6.146462115951428e-05 -5.932720084696364e-05)
(5.000175097840862 -0.0001764254111522519 2.884148195143329e-06)
(4.999947056163434 -0.0004881922445382082 -0.003918106089275507)
(4.957657953034473 -0.003565350577960656 0.002574603866101261)
(5.000111050984049 -3.640075390783764e-05 0.0006654087980987341)
(5.019988660380937 0.002081846119304959 -0.01177438708984925)
(5.000131963392025 -0.0003727316607920505 -0.0001261521697297052)
(5.035335182470836 -0.03448062356143914 -0.0303360637849306)
(5.000225207419804 -0.0004408209571200697 -4.168417857831052e-05)
(4.999802456838638 -0.0007410373590615818 0.0003779217221246601)
(4.999846926604353 -0.000889243989023538 -5.980086581579866e-05)
(4.999855236887841 -0.001045756791466913 -0.0001894045017103154)
(4.991741865577004 0.03873467036309787 -0.03146214989189076)
(4.999878281512069 -0.000924791071414827 -0.000112637709701899)
(5.000375514388447 -0.0003570516157219699 0.0006757303416347409)
(4.999988342708619 -0.0008966925045585588 -0.0001324890226388133)
(5.000086416359139 -0.0003974325079523166 0.0002465657740288716)
(5.000118777056103 -9.665389615080685e-05 -7.603779901651328e-05)
(4.999502084854019 -0.001665545200800887 -0.0003227950845296719)
(4.999991903302286 -0.0003009988028883457 0.0001240443553301447)
(4.999982478353397 -6.572855363725979e-05 7.868659332837201e-05)
(5.000008742846115 -0.0002303571300128075 7.578836505180553e-05)
(4.999992847671923 -0.0001987760461135795 2.918080139578337e-05)
(4.999867298026073 -5.175567485696545e-06 1.276288628154978e-06)
(5.04473637538235 -0.05345753079147327 0.03483995444664434)
(5.000072752858936 -0.0002014800067059865 4.088186917032875e-05)
(5.000045286286632 -0.0002133154241253107 0.0001144491173110969)
(5.000002537311885 -0.000268364225616284 0.000170699662170993)
(5.000021281532805 -0.0002307057387380062 8.440998906783051e-05)
(5.000129219850501 -0.0002409122840551925 -8.099265029708523e-07)
(5.000153341798319 -0.0002499983740003822 -8.286275953097736e-06)
(4.999992166149721 -0.0002446778376692386 1.519573668979105e-05)
(5.000043791730555 -0.0002952301373446003 0.0001293090669842382)
(5.000120860206799 -0.0003152734010550237 0.0002702434259678802)
(5.000062800173044 -0.0003666071502682064 8.301629784378304e-05)
(5.000183710483216 -0.0004677344206805176 6.61095096572715e-05)
(5.000270086609834 0.0001412167967618392 -0.00286145539640867)
(5.00021799184254 -0.000625781397408669 0.0002411908634957091)
(5.000089935789375 -0.0004391714375868946 0.0007439792818139728)
(5.000109165499325 -0.00044457883877898 6.507207084185388e-05)
(5.000241419871572 -0.0005989899342746565 0.0004035568630551387)
(5.00001903928153 -3.493055870880057e-05 2.864621031422845e-05)
(5.000102541814436 -0.0005508572409110464 0.000321453554149405)
(5.000223297769812 -0.0004250914810814458 0.0001637584472354334)
(5.000256956199908 -0.0003204414607794889 0.000281275861807778)
(5.000215636754641 -0.0006037093638918246 0.0004140986363471804)
(5.000004515560759 -0.0004345195790340675 0.0003079715724804366)
(5.000172101311711 -0.0001898006041977129 -5.772207835453284e-05)
(5.00003774334528 -0.0004346707636913964 0.0002441567381105019)
(5.000233620804401 -0.0002306499987824625 0.0002462115754037719)