/*--------------------------------*- C++ -*----------------------------------*\
| =========                 |                                                 |
| \\      /  F ield         | OpenFOAM: The Open Source CFD Toolbox           |
|  \\    /   O peration     | Version:  v1906                                 |
|   \\  /    A nd           | Web:      www.OpenFOAM.com                      |
|    \\/     M anipulation  |                                                 |
\*---------------------------------------------------------------------------*/
FoamFile
{
    version     2.0;
    format      ascii;
    class       surfaceScalarField;
    location    "0.3";
    object      phi;
}
// * * * * * * * * * * * * * * * * * * * * * * * * * * * * * * * * * * * * * //

dimensions      [0 3 -1 0 0 0 0];
oriented        oriented;


internalField   nonuniform List<scalar> 
37503
(
-7.324994078467126
-11.02501124385919
26.13131287539546
-7.78130755310776
-10.51594306672638
4.561077695840387
16.43796217985184
0.03983064402009099
-0.6377163921120289
0.8684720264340617
-0.2705862783406763
-0.1224292892627003
0.1460099489175804
0.002673096176483297
-0.02625375582863235
12.38967585677156
7.178102995759717
0.6047066886888982
-0.02058207134731963
-0.08866690697904581
-0.495457710358413
0.08464704431523934
-1.606538651751256
1.571719004933594
-0.04982739748651032
-0.4058144423060262
14.37852903539945
-13.9727145931018
-7.679525342341784
-5.80000183228158
-7.839664704062766
21.31919187865738
1.782961946411928
-3.120535364045182
1.489145929610056
-0.1515725119674425
1.47307549349062
0.1898576270829277
0.4198962923597721
-2.082829412939095
1.706062648338116
2.108468175740405
-2.701192096225727
-1.113338727874462
-0.03204135039641799
0.002779157359610839
-0.04098901102931153
0.07025120406954667
1.10451242548603
-3.569824195648683
-1.01448695029899
3.479798720422648
-0.8893978108434947
1.956628077807325
-2.764141783609915
1.696911516622496
4.256852050815317
10.59239536463101
4.495148125037923
-0.01336341501963239
-0.1641831122032561
0.1403401837048
0.03720634352467739
2.08566768496564
-4.634386191984339
-1.984284938814289
4.533003445799818
-0.49043256911619
-1.27169986539386
-16.55379668825604
13.05933302483334
17.96461568724717
-6.667986648722914
14.1662689208766
-8.104018152304452
6.988409465661422
-8.262595227636391
9.378203914266264
19.97565267997293
-25.73037952897535
12.04987561614155
-0.04588894392018888
0.4691226786916004
0.01772437702438549
-0.440958111793094
-0.4483999878696565
-2.17357534227074
3.72648775560367
1.388942494331518
-2.661151519695983
0.382811214504522
-1.438528703983806
1.91815410165237
2.195286349657682
-2.674911747357657
-9.829972250829137
-9.396840245045263
0.2699504749129651
-0.3167888361365978
-0.07024662634136576
0.1170849875738948
-2.289483627595238
0.4257220802729055
13.0846019615301
-16.18599727169857
-23.75273121229278
26.85412652249152
-0.151849780042264
0.1277988771045769
0.0771237796498105
-0.05307287670760942
3.516211338664225
1.923122272924905
-19.93775039325513
-1.543847886950453
-0.9979213190424551
2.09336921809404
0.2308033734557462
-0.012510724144568
0.204431609428192
-0.422724258731946
1.323835327794904
-1.184421797033891
0.5080736474813624
-2.032179949788718
2.708528099316355
21.43806600674608
5.083763071102507
-4.456021726223958
-22.06580735165866
0.05105313807944943
-0.3089525979166199
0.1202277604995502
0.1376716993457021
0.2886463177003692
-0.6039049647576356
-2.143847822428698
2.459106469500776
-0.04250143228763722
-0.2366029759109152
0.3920690860594531
-0.1129646778544923
-0.06546015905816063
-0.05128137678457059
-0.007528170611292188
0.1242697064573018
-0.4978007664059208
0.4457770152404992
0.2979894985750245
-0.2459657474029965
-0.05564269910481987
-0.4145368412148782
0.6622488074469521
-0.192069267114832
3.95884577273059
-2.55191543854276
2.434582835129797
-3.841513169318797
-0.1595253965836997
0.04082011906598128
0.02350924162397671
0.09519603589789229
-0.03600013165326562
-0.0907469200059934
0.03099597420312864
0.09575107746124481
-0.02184597685643901
0.1160665140246256
-0.1427826994993167
0.04856216233472474
1.95149698185381
-0.9713292173126712
-0.2497844964841697
-0.7303832680530475
-0.6621482384818567
0.1843931144403785
0.3224069341092407
0.1553481899489712
8.881418072105685
21.13297310559351
-27.47160234966406
-2.5427888280381
-1.250484262238102
-0.08189894696812723
-1.368808887029386
0.4832503412735816
-0.1301102989853309
0.08703552926482519
-0.4401755715497219
0.8263295126233421
-2.151136714616058
-0.9646764256187527
-0.2209816131019106
1.537708704445198
-2.104231571789171
0.7875044804601802
-0.1549073782826843
0.2146176709056385
5.228690168148026e-05
-0.05976257951955907
-0.2325415407758346
0.1232121573295711
0.165563769235245
-0.05623438578348722
-0.8993522248776517
-0.523909484749652
3.15489593377404
-0.04893952988813267
0.3237475566794107
-0.3171119246543729
0.04230389787184188
-0.005704913120176944
-0.1269378175511965
-0.02514463381087399
0.1577873644881977
-0.008593075983446361
0.06519610851344798
-0.09267542049980991
0.03607238797319772
0.004473706221440291
-0.134905037703284
0.1223603086300464
0.008071022857241809
-0.07126800543312914
0.07280652090426026
-0.0378750799225093
0.03633656445375844
-0.2416413773362424
-0.2223651169633151
0.4583872251954504
0.00561926911404029
-0.1660297290081412
0.09615089473847574
0.05979488733956459
0.01008394693386113
-0.1092044727008933
-0.003500213739246361
0.09714756739398563
0.0155571190500628
-1.925519157639758
-1.150017355234822
0.04451198442918715
3.031024528410856
-19.9468241495507
19.87223788530241
0.07458626424317623
-0.1951843434974068
0.05520019599907353
0.1021458389001282
0.03783830860295617
17.878302152591
-14.75933930770333
-15.25924501766881
12.14028217274623
0.1058713155647482
0.03050096101858537
-0.0950720157500435
-0.04130026082625552
-0.1466987583835332
-0.488272799679405
0.4331736689891039
0.2017978890813006
0.1247919036560663
-0.5799223546710677
0.4820760059019444
-0.02694555486945595
0.156829670369285
-0.08472229834975693
-0.1009995397708895
0.028892167757726
0.1957779775211203
-0.2215582215426136
-0.1533860010487961
0.1791662450788363
-0.04887832099587529
0.1513986593610193
0.2053838708294381
-0.3079042091885382
0.8339323674296802
0.6210901129863353
-2.184855484376203
0.7298330039683691
-0.01219616123510052
0.1269084069416948
-0.05093846099491528
-0.06377378470693044
0.0846371069061426
0.01310584373198425
-0.06023265440707391
-0.03751029622642908
0.8088720007621103
0.8412902778334171
-0.07755116025758341
0.03247646969343888
0.0450746905659684
2.86928257505239
-1.726424982449819
1.017830329066801
-2.160687921662245
0.2522051273155342
-0.115200617553474
-0.1179289526039546
-0.01907555715055621
0.1284086034024136
-0.02750478899681426
-0.06352620134876613
-0.03737761305244054
-0.0751730648002521
0.445059803945336
0.3988064962474367
-0.7686932353776214
0.2528200456310257
-0.1851912911689965
0.1584391116840712
-0.2260678661426802
0.1218630645565259
-0.1691648328943567
-0.2497106585376573
0.2970124268829618
0.07365134631869451
-0.1539195755166649
-0.03205969973499639
0.1123279289362587
-0.1198462010004854
-0.02290880732492763
0.02032571906449661
-0.07783732201432352
-0.1242570732852564
0.09515025366795127
0.1069441416364086
0.1909922709726006
-0.1094793827660895
0.0197851063354264
-0.1012979945401275
1.050987127609904
-0.7313266277421755
-0.3635998121277474
0.04393931227880601
0.06345300275166864
-0.2773442214469027
0.298913972592052
-0.08502275388730339
0.2519350557876812
-0.04004942571997655
0.02196250856076171
-0.233848138621925
-0.061742724404872
-0.2370126063460257
-0.1879473254889577
0.486702656242567
-0.02994129523757367
-0.1935176286862966
0.4075252890046157
-0.1840663650762675
-0.1403443650463002
-0.3013221290029152
0.1043716269304883
0.337294867122938
0.02917020843378084
0.1424817736221174
-0.195267252722308
0.0236152706723673
-0.1064430077320503
-0.08778119746924158
-0.2474715924017029
0.4416957976070494
-0.2042200265844165
-0.2808682527729369
0.3430049784302798
0.1420833009290504
4.788525766126271
-1.508062360533843
0.06525223976779131
-0.06437675472976311
-0.0008754850351905266
0.9807325477742053
-2.207610875630446
-1.434273191853924
0.05204108951427568
-0.03704477310298349
-0.01499631640951269
-0.2011748985284921
0.05288659120058306
0.02397103503653549
0.1243172722959959
0.002685771574454169
-0.06539881530048046
0.1590165719769597
-0.09630352824544046
-2.321594149887368
-0.8131388268612558
2.596716334034552
0.5380166426876422
-0.04716139059069507
-0.08913693201209545
0.140075228377293
-0.003776905770891681
-0.4323703110021399
-1.172334593256218
-0.8671950048850455
2.471899909138365
21.1780125532352
-0.07410325559324697
-0.3315877649170156
2.912224449516189
-3.765058481641819
0.07454294233588094
-0.1124155829542854
-0.03922446605832952
0.07709710667957539
-3.052261710344432
4.842876394977215
-0.1392829816336184
-1.651331702969758
0.1544596906071278
-0.07541793042676594
-0.4056071931300629
-0.3286104842438396
0.5354587461094967
0.1987589312705892
0.1959581314969336
-0.1011548743397409
-0.02936797323911781
-0.06543528391414458
-0.06853756457699095
0.2590085735929372
-0.2356342139104815
0.04516320490485015
0.1828739582189339
-0.2881830496682741
0.301824077740878
-0.1965149862838723
0.0440718065222121
-0.02540501979091106
-0.06141121388075337
0.0427444271514513
20.19126134517635
-18.63656771207451
-0.4110092995223794
26.75296717870958
-26.74777232150856
-3.33809295773962
0.2340991739699718
3.85542215129842
-0.7514283675533219
-2.040785855464234
0.3405533075138663
0.9162600807211152
0.7839724672290871
-8.027576917529677
-5.102107875473415
7.013717471880701
6.115967321188718
-13.70496375342738
-20.90312344370572
34.61181404311579
0.760568286990138
1.582289405957494
1.38363006263627
19.34471070854923
-10.98819637314425
-8.356514335401943
1.195090731901065
-2.356127404358023
-0.05518374143768331
-1.728225494398782
1.125823582480282
2.317913108768022
-30.25229496641173
-0.9847441816194989
1.246507589328428
29.99053155866839
0.1130967643999691
0.006508572907013881
-0.1409716156994323
0.02136627839829355
-0.215875766834138
0.01033225140170829
0.2055435154359423
-0.1247838388655228
0.0523329630491127
0.1510038760416318
-0.07855300022077757
0.53495203596021
1.42361923302501
0.537103602108371
-2.495674871127876
-0.6074056181896429
0.2039655699552735
-1.762792490386163
3.09719565047026
2.053382559465408
0.8291681831846099
-3.687370338584592
0.804819595947712
-1.883453423695877
1.90666548996081
-3.140948829286911
3.117736762979766
-0.3806449675891591
0.1973332635696517
-2.015329922201467
1.707499454054773
-9.673046312150344
-9.060684702974877
-0.05648938594470016
-0.1510243094354236
0.114446975307424
0.09306672007724778
0.1172028250460385
-0.3406340731857579
-0.350570396952424
0.5740016451042671
-0.5158865822899222
0.3582876304306781
0.1168779028852295
0.0407210489906014
0.4599854485957193
0.2118411249995764
-0.8228573669787304
0.1510307933919686
-0.357570327482809
0.4835726308190316
2.211001095374105
-0.155929293758097
0.06066383296833847
0.01070206794283079
0.08456339284844783
0.009474338891716368
0.02348953012823739
-0.1307608344803552
0.09779696546297115
3.1253205078133
-1.082261506961528
-2.560330699007078
-1.163686240120785
0.603877797551663
4.741586544184145
5.574552533715861
-10.92001687546521
0.1992552764672458
-0.9714706007884329
0.6302165783638989
0.3412540224266042
0.07193892934887312
-0.2731845084890361
-0.2144373743933139
0.41568295354121
-0.6400915700117418
0.2498602018813971
0.544153475990635
-0.1539221078517969
1.798050291450527
-26.11436660042888
1.865848314484004
2.883039561825814
21.36547872410697
-13.88270277765308
7.885895813530908
6.600684761640617
0.2026465919667917
-0.07257193069383785
-0.1370040539578727
0.006929392688595314
4.801604027713361
6.581079627279375
-28.83188407688304
17.44920042184398
1.654300401617113
-0.7706604847077109
0.2829412600165531
2.671451132320627
-1.759301660455213
4.065520461601486
-1.723661590462089
-2.965908342970454
27.63594990933997
-13.61823129870162
-14.01771861066406
-0.09553791264510825
-0.002344315968634444
0.1141210450931757
-0.01623881647543893
2.365042603750803
-3.661306794288615
2.197406711145287
-2.130571410951795
2.84538914929998
2.408836249377416
2.272213608729945
-2.316007254375414
-18.6992810935766
8.381203343833432
-8.672921756475706
4.413100103804948
-1.578541774169937
4.469620319865144
12.50948833145077
-7.711209778017599
-4.260165182963497
-0.5381133704461644
-0.01640195156847208
0.08455227657413837
0.01093571161948813
-0.07908603662069202
-1.282331199288005
-0.7374261845233191
-0.4543037023965349
2.47406108622654
0.4019189021673152
-0.2362426318443606
0.1271035460458278
-0.2927798163618419
0.04755504472564785
-0.06356714863288354
-0.2165294368646446
-8.120030845713558
9.069975854804834
5.287827656167042
-6.237772665265376
2.704986584387816
-2.065972598759281
0.7117995059049919
-1.350813491509029
-0.059596100938924
-9.022969164817695
-1.747562576998472
10.83012784283044
0.2922089916761901
-0.1954870197792464
-0.09672197189514889
0.154910726939001
-0.2638177832215592
0.1089070562862437
-0.06151113632463154
0.3288237800031267
-0.05695387510425616
-0.2103587685695558
3.698581735497493
-21.7854254738029
-4.115907549942705
22.20275128822409
-0.1554132489877177
0.1565555739348331
0.1732952466700163
-0.174437571608721
2.62063417239078
-1.262925804444112
-1.790078678954839
0.2984010819548333
-0.1434903550128855
-0.1474570363595288
-0.05379269392366276
0.2317879628370144
-0.03053823254600295
2.996874361707051
-3.548233473203908
-0.01954619263015561
0.5709053041589179
0.3643921025992909
-0.02512723700203178
-0.01867635575494633
-0.3205885098231305
-0.01292573990699948
0.01059102081422012
0.09921484064579431
-0.09688012154854792
-0.4371547941812745
-0.1087333976457081
0.2698103085662449
0.2760778832714917
-2.311202922173363
-2.11378983937032
-1.437550025865596
5.862542787400509
-0.09498051249881238
-0.167093859336913
0.1106618758256852
0.1514124960128979
0.0796959854333794
-0.2314475584357386
0.1517515730062981
0.07309789876527925
-0.0220908009212929
-0.09045970436875911
0.03945260652947764
-8.074003102328058
-0.1333644174372037
0.00649019227250693
-0.01764889578655073
0.1445231209571282
0.02484049102460048
0.04717854351855826
-0.07201903453862324
0.03343996383096292
0.06224040833717492
-0.1131933960670137
0.01751302390346327
5.861375911240139
-4.052040256517951
-5.282087979508268
3.47275232482169
1.980470437405013
6.064462875807778
-2.393283937077442
-5.651649376121787
10.45155016484994
-6.656951351765483
-20.93106815441091
17.1364693412992
-0.09428350939180062
0.06895336128664302
-0.1065249015285682
0.1318550496396441
-27.54012514887044
15.28583573647684
-4.299507275866832
0.7160890954949723
-0.3519645639368307
0.6898654757617988
-1.053990007326265
0.7240292604512686
0.1482577725272402
-0.7158289522798043
-0.1564580806916519
7.365510283013601
-0.8989368865147122
2.087097640208341
-8.553671036696542
0.1002648029074041
-0.1275141983642917
-0.3373264408254569
0.3645758362880451
17.05085561357926
-13.03154293656527
15.32539803153667
-0.6405539473776085
0.1846016344753556
-0.05979924853014883
0.1002982639543539
-0.04049901542184182
0.06324296379055026
0.1260043856396094
-0.1757102191194113
-0.01353713030718834
0.1157465381198894
0.02836214765033949
0.02212569605055883
-0.1662343818127633
-27.12148853623522
14.94015301529008
1.198604692828473
10.98273082806897
0.3245952985984428
0.4552204487473255
-0.379379022390006
-0.400436724950384
-12.68858077855253
16.40665883847494
0.09298195367171287
-0.3838975675309643
-0.1264034988394196
0.4173191127090591
-31.31132970081365
9.244954217963922
6.752600910097362
15.31377457273403
-0.1621859346483206
0.03804825468546402
0.056445789630544
0.0676918903375802
14.38418349985515
0.02571497934254847
-0.07757644916519002
-0.01496040474586008
0.06682187457137953
0.4450065666185047
0.06493114707964655
-0.5446730871313764
0.03473537343412449
1.41987812298612
0.1589023753321042
-1.01413527106867
-0.5646452272313152
0.005604377247774072
0.413626508733733
-0.1297334193928605
0.06624273173924328
0.2107602000029052
-0.1472695123419492
-0.08430304884589783
-0.1308023708671173
0.01778184800430106
0.1973235717117074
-0.224579952104238
0.02397824070959243
-0.003929329561531605
0.20453104096288
0.1868184414773273
-0.05303282726897712
-0.1337856142035065
0.0276575139093427
0.06192599057001107
-0.08958350447601351
9.841732496705214
-14.29643209562007
4.454699598925192
-0.05956324185238717
0.07928691847802209
0.1791934452966248
0.2136330088761682
-0.1395963343028664
-0.001933006709132848
-0.07210366785558368
-0.1017938280841215
-0.3066997611907646
0.8314859498432307
-0.4229923605632148
-0.1603041002192592
-0.4138220922199821
0.226792663300682
0.3473335291505388
0.2041382478909705
-0.3876133491298729
-0.3658123485391312
0.5492874497812649
13.5471818458935
-26.14237120249956
-14.52629917966746
0.922635587814671
0.4211705983871223
1.756262926377199
-3.100069112572109
26.80939037386118
-23.79617659155445
6.903048682070366
-9.916262464393022
-13.18680992882696
-16.10989834607241
10.142968943328
19.15373933153741
0.187082068351884
-0.05298345130607435
-0.1340986170402163
-0.03207989773207909
0.0005611265222787789
-0.1599030775935883
0.1914218488114405
-1.322368699887955
-4.784431983932734
-1.018230699743739
7.12503138356818
0.3977757082225084
0.09380996108377136
-0.5697577704265511
0.07817210112187122
-0.05205901904268046
0.1610070420561042
-0.02335555858357068
-0.08559246442482051
0.05537376634210445
-0.01910347200291929
-0.07916988202362063
-0.0483540934430769
0.106169149699834
0.1303019423728789
-0.1881169986210165
-0.06232005000767694
0.1333360723099472
-0.07101602229925821
-0.0434295165929979
0.04712601161833839
-0.130240062535518
-0.05804629854177242
0.1996403584746079
-0.01135399739015603
-0.08002006931039796
-0.05958374255941089
0.1396038118751193
-0.449618429955344
-0.04766261104962028
0.4154281165793791
0.08185292443233273
0.1969982901469928
0.1790634865714053
-0.3250086386334599
-0.1518571390985229
0.0934686505775553
0.09396478965765484
-0.03557630113086652
-26.37146028000616
25.32751816650991
-3.68195353788805
4.725895651345301
-0.5449918860595928
0.1057934973809311
0.3679196354171808
0.07127875327264854
-0.4923988875431222
0.1980458791836526
0.6221584746371649
-0.3278054662705436
-0.1672238032065003
-0.01466539282628821
0.106420112359324
0.07546908367841362
-0.06540337961543272
0.2797672082643463
-0.2449561384152183
0.03059230977352311
0.07166497613262339
-0.2198385444852353
0.05813233003426652
0.09004123832475158
11.32111611983402
3.087799737167785
-1.109132159229069
-13.29978369778573
0.1339673150333545
0.03020852833362359
-0.1134625986173954
-0.05071324474354508
-0.09670768285139708
0.2449189130896902
-0.04734848961423677
-0.1008627406175521
0.1424800199351185
-0.2179202280439754
-0.1883775751084673
-0.04376510826333753
0.04114164001952019
-0.05018357409968075
0.05280704234685286
-0.06131792971935193
0.4331813572145756
-0.3084927142522522
-0.06337071323844902
-0.02277937544877759
-0.253701365012787
0.2341266787945233
0.04235406167373522
0.1636797439459238
-0.05892062265033216
-2.358043180624968
2.253284059355279
0.1461713879184677
-0.02474220453003747
0.05400030373198184
-0.1754294871153826
-1.394085183213743
2.056873097714694
-0.2191180603127728
-0.443669854186692
-26.66210189532412
1.506266860129546
26.8800983736167
-1.724263338439965
0.07571510603956817
-0.3181291634357714
0.3294753660784994
-0.08706130866894427
0.134287120073193
0.02246371131921987
0.09287454088975187
-0.2496253722766082
-0.1021287621765721
-0.02437806667043741
0.09947193303879166
0.02703489581178944
-0.5262147862126332
-0.599311999099556
0.5899130381986485
0.5356137471159281
0.05691357662027067
-0.2600394282012557
0.2044350479031757
-0.001309196313876024
-0.2092931341307037
0.02941609155521391
0.2413724458591025
-0.06149540327922828
0.03518734604729537
-0.1329602715079553
-0.02150132778834279
0.1192742532513213
-0.3759308732574006
0.3664699641952897
-0.6639508309735715
0.6734117400474779
0.2531891962830918
-0.001417743415495236
-0.6498262524106888
0.3980547995693824
-0.07511028882503344
0.1545763924888277
-0.05473495842148986
-0.02473114523853092
0.1430737026547668
0.2708133582275976
0.01457302373112385
-0.4284600846085764
39.26642827544566
-25.15387788633643
-18.15069346136653
4.038143072246053
0.3456211023032376
0.1040649353184282
-0.1646124203839543
-0.2850736172304627
0.006916954139847991
0.01339435476909649
0.2236853247302173
-0.2439966336322734
-0.6513583310827468
0.1288251625155473
-0.1009859827906313
0.6235191513667513
0.09017206798921527
0.04228232335844503
0.05331936371269958
-0.1857737550559786
-0.05517564682134871
-0.05673394211049198
0.02551074501340502
0.08639884392150481
0.04828801592720387
-0.4055820891314422
1.712717774811767
-0.8430676731228851
1.272451117833283
-2.142101219501505
15.50968162135094
-10.95229144907896
-0.04212161795211289
-0.1318476443811779
0.1286207151877822
0.0453485471510508
0.0004353738560743261
-0.1355621664414064
0.02092837957725665
0.1141984130113802
-0.1595353220562316
0.1536078420045458
0.05165199368127273
-0.04572451362475936
-0.2656753718424059
0.1133809137513761
0.3517644744794055
-0.1994700163814068
-0.1124860638923598
0.0481925451376445
0.03143972706675716
0.03285379169202923
0.09691289333770987
0.03878140084552128
-0.008412041805417148
-0.1272822523712806
-0.07414521284765979
0.05482732408069014
0.1005949576826413
-0.08127706891057174
0.579434558963743
0.6764140778809202
-15.32210849540144
14.06625985850308
0.1623677847018165
-0.1715278600175663
0.007021006203904952
0.002139069116706888
-0.1828260956931944
0.05742397958396672
0.04130769554435344
0.08409442057232087
-0.1893210145092626
0.3410097982631257
0.1326572899098407
-0.2843460736525758
-0.0654770468312047
0.06461255257784047
0.0008644942565872039
27.65581598531327
-28.50673116868125
-8.463199811189327
9.314114994571684
21.529056482972
-2.701880962677679
-21.96738080019297
3.140205279900037
1.958196360815622
-2.179684678142449
0.307189912739262
-0.08570159539228488
1.802677047343344
13.08953587074074
-8.378539925207171
-6.513672992873166
0.2012428665876682
-0.05123602607301507
-0.150006840508983
-0.005479740478567877
0.01393787365870269
0.08862823143220828
-0.09708636461054218
0.2790849949647149
-0.1183560550683848
0.4347165250625599
-0.5954454649518327
1.820330312547714
-0.1440415140778842
0.2893117657027363
1.197450224007276
-0.4498944293755984
-2.024791862389359
1.27723606776545
-7.316581877066852
-0.248979503025509
-2.476622661761057
10.04218404180057
7.671433838095286
0.8964059034789964
-8.236797693300643
-0.3310420482538913
-0.3596832883810059
0.1502014207824293
0.1606035466073575
-28.7564712002805
22.25517392246471
4.488278546998185
-0.1123071428560937
-0.1598372013128538
0.2422030489338568
-0.007405476238812834
-0.03530377771460735
0.04270925395509194
0.09518062377306674
-0.04768330052164672
-0.1492840846267013
0.1017867613789712
2.721449091731091
-1.752047327180812
-20.14962217112608
19.18022040653998
0.7089246863429549
0.1111366268613251
-0.9472544801878874
0.1271931669929882
0.05021054647725912
-0.06126259966670151
0.1624507125540669
0.357591577137565
-0.04625639670141619
-0.4934820610058669
0.1821468805730712
0.1595944950133739
0.04955319418799392
-0.08843783848206091
-0.120709850716221
-0.08931246341921101
-0.4151927910973012
0.1994209331263324
0.3050843213940508
0.269416122977851
0.02197165242425541
-0.2623740599842597
-0.0290137154097212
0.03420522381894865
-0.1951619666532207
0.03016559122046163
0.1307911516245367
-0.0330806576824114
0.4639233379957771
0.2613223612696119
-0.6921650415749798
0.1980694005879131
-0.2517139921826583
-0.2711279350439594
0.3247725266497324
-0.06253106202089519
-0.287811947085499
0.3024770949449396
0.04786591417658353
-0.03965328743082924
-0.1577489208061005
0.1974022082416503
-16.86657823703025
15.5385229623589
-2.627562967149284
3.955618241863601
0.08168972752840188
-0.1213430149573335
0.130951793861167
0.09099568432553337
-0.0828136317683259
-0.1391338464144533
-6.849893507413801
20.01944902732878
8.268510486803986
0.7138909144226703
0.02008984839936229
-0.4548957678543956
-0.7986036408731004
-0.3159961032857572
0.6559399532197402
0.4586597909549469
-0.03344574888493021
0.1217736842428048
-0.08321931701255962
-0.005108618340420973
-1.051215839836361
-0.4051983681511844
1.349995941633067
0.1064182663838815
0.0008378589529308267
-0.01754387351777431
0.06077782108900295
0.1285120742845266
0.04885364058434087
-0.2106083548746726
0.03324264000974038
0.06610854820021711
0.1440932536146478
39.18966581168802
12.20372297777643
-37.2563545068525
-14.13703428264282
0.04636923360552563
-0.08683168105340809
-0.00439576433721036
0.2830359488010013
-0.4828602110449666
-0.3460280354096719
0.03539020911818178
0.35648931327073
-0.04585148696943026
-0.2705334965785041
-0.2684339672713721
-0.1707210516056677
0.7096885154697052
-0.1321391390109366
0.1796215345726259
-0.0923355923343505
0.04485319677696688
-0.7655706162495958
0.6492292391907221
-0.017581124627705
0.133922501691503
0.0935211883575546
-0.002282162536965479
-0.01753770347638586
-0.07370132233803446
-0.6498567089248587
-0.09722638837919938
-0.1570608576152963
0.904143954918017
0.1380584691430056
-0.01037005638522305
-0.03355212381974772
-0.09413628893277176
-0.3623194206736177
-0.1091847145308829
-0.04438244707610552
0.2889619845607359
-0.1905014242204534
-0.0984605603359669
-0.03826706196204293
0.02110359432425603
-0.1183771247844068
0.1355405924271318
0.03462089408500905
-0.1178949014644529
0.1046830375211749
-0.02140903013626956
0.5357083476040407
-0.7337505036138264
-0.1218006328216927
0.3198427888412866
-0.1047651727008385
0.139340141208983
-0.09745376473173795
0.06287879623159374
0.1394604642079175
0.06776820518310435
-0.000677739007909343
-0.2065509303783772
0.588822927834289
-0.3673471084670247
0.03102370004716999
-0.1536471057399915
0.1095564143535964
0.01306699134429521
0.04400986015044455
2.79309149330384e-05
0.3351931698739005
-0.3792309609295678
-0.1258981852930479
0.0140446021945545
0.009724820924075592
-13.68054043834408
-2.119611853633308
-3.518946284514062
19.31909857648204
0.4626099518386574
0.08002221782414086
-0.002349423676076251
-0.5402827459850835
-0.05573686965759967
-0.1961218003014577
0.1775533343109292
0.07430533565654608
-13.29654590136113
5.291722278920207
12.96040173403054
3.296018524977714
-29.55296616037233
-0.1326136365268111
-0.03704047908716385
0.02219707925967331
-0.04874488119000098
-0.09471913871368184
0.1855901362985487
-0.0421261163883344
-0.3545307341917354
2.250917791978345
-4.26619347436444
2.369806416563547
-5.650660442426538
15.83034099830402
-8.377003508540614
6.806413985349655
-9.19877410041676
15.12740387179561
-12.73504375673705
3.225306301774886
0.0426341759666991
-0.6699100150239194
0.7651982527032777
-0.1379224136370011
0.08567533869744345
11.01783727111321
-4.656812648190897
-6.446699961624317
-0.1434555261888125
0.01000707323578449
-0.1022707521941627
0.2357192051565319
-0.6245093645171583
4.039072507893894
-5.13822473382554
-7.722385938168522
3.321914792076516
-1.180446841909718
5.580917988003467
-6.653841197914892
3.899812973700247
-6.815711905681387
9.569740129923201
0.001433189609339577
-0.1703483028200495
0.03689383988653527
0.1320212733283797
-0.02938646937497099
-0.3429375633965336
0.3643547741622665
0.007969258616553086
16.87453081473179
16.44751994454061
-12.46713861130092
-20.85491214798727
6.439068912085523
10.43546190263503
25.8754159906177
-6.620509506342459
-2.807386539747816
-0.05292061095624931
0.1872778104506074
-0.05747221019953057
-0.07688498928948559
0.1466380475257446
-0.09877810416520198
-0.1007805543121386
29.75538182412684
-40.44400852240216
2.959008310549903
7.729618387715936
-0.08695480515216129
0.08289591550241213
-0.001574000590269327
0.005632890246782753
-0.04581160568958553
0.1194820512188402
-0.07367044552602339
0.1389781059618839
-0.1736985240664941
0.3270482772700775
-0.2923278591547032
25.78691327117608
25.90846087840824
-0.1028014564402285
-0.0156748267654883
0.1389539645888799
-0.02047768137805388
-14.17747716843102
14.18272100205932
0.1243715101840316
0.0202062551532017
0.02714305801164558
-0.1717208233427154
-0.0451939904836459
0.0186846088442685
0.02650938164287963
0.1666010566496433
-0.01821593577531541
-0.1769278391164471
0.02854271824528585
-4.701079976134809
4.723715623846134
4.756446100462634
-4.779081748185461
-0.0277674685589159
-0.07211586693690399
0.0276914405780826
0.07219189492213014
-0.0542643758530052
-0.05269626326614853
-0.0597621290611892
0.03199466050362397
0.03104004381247026
0.07017864303772689
0.001787688832140056
-0.1030063756787953
0.06939862064703807
0.115664240934147
-0.02595835986678243
-0.03380376919283066
0.07130949466225639
-0.1146826308087071
-0.1003030759555237
0.1436762121061984
0.07311364613898579
-0.03307967989101959
-0.04003396624526494
0.02313326712668851
-0.09494930461873366
-0.1092462033286165
0.1810622408270895
-0.3028868352947295
0.1254563380607942
0.3186100987746444
-0.141179601522922
-0.7406077736418993
0.09127220861926967
0.4854405478413391
0.1638950171871949
-0.1042517308830857
-0.2016857059554706
0.4218484680322032
-0.1159110311809707
0.3132038515717357
-0.03627933082827034
-0.5035272400680677
0.226602719325691
0.09496336761936713
0.0206025065486378
-0.01647828818150489
-0.1368823908791588
0.3259540777876019
0.09750847027064383
-0.2865801571657544
0.06909495645602808
0.06581613253972206
-0.1349110889930094
0.1062183661187706
-0.124428099097391
0.0844045719145495
-0.06619483893240263
0.7878830440530274
0.0126621682812088
-0.463149171526255
-1.266285048587543
-1.289354804635802
0.9253301436473962
1.630309709578586
-0.1110080356430203
0.03081345080762316
0.1112182848853483
0.07688908166555022
-0.03859444630148156
-0.1376493259134211
0.100906581891294
-0.01598958324472274
0.05273232727567316
-1.163716659987891
0.742328882877907
0.1933786511729697
0.2280091259521083
-0.3520612360244758
0.3614009517972142
0.06411923181203584
-0.3847742955981719