/*--------------------------------*- C++ -*----------------------------------*\
| =========                 |                                                 |
| \\      /  F ield         | OpenFOAM: The Open Source CFD Toolbox           |
|  \\    /   O peration     | Version:  v1906                                 |
|   \\  /    A nd           | Web:      www.OpenFOAM.com                      |
|    \\/     M anipulation  |                                                 |
\*---------------------------------------------------------------------------*/
FoamFile
{
    version     2.0;
    format      ascii;
    class       volVectorField;
    location    "0.3";
    object      U;
}
// * * * * * * * * * * * * * * * * * * * * * * * * * * * * * * * * * * * * * //

dimensions      [0 1 -1 0 0 0 0];


internalField   nonuniform List<vector> 
19631
(
(5.001818573649037 0.0001900600937031916 -0.001013934689564145)
(5.002351928935949 -0.002104931797608139 -0.00073819748524076)
(5.039603045721091 -0.001669094307929528 0.07853641414037113)
(4.815736433511868 0.06535132367152104 0.1354795132531934)
(5.002790901321816 -0.001117985820656585 0.001219077617313055)
(5.071332910898282 -0.06447220125196815 0.004062265303933421)
(5.016149282344343 -0.007966806943644676 -0.009286580304516049)
(4.986990729836533 0.007899828554919119 3.140871310603767e-05)
(5.001353244264404 -0.0001449482051220489 0.00111072896133218)
(5.00868626124227 -0.009924683544278081 0.02139812123332607)
(4.98324065687671 -0.006334373434472282 -0.007622733373136873)
(5.012759884445806 -0.004381437434401328 -0.002006142705850643)
(3.680617526335724 -0.477742158098885 -0.07014466792810495)
(5.014565237331293 -0.005799408839296687 -0.007089507697160951)
(5.009474904605281 -0.006252264478242922 -0.006165254341540759)
(5.001674831558209 -0.001580012661297058 0.002730137656697393)
(5.094669179160785 -0.06896990396055058 -0.01762061201826161)
(5.009417677206614 -0.006902287325578415 -0.004306879510858533)
(5.00102905718844 -0.0004715924320615688 -0.0004792303510935579)
(5.001168907339628 -0.002512608393681801 0.003819322044383722)
(5.000765669219987 -0.0006671954190493351 0.001149888086970559)
(5.006646684701923 -0.004425502415407203 0.0009756265042709371)
(4.999179088193548 -0.002639372883845177 -0.0003347066867602834)
(5.105544975626684 -0.09989032461917637 -0.06269193375738971)
(5.013621253426831 -0.006378639927625115 -0.00531151534025271)
(5.012701346113563 -0.00275146347422374 -0.002060261075771614)
(5.019642499623668 -0.0004854100241806636 0.007252921098637942)
(4.888139363600267 -0.003306355888958356 0.0003656717134860665)
(4.660776158202287 0.11739204032727 -0.03377044671190682)
(5.015065053042231 -0.003769967801231604 -0.008728521739442538)
(5.000039039164373 -0.001413107224537253 0.001251969107144266)
(5.075601822223547 -0.06463374545724121 0.08698818184482227)
(5.00021139639579 -0.00327842936031723 -0.00134103221463546)
(5.015064097818354 -0.00760088054535748 -0.01002373470598771)
(5.092104151296667 -0.1229444740765153 0.04113104231219419)
(5.013071014676989 -0.004929733998623739 -0.00434754492679821)
(5.022273155164196 -0.009633751095145424 -0.01126891443502864)
(5.00151094138884 -0.002818096291627742 0.0005538032990024224)
(5.046503796002169 -0.0466152315517289 0.05822754853042295)
(5.020906052445051 -0.007912028995167001 -0.03784603147599899)
(5.166422089585669 -0.0842755988553503 -0.1419385948867307)
(4.965235294154517 -0.05126861424160051 -0.09769149880665305)
(5.044505402955944 -0.03352170828049555 0.01057553179217942)
(4.965946651752786 -0.005623575179996952 -0.04127178938518655)
(4.999629108457281 -0.008659719897273606 0.03718620766523887)
(4.928671551653705 0.1552937990516221 -0.006825733556780178)
(5.022469711015985 -0.04502956391536654 0.1009991372850698)
(5.041966939701397 0.2414844568556529 -0.6226372068567526)
(5.033442054991453 -0.03283357919029271 0.0250758364864781)
(5.014098975148145 -0.002341423056437855 0.06359593412024583)
(4.999011179155801 0.0009612332312859627 -0.001872077096912742)
(5.014926743060203 -0.007120291395139538 0.000633434229618809)
(4.976172416760523 0.03079812618081295 -0.05450194500703839)
(5.017838605556624 -0.007475842976730891 -0.008559130662031908)
(4.982022429202976 -0.009059978451222861 0.007141230357751127)
(5.023107258361668 0.04248396916498395 -0.1393514857599729)
(5.067763883169683 -0.1339287495077678 0.04029918205352739)
(5.015165082877936 -0.005251126138140781 0.005414720686921624)
(5.030025679654502 -0.0328889457708182 -0.06796938601408828)
(5.006303817071275 0.1324661365019474 0.235302258819728)
(5.211527874280037 -0.03207654468635958 0.09122219140196319)
(5.175192933053092 -0.2597832068309505 0.2551768836732534)
(5.073321980682111 -0.1015878877144567 0.1514314691343955)
(5.069364204535097 -0.06206911074619655 0.08863449505908189)
(4.690970261366835 -0.3722155665957625 -0.3958656058016837)
(5.037986119768773 -0.04532980954595265 -0.4670104099139161)
(5.020230489891146 -0.00982125176720262 -0.01472019395542893)
(4.99256544688133 0.0070571969071701 0.001767410582825575)
(4.606378429376741 -0.1683489361359909 -0.1002572712867002)
(4.995259316539451 -0.004540661306953978 0.01283220255934423)
(4.980272582033676 0.0367379834080578 0.0478603036093487)
(5.057878104279116 -0.06551309851998571 0.03023075589682248)
(5.043817598602801 -0.05193282160207104 0.01690454518062503)
(5.028267966297972 -0.04404933901289838 -0.4167140287161077)
(5.032020182593649 -0.06522771612474039 -0.09871343909576108)
(4.881711910310008 0.06098405439934358 0.3853663797506165)
(4.990603061841708 -0.009977742236850152 -0.01688100534896623)
(5.093536609950115 -0.05391053707990891 0.1639244937039983)
(3.937318480875249 -0.2092798580984467 -0.3263091595171032)
(5.016222376688144 -0.005905235042125322 -0.004477268078274506)
(3.661641701356865 0.2777226467760422 -0.3763247725233868)
(5.008351481303548 -0.01616731393315442 0.04622163818847196)
(4.804369974857085 -0.1001887649055862 -0.1995465228658641)
(4.651785156218853 0.3050863215287502 -0.3020301532424882)
(5.034673301352725 -0.01837691077516323 -0.05777651838635727)
(5.052728390763993 -0.06702592327439927 -0.0123423633174069)
(5.102408110911461 -0.08553031729958886 0.07638443052165964)
(4.983902174640026 0.1402227503674602 0.08471429183010247)
(4.796941102023844 0.124328719789353 0.4333197936802927)
(5.071455318006237 -0.07992141558391838 0.02791322617930822)
(5.069954458536617 -0.03241650117815546 -0.1326330780794968)
(4.917184715604185 -0.004772259881897116 -0.01537093713114889)
(5.074445813997285 -0.06619293725649271 -0.1028225838622334)
(5.061940770421605 -0.05767353599457337 0.07160341163712391)
(5.029971618782569 -0.05394293996154598 -0.08148900604624323)
(5.067909766647004 -0.06611140075840462 -0.08112893863181166)
(4.439406104927367 -0.180140942210671 0.03022844886943009)
(4.99913369449065 0.01622457613831013 -0.1055996352373819)
(5.07043192670344 -0.06120182669399888 0.09363037972992605)
(5.053962612819816 -0.05868118621803824 0.01128970217369884)
(5.010381482269331 -0.006523872900971161 -0.006317745174089646)
(4.10175677899105 0.04266205543847161 0.1923752241400707)
(5.012616790863543 -0.003844864675789035 -0.001507010988535088)
(3.184604894250997 -0.2621036166352129 0.06234381114316333)
(5.083349928266521 -0.07154675246227843 0.2122460652345341)
(5.082425920454617 -0.08723181784638015 -0.07224682228738734)
(5.019994531497546 -0.01107711163745038 -0.00690024333259938)
(4.273176865154709 -0.09596080718149666 -0.2606302114012051)
(5.013011166772571 -0.01433984269945343 0.007096707754453545)
(4.979819199049804 -0.005263380801051348 0.002029122010781112)
(5.028660345314519 -0.01033463904441255 -0.0152417665039887)
(4.852907443507367 -0.08696415848579481 -0.09111747891370743)
(5.00882747247228 -0.005795168955932549 0.006761114043566533)
(4.017795983076019 -0.04654429682203635 0.05105684685702467)
(4.711227807311455 0.01574757495270697 -0.01877993939715445)
(5.228881582264886 -0.1819797685915359 -0.1878010578773624)
(5.035437577891348 -0.0378394840236433 -0.06933547165477003)
(5.038203810061939 -0.04996563419124712 -0.0429127723260495)
(4.449096006167401 0.09552020856771698 -0.2499670145055451)
(5.000738055709736 -0.0004221930819158651 0.0005109400857184348)
(5.00264062454217 -0.007222269741758824 0.00852600937247066)
(5.010576682387841 -0.006290422746428862 -0.007724421500463698)
(5.014377054122701 -0.007607262357654129 -0.008645615506756422)
(4.988455133203626 -0.006329808842921251 -0.01225240002869953)
(5.000743215369381 -0.006952858943168229 -0.02196915822543999)
(5.012457940067741 -0.002926316091946556 -0.01259332538597507)
(4.959847876215838 -0.009237198603202179 0.006031107250517117)
(5.015763247199811 -0.008122911724888677 -0.008536298801861969)
(5.009212774454887 -0.006133009682669487 -0.005674427273167611)
(5.016639565010385 -0.005618013923916976 -0.001156777917164463)
(5.001657124212262 -0.006846607609137853 0.006073680020347548)
(5.077925156834177 -0.02895677469417396 -0.0946930178088866)
(4.62291761062492 -0.1799304556692886 -0.6025524396962544)
(4.984481697570269 0.2406163671600936 0.1096349472865614)
(5.015185202332002 -0.01268533892712338 -0.01464198384488447)
(5.020205718949391 -0.008820688610474576 -0.00483753817534299)
(5.018588159314298 -0.006179528960198879 -0.01219547989051506)
(4.967408046733818 -0.004317828872417786 0.002270472499000995)
(5.014171587653877 -0.009725400750872939 -0.01589612212355264)
(5.021440343406432 -0.01091401423650209 -0.008594835941674064)
(4.985498922837055 -0.009109473620518192 0.003930486704436892)
(4.904312860480141 -0.004612510727122344 -0.005207622251571315)
(5.022931108415443 -0.05283988090263028 -0.2193086443114709)
(5.056435985496778 -0.03892375557789239 -0.05351136004410905)
(5.035247649707305 -0.05574711428514936 0.06627362416617068)
(5.04346761816247 -0.02531243193180547 -0.03536666943555698)
(5.028780496365899 -0.0003904352655280876 -0.03843547486372207)
(5.011742398055901 -0.005869517304315219 -0.009104882217257925)
(5.384358365261019 -0.07849585962500451 -0.1280178505303222)
(5.038720339084963 -0.0136933339229302 0.06750011370539272)
(5.004706943591268 -0.0009081373620134566 -0.003069587870265114)
(5.016301444219954 -0.007065340395289418 0.0006307476833311139)
(5.013800332156257 -0.006969758110173177 -0.003028713799249244)
(5.018471935329019 -0.01002868727764621 -0.002174462444731531)
(5.009027939197784 -0.004132849931543156 -0.004210413398980632)
(5.014108009966449 -0.009122342674447838 -0.01392537932076695)
(4.441444564835422 0.0799842356663221 0.004339515725530322)
(5.042077774136247 -0.06340517180185765 -0.03739610547031965)
(5.061561469117124 -0.08142288172488804 -0.02183558746275227)
(5.016707259131733 -0.01126120202800022 -0.007607950815157257)
(5.001330777910834 -0.0002962340244810211 -0.0001460927806493003)
(5.01408630312444 0.000629885769513852 -0.006283352543766016)
(5.049901559216183 -0.05400748638218915 -0.03710104601634079)
(5.001456911171587 -0.003865069051279908 -0.002937899883503614)
(5.015637946489592 -0.00310653755024195 -0.0002228492484592025)
(5.014116874316765 -0.007551189030047119 -0.00688006097579863)
(5.010277568400249 -0.006679251334320757 -0.007013128043706239)
(5.010185540270013 -0.003414929851442228 -0.003354210885067392)
(4.984773362834581 -0.003677278806134862 0.001261123295333864)
(5.037117535266647 -0.0880628010088963 0.01143380225254599)
(5.022555354717014 -0.0003091509317302055 -0.01037065087600751)
(5.014111646969546 0.005009886724105055 -0.001000942203090784)
(5.027009457682655 -0.00431717126212953 -0.0147186940240602)
(4.985392992793101 -0.006684766253495041 -0.006523172612364146)
(5.018391467634514 -0.002378314970776774 -0.01539218759209873)
(4.887934088845063 0.00655606604517352 -0.02739824487129926)
(5.00845385705655 -1.733112720670591e-05 0.007186466628617183)
(3.994405150551617 -0.03693699308947615 -0.08666153106137424)
(5.013491840733239 -0.01160046388258689 0.005313588720288087)
(4.865337622611312 0.07564303367728793 -0.3045687272364669)
(5.079767845166518 -0.1366806200440712 0.01141572767953262)
(4.997413082123731 -0.002152406855826899 -0.006399999169735653)
(4.985064524922793 -0.007400741750514499 0.002666714503014391)
(5.00769482452695 4.047221680282705e-05 0.006349108802883771)
(4.558722205797578 -0.1699594220619609 -0.07130725788502501)
(4.101773234019777 -0.01951503626075793 -0.0381522761809156)
(4.918084238127939 0.1708341954377082 -0.130053683281466)
(5.000187891238408 0.0005328742408024847 0.001281730590399236)
(4.990208943188304 0.04210088980652969 0.178807609087271)
(5.014422756292483 -0.01146225201972128 0.01526887118502458)
(4.370700132618065 -0.0657790694222341 0.0225932373007329)
(5.060587524249696 -0.05268027374788604 -0.01552829603786932)
(4.986422436116237 -0.01555891778655863 -0.01795856453702565)
(5.012821733606322 0.009359435703610015 -0.0403265352737367)
(3.80791493598725 0.1556751371804955 0.08898814054319619)
(5.136302347437404 -0.1286602351856686 0.02144968821258785)
(5.000339906889719 -0.006401005605066107 0.01632239815171226)
(5.070047074040385 -0.05034967204294 0.1734751919116765)
(3.925802322107539 -0.6493398085909663 -0.9072866032137819)
(5.129958180085938 -0.3892907522639145 0.2957454187478601)
(4.972959692344203 -0.005288399160075825 0.02891128358405829)
(4.98701065951644 0.1295907586547823 0.199593005189772)
(2.603471089498645 0.0334724684678535 0.1879105733742826)
(4.509488732286831 -0.06793850766769322 0.1330193381893508)
(5.010703866379651 -0.00587258685959578 0.005413938624714693)
(5.006026748111041 -0.00474147328391451 -0.005325423095236707)
(4.996379732318217 0.003349584309446795 0.002967644311170774)
(4.138328743093862 -0.08695119938798285 0.1110422115740047)
(5.001489731529543 -0.002927174863044826 -0.0004476898462450381)
(4.996357184967375 -0.01012935860287113 0.084274442948302)
(5.042378264336428 -0.04049741844595442 0.02308829754305682)
(5.02040710099505 -0.008787816250408776 0.01087840307109299)
(5.062902786736932 -0.05707877676505724 -0.01673203633343349)
(4.999802809364703 0.003204734866411197 0.001680055005383746)
(5.035503151683498 -0.06958433923230271 -0.01985019915564003)
(4.450190934206706 -0.1104352522315048 -0.2363169095385154)
(5.051129537774973 0.0003591814550093567 -0.3135324852362009)
(5.014119758782491 -0.1583038123651664 -0.09198332107839485)
(5.000996155168895 -0.002300579604137874 0.0002295440138608262)
(4.970987679436118 0.003353368112507608 0.1348503453483037)
(5.000148868418683 -0.001102926789392865 -0.001929433357145783)
(5.123378093508236 -0.04613038950605805 -0.000286919979081905)
(5.00182010027763 -0.001436034358221352 -0.0004972399061592077)
(4.947599363197061 0.1461298069976609 0.1727475808792281)
(4.962912615997459 -0.007181887806520103 -0.02314095587026597)
(4.121782062183716 0.00749762584841359 -0.2542168257672223)
(5.039563509354085 -0.03763831816173655 0.03971770566541922)
(5.029403788623974 -0.02310489486378283 0.003264738675413918)
(4.989351178574321 -0.09925745947046817 -0.08252122643643894)
(5.081525791491202 -0.04293751476398618 -0.00826721689322147)
(5.068494445330439 0.01424783310281608 0.157559238921576)
(5.068452148743337 -0.07184229206858458 0.04830526284565138)
(4.014926705570169 -0.2862662416271366 -0.5782185395846143)
(3.004833795099405 -0.1935800079098875 0.2149501310767475)
(4.976283536518455 0.002968720673012978 -0.003169463945411836)
(5.03269021541738 -0.07303148443105323 0.072290178680009)
(5.050479330466626 -0.08001398670762475 0.1428168435435569)
(5.069886093545891 -0.05010161846922101 0.004034620392674585)
(5.162953767026166 0.2528417368088618 -0.3039365611796103)
(5.054465042257558 -0.04269932437954553 0.04374179877607384)
(5.002699091933006 -0.001726772838235906 0.0003782554123513916)
(5.008435544153268 -0.006370387729277093 0.0151528029665956)
(5.005215396768636 -0.0006875549891086094 0.003845879995379663)
(5.002924808499937 -0.0006367845094321851 -0.001639603127190629)
(4.389870680420446 -0.1074166179678173 0.2934046905454347)
(4.324396519838479 -0.045730790669917 0.03181773467396304)
(4.990789650482875 -0.003517883176283433 -0.009784842620999691)
(5.068883428198076 -0.07531007601927411 0.006082595853989433)
(4.583510292222564 -0.119823124132232 0.05810901686540902)
(4.615597946794173 0.3397869440369299 1.005445896898136)
(4.110713891659672 0.01739617114125546 0.1373466115810111)
(3.504145916677297 -0.1028542894611579 -0.1316724699313121)
(5.159379164247147 -0.1681003503561723 0.1106360118138804)
(5.077156427535934 -0.1098085628722157 0.04177655107851515)
(3.013347942962106 -0.1114738319290013 -0.1344113606850121)
(5.080302690670632 -0.003100304819302297 0.04094448981567059)
(5.038843189547134 -0.04212567759536706 0.06946670253746574)
(4.65394440553609 -0.06479737094467861 0.09776156318532607)
(5.000864775908196 -0.0003283330514200857 -0.0004858031632674782)
(4.898544728365725 -0.114305849529762 -0.23742095823034)
(4.930324997420238 0.0491990422067119 -0.01363952736491886)
(5.108671223071799 -0.03960643882367412 -0.1747196646200433)
(5.092439354628956 -0.1093450452104922 0.07641876866119381)
(5.080625828228977 -0.04449222511098518 -0.1701696111022686)
(5.002556604485456 -0.002610090162707451 0.000995626826682615)
(4.625856684543818 -0.2957403286606541 0.109923120752542)
(4.916139219340361 -0.08695676052391239 0.2027670559115619)
(4.280462499876712 -0.1134731884520954 -0.3123459716009878)
(3.907833365334173 0.2294038195496467 -0.02542966721148024)
(5.068547227579027 -0.06139793822287327 0.08625912916444634)
(4.728885325696722 -0.2720910791581195 0.3166125410318512)
(4.960368116938678 -0.0007756967986221157 -0.01630123469532465)
(4.336450983739484 -0.1990163373157689 -0.09744571666782269)
(4.973427282811724 -0.01074079956987066 -0.02080807399714397)
(5.000466154726427 0.0009125496972612686 -0.001061963717220778)
(5.05912885879481 -0.02347196594356653 -0.0002381372288647586)
(4.930751924626869 -0.194748042253933 0.07530774596951685)
(4.718302365701728 -0.3181456079913384 0.6549730412613035)
(5.027022649237761 -0.01971057850412357 0.09868082001886061)
(4.976122694276486 0.1048563394152422 -0.04901358428858495)
(5.145420650823092 -0.139375267240337 0.01626295233149739)
(4.403971753752686 -0.1136627122783119 0.1970575468784015)
(5.036302513370882 -0.07118159356566481 0.002916633407418685)
(5.042819212707377 -0.0332137797002638 -0.01998127188103917)
(5.108695998259232 -0.192301749999874 0.1221171964972438)
(5.043049733751503 -0.01310161290605858 -0.08195662833188086)
(5.002023696845526 -0.001519260591420416 -0.003881090555793472)
(5.048471498803537 -0.04323970890959136 0.04137463317969807)
(5.077019069766354 -0.09093075486319514 -0.07035923924620482)
(5.01472873549467 -0.01177997860328114 -0.06125750104455066)
(5.001789518497768 0.04741023539837393 -0.2415312291959895)
(4.946639621487232 0.09641083815513199 -0.1156727199141808)
(4.989682852867556 0.05112051916731831 0.09606182867201599)
(5.017554120290437 -0.009903134236666432 9.390964052816576e-05)
(5.001976076672226 -0.0007750874226419373 -0.0004702919700347512)
(5.226510401796141 -0.09320080713555395 0.2884076272782273)
(5.100287200204413 -0.0637703344434179 0.1271058804177362)
(5.011379585898283 -0.08991703418635343 -0.0309148158753353)
(5.047593311967775 -0.129686945946714 0.03678665760035012)
(4.601781918815204 -0.2063024084512349 -0.2161598236056548)
(5.057797776074736 -0.1302822705857355 0.03920484119202849)
(4.881726757830577 0.3885365730434162 0.234041363688004)
(4.998930964784187 0.003145065559533762 0.000618956018375296)
(5.096620713490951 -0.0406390978549319 -0.20338199485381)
(5.09859994920507 -0.1083657171757905 -0.04741164941579952)
(5.035413824531619 -0.02716690781701349 0.04087571753265994)
(3.828163875308341 -0.09861574027009967 0.3953655531209618)
(5.001043953206901 0.0006416121975792957 0.0008902352601567375)
(4.995893056768692 0.0006693371240836981 -0.001859753559718014)
(5.006198071570643 -0.005005105197200161 -0.02676789971720108)
(4.99931509639722 0.0004748106789438814 -0.003775536706420635)
(3.735339166480438 0.1005837102483047 -0.07464430711967387)
(5.119655343898651 0.03784318990191324 0.02032039804773539)
(5.039713601535508 -0.04212423531600905 0.008811264958109051)
(5.021892696494638 -0.01290652905155531 0.007693940895574406)
(4.959915910774948 0.002135637704731227 0.05486067363292126)
(4.995695159069898 -0.002238328293949234 -0.001706144726241467)
(4.995717045748624 -0.000223415622036483 0.0002752953487529082)
(4.809119588520288 -0.1384094765310296 -0.3823263378802864)
(4.999927838266388 -0.001055519164020048 0.002761560652226795)
(5.083637417580834 -0.08052088704179458 -0.05455858773780527)
(2.627603963135121 -0.1301274440113815 0.07664043534357765)
(5.040521171197375 0.002268117171095489 -0.1480156098543584)
(4.998433499783675 0.000374044814385838 -0.001420549745671647)
(4.774523676376551 0.01072344972257571 -0.1770202843586214)
(4.794154593612429 -0.3174607267875281 -0.5048356506667006)
(4.935319292702856 -0.04072704198699152 -0.06498196689140914)
(4.963850860224285 -0.1912680915933455 -0.1582467154521411)
(5.065730455501376 -0.0624782884052827 -0.04705084743593624)
(5.022877613842292 -0.0223898740591838 -0.2289512708197667)
(4.987814195947859 0.03046896650934586 0.1159857466656275)
(5.027745626845412 -0.0122612715586577 -0.02353319772430496)
(5.005160281015918 0.02171947465652556 0.09350375507863751)
(4.992941087457933 0.03632215697086703 0.08034028960051876)
(4.261187791161665 -0.05142491602040586 -0.1731176152880554)
(5.005796968019331 0.00114946807787499 -0.002277372337229786)
(3.556554561776055 0.00264348667397037 -0.2800088718638719)
(4.951025928778281 -0.04376029447650359 -0.1566898684684811)
(5.001073197873436 -0.002303937241768893 0.0008279592399282375)
(5.040930916569598 -0.04451949266887717 0.01330166292275731)
(5.023277050173507 -0.01170750542727277 0.01776705122044505)
(5.072240677573356 -0.04135960134834912 -0.0687094899449799)
(5.032766332518639 -0.03108521785545731 -0.01447337178642473)
(4.329980676063096 -0.02910679902503002 -0.2716918899711591)
(4.622110271195249 0.1748783105710379 -0.1343318444862454)
(4.058074639795447 -0.3042294289446416 -0.04324103410772832)
(5.002766923088957 0.000903892985228317 0.001120316852802567)
(4.975110560942132 0.1037563741451329 0.337299722596234)
(5.046126694119748 -0.05269789472722779 0.01545352181794311)
(5.017937667268058 0.04754403662539463 -0.02750552158464935)
(5.037342490254654 -0.04082389533223182 -0.02863388056346612)
(5.083502528327115 0.03666674330486568 0.07435230747071664)
(4.745129504167189 -0.02072763647765698 -0.06308880306809499)
(5.061297608803929 -0.02786131725305953 -0.0274882514044998)
(5.036124894479153 -0.01037927481905251 0.03942427352524455)
(5.061096942112914 -0.2962036592182004 -0.02896237876588591)
(5.03685693067363 -0.0558212454967975 0.07260932407935458)
(4.660630183945299 -0.09536346775233992 0.02458732951873552)
(5.141559316850682 -0.1739892907053082 0.08405751636791052)
(5.055721274139393 -0.01291862509643089 -0.04191058584493285)
(5.050247031871759 -0.04503606538628613 -0.009681408181806191)
(4.255776304398521 0.03106749798292826 0.06930791555419817)
(4.971955487363613 0.1152842381018619 -0.2316549657589657)
(4.997713582553941 0.02652739369053244 -0.01482241224384652)
(4.957540758415671 0.1655343130658135 0.1396600208551697)
(5.039066772481127 -0.04048485736093592 0.01296685149774212)
(4.603167586400009 -0.2840638209435151 -0.2112089924741933)
(4.997388716681129 -0.002590118836533458 -0.001438124671996583)
(5.023325184725872 -0.02971779555080066 0.03887478271852394)
(5.033454243377165 -0.0842525197676508 0.1066086533262973)
(5.00062587934266 -0.0001756386664869364 0.0007986535486081781)
(5.000415376204597 -1.171866130636003e-05 0.001039505393980117)
(5.066198543904751 -0.04567786294312131 0.003307055384278034)
(5.006747806145801 0.03112722230572396 0.107886960711956)
(5.021628083006312 -0.008109143575119488 -0.0100693512104756)
(5.001446929097704 0.0009305580643182965 -0.002927861841382909)
(5.002163248095625 -0.006049390779956827 -0.006913240460384534)
(5.015324409115188 -0.003094381326956412 0.004591000386891208)
(5.046758188289346 -0.04149818366112522 -0.0005884864281277835)
(5.006850756601346 -0.004244644052174023 0.002696478567504688)
(4.342127064527452 0.005715245625910313 0.03596743723872882)
(5.012266171315795 -0.004563122436703628 -0.002242948696999924)
(4.999499517814054 -7.644965623084005e-07 0.007024375046925845)
(5.004354545496301 -0.001690215658308344 0.0007013351322863217)
(5.056076037563412 -0.06537451652036616 0.03077941244804531)
(5.121133082468212 -0.06588583827032361 -0.0485705647802464)
(5.001563216747251 0.0007044967627758384 -0.0004632510208392994)
(4.981787425674295 0.007938707685450708 -0.002105411183220622)
(4.999769256252928 -0.001331234972230105 -0.002270815673497724)
(5.01388548882289 0.01209965893739642 0.03970597052856972)
(5.080625239903134 -0.01036421865914885 -0.04005257662514794)
(5.000758932563993 0.000106464567248788 -0.0002501267157103359)
(3.800625240033674 0.006023857207375599 -0.3063283359741888)
(4.231643115481313 -0.1800782055053638 0.1159265448463979)
(5.055270792873553 -0.09552566320855738 0.06154999112138786)
(5.00084794466632 2.120314729790231e-05 -0.0002349074141987161)
(5.002165992011414 -0.0004219977744807401 -0.000589540649801115)
(5.082537088802646 -0.09228719959433911 0.1211715104102472)
(4.966403980398417 -0.006776154208123364 -0.02293377705854968)
(5.076020168607705 -0.1275598930971688 0.09191370847787637)
(3.155930373998626 -0.1804988472661942 -0.2255325154811926)
(5.055645996395294 0.01961897862053952 -0.1511670742705159)
(5.004542723993407 0.001812973141159971 0.001664986015297763)
(3.95741995534773 -0.1203874419875577 -0.1117400575598763)
(4.065834011949218 -0.2690002356119557 -0.3639663760050136)
(3.174659677360638 -0.1603658231220327 -0.19497185608332)
(5.082217603296317 -0.1355604927821394 0.1722282588507901)
(5.122008823442064 -0.2365264356180518 0.1763244883625206)
(3.873052396560861 0.04328015633686454 -0.06941052023683522)
(5.048800013066956 -0.1605412125874476 -0.1407579520722308)
(3.057388733237307 0.4531683703193986 0.07318122291859475)
(5.061300186757681 -0.05144939388290619 0.08803402847542852)
(4.978598564952784 0.07942871769625341 0.01103541197588805)
(5.096762686929913 -0.07581409590192249 0.08165021568533407)
(5.055668711609068 -0.03818446392054136 -0.03378772601279269)
(5.100347896778009 -0.1061096187744857 -0.01494221018650914)
(5.063080269029578 0.02385526153761055 -0.1567249309846016)
(5.065108511736597 -0.005519296165940549 0.05809784610181905)
(3.686848003060793 0.812118721305251 0.6589819075649685)
(5.057244279960814 0.05320710092979411 -0.1064617677881584)
(5.001937064482097 0.04458919481932809 -0.03734699765815231)
(5.005838100857753 -0.008091252001635961 0.01305089079324318)
(4.929150754561852 0.2306385915034701 0.09870133899413247)
(4.779597407861115 -0.2735844787497603 0.4725062382609866)
(4.9676428485373 0.05161480987724734 0.1101238466045977)
(5.030279765906774 -0.01638011878257549 -0.009340415406599687)
(5.095993364143403 -0.0786538980584558 -0.005377236922491145)
(5.111569617685155 -0.1035278141452568 0.005591999633614876)
(5.019355472072853 -0.005662642290025654 -0.02458964935180475)
(5.027333670849083 -0.01982411793205073 -0.003301312309520534)
(4.96888860551606 -0.007610854807384212 0.01958599165872678)
(3.75295288863963 -0.3818074896718935 -0.2100962007243709)
(5.022920190162836 -0.03849769140347235 -0.05494342814979872)
(5.010433412296092 0.0005265871629874919 -0.01493268412217812)
(5.064778379278919 -0.2672630594933044 -0.2958257342838878)
(3.158390806749562 0.1316011030707639 -0.5694463436207514)
(5.000541923872288 -0.0009164114299858415 0.002281121440334967)
(4.075512844030355 0.9521811564604303 0.4482630878662197)
(4.907769450304455 0.2267849738074129 0.1432768972814836)
(4.722519862464932 -0.0152243996828063 0.02931104163445488)
(4.999564918562918 -0.001282575830179767 0.00208040194164748)
(5.078954621662409 -0.08735553722851373 -0.09780967163564901)
(4.969517379320227 -0.2748908391109298 0.3549132396319729)
(5.154493632674988 -0.143523234484427 0.06010109110182018)
(5.001594791016706 -0.0001082276786395866 0.00027436990345888)
(4.840005430364063 0.0702894288207547 0.0456278660095214)
(5.000869231907284 -0.001006093740797526 0.0003183238146882577)
(4.462340285992934 -0.02774852307745378 -0.6423656985424628)
(3.754983399720232 -0.2074418358845681 -0.2745971800224792)
(5.021923360049745 -0.01648546892344404 0.01229124017837348)
(5.041569087050329 -0.1399924205539469 0.1186443672836644)
(5.077645148492585 -0.07360589389456537 -0.03907103073029788)
(3.777111857495847 -0.03505020604266412 0.1145041130266417)
(4.370530841962244 -0.002436989444880718 -0.05351332935080053)
(5.00120945263939 -0.0001227177766092573 0.0004154432843302356)
(5.000845864539995 -0.0003616180055976605 0.0005628357257546667)
(4.989820860726012 -0.007975870510909661 0.02159800537252888)
(5.071814779962611 -0.06514660726739509 -0.02043535869129979)
(5.064715059714744 -0.08541425645893803 0.0192788424420845)
(5.003380865521332 -0.00415999994754932 0.005988324667506982)
(4.971384826663877 -0.007389989526376638 0.01011922331154058)
(5.004460208129105 -0.002533962039220452 0.003991091287894128)
(4.996417321833337 -0.006561510463692454 -0.04673816261999765)
(4.990886141891306 -0.003339994282145715 -0.01642161783121133)
(4.91634881394046 0.01189664018569307 -0.05110311114324995)
(5.032675558224788 -0.03066663908012516 -0.01977209955550219)
(5.052044316129261 -0.06315325786473142 -0.1483495611538141)
(5.152436807912416 -0.08386312211054371 0.168192447290705)
(4.987448159650793 0.007110883365154297 -0.002054052335415868)
(4.890759997571362 0.07161626769483047 0.03310526053311258)
(4.211129615810147 0.1102261750744629 0.1037681964212902)
(5.088523662383913 -0.07353954490012289 -0.0211488095373773)
(4.992810481690076 -0.006067968586524525 0.005136633711618597)
(5.005022521998773 0.0002273828726188184 -0.0009218636865632589)