/*--------------------------------*- C++ -*----------------------------------*\
| =========                 |                                                 |
| \\      /  F ield         | OpenFOAM: The Open Source CFD Toolbox           |
|  \\    /   O peration     | Version:  v1906                                 |
|   \\  /    A nd           | Web:      www.OpenFOAM.com                      |
|    \\/     M anipulation  |                                                 |
\*---------------------------------------------------------------------------*/
FoamFile
{
    version     2.0;
    format      ascii;
    class       volVectorField;
    location    "0.3";
    object      vorticity;
}
// * * * * * * * * * * * * * * * * * * * * * * * * * * * * * * * * * * * * * //

dimensions      [0 0 -1 0 0 0 0];


internalField   nonuniform List<vector> 
19631
(
(4.106176123000319e-05 -0.0003913115895965155 0.0004123090556745648)
(-0.0002072302366173635 0.005426724048518927 0.001356457810284848)
(-0.04191220586564356 -0.01495445343862372 -0.02617102474310749)
(-0.5633393310411295 -3.851327904888109 0.3628009485079889)
(-0.002568742355706353 0.002707468280574158 -1.689843418677757e-05)
(-0.0992605990868658 -0.1226326767141114 0.01712506275191937)
(-0.01501681317139371 -0.003803298497801517 0.008147794545169583)
(0.0007772314010770665 -0.02685949828695605 -5.715325171374609)
(-0.001098769141487063 0.0005794167404495252 -0.0005131484286135644)
(0.0009972663032079736 -0.002259558760697646 0.0014332946727657)
(0.001211546279698835 0.001197567785710754 0.001663298432270343)
(0.003182420466444884 0.005701329320007626 0.002635503257060083)
(8.504914707454645 21.87038666495477 6.482616867086878)
(0.009088159937277107 0.01326344554085543 0.003527315442181921)
(0.001790938406312772 -0.001403067657215592 -1.180275254858681e-05)
(-0.004414995911261623 -0.0004937966758397444 0.0005741236455122885)
(-0.04320245974019676 0.002154112296843296 -0.02865792287143051)
(0.00172915616081347 -0.001056585871646246 -0.0006771829459032246)
(0.001125912062692829 -0.0003781964630205399 -0.0004375085680640967)
(0.00133232406655213 -0.01566193676286688 -0.005740320434180416)
(0.0002277787308200243 6.677308981467537e-05 0.0001355143303296879)
(-0.001309563674332693 0.01952130178794998 -0.01482261111069679)
(-0.001000222645989977 -0.0007741122094611704 0.0002291478329720051)
(-0.6144498622616015 -0.590864070833543 0.1392276668279715)
(-0.004638652370746828 0.007085228931144766 0.003998706309025549)
(-0.007246837733744254 -0.002930719485230414 -0.002555539172250443)
(-0.005630670857901507 0.004912228461967521 -0.003815871647138011)
(-0.000193067196606479 0.02546894114803659 -5.888298795383973)
(-3.641972849742321 2.512429696498025 -2.423702221484698)
(0.01027294347822463 -0.001121152097459869 0.008083843299129322)
(5.438835589739786e-05 0.0002135541279404289 -0.0007604480127257382)
(-0.134116933108952 -0.06600698120428232 0.009725311882835614)
(-0.0009559307051139672 0.0002197454893449457 -0.001333244346644269)
(-0.01105058987085687 -0.001084760296771049 0.001611124166938301)
(0.2673328348282594 -0.4344956942733555 -0.007488697129463082)
(0.0009060763071525116 0.001666333042349834 -0.002467487758571216)
(0.001436320541223414 0.001274351105956609 0.01341650307820874)
(0.0009220527090612028 0.0003846293493525182 -0.0008645940298126634)
(0.08227238391603019 0.1838039908830848 -0.2431228575476577)
(0.07666066022140397 -0.003121696450013121 0.02592542061029458)
(-0.3361011797657683 0.05230999427107619 -0.04434899245853764)
(0.1276835020428241 1.21122622863258 0.8434005188099598)
(0.03631260183081071 0.01519215084431413 -0.04518884465092354)
(-0.2871071882908142 0.916551729845074 -1.046946681251627)
(0.006452325493990566 0.03600752450553639 -0.1956692646484274)
(-0.726949389359036 -0.9844085065556407 0.7586086248512898)
(1.12412400470195 -0.8086755449836476 -0.3524834287155483)
(-7.624327062980558 0.8266658414588648 -1.09894341105926)
(-0.0121861495487938 -0.002117975190596873 -0.004807628452230337)
(0.0146126496480762 0.02550499981320116 0.03573715619245863)
(-0.001115874274450563 0.0002427212735828926 -0.004800872676929737)
(-0.005321828332924611 0.001172872747392663 0.004738689740309655)
(0.4320421952501404 -0.0003854651273361293 0.05113817702010405)
(0.005599473570528713 0.003638420912755847 0.006925657095451647)
(-0.002590773551197779 0.004012639723017797 -0.004189891641193062)
(0.09330321066703126 0.03783886719805678 0.005849655955265969)
(0.2611646145948726 0.01766986537507358 0.1256937807027178)
(-0.002395916143819433 0.002874274534424603 -0.001616671951401401)
(0.1961902714832168 0.01635783348345528 0.008638476890460716)
(-0.4161209006838934 -0.06952881614471657 0.0717972387080799)
(-1.494275489467899 -0.1486201459236325 -0.1763581191656585)
(0.3855665905145914 -0.4219931973908334 -0.391285495635281)
(0.6794662762563655 -0.4768189290991088 0.04126512289256377)
(-0.1484763104776494 -0.02619363030740208 -0.03951492123264467)
(2.078954715889838 2.450621044292414 -2.297102479012621)
(-0.4682946588720682 0.9837349479486868 0.4455416557924481)
(0.01907696098832423 0.00396742690101173 -0.01492209972921878)
(0.001865657206412988 0.001817381362534422 -4.744363643943177)
(-2.453869669783878 -3.048310622458779 -0.06529235596621152)
(0.02061882695437034 0.02049235577662929 0.02629642260196656)
(-1.304067853778076 1.965120279186579 -1.722682309507625)
(-0.06397884350422253 0.4847956648840114 0.06140554726009517)
(-0.06819233285381718 0.02017773314468658 0.007782909673088836)
(-0.3601093754283162 0.4393346028910154 0.2111386906423342)
(-0.07560019913345754 0.08971464676618535 -0.0214351663894311)
(2.350365221688394 -0.9012286216900101 0.1581080927665083)
(-0.0009551590873605447 0.003677337762680813 -0.004340837388861673)
(-0.3522535748191917 -0.3611284745762542 0.7604987803876927)
(3.156333053823885 -16.54157664459644 -2.681041321836523)
(0.009360592085999623 -0.007990749410432058 0.00230514822569853)
(-4.615129632154185 -49.07491654539109 -1.630821872317137)
(-0.07365392020412853 -0.01659726364111734 -0.2232143027125237)
(0.7010384838558974 3.706748868595167 -1.024956233966739)
(3.389099285853567 3.156876245622246 0.9205482817670245)
(0.1137269708003304 -0.01120417972021213 0.005743943376874609)
(0.04952175223814955 -0.01002544956788838 0.01584058832822412)
(0.06257145684646705 -0.05964182888059355 -0.1476459748819314)
(0.02937167281036602 -0.9287595295506355 0.06964904255621285)
(1.92989638431944 -0.1875637938328001 -0.8090087062005742)
(0.4893293990920421 -0.4213709510684894 -0.2156802165812768)
(0.1510097639037085 -0.08458222259807624 -0.008981224755061315)
(-0.03000179001984399 0.02802273912118322 -0.000198606043649692)
(-0.2738076568316099 -0.225523397172097 0.02823760320519041)
(0.03037223907376592 -0.07725896400045101 0.02741358309714647)
(0.0620214848077499 0.03800131570069634 0.1022192044476524)
(-0.07208941125846952 0.02573548352043266 -0.02148351169937716)
(-0.6773145391405972 -4.111252830545419 -1.754216321415241)
(0.1752637353874055 -0.1025181415945523 0.007402044361843857)
(-0.08693982763112795 0.02506171185725268 0.07369052629029071)
(-0.0522354521878941 0.02405359375768441 0.01012485123497946)
(0.0003292312862154262 0.0006896285407556133 0.001440211502473236)
(1.664939803531481 75.80102119213251 13.20652403011478)
(0.004075132651183768 -0.006871492636004621 0.004743274321945904)
(3.26175412288665 70.25308788703006 -9.860967455833455)
(-0.4158960951437977 -0.2722586424230156 0.4506700559326277)
(0.09430219431334082 0.1222238606478151 0.0072626102872555)
(0.006946743712309075 -0.001187676736425216 -0.001563297759651263)
(-0.8595124922192827 -4.529948782354552 2.620144384660728)
(0.007143916732024479 -0.002079729081862847 -0.00400954572869714)
(0.003992631597160792 -0.006640116965752283 -4.586741175397611)
(-0.003719032564828122 -0.01071103008854354 -0.01020353437543882)
(0.9820318104611713 7.979926457984474 3.150502754810125)
(-0.001572981714670321 -0.002063629269989743 0.000122884348434053)
(0.3196218302684763 46.19585766726932 2.784461749155764)
(-0.2458571495269199 0.1612150518941631 -0.1626159573979159)
(-0.034165285890793 -1.073626933839789 -0.4288034203875458)
(0.125232324717751 0.08206992244656108 -0.4315385317738287)
(0.3205346764575353 0.05603592853528978 -0.07824929002305703)
(4.963849562113564 9.061537941119692 -6.440414722195653)
(0.0001079180639305127 -0.0002102063368327075 0.0003219803428096285)
(-0.001620485156453048 0.01788338713424432 -0.01257940289261542)
(0.006554664706246597 0.001049220572520871 0.004634858559436639)
(0.01996982940403404 -0.01476249415767713 0.003865943768374187)
(-0.01390107569202048 0.03104695443857734 -0.03420095840137401)
(0.001979785160123653 -0.008182341900598232 -0.01859509890748698)
(0.005221394377200698 -0.005616341086980374 -0.00598730303423845)
(0.01023377619208837 0.004558142245643173 -5.654242232000034)
(-0.008040338985031455 0.004301539460682093 0.002897391015064325)
(0.002400600687997557 0.001709438823189539 0.0004028555885586991)
(0.00890792188501079 -0.002787145996456371 0.0003347498375121799)
(-0.002427964322094729 0.0104064823323415 -0.006899829053114812)
(-0.1052943860408334 0.1078095350369105 -0.4945916362850118)
(-0.4303475722350066 -45.19299585442716 8.084533716413302)
(-1.27232196060859 0.5602627942043928 -0.1053251615930235)
(0.000422115836075496 0.01226717155005411 -0.008693038769330471)
(-0.005596436227567974 0.01521216685235803 -0.01349999833432859)
(-0.002763690111089499 -0.003508192823606857 0.002264782316325836)
(-0.009535186621411881 -0.01768173094385843 -0.002204845050981286)
(0.001879840054922308 0.000554720416265665 0.01025381824167163)
(0.02285913475131289 0.02016556412734681 -0.01148285473029298)
(-0.002421002516841269 -0.003389200620808792 -0.006393329800218167)
(-0.003424356579601449 -0.004393243448372974 -6.044884449937776)
(-0.1205319866990344 -0.1455746611198047 0.3007910899067064)
(-0.0708136578042973 0.08491102620609123 -0.01750012987323394)
(-0.1517921813673558 0.03816049836768397 0.08766987631934661)
(-0.01262065720959779 0.00721471250329706 -0.05037128679403776)
(0.009089584529695743 -0.04247146020224524 -0.07985011827527592)
(0.007542408831815079 -0.001348079271280754 0.0008895292531341404)
(-0.002968246270656061 -5.490282910276233 -1.673572878979358)
(0.9566369086521604 -1.541418152956488 0.2969467581812168)
(0.002546720732103711 -0.0007182679724896089 -0.001363311077230845)
(0.002691296736771121 0.001670003886639744 0.0005520019178171028)
(-0.004231763890526616 -0.002869204194450723 0.002571823537431459)
(-0.007434752330828714 -0.02327997505124947 0.01981841923537173)
(-0.0001817588347652936 -0.001455228382396739 0.003546521713027041)
(0.005478075703452812 -0.002067181590059398 -0.005580758446281507)
(0.3116845130544488 -0.0394258061038746 -31.55632702803888)
(-0.111917941547641 0.1464386768407442 -0.04823632852582668)
(-0.02179607060532648 0.01278400469385733 0.06090309376799218)
(0.007480840922563898 -0.005866394670656826 0.002441611701789389)
(0.000437366400979598 -0.002684377212823142 -0.001606761653349921)
(0.007844131732905024 -0.008967765219745353 -0.01449253451713835)
(-0.969174743623767 3.929604537481296 1.063060945159198)
(-0.003496136016207782 -0.006008198857660151 -0.002606722863491064)
(-0.009770831814151473 -0.0019233559900529 -0.004245199865233975)
(0.002972338316292416 -0.004644427088792718 -0.0007914350248256915)
(0.0003702479141637946 -0.002947820809268264 0.0006159678828609785)
(0.00123961614053905 -0.0005235893040224622 -0.003321807331808394)
(0.001685889108453644 0.004061217412546527 -4.201373474385121)
(0.1945894337216681 -0.0270346686489048 0.5907442108812472)
(-0.00465177151047646 0.008680964641882526 0.001666366614024004)
(-0.08757272015943432 0.1389525113035719 -0.2298886297603675)
(-0.01248714458201332 0.03091805568630058 -0.1561196483191798)
(-0.007429311791384921 0.04557567987465475 -0.02857532295390199)
(0.02149637077333168 -0.02063884219916236 0.01506398318867236)
(-0.04033763858428191 0.02039947727021901 -13.1921755275732)
(-0.004506317747503636 0.005311956146049884 0.006451244527638625)
(-1.293115657944264 -2.960182181316042 -6.263510894787211)
(-0.00346646463050179 -0.009034133850844001 0.001388516186426215)
(0.0189678922816468 0.1116292662529783 -0.09047673595620143)
(-0.3084613697092419 0.4341270583266965 -0.483242699022825)
(7.583574383768032e-05 -0.001511685971697927 0.000193885347606733)
(0.002253794010509093 -0.001365425628040819 0.001979932186453433)
(0.006356487012487151 -0.00493591579843792 0.0057867792815354)
(-2.057040496808026 -42.39923771772924 1.583888542239293)
(-0.5320504106490507 -38.71878752386262 0.8782605708144763)
(0.1997208654531864 -0.1093344859499732 -0.3023486756941823)
(0.001526535423877119 0.003180977743947464 -0.0001582049275876536)
(0.251623938418017 -0.494364129097148 0.0680420329584413)
(-0.01751753507919473 0.001375607774534609 0.001472687563353859)
(-1.545841707047723 -35.59757821189774 -3.336719675808565)
(0.04497792525992692 -0.04372781581956729 -0.1337089239113624)
(-0.03890221294731171 -0.0372317980756777 0.0245151060849398)
(0.01614436137137776 -0.003210606191167086 0.02011411903781025)
(-1.411725473433114 -11.07886370753459 -4.703252817632741)
(0.03627130884312682 -0.01713679720688379 0.04028303245057181)
(0.003366959790762329 0.002130208229288259 -0.0008107670170834917)
(0.05451870223631464 0.09595579207359023 0.07999802933754976)
(9.18505000137946 46.60574104977222 -0.9174691935752483)
(1.75965978322994 3.255093150464459 -1.424658770314947)
(0.003474182740930774 0.002304518926417609 0.00631842202541833)
(0.2864922104242468 0.3063082655680995 -0.2169587299591327)
(1.249465373015415 51.04573099993973 2.584226116856503)
(-1.743393544688764 6.216342487298929 0.1108043620248478)
(0.004605673505846726 0.002256175787319499 0.00436806360128446)
(0.003737547739714662 2.361547256498115e-05 -0.004261728115820272)
(0.002909617928746216 -0.00503457235671702 -0.001486542939302326)
(1.621971776222696 6.21081553338841 -0.01304418210289249)
(0.001051466925429536 0.0008683889957802373 1.043362675979425e-05)
(-0.006951082234918471 0.05167164751529214 0.003929020057028849)
(-0.008949011186088946 0.01774773635677532 -0.0002587210098879394)
(-0.0003811439231166946 -0.0184220215306332 -0.0234583991839262)
(0.0611869471165642 -0.01624777054760894 -0.0951691951772132)
(0.000885480906359207 0.002296477077105753 -0.003213180783079316)
(-0.01203213893735762 -0.03490927606811174 0.02413273877923058)
(-0.09379800566408836 -67.43868800292812 -3.140751324385397)
(-0.1371127784252242 0.2562916216300662 -0.03413135102000264)
(-0.6525027702781284 -2.805811874779757 -0.04918109201285026)
(0.001083206006821385 0.001267564784775862 -0.001041963869174445)
(-0.03394081454275703 -0.1552421758836728 0.1447817551465477)
(-0.0005294448773793518 0.0008851490123304548 0.0008133540173266818)
(-0.1726173910343237 -0.02016709813530676 -0.1844095137260277)
(0.003258345910521496 -0.004197811622851966 0.004452248664989837)
(-1.189947444304674 -0.4973628895049554 -0.07863850870620329)
(-0.02589027327515468 0.05405875018370528 -5.691860014911407)
(1.170817337512642 6.905416795013709 -0.6117775555923517)
(0.0309348587931028 0.02752854073095411 0.02074477239701919)
(-0.005417751287348442 -0.002220561492447577 0.003638733385535675)
(0.1805834109364425 1.408291521605836 -0.0788833319801292)
(0.0381074205210086 0.4014136181474954 -0.02816389071860943)
(0.04217268597376375 -0.2277431297492239 -0.0560830079361114)
(0.1197375154761707 0.09290952626534969 -0.05917666537082157)
(-2.36675687983367 -41.46309968907271 -0.5868509852019836)
(3.336891954688641 74.18199027467732 0.9000615039683519)
(-0.007461527126646408 0.02189650594530229 -5.979283873413931)
(-0.2028752172086952 0.04975615904952601 0.03828255064529976)
(0.192288681864082 0.04359508120389904 -0.06529314899961665)
(-0.009177157559623561 -0.05013965531714408 -0.00504656740549499)
(0.5791247529731813 4.594565377652329 2.553651330436732)
(-0.10025223173274 0.02772930210240654 -0.0673068769991064)
(0.001352242614109335 -0.002458528478316073 -0.001854163566105578)
(-0.007366947495148303 -0.004658518908453578 0.000198308366828812)
(0.001360173935258066 -0.001229837820038018 -0.004731911119547519)
(0.0008573112216387875 -7.409866740276862e-05 0.000111186920472147)
(0.08623815823101211 50.88934539854845 0.5585016893759416)
(0.4415723150861105 6.074772026279277 0.4741736004429767)
(-0.00544623268986708 -8.939354700733906e-05 0.001568124924112894)
(0.02290915501334586 -0.002210371880636755 0.005628534305444985)
(-1.47396698905631 -6.64246742497293 0.6602856332544568)
(2.671708562412752 3.816568909097738 -11.10586154322241)
(2.914653020715027 15.36563781593146 -1.195765797266567)
(1.251291656447486 -43.78340611958252 -2.830952347812987)
(0.1952196173969369 0.1093246574005737 0.1247696870266185)
(-0.05858210709518835 0.08478721568622746 0.0965503663675457)
(2.161613061174119 40.31526351866808 3.391578089533679)
(-1.294582216820289 0.8472379234157629 -0.1843839397278308)
(-0.1021130362870667 -0.01749485332983403 -0.02398636176961262)
(-0.9504489019287288 -6.108194575479531 -0.6954742555543549)
(-0.001257239681235124 0.0002938379843178938 0.001348912789789291)
(0.3661988218259988 -0.8520541450896301 0.4768677091145898)
(0.08087553630388626 0.01886495000728804 -0.09831649742126489)
(0.2326795797992661 -0.1453436929245553 -0.06228020434636113)
(-0.08043123409529593 0.0732972703493507 -0.06291473448978124)
(-0.1300609088921308 0.1096904247900322 0.06974837363350903)
(0.003351066343134777 -0.004502125269421006 -0.007418878110261659)
(-1.530487818280639 -0.328267269808094 -1.311458798563763)
(0.8817863765096396 -0.5261998723209742 0.03669993760887674)
(-0.1978163161586931 -6.20072126877164 0.4576228240760207)
(-0.4749614583837271 11.53587672593906 -8.439131383669316)
(0.01284441836948431 -0.0445459073947078 0.0771618464246126)
(-8.000997777943315 8.175800162922018 5.787653308513347)
(-0.01721026249023613 0.008714985140588076 0.01652500588460088)
(5.08616756280089 -5.197458360343248 2.636739504160393)
(0.003828319940145427 -0.001522735266550468 -0.005182630017415384)
(0.0007259834995040244 -0.001268332262553697 -0.002153140641723915)
(-0.004948720747078361 -0.01212434656882206 0.003216006793589703)
(0.4876261788439999 -1.285682748678826 -0.6787828684541668)
(2.748604218386578 -15.96824800737179 1.72185757290887)
(0.005748071672058944 0.08831251672090526 0.08199355928746523)
(0.2847501486259367 0.02337738245416431 0.1240140185202687)
(0.7600554387986719 -0.1523368569659973 -0.1602487639793248)
(-2.388977728596262 -6.491785469866214 6.704701956248424)
(-0.0378414654052958 0.02764882267208487 -0.06085305115877614)
(0.005534004547143406 0.00578359255199385 0.02455305357124479)
(-1.127413758206897 -2.355129041683639 -0.1688120696748814)
(0.1406139293904125 0.07954655005922102 0.00701811622206111)
(-0.0005182923229445703 0.001021266034959848 -0.0007347658821166124)
(-0.04503079175625143 0.03970883317774201 0.005529036746244432)
(-0.631375810418385 -0.08770477816200645 -0.09182393344878009)
(-0.02224819139377144 0.003482559656254793 -0.02927861228794041)
(0.4806237404376584 0.3008242678163603 0.3056059066333575)
(-0.06525048404571893 3.918343662075398 -2.074189165705058)
(-0.2676794503028502 -0.00158503181275791 0.0446146814849591)
(0.008974209490790898 0.001661024015983839 0.00408536020947107)
(-0.0005450305297285455 -0.0006169481288402378 0.0008239993821328503)
(-3.389517669053323 4.649572165839148 -9.444000364651028)
(-0.01301634272936524 0.2908974680110349 0.01553506649991127)
(2.730644157571709 -1.035609601399988 0.004835528700929181)
(-0.2177413889990983 -0.1412481560523861 0.4855388460828237)
(2.564466430301292 1.05249883720259 2.336099365538629)
(0.8886537429917329 4.140865917769621 0.1618186331876486)
(-4.21240898329641 0.562672991941337 -0.6586196377439464)
(-0.00208230815776333 0.007874888219653303 -0.01134802794677548)
(-0.3643278105840363 -0.4388841933128653 -0.02764415733472057)
(1.082631503691559 0.7547610073085746 0.549761568075123)
(-0.0802645224045949 0.01344383742691423 0.05242578591288001)
(2.449435659950031 68.60768612301467 0.8448007932501498)
(0.002322249332088638 -0.0006204469459891667 -0.01393409035110969)
(9.340087540985818e-05 -0.001139397434295659 -0.007319013723473242)
(-0.006911750364111902 0.004430077893059318 0.01004934957660493)
(-0.0006420398870573067 -0.004166299794955587 0.00108847620040407)
(-1.752779756639198 45.02662913762499 -0.3910668811237649)
(0.354672997228943 2.550925235027355 1.051665334760654)
(0.01455672734828061 -0.003203273681646439 0.005035302721070318)
(-0.01288943096749891 0.01245430616579036 0.01421141934018296)
(0.01308591533546127 0.0172209346715049 -0.005153866310293326)
(0.0001793624768754447 -2.756739370916627e-05 -3.854677837998306e-05)
(0.0006491097104845414 -0.0001511891436125749 -0.0006780342622748703)
(-1.97292361416157 -6.107266505762545 -0.2865095886961466)
(-0.0002488287262900065 -8.749302301397115e-05 0.000306800913259829)
(0.01394157476012895 0.404714165764041 0.1018224832307199)
(5.701360307111669 66.85294933370004 1.072385066948052)
(0.1749188624664963 -0.005779292077981585 -0.315582140441488)
(-0.001247549338315604 1.171981400916681e-05 0.007775621052810725)
(0.05339782228350268 0.4817805480651421 -4.461501312901209)
(1.961563019614683 1.3392970904373 4.071113203965528)
(-0.0005031124957395779 -0.0101512539500335 0.007089701924403974)
(1.102255505478875 -2.355469569911265 -1.066948360799379)
(-0.05264557584360572 0.0533998265520978 0.02087682134848025)
(-0.3338067148094869 -0.2057152331589849 0.04311586225510716)
(0.2937126567735635 -0.1065172243617326 -0.05811548889081305)
(-0.02594497877154726 -0.01327486079949721 -0.005572734960338213)
(0.02808498240100018 0.06812637617662114 -0.01004255003410035)
(0.05472864430515041 0.04226994218641666 -0.0425393087066052)
(-2.550619884384224 -49.34517035389709 3.221049145955039)
(0.002832480478643117 0.00694336903298085 -0.001350059868990103)
(-0.5296671920788104 -44.03358220205411 -0.2570800322214599)
(0.838096679121399 1.240324458395111 1.558035563618753)
(0.0001275239333019737 0.002580678283760237 -0.002823887359740069)
(-0.006158812595259786 0.004898455651348256 8.159588226731059e-05)
(-0.04543188920548709 -0.001940092769646573 -0.003658515995587419)
(0.1395561680608026 0.1185146171891679 -0.02756238767844241)
(0.001885612701922556 0.01601008220660377 0.006973128786368471)
(6.131109784436578 5.001427656425986 -3.713951352648121)
(-0.6699349098896977 -4.614848172970938 -4.686740778809486)
(0.3277305307003296 -6.132714119939124 -4.68893672957753)
(-0.005897146313798262 0.004539274151260137 -0.01277990245118106)
(-0.7860602202194394 0.06357893114831686 -0.4936304842872556)
(0.01999472057312476 -0.01634016997982555 0.0006094228271540728)
(0.1755550717557432 -0.02442793349286966 0.02605861995165276)
(0.01546100646318463 -0.03002146943931526 0.03339800962485723)
(-0.2980958588953768 0.07588866742765693 -0.1290646020248807)
(0.09008826694805035 -0.8481180668800556 -3.197207064780626)
(-0.8437241140785899 1.573052878212243 -0.01610744395711006)
(0.01827353276281905 -0.0190051772463313 -0.06354100533357417)
(0.7815298223898822 2.225248787538777 2.146666201614659)
(-0.0556354950867808 -0.0299032807571637 -0.01065755842486101)
(0.5622555761954176 36.67329512143208 2.602625808329211)
(0.6068900591309303 -0.6014807908088826 1.254871590162927)
(0.7518700437827718 0.5100687254924403 0.6343413203593562)
(-0.008263313144475311 -0.002999705922183394 0.009948935134207772)
(-0.7367930450707938 11.13017220764042 -0.197087680548906)
(-0.5746840594806406 -0.02578971429019813 0.06179817854716602)
(-0.0174632871490125 0.02720178900633353 -0.1445442285448003)
(-0.1531616869728369 -0.3573182938861845 -0.8162192665252772)
(0.005578624383751413 -0.005009246511259792 0.009362434490284443)
(4.040817689476323 -7.655162867555341 -4.226321040152657)
(-0.001752284522217508 -0.002523002594190419 0.003113318720816836)
(0.02734558509239862 -0.06804049319070654 -0.03024558843171604)
(-1.110490202767923 0.1654229061889317 0.8006955905724867)
(-0.001166412498623625 0.0003030987765865099 0.0003538188936991342)
(-0.0006682400378528513 -0.0007726005658814232 -6.626749358284599e-05)
(-0.0957784378964498 0.07175736356407882 0.01008627203495847)
(0.1712680198766869 -0.09773019860663797 0.006754301740251274)
(0.01619098058891144 -0.02209120182114334 0.01369134771922642)
(-0.00142705813949903 7.563044771145476e-05 -0.001251227169475918)
(-0.003059674261173409 0.01923479759393648 -0.02302122879265068)
(0.003133778113629724 0.00202835321927423 -0.00138885006346352)
(0.02317366501111889 0.02501167414520608 -0.005035469411968714)
(0.00152041188876649 0.002592031512633192 0.004171797855452272)
(0.3158565226567023 8.723866225497448 -0.5930434715807045)
(-0.00244360399626548 -0.0002428211192136453 0.001676777977734193)
(0.002952057543723759 0.0004646735316033105 -0.0008365991463971536)
(0.0007679602842135284 -0.0006342548347934415 0.002003058031312825)
(0.9699896459994941 -0.7893874834958453 -0.2801240515482637)
(0.2347689398710725 -0.3096877515068862 -0.05853861607467715)
(-0.0002469132187255342 0.001947775319759931 -0.004780526696882833)
(-0.005497412414353898 0.02106511673265937 -6.574879829916545)
(0.000396795030878688 0.0002191967871418332 -0.00097589425382569)
(-2.425331308205811 -2.968965961084085 -0.6519735935117431)
(0.6862799954133041 -0.1335614766352881 1.411917474611793)
(-0.0005444854856008911 3.635658976192201e-05 0.0003303830776327504)
(4.186424759405936 -5.60618771221379 -2.760553817713594)
(-5.209955794814977 -54.26757445599056 -0.4809843404675435)
(-0.08212431137405599 0.1334589393451756 -0.01452696563568928)
(0.0002104308455322914 0.0001005544406369636 0.000202779003783366)
(3.979707242787491e-05 0.0001377113590249623 -7.331602564945757e-05)
(0.04942067047469245 0.2384360425317397 -0.7132159351238383)
(-0.02459017770122 0.05291258959873873 -5.616851009264543)
(-0.8239480033807606 -0.5034798641476952 0.02925322402669017)
(-2.525284979429861 -72.47780450353831 -8.538445433236026)
(0.03966878085717208 0.1022157495523737 -0.04917185496177845)
(0.008890930842585475 -0.02786076214222101 -0.008789169891255399)
(2.238206710678023 -20.33215497259248 2.511615807560545)
(-1.213013417235224 -1.92034355657127 -9.151259765372483)
(-2.305440163741729 -70.80875447577877 1.618952286744304)
(2.011162744973536 -1.989417539911877 -0.03143905636295097)
(0.7319169142020401 1.505658653755661 0.4801161985885035)
(-6.219460831937308 -76.13805457154791 -6.496614568806319)
(-1.726558988191906 1.077626661617399 0.383687040815345)
(-0.2097643035909451 -58.59146582682825 6.244166036158644)
(0.6391128253955938 -0.4123258859484348 -0.2122002795645853)
(-0.06344761077922882 0.1366378385342239 0.05445488444276832)
(-0.03397827927373041 0.1150505688836394 -0.010781754008096)
(-0.04243655839995862 0.006719025100395578 -0.03388456718356425)
(-0.3261795692755151 -0.1029875348872065 -0.1833114909592918)
(-4.678596123534003 0.4164564541966589 1.729180159562977)
(0.2876772950107603 -0.09692822327870315 0.1764158159922775)
(6.945583570320849 -53.18798334009926 9.987349177388051)
(2.088395354331075 0.03002637796340979 0.2648310858261445)
(-0.1062599362862136 -0.005060353100619724 -0.02452302349534429)
(-0.008927137271928735 0.003209631677360494 -0.003255932740127371)
(2.228018488793396 0.6262687043350414 0.3532781594682696)
(13.94302719808206 96.77893715933615 -6.972345452519848)
(0.2916955420660129 0.01887370749537076 -0.3109901279128198)
(0.003126538318505024 -0.003806432125895584 -0.006222639177469349)
(-0.2902596883092377 -0.02336838230069035 0.04645408497324139)
(0.5453286701083586 0.4137462971164331 -0.3158871438425835)
(0.008001170713915529 -0.0005597425915979323 0.007631670609362962)
(-0.02850383021700044 -0.01926311642528733 -0.006035263954496138)
(-0.004037560530823562 -0.009909200027270079 -0.01058209760351791)
(12.59853855020868 86.04527295865299 -2.01327526932608)
(-0.2444447996861078 -1.41990506096589 -1.028976980332685)
(0.002127363610130358 0.006739157359685125 0.006486397228847361)
(0.8379917009537654 -0.003367173251247357 0.4031295126686969)
(0.9594191376236663 12.21565244983654 -1.200494762108247)
(-0.0009430600253028483 -0.0001868532381707894 -0.000119474171568747)
(-14.20989840755037 -19.54863814414906 -2.37601176372679)
(-1.332076256181819 -0.6329045459631384 -0.07714098828937904)
(-0.2393102332750016 0.7545089180169169 -4.645618322349557)
(5.30270830916703e-05 0.0002979806758596757 0.0002003106602266818)
(1.168399424764893 0.311695163410945 -0.384838984979258)
(1.003780281989377 -3.033226919143902 0.8130059965840113)
(-0.04399950379932516 0.7076725281228082 0.4942928629156885)
(0.0004029723474175311 0.0001692184080701393 0.0001034987999743923)
(0.8863678011330223 -5.952551977582663 3.807141593247542)
(0.0008327453213770917 6.037462154767475e-05 2.576980161246687e-05)
(9.648431729131541 0.5873387333573822 3.117465600505978)
(-1.020779905998053 3.199518674452563 -48.76657824823933)
(0.01673455392859878 -0.01708717501535183 0.004932079761235893)
(0.1428638185310522 -0.7099187991074636 0.1443969541169084)
(-0.4070289215705557 0.1293631699116288 -0.003631960245088942)
(-1.393504970264405 9.616907077882386 5.413164324102555)
(0.5511100479891788 -3.666299692935271 0.3434078360916929)
(0.0001830624150931787 0.0002318850825993522 -0.0002204075360156247)
(0.0004120371030801921 0.0001383070524003696 -7.657724840881029e-05)
(-0.00325649047046678 -0.01047878874633992 -0.005219135246101979)
(0.1241908063082162 -0.1014962308587525 0.1020366112431692)
(0.1151044263212956 0.06447403040628025 0.002983097248577419)
(-0.0002219457119785899 0.000840876210083603 -0.02375347627052679)
(0.0005213920723842955 -0.003197829469086522 0.0005607017765845504)
(8.860329837149876e-05 0.0009771229457643958 -0.003342832224104956)
(0.006237244178360949 -0.02022403384807279 -0.008717702728169144)
(9.918103098002242e-05 0.008348242093099218 0.01375027726170577)