/*--------------------------------*- C++ -*----------------------------------*\
| =========                 |                                                 |
| \\      /  F ield         | OpenFOAM: The Open Source CFD Toolbox           |
|  \\    /   O peration     | Version:  v1906                                 |
|   \\  /    A nd           | Web:      www.OpenFOAM.com                      |
|    \\/     M anipulation  |                                                 |
\*---------------------------------------------------------------------------*/
FoamFile
{
    version     2.0;
    format      ascii;
    class       volScalarField;
    location    "1.1";
    object      p;
}
// * * * * * * * * * * * * * * * * * * * * * * * * * * * * * * * * * * * * * //

dimensions      [0 2 -2 0 0 0 0];


internalField   nonuniform List<scalar> 
19631
(
-0.319845268436573
0.3893426428705979
0.134013056405336
4.783725680642914
-0.2580851637429026
-0.4049548263019173
0.1834384320326086
-0.6345872149204198
-1.843184867125495
0.07329124628901282
0.5878680756604978
-0.447806522239087
0.5398122091013308
-0.4084297076768397
0.008924695605553248
-0.3360425989933947
-0.4766826492514835
-0.7335827037193758
-0.9547826851943243
-0.3598757088185446
-0.3537961562416588
-0.4271250474059022
2.151295867307939
0.1297567081602002
-0.6015964295042199
-0.1877567451488338
-0.5741193036805713
-1.405099359340075
-0.4151642581467415
0.01753995620035776
-0.4553638902712003
-0.4664848441798273
-0.4209662245593734
-0.4226005919560371
2.409503380658377
3.649182017146115
0.06304122182023497
0.05368181423582037
-0.333753351521158
-0.09198448349278089
-2.088520846080202
-0.2849995717399845
0.002082703853071641
-0.1367656673036808
-1.503425893430484
-0.7714798885236391
0.05390642170139207
-0.1986916258191239
-0.318736506296638
-0.493226503368413
-0.1479641743398076
-0.3115011713623906
-0.4712127112306689
0.3674702469665001
-0.2563117925661241
-1.307300574783612
-0.5103161205478048
-0.4394704246541176
-1.251960083038994
0.1006386174776495
0.08237906346900228
-0.1926865675479349
-0.6499312201484997
-0.2934270563935263
-0.3370076603219356
-0.1307783196397663
-0.3852367004352208
-0.4700319852541739
0.7526255779996683
0.05014928831620772
0.06830202423058111
1.467737016454529
0.1797188741830412
-0.2751698053760037
-0.6837584265655279
0.1228823846142219
-0.01303758467113004
-0.5625874374881296
1.53718940128249
-1.480642023259874
0.1517342849664246
-0.2666355870253331
0.01747322426415435
-1.766811453160187
-1.144665762776798
-0.2920917261192976
-0.4475940373743187
-0.3639971311359687
0.01243381934709391
-0.2533732186046599
-0.1761723950287482
-0.3923615358541958
-0.4440540315046013
-0.3942151205702473
-0.9541617872606651
-2.13433016510336
0.2480970191425394
-0.4671385700878218
-0.3761488635612714
-0.3852449294632458
-0.3786841788270823
-0.4209293682070417
-0.1810103924607403
-0.3304766367491689
-0.706546462996917
-1.228365429174317
-2.196314584352046
-0.4279766950205343
-0.3915328941702605
-0.4003104481725472
0.02240432916112919
-1.377134174620213
-0.3178547254665345
0.3675673100478922
-0.1887027208831726
-0.5683022826270087
-1.055598274228336
-0.3823640023685279
-0.5690293798915175
-0.33580121608749
-0.342238392641953
-0.3795631109182361
-0.3873144130424578
-0.006489642897691063
-0.4186152296299742
-0.342418641349181
0.2910491486527204
-0.3768304738642742
0.01143179062178204
-0.5673726338552963
-0.1474595263202121
-0.2765645035352186
-0.3215618048250616
-0.9179962305343007
-0.3224468106341725
-1.92701806268331
-0.520241866791988
-0.3534027777297943
-0.8080162588258336
-0.3264090270840988
-1.010313041879079
-0.3919292937448623
-0.3441824823605927
0.04542071635585553
-0.2986583612760254
-0.4988735691438497
-0.2175289670174264
0.02257701076591075
0.0996762505373702
-0.2291712056233165
-0.4149678627401501
-0.3897044572861491
-0.4305158673996053
-0.3261035727378253
-0.3774926579467837
-0.6767300346567121
0.1527682541881838
-0.9509387222559753
-0.3928952157338722
0.1667423642724246
-0.3459623122981947
0.219031709384761
-0.3370070901720058
-0.361885161819159
0.03501063984549479
-0.210669000087747
-0.4249255427280689
-0.1507290140207272
-0.0484188470187369
-0.3616698987170663
-0.4569440859976359
-0.4057061069031481
-0.4399553746278993
-0.3175255444619494
-0.4091324785013671
-0.5002225702761887
0.0260623441404895
-0.4191664985382377
-0.7180337200410886
-1.370437107474572
-0.4038573361098537
0.1090960227152103
0.08506444549963695
0.4582079851429433
0.1162763005690019
0.02070729756592022
-0.06682995082888735
-0.3169711890471371
-0.3941625140923969
-0.3375380957299604
-0.394984643192828
-0.1435967406669118
-0.04795702523484132
0.08304241843442743
-0.511031899353296
1.161360101062706
-0.4308935526362291
-0.04713044813062154
0.4780283328517529
0.353045917060767
-0.3801254414456026
-0.3566957470370561
0.189495593133418
-0.4198483531768433
0.003015626590535845
-0.3661622063273066
-0.2529134304898996
-0.3501539306145939
0.1430272364940999
-0.4291328677764021
0.1868723256180152
-0.4412658588465223
-1.042845623125306
0.02975343941175229
-0.1932688738394585
-3.46823506358758
0.04119241471878566
0.07184111308234849
0.0195908817477485
-1.136430149354559
-0.003938127486599113
0.506948226253963
0.3921949511593387
0.04183925649483656
-0.03583935771268326
-0.2140066986759834
0.337889608002125
-0.1890350947008919
-1.262834309632774
-0.2718232019131294
0.191798385173526
-1.570378261910713
-1.878626233882729
-0.3239284537869808
-0.5512831682720054
-0.6801898387986335
0.2787002011522368
-0.9193019325293035
0.07959363182807337
-0.499303464515945
0.2582772976531442
-0.380416860890642
-0.02038795877633638
-0.2926083154854861
0.1287766691441194
0.1379316089143244
0.1183012054684093
0.06721359878002817
-0.4435896735946774
-0.1892000270128742
-0.6728813171325074
-2.142329811392432
0.2373109473742056
-0.8904833465671341
0.0429172494381296
1.045681435305053
-0.6844101302195321
-0.3818426314349045
-0.4351057433552545
0.02097453089706852
0.2549134684860146
-0.4710991831341948
-0.1996849159731314
0.4042236162588905
-0.01130188816338259
0.1799730581694006
-0.1972384065128728
-0.3539670067717514
-0.1144644044722132
-1.51848244085259
-0.8354434150984814
-0.05325866052301977
-0.151708435282143
0.07217063928530223
-1.030161336207909
0.05184175737175205
0.2553544768980088
0.2204032564745474
-1.311281830721734
0.06995412466126949
-0.7677959719184465
0.03438628005174515
0.1584549323842895
0.297865144477718
-0.6760030746877409
-1.581200411561377
-1.2597535168258
-0.3719490571630033
-0.09891348067090604
-0.6958816670961279
-0.2977612502391696
0.3655600626102237
-0.0442950297012806
2.214183665361322
-1.139131112771638
0.04343178424592945
-0.5797807114592215
0.4409875852339243
0.2695188104011184
0.7945500679322751
-1.189674538407145
-0.1741807955148848
-0.8480351137552041
0.9180220083746991
-20.64331289004799
-0.2952504962836284
-0.3805977155512166
-0.4980715633172034
-0.2407894988993867
0.4024637066207367
-0.4443165625107487
0.05367333053994535
0.05728237758246054
0.3188412287258071
0.05629831090486635
-0.8014642923292671
0.1406413370102038
-0.3303186272473387
-0.4933539336767243
0.1180722931240515
-0.4373900826980538
-0.4662450508474295
0.1681262021832394
-0.3465367861046976
0.02495133018382809
-0.6141900181936594
0.5106884848586413
0.1605759029387679
-0.1204523571004233
0.0543481806832118
-0.3216418566692982
-0.4647568068149825
-0.8118801212430212
-0.4647691846267596
0.6400816290894773
-0.02778665950330883
-0.8740331635801883
-0.7286451095621199
-0.6141252783747722
0.04712501922198711
1.420345529648609
-0.268310444641682
0.0610730209388629
-1.323016765190353
-0.6306809110166428
-0.2034110423375181
-0.9891115347689542
-0.3272119432428868
0.1336241609867551
0.008569553397807931
-0.2738921177156559
0.06552288447573577
-1.099913715611722
-0.2591898884177785
-0.1793794754891254
-0.006455219522597118
-0.3432259020385342
-0.5275104048704807
0.1110679597804843
-1.241711734747632
-0.4040004069072993
-0.8338084184808783
-0.9443092147128389
-1.436389436651862
-0.4235946704714944
-0.7253095545362304
-0.2121881394440809
-0.6303776854854312
-0.3463907457018949
0.1085150994631535
-0.5570689686480633
-0.3852905678275018
0.03918830880646985
0.05569436992100305
0.003888520950141658
-0.3180888700758911
-0.4600400744767144
-0.05628536922344154
-1.097702495221311
0.08484088296945311
-0.5120102247758597
-0.3180638135466451
-0.3839537694676496
-0.5917055946295066
-0.232765854431592
-0.5298374837518103
-0.5681550459518963
-0.2102528614133451
-0.1600473190461842
0.1037653575989775
0.325655663006619
-0.3284459372890995
-0.2708280874779996
0.008183872524354581
0.2658350180620183
0.01250224617627734
-0.2064772314864141
-0.6983506093678693
0.07707799187190034
-0.6519693493345114
0.6737580566394427
-0.6051251352964337
1.167284610308277
-0.2497332166526736
-0.4909134622034216
-0.2367063710532897
-0.4924556477932381
-0.4888564636692648
-0.08173225260408548
-0.06706466557405757
0.06288447138779556
0.4399357188939504
0.1808001864130358
0.4308456231986207
0.01000830611910864
-0.6808784162186011
-1.273464283926427
-1.199294277271481
0.001447906277921355
-0.2261929522932259
17.38073030651012
-0.3528368890861393
0.08358209468934935
-0.4314645589603919
0.01679269329219455
-0.4983496966630649
-0.9877521808226839
0.1935440119287456
-0.4669677689403575
0.001162091742176283
0.07386659765635543
-0.669104664856896
-0.1832107184002782
0.1465589676257101
-0.8811250480530947
0.1133943696472317
-0.1909269231963917
-0.1703988109018715
0.01887915761881266
-0.01706026751611822
-0.4601938323341784
-0.1753365444092064
-0.3260653537556429
-0.4877804439111358
-0.3794207646936307
1.964953436421418
-0.6103465759328242
-0.6411325230949185
-0.369650818330131
-0.2816026657314699
-0.355270843003268
-0.3797314042901118
-0.2465851001788647
0.4408125203701705
-0.4344223381544582
0.1950629938082896
0.220213782986714
0.5506839918834591
2.432312056742812
-0.07476718386049563
-0.6318636452002035
-0.618207098470969
-0.4042729588132043
0.01651260584751764
-0.3999182885559698
-0.4752784422371538
-0.4657263763012596
-0.2246986022777681
2.548514435852369
-0.7642527771222271
-0.2063791997728777
-0.865448339951789
0.005556933979781025
-1.186686944295755
0.01593392001881434
0.1460154940439118
0.1358421726699535
-0.9551053890743428
0.05243530635168953
-2.239068203553008
0.4225501559399544
0.6135036099170027
-0.1499924351564673
-0.2622338934898636
1.829393772961194
0.2329402621867303
-0.07696279567714177
-0.566712496727156
-0.1783692893462868
-1.3415652045563
-1.367502397163123
-0.3133275407908914
-0.4368865059202648
-0.9241216453049664
-0.961058457663304
-1.046396376785322
-0.3442572355995422
-0.4668642769861762
-1.030734386279615
0.661256082590621
0.111301796269616
-0.3945552843247491
0.6260109473532682
-0.1821857575185483
0.5498838676040541
-0.7166154661606943
0.1733581403509388
-2.594944646422587
-0.09476702749025401
-0.7775689967972449
-0.6720316615728776
0.09931078525543202
0.1608609233557785
-0.08856398379851464
-0.1538391729465833
-0.2244209739126892
0.06518633490043629
0.3002156200451819
-0.4696612133390919
-0.592009795472103
-0.6751043734610415
-0.2400415856428147
-1.733710091254468
0.2758377461225114
-0.3711460358210313
-0.4799062229778077
-0.1820798850492432
-0.9273286502251573
0.1877627661491921
-0.02684440204099188
-0.8863546551334706
1.560217833111649
2.289259950817781
-0.7780489325462125
-0.9663952676536932
0.226313689862584
-0.6185888256802236
0.1095961801927172
-0.7303592711071698
-0.2051408468349463
0.1535177376680506
-0.08507303660770983
-0.355961358754096
-0.08103634520797831
0.2522408712468433
-0.7307312821975611
-0.06423973767194699
-0.5249521410941315
-0.4482343078906704
-0.03707582537197187
-1.182482218801369
-0.4784806280790023
-0.4538843361161136
0.06462361441302776
-0.2528473345915654
-1.09679171242387
-0.8005825461481232
-5.499630496870525
-0.1818076377717466
-0.4850792021221167
-0.7405324459821876
-0.6116159256779784
-1.008382192534037
-0.3584317625575175
-0.7891012651113799
-1.989692790452092
0.131225276752516
-0.05137415456844147
-0.5141627821097438
-0.2041721232080831
0.1494024662594112
-1.426102780670103
-0.7143518347789134
-0.4514573521445969
-0.5869381136884823
-0.3081438444420749
-0.5757047941088568
-0.8409946227045846
0.1559988087139024
1.115673640671074
1.367395151422201
-0.1276175013835834
-1.444841631754548
0.3791919030608611
0.07253670230657833
-0.4382856755258899
1.530326828390495
-0.1070108921800224
0.01427810333114785
-1.436444947317557
-0.6303436110503337
-0.941985103360681
-1.171239735821433
-0.4683808810346224
-0.9849376108018363
-0.6293546697507103
-1.167956953791722
-36.68189439337444
-0.4889254143730632
-0.6496480751943526
-0.6314543170120384
0.4233292022917556
-0.2299627195620063
-0.4517338544460938
1.117920196040846
0.01080594598880079
-0.443094577123955
-0.5198349390457944
-1.198180120108087
-0.3617349682806519
0.607445960402895
-0.165969506992822
0.2476556819664404
-0.7636935641474617
-0.5145906175065708
-0.5610558503211409
-1.015786537303295
-0.4845803308348582
0.1302606295629618
0.7133176547356642
-0.2468656404491347
-0.4571066615201642
-0.368791105924134
1.208680659214451
0.1093865713662648
-0.1558242879698768
-0.1947492861278845
-0.4127020318264584
0.09829602697985786
0.04938464406997838
-0.4377109215561413
0.07076060669311093
0.1607537530540046
2.12516842083309
-0.2663039021966685
-0.5902378278098717
0.3289483218048246
-0.5184256498224884
0.2825394816711592
-0.2027791773750821
-0.08378452354683241
-0.1363213863145924
0.03416090648603685
-0.09259375096660823
-0.9168437139934814
-0.7783123173145361
0.4921847477796656
0.3220530445181869
0.3818903177476713
0.4722269098441357
-0.290332559487837
-0.581334360588918
-0.4647114119375447
1.072723930880781
-1.328785525801323
-0.02092212220393797
-0.5912709737828186
-0.3898764924753113
-2.282025101652884
-0.4903373927569538
-1.131603165534835
-0.8234225760728957
-1.319283084051036
-0.6472755661256059
-0.3393227371896692
-0.5820906424139841
-0.7212603477192969
-0.09112423918428664
-0.2105493874794696
-1.510130844795885
-0.341008944853947
-0.3241491380114045
-0.504279031800223
-0.6150881765630287
0.7440250753377021
-0.4550392598422676
-0.6959439799753012
-0.4740754404469763
-0.3979252825169514
-0.6889993765239615
-0.3041080431507139
-0.5364536161640516
-0.8190019390580203
0.4466748942826981
-0.6261894737217262
-0.6845376540178353
0.09477579694144503
0.1458991731764636
0.04953955729455946
0.06061427722978646
0.07495970897659923
0.02780233639747289
-1.09139180619235
-0.4172782246249385
0.06928187805675406
-0.1554279926946305
-0.1934363619714111
-0.3856075794792146
-0.3419551842683601
-0.3488534035310324
-0.2743735809291584
-1.098688050746658
0.3231931196049319
-0.3286770758493763
-0.4388611419617622
-0.2519717658788758
0.05145351567757574
-0.5383251907855487
-0.7118590428772199
-0.2343967368600031
-0.5564333295903887
-0.5261008707639256
-0.4397346366189288
-0.5028926489374592
-0.7995832375112627
-0.3168307445406442
-1.025199787766473
-0.3840857330931307
-0.03501771842582628
-0.125036928192487
-0.783454490711139
-0.02053170989745206
-0.6388262005404474
-0.3328938784430103
-0.5480663295278694
-0.228504172864605
-0.8922218172201901
-1.979447900879586
-1.456407705145346
-0.3077258044571045
-2.191994572475805
-0.2582789513586266
-0.9540939124729917
-0.9989366939959744
-0.3270364644521088
-0.6782375471513324
-0.6907169603016429
-1.013267166432552
-0.4342587410545358
-0.3574491022173111
-0.41426751625523
-0.3914275675871134
-0.3900577950516021
-0.243731782520342
-0.7034852376115799
-0.4591595528867757
-0.9324586950682172
-0.1891109758708037
-0.6286299958288244
-0.1407357979002113
0.3209000907305541
-0.3934866284534168
-0.7575084000630498
-1.150772369641955
-0.5326454117232934
-0.6439607285718093
-0.4446116713829514
-0.4713982797515489
-0.5710401332973497
0.280660113794563
-0.8912560601498304
0.2120477452473847
-0.3354578015983224
-0.4264219571670508
-0.4667406300649622
-0.8875766891041087
0.1077789650678353
-0.3629734756668745
-0.2238128995406965
-1.018647613448937
-0.8243987781633776
-0.1710291573922958
-0.01181721240644639
-0.4989074855380397
-0.4698496232952772
-0.6598968259328297
-0.3591940476949503
-0.8468727139922765
-0.5251854325171343
-0.6008410198782494
-0.5034464537544699
-0.9901100738071393
-0.3805741855986996
-0.8948149484165281
0.2373160727283181
-0.5056714210072943
-0.5736864131065338
3.99479519924772
-0.3559926354086243
-0.2091365432609117
-1.225464551229806
-0.5080346256785856
-0.4670664804008516
-0.02811604926887146
-0.3697733366095303
-0.5482475572860457
0.3868545309071147
-0.6208919971724736
-0.5282654897396176
-0.9614582050334259
-0.4364127412706171
0.4583679285978589
-0.3859747009917752
-0.7307370513781869
-0.0562851737529476
0.7965996210257886
-0.5281660232061595
-0.03514008537163343
-0.3345261144941175
-0.01871075511718902
-0.6207138887806658
0.2456154934556732
-0.4405237028811276
0.51595709351579
-0.2164484291792305
-0.460809510329533
-0.7208814225415567
-0.4321093887255522
-0.2583101895824529
-0.7894878037087939
0.02509130538299232
-0.3261571793800454
0.5373942449700381
-0.5514433087131522
-0.3020675615846731
-0.4283120918206882
-0.1377969607663896
-0.01741008760559123
-0.3747907441297814
-0.2536992168391075
0.08850086054045633
-0.05772022304247196
-0.2732405297417247
0.10242957015047
0.003646573261712823
0.0818558234920668
-0.2535072252844084
-0.4089318159358039
-0.6272525997550711
-0.01295966103891269
1.113270229853414
-0.6575068166071403
-0.5644481768457377
-0.9194891298634618
-0.4775135485956993
-0.1564595512269618
-0.1815123145394062
-0.356445779007386
0.0228017607540291
-0.4375610575034293
0.2190460355555267
-0.5840766684536114
-0.4834522273870894
-0.3866717253732205
-0.4929009355284086
-0.3373498043991784
-0.4355174821114579
0.305228959006471
-0.7038530519768197
-1.240141415343217
-0.3142946313544059
-0.2574118527385106
-0.2562958019877581
-0.6326856873561337
-0.1727949974961991
-1.03967868524047
-0.6433796894141671
-0.5521962724687336
-0.07402311335408954
-0.3589421194768015
-0.5989194337993802
-0.315606487973702
-0.2534274268716908
0.2527125354990675
-0.5768272461219133
-0.4379781820196682
-0.1997617887883197
-0.30797898026373
-0.5235906183046661
-0.5859311358682936
-0.09367458142845045
0.07570277087887292
-0.4602680216459028
-0.6018370304249719
-0.07080321005510033
0.2575012140286523
-0.2490217710293017
-0.4394433093006533
-0.5798672345315936
0.544643489726057
-1.377727206895121
-0.2545600897481786
-0.3006484583946089
-0.7460588545839356
-0.7236102800593457
-0.4603117158722496
-0.2051748674980413
-0.2858567471834569
-0.6391582502371543
0.4591556233776324
-0.4489666564016839
-0.5919224194067227
-0.2058867614810434
-0.6466390051909218
0.02780359372193022
-0.8146809646529316
-0.3668408586488611
-1.196576759598518
0.03846510907830539
-0.3767706736192012
-0.01591617560405744
-0.369173445977424
-1.16327403443285
-0.007884422377535236
-0.2663828751415041
-0.4455494480199127
-0.9870637008362302
-0.1596536130970099
-1.075273790190449
1.25007026767664
-0.4036736023706256
-0.2117124445203117
-0.6694802647155842
0.007331962853827315
1.254140756192151
-0.863990009344371
0.02348010649623814
0.04633201326082634
-0.7353928632777847
-0.09038074682216206
0.08280868310796161
-0.1439952630824886
0.2228412091791609
1.352296491643749
0.3085262864501445
-0.2686607038941238
-0.3128496252592623
0.06307824924382653
-0.1055150810970017
0.2086752718499361
-0.4051210940022549
0.06092092779027512
0.06400573989672902
-0.1195234202279492
0.01684048709133007
-0.04916430439172299
1.455673476733407
-0.5118400254958433
-0.06113729590037575
-0.07750502815173349
7.476468422086001
-0.06605934606745381
-0.02853855012319441
0.9038632242235614
-0.5806257856879855
1.186275798963856
4.385761718757013
1.062728193800197
-0.4520213413639725
-0.2775740723868023
-0.249446312242384
-1.96982769197007
-0.6570648181581099
0.133515273806692
1.401125422599604
-0.8231305782383865
-1.364439192324575
0.8253128576940271
-0.4508589542356631
0.3457694691122496
0.3787053533204414
0.2909588315587249
-1.983235781031172
-0.3437260271298935
-0.3762303171758615
-0.3517370902491397
0.4739366526167884
-0.8182064680033717
-0.7515050479285224
-0.2989399431742596
-1.263379410426346
-2.236549915685986
-0.6424190936783928
-0.8155334533312529
-1.672566569208697
-2.002191552087725
-3.208703972968512
-0.2703183907007889
-0.2264451467362785
0.4255095893450948
-1.747926674838533
-0.4694971038803656
-0.3594043066815842
-1.661016270791663
-0.5329077174123009
-0.3866168815210529
-0.3841606529654895
0.02069669980396368
-0.8833730774493284
-1.051353285872361
0.04775652767691143
0.1396050071732719
-0.3064822251935367
-0.893582103722924
-0.9458020413922823
-0.8679818038328706
0.07640757213676745
-0.5576031322784872
-0.2109047224226875
-0.2923748078462063
-1.274809155785906
0.08948964376589784
-0.2350709786481158
0.1670924647163352
0.1830976014818843
-0.00311355209828207
-1.627852719740233
0.5297383349914884
-1.515300080944589
-1.290316828523874
-0.6551368423445422
-0.7111518783133671
-0.470793505800427
0.326122471769921
-0.6655878001492466
-0.3219907503800425
-0.6639049128831397
-0.3329517205738531
-0.1811793499669863
1.252919122679921
-0.1950914811003186
-0.2457850564040056
1.470463899134856
-0.5862057645929075
0.1429644066741287
0.2617191038068029
0.06056447052211519
-0.08538510896452228
-0.05746393318065058
0.8998420462848282
0.06741407132916785
0.7554499667509067
0.5998040397152238
-0.3497916006769145
-0.7321131064035454
-0.5607548205195489
-0.3382813337394264
-0.3481861700530148
-0.5279612727077549
-0.1958709221247463
-0.784655802096915
-0.06930525369421416
0.05046459199901848
0.7974212834118478
0.1271845188662245
-0.6445461558349285
-0.8499979631927603
-0.01708436837354083
-0.4339377596381865
-0.9026245935094537
-0.08105040371963061
-1.081461738737277
0.5468130708358444
-1.881368230965004
0.8983926615532993
0.1895318875174014
0.4043502955472668
0.905917132810632
-0.1774145700796121
-0.585852264873111
0.473234557952747
3.497067152008694
1.448136604439334
-0.4987647921435537
3.269583555655581
3.155963127209405
2.917501955652605
0.1872363552228127
-0.4157631829587017
-0.5778129764279142
-0.8901085132218783
3.142002823596723
-0.2624732244755469
3.715225642060059
-0.6362624401009106
0.03227674680644753
0.05130049606812866
0.05577743526885557
0.07932101017562412
0.04330967919597109
0.007000212043758996
0.04867253755364128
0.06312994918553623
0.09259421617961971
0.3334167847974367
-0.005339170673963186
4.136893676669291
-2.148158692942573
2.97675727871591
0.07087471710895568
3.5021291952919
0.4553368990859732
-1.553952042580892
0.1164645835497632
-0.3359544442536462
-0.09373571174390788
-1.778347353218868
-14.98303764774632
-12.80204856666421
-0.1406756897608248
-6.272027825279893
-4.224625295381407
-9.287064104676309
0.1194476635707301
-0.03604934896308068
-5.300307858713814
-0.142361282598368
0.1179432367590781
0.3203392889024675
0.118015536798589
-0.6820227307619313
-0.3041336344719304
-0.7413311780905877
-0.46924558088943
-0.200176620165235
-0.2292895792786182
-0.6416739684067114
-0.2834606996256276
0.2777536187734299
-0.5127715312006718
0.0531585938989922
-0.6411392496173813
-0.6306289816324187
-0.8411696779423981
-0.5997277313838064
-0.5843587272857326
-1.064513120985646
-0.206567858939245
1.014354071987291
0.01068951087190267
0.04408780981357961
0.7146647248408853
0.6101722760825995
-0.1324298429896391
-0.8339175515256534
-0.4027403132446334
0.02939149126853913
0.4127411870791924
-1.266469026107346
0.03348435060757823
0.4170602965125146
0.04841051993897656
0.5498390681628665
0.02997172370630662
0.03587146576640817
0.2362419326257304
-0.2547474150850115
-0.1956893660879674
-0.3170208671637026
-0.02765730981745658
-1.002997535237346
-1.002571194730296
0.4319713766669068
-0.2750491313399229
-0.2426961064015996
-0.2349962645604601
-1.21738333925461
-0.2018148231781059
0.1300866188031775
-0.4047012824235922
0.4643575295474894
-0.3661037926038865
0.2543150116081679
-0.05465732540132968
0.2199870547951574
-1.517726217834458
-0.1785620332026741
0.4157229068351783
-1.156465198885366
-0.8193007401604198
-0.2929542866087639
-0.07592323055887153
-0.5581269635081699
-0.986325327327904
-0.390572846601986
-0.4600358328989378
-0.390515972544964
-0.6870304111984671
0.1045168123285612
-0.6289647762237012
-1.268571835169867
-1.740446165484951
0.1163804608662073
-0.4926464022383924
2.285743452547155
-0.4644753520187159
-0.5517262780516005
-0.07189169446996663
-0.1640890036033406
0.1082377784094959
-0.1000718104141803
-0.485060067152278
-0.5710935563131913
-0.914456459689464
0.04509951693349288
0.9143068254997125
0.07605059079180763
-0.01781516823856753
-0.1125836627019623
-0.1294184178299431
0.04866026432004934
-0.2751383901339854
0.1204216995170393
-1.837340300072601
0.1709293140615906
0.09597435845662285
0.5663839781093595
-0.7364257539048169
-0.1024312351117734
-0.4608084946067237
-0.516796081228726
-0.3710778584859373
0.1095070992260521
1.859691889543964
-0.06555318618774665
-0.0946373315562284
-0.2890688536707767
2.503777801410414
-0.1647848295368834
-0.04937978952079709
0.1810873334108779
0.9181114521572201
-0.1899441475092267
0.04342842905820531
-0.9033038609658454
-0.4732321074693915
-0.2220612136691923
0.06394806114907113
4.730117884423531
-0.5926007194088848
0.1216866837559198
1.62317113352348
2.651990648835721
-0.07535492039530219
0.3154000688551861
0.4221432230375081
-0.2252155467421878
-0.0005242550276692184
-0.1718712722007413
-0.2265710794844554
-0.2600185516563789
-0.6465354429039314
-1.613428228108531
-0.2658786987280657
5.781597583421185
-0.04673445569400035
-0.1933622596773595
-0.06297024931827089
-0.7918587760711622
0.2066675101079117
-0.2557325718759417
-0.1104255749512772
8.234210989078598
0.5132649122409347
-0.08694362172457731
-0.3573652473605782
-0.8632417439318231
0.1172600517483452
0.02590878892680286
-0.08862736869841477
0.8251804074371021
-0.5610245230348697
0.6387455269450583
-0.7996053662051397
3.561502127225244
-0.07899602493395042
0.6499331148022318
-0.8471605900530653
-0.3321590614072257
-0.8619402226355807
-0.228106086509505
-0.5262334189971538
-0.5628885790014116
-0.2507935587125095
0.003517038701744233
-0.1180643056532625
-0.217932277750931
0.1783670780538041
-2.03756600071829
-0.625915526165804
-0.2845205138963642
-0.2203732209661978
-1.82236376831818
-0.2542883965860863
-0.1806685903336935
-1.918898864102717
-0.650330378395255
0.4108504524159007
-0.1481318402306368
0.007291936394578011
-0.3263263312542715
0.08081791669853107
-0.2475525421400691
-0.391123404665901
0.1069926274522187
0.05682984489829612
-1.484872906476931
0.07942207466070927
1.65252063339859
-0.1854799518259183
-0.2670355132155062
-0.9964120993358688
-0.1624811501947126
0.16085493620078
-0.2261760378209762
1.468897471492135
-0.3523651596299096
-0.2095459446885397
-0.2599261428288549
-0.6493868085215214
-0.4088439836220507
-0.4173169968825233
-0.4394197918909085
0.212724036065698
-0.2367855569420025
-0.2106302070972638
-0.1337123788355322
0.7990052506777783
-0.2951258637698392
-0.3185765713097677
-0.1944490371101397
-0.4941416096361519
0.03574593099268557
-0.3377531831124137
-0.5841321892932128
0.04453531717221736
0.05209858893656542
0.04032698809690801
-0.2297874381426882
-0.4005528428567531
-0.07760992817766738
0.6320809453856631
-0.01291093188524146
-0.5123095961526195
-1.217353952170545
-0.5003880283597566
-0.3976382545552788
-0.2593216139356756
-0.7062517230526871
-0.1972492805303225
-0.08161041181446868
-0.2495651949547152
0.03593152112283611
-0.5453282593234128
-0.2834374279334558
-2.927891785171917
0.04445435798442853
0.1759761191780968
-0.161940218780089
-3.997471325982678
0.3600818908022921
-0.6490035209892424
-0.03528836952812212
-0.1667241409492932
-0.5108224663633275
-0.1096057364904041
0.08410365995008751
-0.3645463977637301
-0.2225102788152337
-0.3877444752478073
-0.3881309847931965
-0.3998935044826609
-0.1162971690069819
-0.05274262078035297
-0.5006166618858444
0.004277834929472831
-0.2688183266002134
-0.1684702951801562
0.07992754089792917
-0.1823129087009792
-0.8912306019735194
-0.4418390713128966
-0.3027332290421492
-0.5867046465774668
-0.2263280607124354
-0.6780553579111772
0.2138639292350729
-0.1152597262830435
-0.3960928276826423
-0.3479439108487324
-0.3388627179816339
-0.2946682803179141
-0.4585364011426965
0.1761973855526813
-0.3430125945356122
-0.08757837064791851
-0.2543568500421259
-0.02613535996132201
-0.2342906460432951
-0.4060890037084099
-0.6118802668598834
-0.2082085941917822
0.03908906217049529
-0.4589844251191987
-0.5328432162450892
-0.5894801480352572
-0.2104534396226233
0.5193840480343409
-0.4035849920004193
-0.08863044415867502
-0.8978549649076299
-0.1828524873154543
-0.8069043268280708
0.2122713664056113
-0.2196710812125327
-0.2824216696098374
-0.238746851096788
-0.4994584301931673
-0.3569298432003962
-0.2852543600384355
-8.78728849196977
-0.2439205525739334
-0.08395608891615185
-1.487747167962191
-0.6520233935825308
0.3958465088807444
-0.322372852928124
-2.616112020994769
0.3839558258851643
-0.3885887206742396
-0.04444460999373666
-0.2371203889668787
-0.1975818272107111
-0.669777297849347
-0.4785621180931314
-1.429620091697924
-0.292733933553923
0.1325474642273331
-0.2874536135808361
-0.2506103819906347
-0.2670711659501397
-0.4271808676023375
-0.2987724482796077
0.3899882778355996
-0.4526689233388499
-0.6917810356396791
-0.1518124640587704
-0.3337082247178736
-0.4961474502322667
-0.8974799541520148
-0.2987356377417555
-0.9411299006274351
0.1561976179892757
-0.2628387127001329
-0.4370388902329972
-0.5186351188292021
-0.8690813896904501
-0.4580124771595184
0.3532545389100882
-0.4998008581811421
0.3388721665882799
0.06695125522301237
-0.5649308404163892
0.2107351570226016
1.713656010219366
0.08476438324486203
0.05363184955350366
-0.4059361442568367
-0.09353129672438869
-0.4182396268647403
-0.4243424736789027
-0.3510286955873751
-0.465959701007804
-0.1442777912371835
-0.6063104988981792
1.393001610349997
-0.5150141490153408
-0.1279437183892397
-0.2153103419595945
-0.1099606011216085
-0.4200363544646057
-0.2002133765862115