/*--------------------------------*- C++ -*----------------------------------*\
| =========                 |                                                 |
| \\      /  F ield         | OpenFOAM: The Open Source CFD Toolbox           |
|  \\    /   O peration     | Version:  v1906                                 |
|   \\  /    A nd           | Web:      www.OpenFOAM.com                      |
|    \\/     M anipulation  |                                                 |
\*---------------------------------------------------------------------------*/
FoamFile
{
    version     2.0;
    format      ascii;
    class       surfaceScalarField;
    location    "1.1";
    object      phi;
}
// * * * * * * * * * * * * * * * * * * * * * * * * * * * * * * * * * * * * * //

dimensions      [0 3 -1 0 0 0 0];
oriented        oriented;


internalField   nonuniform List<scalar> 
37423
(
-0.1093362409446665
0.4224631059378736
-0.4555665664350636
0.1424397014388544
10.87047830118734
4.71490941644583
-15.58538771770381
1.590506236952436
2.837470907153
-1.491341244678712
-2.936635899402589
0.5345689122705781
-1.103840485674527
0.5692715734869183
0.117000695321653
-0.167692763629703
0.03009744106842105
0.02059462725388732
0.05021303461143826
0.1432197897967523
0.3033097849079528
-0.4967426092650868
9.148584907714998
-4.651678816515755
-10.83608503945002
6.339178948253579
-0.0505210788980863
0.05521290906632449
-0.007243197140152645
0.002551366995714088
-0.1589730539163066
-0.03706551136108178
0.403139592525268
-0.2071010272272445
8.634050155157372
0.6632201181641182
-0.4741470149038919
-1.412805784826152
0.4200286076617299
1.466924192089382
0.298664818398649
-0.5491906506768232
0.7721154667607506
-0.5215896344005386
-1.033095579591662
1.311732749684618
-0.2786371700637758
-0.4592642752623939
0.4943649810674239
0.6097303497498724
-0.6448310554809874
-16.29809015545349
8.949160218867968
-0.05860445505275173
0.004226203452584994
-0.1209681962779715
0.1753464478945162
-0.4684264993107417
0.8202276319562851
-0.05313631420128467
0.2045891315531041
0.01279980651165267
-0.1686256665991068
-0.04876327143298537
0.1000612402688236
0.02767932416925627
0.001660019823642833
-0.1294005842405878
-0.0247546663422108
0.05872322440080577
0.03474005169366493
-0.06870860973200081
-0.2205629561808045
0.3828554081389895
-0.4234535437744876
0.261161091829421
0.4073064014797288
0.6839007745546732
-0.2767158019359787
-0.8144913740352153
-0.1167037214737396
0.1229945181979953
-0.1057529872093159
0.09946219051125994
14.73781959377597
-17.63463738551862
-6.3537462182078
9.25056400978697
0.592881800785131
-0.06910861726380373
0.09361140681339562
-0.6173845903242295
-20.38051143194545
9.302529500124637
11.07798193181131
-0.1772841760515055
0.135993270397657
-0.4271355936197838
0.08162681417505238
-0.08710841733484857
-0.1760311293157611
0.1815127324946375
0.1633978172530244
0.0103937171334872
-0.1754054862073735
0.001613951857431341
-4.253023266907159
-22.45034185887346
2.749488879993507
23.95387624555191
0.2161600153241842
0.4018105216658175
-0.1586859378520862
-0.4592845991069158
-0.08671517964721587
0.7101815964662153
-0.01744873719338178
0.1101400371542697
-0.1046313141356078
0.01194001419520344
0.05892462306072711
-0.638066307102182
0.3381928388709213
0.2409488452153483
-0.02871393435290009
0.06122199060829327
0.08700308503844062
-0.1195111412563851
-0.03467623291722798
0.006777416998914307
0.1190538004472951
-0.09115498451282047
0.2121006332888023
21.48246810590877
-19.31879138388686
-2.375777355321579
1.153445358903746
-10.3006261163489
9.033539371729217
0.1136413855815921
-0.0245429489175438
-0.04372056633498641
-0.1065620936097273
0.1748256088819283
1.64874577665261
-5.727001181408206
2.23539259521912
1.842862809639711
-0.1400888296519184
0.01863380467280763
0.1458340928838748
-0.02437906789192316
0.5531227501088286
-0.7007068564057375
0.1923622211132953
-0.04477811479900373
-21.02286600548356
3.668216182016327
7.17003726264077
10.18461256074485
-0.216778002658789
-0.9184051173332549
1.000462735280395
0.1347203848039754
0.3433240050523056
-0.004422735025075892
-0.4588661711179906
0.1199649010872682
-0.0005470727523845991
0.6207815688737802
-0.0006263710445178084
-0.6196081250203469
-3.592428515491772
-21.73302067382738
22.60516352686667
2.720285662435707
-0.9472710892405193
-0.6630542859241264
0.1738586683574398
1.436466706810913
0.5172942973844155
0.2486392875731142
-0.5237604577423617
-0.2421731271937818
0.4227516436310149
-0.1786598645200875
0.3765767862590643
-0.620668565336985
-1.164343148969217
-9.676371877079095
10.84071502588579
-0.6869965748865101
-2.73295782930505
1.109054348848235
2.310900055673622
-0.2567337882060056
0.5927702521990994
0.01348123078378179
0.1913350990971179
0.05979494604985858
-0.2646112759014194
-0.1312036666883907
0.04331083079184902
0.106913998250276
-0.01902116233711291
-0.4957084057771517
-0.1096343121702039
0.09051407570701361
0.5148286423357056
-0.08354333708310853
0.5929596974404765
-0.8764911408426739
0.3670747805230249
0.2774200196204565
-0.07842105179352425
-0.02359830659275869
0.01883468252696288
0.08318467586981738
-3.229280921024702
-0.5657994584205356
-3.060340887046222
7.2339598475876
0.03641458319816419
0.03540549360876034
-0.03168378195215944
-0.04013629484193925
0.006337613996484098
-0.08252222179675699
-0.00615951072745442
0.08234411853938126
0.3918939034876052
-0.3774566466768294
-0.1349804625690375
0.1205432057990056
-0.3193759318451174
-0.1543558417439491
1.157632548198147
0.01454236416849462
-0.08934181265136508
0.0180431753658735
0.05675627314092223
0.1147359027371469
-0.2994071121862368
-0.1584991284251737
0.3431703378963365
0.3364104609511991
-0.7917861273719747
0.2233335560594119
0.3516027723968422
-1.142210015854748
0.567273687436577
-8.54720949412062
3.960431761251338
-4.788145099814225
0.07616122829966908
-0.03659839918614074
0.01298870351092892
-0.05255153259753485
-2.382860733634758
1.02355583281783
1.111653732926985
0.2476511679388424
-0.5378076718351353
0.5361312359969824
0.09414901717721959
-0.0924725812869204
0.0195370059345539
-0.2869289220939876
-0.3630799554450429
0.6304718716131843
0.1144691354323656
0.08005739591657865
-0.1533037709363176
-0.04122276038684398
1.639492303760658
3.023241111985674
-0.9767141540007431
-3.68601926157561
-0.02378302832145304
-0.3886351951909225
0.7067926432052281
-0.2943744195908805
0.6320477079050369
-1.938395203576585
0.4075524319491307
0.8987950637853245
-0.02115518280159443
0.01040583523828748
0.01074934757612489
13.78969384276795
-1.019205374112489
4.738633957524161
-17.50912242627651
0.7362917056946574
0.07031015205213489
-0.03677247748645606
-0.7698293802332057
-0.1868448492444305
-0.5333549136249978
0.03980527917294971
0.68039448372568
0.3148927557328002
-0.14425081793525
0.1047857004696177
-0.2754276382275195
0.005942666152621389
0.0778261124376162
-0.07124319806138388
-0.01252558050813531
0.04096357265442251
0.02434019578158966
-0.06530376842503256
-0.08056358397196467
-0.5345704755563453
0.3584002713261879
0.06426601064637044
-0.04189968806576554
-0.1112715057798693
0.08890518322038832
-0.06809826539633426
0.06209596907246297
0.006002296341025579
0.06201128213760491
0.4308140744721535
-0.06013070679967572
-0.4326946497781157
0.04524693472029526
-0.004007852649331223
0.07821026410192729
-0.1194493461582218
-0.1158339308489431
-0.2327176983464634
0.4632875319460666
0.297508762266102
-0.01153217142656093
-0.0335257538922898
-0.4608179804264931
0.5379329190387816
-0.04358918468840636
0.1645425161029986
-0.0236542110363585
-0.1727389905254553
0.03185068548960704
0.01260323565905346
0.04677062615823441
-0.01894992243177275
-0.04042393936764947
-0.1123182744664799
0.5293541623155411
-2.085281111996676
1.668245224221916
-0.6484459788414448
0.7785417826972759
-0.1330033257027948
-0.1511734758741111
0.1968248365610724
0.4198962532564227
-1.177060709840772
0.560339620063987
0.4698826869052681
0.02068948824115172
0.06505943828621581
-0.06063585191759909
-0.02511307459277028
0.04383900265015393
0.04705359026994092
-0.1890361483477769
0.09814355545061297
-0.6197885088130947
0.5898583233862166
0.2325274460024084
-0.2025972605555166
0.08249882505960501
-0.03643319028617911
-0.1071659498262667
0.06110031507216354
0.1009699749232872
-0.08960465574860224
0.4834730838380527
-0.4948384029996234
0.06267591112489743
-0.08068391240627722
0.117879707226959
-0.09987170592291392
-0.1020347606301159
-0.1487872468264983
0.3808645677304132
-0.1300425602732656
-0.3244788313865272
0.4753910580365324
-0.2529469872827881
-0.0326402297807807
-0.038171311595168
0.1472061697776004
-0.0763946283840016
0.124738458757934
-0.04798839557035497
0.09114923471893158
-0.1678992978815659
0.09029740535422712
0.005593792577989462
0.004302603525112564
-0.1001938014436916
-0.06765851985795367
0.03425719845519568
0.1333143508113014
-0.09991302937302096
0.4364844867669063
-0.5318751242376746
0.06603411534686356
0.02935652213651603
-0.4317506275397707
0.6584524683462964
-0.2274317744074143
0.00072993362990411
0.07831340537780646
-0.2299044526319226
-0.2025988423342537
0.3541898896106072
0.05589762372447823
-0.04954099365181538
0.08490332760402922
-0.09125995766052405
0.6194906956908949
-0.3610980014147282
0.2920233550095576
-0.5504160492243128
0.09170081824628956
-0.08503994294063848
-0.02240100175474729
0.01574012646990585
0.1153445598735441
0.320320809234392
0.03421731783179123
0.4585151888143811
0.1929606070751521
0.7000101069012027
-0.1140451650640638
0.2164837600110511
0.7890810265630395
-0.3055546796395567
-0.2343934211585181
0.1389358537430732
0.1903313940913453
-0.0948738266526752
-0.5321561215511529
1.306810342597204
-0.5602468078547989
-0.9009193764565219
-0.03363574870247311
0.08767879550397197
-0.02046282829247328
-0.03358021849379367
-0.1385515492852685
-0.5239721812434653
0.36505390186397
0.2974698287738745
-3.186979580367589
-2.984063829528242
3.801573098238743
2.369470311558174
0.3257641064638273
-0.3141041804718966
-0.5721463967328256
0.5604864708016588
1.822297036519724
-0.396748091523978
0.4734146869671657
-1.898963631962297
0.3508323257568761
-0.5301484763956787
0.2382407737313815
-0.05680869251819998
0.3333812166112308
-0.5386232166561864
0.2620506925803953
0.1596765725078311
-0.1670581927516312
0.0792297489509052
-0.07184812867968957
-0.1271937493659458
0.03811398433140538
0.3191899158008369
-0.2301101507423569
-0.07526705248166193
0.01009169438804374
0.06423109637176981
0.0009442617378848603
-0.2088306781959203
0.0243291383201352
-0.02124806628030945
0.205749606181893
-0.07433391516783079
-0.5158483899399127
-0.01653340515370939
0.6067157102961031
-0.1643810246168249
0.1035656131963613
0.06081541143121388
0.2254467910961971
0.0241337023178377
-0.1673855752982427
-0.08219491807940882
-0.03214646146636479
-0.09559207357150223
0.1549556883909445
-0.0272171533327795
0.1968320913670377
0.06050188805746932
-0.08868402307419164
-0.1686499563277958
0.3134024760390397
0.211355461594288
-0.6951052250871054
0.1703472874949442
13.67364404399955
-9.151054020197208
-22.4973211440031
17.97473112011761
-0.5842898672108269
0.02297788660197215
0.6191294463041753
-0.05781746565204127
0.1138402720463773
0.02912901353582679
0.01189979415526368
-0.1548690797073498
-0.07110923669126087
-0.5312139622443165
0.6102463357183451
-0.007923136764122728
-6.791472293663845
-5.44025517702683
-17.47118076174667
29.70290823222152
-7.644358471085354
10.93968953675102
4.211327662104086
-7.506658727696889
0.08765785239029891
-0.07810802159500012
0.04397703042413017
-0.05352686119970292
-0.4719044873615794
0.2326549655373204
0.07949298971609263
0.5383707622655757
-0.09834072571833773
-0.5195230262294842
0.2346158349566928
-0.1206090464488089
-0.2627940353223235
-0.2869218784317573
0.5041259454538641
0.4267939545438145
-0.6439980215085753
0.01470171248943116
-0.152185354071095
-0.4474065193995249
0.7586229012650159
-0.1590310277521419
-13.61889737473209
6.125405315826868
1.06695257512154
6.426539483690328
0.08461149069844277
-0.005498266738940803
0.1679172455732631
-0.2470304695119913
0.07849848567456646
-0.06674331983701506
-0.01175516582362025
-0.09796129882303954
-7.30881775054282
7.406779049226
0.3923863836352564
-0.3683394624138411
0.4804799310242791
-0.5045268522186153
-11.19159496005891
10.59668870744775
10.66617817520306
-0.04171599498031815
0.5282513957975928
-0.08973499201791167
0.08743220041564552
17.97956329935905
-17.90858032458792
-0.07098297482059387
11.837761729153
-22.94290515621207
11.1051434270573
0.8944225966414854
-0.1400059175790279
-1.554414825270443
-0.07767891177993939
0.1315316526175787
0.002676612316100106
-0.05652935313900567
-0.1148274218608842
0.1786794270978549
0.2293105688410594
-0.2931625740735071
0.4724236869214864
-0.4439297399682267
-0.2017060364081167
0.1732120894745924
-0.1311762076502486
0.5486199889647297
0.4368881846685419
0.0963313494399813
0.05974016335537637
0.4904587678519554
-0.6067160596899158
0.0237847105847062
-0.3085605524907599
0.1025301985418823
0.08542130750734424
-0.5530506687797889
0.9148014503161661
20.80302148300617
4.751992350951631
-26.46981528422454
-0.5846117413791015
-0.2117715773629596
0.4933550896006985
-0.4066326563146931
-0.1401570550615365
0.05343462179807579
-0.0476431033068013
0.1941747808133036
0.02127189792348273
-0.1678035754165401
0.3400025928355014
-2.642298907626377
-9.533777070335354
8.946795056814089
-10.45486199146942
6.250917959749297
1.561645124008418
19.45563158675619
-9.204544790062149
-10.25108679670962
1.133762413164708
12.35309005553872
-12.82363235061742
-13.655651347166
5.84521075733678
21.11988851349605
-13.30944792365861
12.54501107830179
-11.64814199482344
8.506310302989149
-9.403179386438225
1.161320839381099
-0.6126468942013463
-0.256650590101575
-0.4841425179291314
0.582681895190677
-0.1402553722299939
-27.3170437924494
10.01407002446834
17.30755120995893
-0.01694858400538559
-0.1340711987801763
0.1903933771668259
-0.03937359434992828
15.90475373405215
6.74061446563768
-38.26923196317914
15.62386376351354
-0.06193236432999871
-0.6085875485308637
0.04985134753496309
0.03400987803037243
-0.1447497832499479
0.04611487522036355
0.06462503002252808
-0.003621039101559912
-1.653082504667442
-1.983121039271071
3.940300575567192
-0.3040970315271767
1.847016523924013
-1.186523752561684
-0.1134999953051798
-0.5469927760027936
1.380435499344473
0.1003331890965126
0.4823848895714733
-1.963153577944051
-1.146263383139314
0.1338435164754132
0.1797861140347962
0.8326337527384114
-0.09898770880370075
-4.719279821939452
-5.2070295766509
7.386700850461639
2.539608548182122
0.7372885716827188
0.1856359713858429
19.38831815095516
-20.80549313210316
-12.23847636594957
-0.1731223065066514
0.4588370153171392
-0.5150198748162137
-0.2897497996298493
0.2807974932641457
-0.3877354635239725
-10.11971697029783
21.26916834349857
-11.14945137325004
0.763194267791295
-0.587115483716667
-0.7082349055735627
3.887585183072427
-0.040948198608843
-8.565916806367746
0.06432045735004488
-0.02614635476466112
0.04552476004889254
-0.05032626567133097
0.03094786039425539
-13.82448294366739
14.94219750029163
-0.1918799525730442
-0.01562451093873399
-0.042113849050298
0.2496183125977266
-0.244680896825859
0.00453542335707379
0.273971434827997
-0.0338259613370185
-2.770075930879162
3.54352811172383
7.195041119659231
-8.775406198877066
-3.207780020641098
3.932854069351792
-10.13119454042377
3.428264540106253
-0.03653257255422276
0.03048928592505506
-0.07824308346106833
-25.25849758280564
-0.03924490850814719
0.1189504492446186
25.17879204197307
1.863695330738597
-7.855799853641139
1.65893319121818
4.333171331931192
1.89383298724195
-0.4045736371581771
-2.941070541062536
1.451811191059128
-8.729134048955201
3.885934652899038
36.31396424566467
-2.957474630321329
-8.479132143753775
8.166279673144281
-0.7832828221605214
0.05232289227830164
-0.05629144581232563
0.7872513757243513
-0.05923518003949579
-0.2729703558823187
-0.140800189321876
0.4730057252982485
-0.356422324915272
0.173854250263997
0.04307319542295856
0.1394948792719315
0.02738420457661501
-0.02144153840923096
0.04464201186153082
-0.03821170895709564
0.1671215282990105
-0.1735518311778465
-6.540236465901605
6.584091258525217
-2.952214073540801
2.908359281025429
0.0005614829350523052
-0.0005029415328055314
-5.854140077856022e-05
0.0005614829358321296
-0.0005860041630820229
-0.01261746264059979
-0.1222388044886684
0.07384794108806295
-0.01482452089974893
0.07042363624439316
-0.1294470564094761
-0.1651482151568601
-0.3052820348785908
0.4374043628767019
0.03302588718859603
0.324738910678673
-0.485651951959249
0.05837098331025131
0.1025420579821558
0.1660976033150439
-0.2551327743097848
-0.09296029237089759
0.1819954633898308
-19.58397633316553
-7.736316599776687
-0.04971059170616941
0.1352489619722362
-0.003224268979242982
-0.08231410126297142
13.01873057475452
3.765050181471007
3.310620343668207
0.02075122799783382
-0.3596555916483826
0.04410199901401356
0.2948023646690198
15.32336274375788
-13.98959375983082
-9.711782001525721
8.378013017594188
37.7498540812645
-19.6615222321652
8.116608619100877
-26.20494046821204
5.270948969054011
14.78516231191331
-1.457134068762212
-18.59897721223444
19.59800511356837
2.865065045322924
10.96051271085804
-22.80942719745963
11.8489144866309
35.21188422643589
4.932936244033034
0.5864009747699834
-40.73122144542092
-0.07648108058998102
0.1322595725395463
-0.2444286442473642
0.1886501523328029
0.1916688031217481
-0.1427203856487823
-0.620020048872101
0.5710716313968023
-0.1377838353640354
0.2860018389876978
0.07550385673431168
-0.2237218603234166
-0.06480371381704293
0.0001881554023348754
0.0878961936575874
-0.02328063523563201
-0.1227584213187805
2.003957117952018
-0.3865954582045663
-1.494603238386786
0.2753794684002208
-0.5238293132312308
0.2152496720213053
0.03320017281696044
12.22858893041332
-5.704287124628883
-6.524301805831868
-0.2325961299503766
0.132984087146895
-0.04912816212710969
0.1487402049505676
-0.3490213751474805
0.4923408628213635
-0.2106980761775989
0.06737858853245203
0.1334258023421532
-0.08878379047204404
-0.06060402154686547
0.01549501589201843
0.0451090056636284
0.6560634355593109
0.510292886517838
-0.4990694608445083
-0.6672868611268915
1.922539131680314
0.3833221551780884
-1.072208958738438
-1.233652328030279
-0.139110441285915
0.1049042940803346
-0.09757765031010707
0.1317837975370564
-0.05370220101127354
-0.1326089394855202
0.08728936394701216
0.0990217765714231
-0.8297276130319707
-0.768747833174467
1.730225846543497
-0.1317504002918487
0.3604870745717038
-3.870045077842298
3.327455191413361
0.182102811988121
-0.8367044596356525
3.408055185498851
-2.602553791432704
0.03120306562470145
-0.4748941570794007
0.2344133531076086
0.3045733804281688
-0.06409257642463707
0.1805304718953513
-0.3238444583281088
0.5221805290009446
-0.3788665425326075
-0.06700920283156815
0.077712165275008
-0.01070296242731712
0.1383028244108799
0.1342068598761291
-0.272509684282331
-0.06537789847518784
0.00308510928549394
0.07487129069290417
-0.01257850148752733
-0.05696508187382664
-0.09647955970687989
-0.1071903055154022
0.2606349471305893
-0.07659644170054798
0.110935718904404
0.1723632272665164
-0.2067025044480199
21.18265017397539
-13.59986966593581
-13.97375437793971
6.390973869827115
-0.01414965725461233
-0.04838545156177013
0.0009243143048384868
0.06161079452927476
-0.02688210464077013
0.03668820812566502
-0.009806103478960087
1.973009068806084
-2.579245521140438
14.14279110777648
-6.800819981953064
-7.341971125880476
0.05786704581944191
-0.1098253673317803
0.0008696455845258431
0.05108867594545457
-0.04967633098567679
-30.34311133332604
-0.03095674541820034
30.42374440966732
0.1107609981026091
-0.07009144121550202
0.2116384387329713
-0.2523079955989795
-0.04857958983683002
-0.02607428500573963
0.0672797385934283
0.007374136262637289
0.06701035435042861
0.6053634935746808
-0.2465516629643319
-0.4258221849024849
-0.05790197383063857
-0.001857131235449484
0.05975910508185778
0.02302153343081651
-0.01947327446214369
0.07246775274569212
-0.07601601170005946
-0.00425041590217831
0.03081137487340574
-0.01771252736388573
-0.00884843158876825
0.04647005394770672
-0.02699500323485798
-0.01947505070044977
0.003116995563067773
0.06703921193360017
-0.07015620748217327
-0.1408267755476929
0.5700447007073748
-0.4056490924629416
-0.02356883266261935
-0.01023707372706761
0.08433971200425683
-0.08523742379532884
0.01113478554160151
0.08757119501058745
-0.4345025959082147
0.4169690455428234
-0.07003764459519789
1.229692042836816
0.5309385395358553
4.222161673783996
-5.982792256098311
-0.2837229905003582
0.139459878133535
0.04350386053456436
0.1007592518557092
0.1011031032686338
0.01062732523010745
-0.1117304284775819
-0.02467572811028918
0.1403740227050259
-0.6142715873758924
0.4985732928195299
16.45230701520794
-21.10009078557387
-0.07304322057281837
0.1461805164751575
-0.0006846873745524833
-0.0724526085120739
-0.4925728346186863
-0.04587984597126288
0.5384526806663682
1.565005817912752
0.6161134227745658
-2.261581373279063
0.08046213257942372
0.8231268639184646
-0.05464216069006445
-0.674713396621365
-0.09377130657999552
-0.2336457022477923
0.3066465508573718
0.07555086631462039
-0.1485517148945339
-0.01744373583423358
0.3661837729202372
-0.3927265066740087
0.04398646962797077
0.1336742220795033
-0.2863000983605877
0.1580115462482901
-0.005385669949659755
9.82917991964921
9.955804809407327
-0.4493739388660462
0.2354449660577933
1.027698809735103
-0.8137698369061547
-0.2245520451625819
-0.4378620704281627
0.5900045773968553
0.07240953820105935
0.01026330283334613
-0.1457796894035254
-0.01724054832397457
0.1527569349159857
-0.2739733269428816
0.008005928276862369
-0.006066985573434608
0.27203438426327
1.435431106987369
-0.566721165334602
-1.675621363365283
0.806911421779318
-0.0273502697019583
0.1227825441562892
-0.1074759794374054
0.01204370500799208
-0.009820712859091548
0.02642719152334913
-0.1060554528511578
0.08944897420005191
16.12996521122606
-23.66980193653737
-3.148159814426997
6.285919083423268
23.05626978384426
-1.386712643549191
-0.190277431178749
2.176074612371075
-0.5990845376039875
0.1649568797745103
-0.2618089678466712
-0.2465691981744018
0.3434212862632176
-0.08989050424131458
0.01275233070066416
0.0295622863126429
0.04757588724742659
-0.101584196518695
-0.003000189310491569
0.09641594164065521
0.008168444199233651
-0.1330192274666263
0.1840876910387143
-0.07561141246741605
0.4794882443482029
-0.1872836533417035
-0.3923664831345365
0.1001618921578351
3.202075502182384
24.66419243960611
0.08668945879167736
-0.04692817540781673
-0.2423530072173316
0.2025917238610239
0.005608327636984232
0.3855769103938831
0.07623034808187587
-0.4674155860789707
-0.4754900107806654
0.07119295732756631
0.04925787214085475
0.3550391813473672
-0.5197651237403825
0.05326242569891469
0.2568672473314464
-0.6142512738750234
-0.04723643892853605
0.7075475195269114
-0.04605980661894041
-0.02559602140766434
-0.2416884966705172
0.7382076348915297
-0.4709231167471022
-1.629203813474695
0.1231160653773717
1.50608774810037
18.61068109419619
-7.372007752322577
1.780057232894514
0.1578844847658194
-0.2720109826108115
0.0473390842179749
0.06678741366447899
9.003713978325555
-32.49420640614365
32.21105567066114
0.03760078556557298
0.06996427383415454
-0.06372605673613513
-0.04240837677625432
0.1485052003389832
0.0004889636625247942
-0.1065857872030412
0.06437831205277234
0.03178790347241326
0.04321161177346881
-0.1393778272809764
0.03884857478668621
0.2633840000871783
-0.08101791550625533
-0.2212146593447788
0.4195896402731689
-0.3007364365309047
-0.5114176759370093
0.3925644722286678
0.07621196872344194
-0.02810323912764004
-0.07482514039201962
0.02671641080850098
0.4695300334967638
-1.097842425887876
0.2439054010744207
0.3844069913915563
-0.1033191078651418
0.06124050643149922
-0.03096461913042473
-0.07005342121182052
0.06176010231400909
-0.1137854017543902
0.1220787206610378
24.13814317563968
-12.90656773581889
-20.73992778732199
9.508352347482296
0.1932877296250674
-0.1759544759750254
-0.01733325363428814
-0.3176565816207882
-0.04069845974487717
0.4588332804916249
-0.100478239109637
-11.60410297260922
14.86147713550157
-2.127072385564636
-1.130301777225946
-0.02173767624080091
0.1169812183893857
0.01957890820221038
-0.1148224503339385
0.06195848101272469
-0.1768909422989981
0.1021866031815645
0.01274585812309854
-1.287157084375651
0.9601898773941179
0.4446518195992737
-0.1176846125884513
-0.02254646678026294
-0.195061113292104
0.1933717224282657
0.02423585766474478
-0.8473353150521319
-0.6286265461932857
0.8633149670790887
-0.9833401299872617
0.203244082683053
2.551581210503951
-1.771485163217204
7.135219468150375
-17.44150705567692
12.27620165843781
-1.96991407115838
-0.1091631211687761
-0.5350706160152873
0.7502648547484899
-0.1060311175678271
1.57550094793203
18.29144093979848
-23.45937040318888
-0.04625887505627986
0.09033063942734276
-0.02997345643534826
-0.01409830791987797
-0.5058634026910107
0.3013033426315014
0.2346305516332231
-0.0300704915453504
0.4982692254085102
-2.15170915203778
0.6840844481935917
0.1791114622136395
0.05827773172329662
-0.1599707890290628
-0.07741840488264634
0.4932577559080516
-0.04349081375097055
-0.4842522797720221
0.03448533761101081
-0.102262208860302
-0.4108844695621869
0.3306627380114159
0.1824839404430489
-1.724488151074972
1.712125755328166
0.01236239576812184
0.1212972280964848
-0.1238622328139674
0.01811147680532782
-0.01554647206448122
0.0196070969779357
0.09281003357705361
-0.09259358899088416
-0.01982354154683975
0.01822118641861975
0.01625605700919607
0.1140229962242628
-0.1485002396354263
-0.02009443834388189
-0.0662297843876009
-0.04485281843357247
-0.007162389591026873
-0.2785364397050575
0.06854511700680102
0.2171537123066928
-0.1450126468569395
0.07649212226354372
0.1122352320876353
-0.043714707478853
-0.1411149941069803
0.06902547859224124
0.1486003834014215
-0.07651086783298669
-0.6000944263391761
0.7197946622768813
-0.04818518105338388
-0.07151505476983086
-0.006208245828904797
-0.515345013568158
0.1043007382041674
0.4172525212006103
0.008744968739097379
0.009774318870098872
0.1451237611250475
-0.163643048724847
-0.3090201485595366
-0.2093518033904063
0.4307287752900018
0.08764317670426748
0.0003120270707134678
0.1781642536825078
-0.1590704430758616
-0.01940583764336612
0.009697901247419188
-0.1423745271103109
-0.0253966863229245
0.1580733122041661
0.7246278049528087
3.89831935538928
-3.797142406873896
-0.825804753164224
-3.948489897434283
-40.86561493638403
36.52315185022952
8.290952983577371
0.06782887602273431
-0.1567087031549225
0.08063525444226792
0.008244572706548907
22.78746747364292
0.2536481666547593
-23.33823186015702
0.2971162198284662
0.1496367388818379
-0.201448584500621
0.0442545841544932
0.007557261492339451
8.171971901593674
-9.816102157662209
1.913331064535439
-2.850317649142714
1.273514703743721
1.576802945422841
-0.1093079562260124
-0.05033959550142712
0.03118650377378011
0.1284610479779563
-0.04899998265275608
0.0415393980302327
0.007460584637619188
0.1277232811534287
-0.06731628717922158
-0.2396559011297961
0.1792489071823551
-0.006407761026804586
-0.002217559434058536
-0.06227960025161081
0.07090492072215933
-0.01422864696500662
0.09516086665702678
0.01070559343155076
-0.09163781310323295
-0.06931188524933898
0.006847701065516497
0.1681316397122514
-0.1056674555072559
0.02361820278558156
-0.06826376270444037
0.0341951021325267
0.01045045780647298
-0.07001847519003547
0.00083562632240234
-0.0003316097471533057
0.06951445863112339
-0.5438608338384683
0.1070997492309334
0.4367610846251704
0.1181071675182076
0.08421439414176735
-0.1689860739064595
-0.03333548773571098
12.53424313805331
0.7152565612734086
-12.73538649933745
-0.5141132000729836
0.1790602376359476
-0.1204509775016954
-2.240185877505221
2.181576617429396
0.3200976884439282
-0.3583184240232029
0.5127112386313083
-0.4744905030174505
0.6483881906007805
-0.4438365178301543
0.06055826699374945
-0.2651099397360639
0.2728596655036675
2.19852934142201
-3.731669797415529
1.260280790604473
13.21620401183417
-13.33015114637991
0.1139471345260804
-13.69423536259918
-10.39436079594702
10.26411321476484
-0.227021207501414
-0.205040933293135
0.3805422552931987
0.05151988554137454
0.4016238150674689
0.177891733453735
-0.5795155484511216
13.63009303628848
-19.32747294500448
-0.1686673765242565
-0.03609867049769236
-0.1916914356248683
0.3964574826781807
3.393795056292873
-1.208453768481499
1.704873615060578
-3.890214902993143
0.3963067350996902
-1.00143435575558
0.4830307920537275
0.1220968286597932
-0.02339021065543342
0.001569697724743219
-0.05939030264803573
0.08121081559804982
0.3904875751679772
-0.4759452479356616
-0.1021000304250488
0.1875577032071817
-0.2710119417158193
-0.08408157026720582
0.2531291069990506
0.1019644050134842
1.304436391647934
-0.5266257556178737
0.6576204710082556
0.1396101126691143
0.07223594825306349
-0.1111903381614089
-0.1006557227421613
0.2287486877851913
0.3195248996425451
0.01389755966988861
-0.5621711470809936
-0.2466975142504207
0.221423366521536
-0.003998065106016295
0.0292722128755759
-9.618455716731713
-0.5483321880373698
-2.63531982281672
12.80210772760728
28.03460857049416
-0.7200561090791538
-3.677035850474412
-23.63751661092247
0.0005064588738305828
0.1393382086299928
-0.06148165357365855
-0.07836301389442141
8.305768030211819
-2.367530223506308
-1.349055054613648
0.7091578650050726
-0.4159262355001115
0.2495427487059025
-0.5427743781486347
-1.213842498156805
-0.2271341017292311
0.08320281523188382
-0.3446369183394907
0.4885682048781388
-0.09874590056047977
0.02659281437495141
0.07215308618862874
0.3237426109665047
0.09721881527903177
-0.4281238158160593
-31.9154151468368
6.989323384566307
-3.471850221411578
28.3979419836636
4.329602813023548
-0.6993308030948556
-1.788383946641247
-1.841888063305028
0.04768774117212835
-0.02083671586354143
-0.02685102529436529
-0.1884590715582324
-0.005163665793159777
0.6135562580434062
23.60742567171014
-0.03375503053951759
-0.07569546641411358
-23.49797517488097
0.1941059414323717
-0.01271956982902572