/*--------------------------------*- C++ -*----------------------------------*\
| =========                 |                                                 |
| \\      /  F ield         | OpenFOAM: The Open Source CFD Toolbox           |
|  \\    /   O peration     | Version:  v1906                                 |
|   \\  /    A nd           | Web:      www.OpenFOAM.com                      |
|    \\/     M anipulation  |                                                 |
\*---------------------------------------------------------------------------*/
FoamFile
{
    version     2.0;
    format      ascii;
    class       volVectorField;
    location    "1.1";
    object      U;
}
// * * * * * * * * * * * * * * * * * * * * * * * * * * * * * * * * * * * * * //

dimensions      [0 1 -1 0 0 0 0];


internalField   nonuniform List<vector> 
19631
(
(5.0418581558727 0.03948843000537844 0.03821159629365428)
(4.924736082448826 -0.01150680818312997 -0.02226880699528419)
(4.989878592015379 0.04006507019485848 -0.03041532827812154)
(3.18197550976355 -1.616296586770459 0.3259419765676627)
(5.066064290730887 0.09153061433498273 -0.1036835283645189)
(5.066977249681542 -0.07844016622147036 0.02648296562754038)
(4.983125933904327 0.007419889367665258 -0.002373392840227176)
(2.201152804011133 -0.04909331371484302 0.03786644800728951)
(3.92906730596848 0.7851377490118082 -0.3662304228933868)
(5.010529042785626 0.01105081458842637 0.001405309228265072)
(5.011940028034153 0.08813774250936884 -0.08954233174449246)
(5.086862554002453 0.001103833874673012 0.02270290268797725)
(4.323288253913335 -0.2966224933641403 -0.3317271026310321)
(5.097779861198683 -0.03985357690587137 -0.008032959167661469)
(5.002082482730363 -0.002368943204786248 0.001221947667093888)
(4.995929732010937 0.2054371833015123 -0.1453962151892224)
(5.103998310874982 -0.06727236756321016 0.02788605556766248)
(4.580280891073778 -1.355084305340552 -0.4763097146957579)
(4.609842544914006 0.144993242827882 0.3282878943310981)
(4.525374088630522 0.02902704600579149 0.154807734379513)
(5.031003550484643 0.0359147418593915 0.01981785071023444)
(5.085512645445686 0.04658124792363254 0.06726989308231152)
(4.449583488918336 0.01386423221310813 0.2824586510794111)
(4.985753547433286 -0.02457932957892517 -0.01231339959876396)
(5.122884508752286 -0.02121419105877339 0.04533602026371576)
(4.990731017014599 0.0495551091780842 -0.01043678215768488)
(5.108966285658956 -0.004197742215909318 0.05722242190976005)
(3.903389256778287 0.06059676116961429 -0.1369851611760538)
(4.952732621226791 0.299725473552344 0.01234999532976884)
(5.003832955130461 -0.00340957420267392 -9.264056722746565e-05)
(5.095754623783679 -0.008721754549287383 0.05529185152875928)
(5.092882393580487 -0.02627744970219103 0.04753088816542456)
(5.017436431378418 -0.03485790480865226 -0.09606379464978657)
(5.044134709918237 0.01363384119791111 0.04314598128083706)
(4.374954622157039 0.132796020397349 -0.3511339754414976)
(4.365536580332773 0.05627360356604158 -0.6115848036631736)
(4.94201940377886 -0.03857975724444664 -0.002493244084875243)
(5.01581743550095 0.318968962182104 -0.1468484413385264)
(5.142464144286276 -0.09725743776472179 -0.07242546897710619)
(4.994240854634446 0.2923386454719933 -0.2390897785764206)
(4.857084557321161 0.2685822065122656 0.3554999144265001)
(5.019235171766878 0.03088723168271654 0.02284737585854837)
(4.998185808762961 0.004670517203670697 -0.001918780514705563)
(4.979051823484144 0.06401885882285503 0.04188947266277475)
(4.513592582511114 -0.2090118790883335 -0.1372153879542305)
(4.75714565176926 -0.435573430743249 -0.3602361831553298)
(5.003480626189009 0.006601470790370297 -0.001296403180681689)
(4.997747771113041 0.05341694448305383 0.05759462335125665)
(5.046404373549745 0.03824810185136896 0.06027413110714586)
(5.102118119730921 -0.02328794300935748 0.06564759697330663)
(4.784671589694408 0.03394148515756633 -0.04148166834979595)
(4.76028129932276 0.04554736491554702 -0.05793929228898026)
(5.093748075726981 -0.02416232402364132 0.05864635791150687)
(4.354608197647181 0.5887938125977561 -0.1009713245428416)
(4.989750028575183 0.01334798555310871 0.1210323663876526)
(4.795922309984911 0.2582414755647035 0.3822798816450079)
(5.112519488217768 -0.04350493331009829 0.05685945630990783)
(5.105932032244668 -0.09822609039249927 0.0461195434333228)
(3.9383425187493 -0.08212309259540659 -0.4158583296223434)
(5.001960349445014 0.007538932231341263 0.004356462303799919)
(5.010719426691616 0.00445539491370131 0.00381395367757836)
(2.470057345250491 -0.212448118807687 -0.09012214273503692)
(3.510653796092346 0.2328675846440961 0.06753053198429626)
(5.012571012159595 0.05382373634060316 0.001646661972284788)
(5.080397901605087 -0.01636789509629507 0.02148104992851912)
(3.287817580709732 0.4090153600683278 -0.1397538247617669)
(5.082839844982061 -0.01723572212082355 0.03571210129980271)
(5.093658582908718 0.0161321164476078 0.03472771744168043)
(4.947983510836068 0.09377451558231673 0.02937054822408708)
(5.013357092536545 0.004875445262137915 0.002020574791043238)
(5.011322552619982 0.01016135658602066 -0.003483803260770253)
(4.118723354400299 0.5860507140293978 -0.690656995005133)
(4.99041383326566 0.009876087707579102 -0.05439479016694933)
(5.076845524530371 -0.02625901741735211 0.01896420221934223)
(5.123129808711825 0.0002183593284733532 0.09086971254026542)
(4.981016503484827 0.05709741553185495 -0.1606124427085804)
(5.014450940582791 -0.04013521124176832 0.01280785435879469)
(4.989374733598022 0.1205201541723655 0.05668771597959011)
(4.757276984140117 -0.09092687559605443 0.0440914544081795)
(1.292997117954951 -0.1775940481653442 0.09341935564664378)
(5.007133300720017 -0.02525861058591485 0.009254556619215943)
(4.985136638254641 0.09490076492070436 0.04692948054856838)
(4.953544944779432 0.1388784590466913 0.06488005414234559)
(4.999840699730434 -0.003647333112643011 0.2043142575459181)
(1.957990655910924 -0.1206107589338088 -0.2674281778153873)
(2.235075526116936 0.03469898005048487 -0.2074365755369411)
(5.08998935240385 -0.01897355982516629 0.07009374792447898)
(4.986853963710702 0.05355902516829642 -0.1606178287940715)
(2.491670543843005 0.1387960830248696 0.1426063620636182)
(5.029089694773777 0.05601648405557294 0.03618148412843868)
(2.750823042090647 0.1781611969018873 -0.225463445354954)
(5.093824028609824 -0.03043774213002034 0.04327990121674077)
(5.088927896377857 -0.004814569771493867 0.0545599930055088)
(5.092092544620122 -0.0239474855217044 0.02743780698123335)
(5.0743315506044 0.03724495228670158 0.1530276578432212)
(2.377189672874011 0.06264129401700179 0.1258777589407462)
(5.073823977600063 0.03988461772335372 -0.07251504875820566)
(2.773204259387933 0.1942654183787587 0.1892499735541388)
(5.091869203024563 -0.03669080230106096 0.006414257213875642)
(5.063637488255815 0.03221279780127212 0.02268128858676791)
(5.077834290504436 -0.03853260974202073 0.06718604974235709)
(3.455744745246815 -0.1671169672270657 0.1409181139120187)
(3.615029786028287 -0.2195569843474052 0.04221897319317867)
(5.030937970890478 0.0622580737120115 0.02401291814264789)
(3.933954820486981 -0.06959273305168141 -0.1489142657519061)
(4.640419593719121 -0.05387342079091072 -0.1704281324255625)
(3.524346166566475 -0.0003822839408673192 0.08479613829384763)
(5.093273936255807 -0.01937348734425791 0.05514259820695018)
(5.085574954649025 -0.02489327850973653 0.04724692182623055)
(3.868807230255814 -0.2025654340509558 0.1293971872398751)
(5.04365291007015 0.4345509162001204 0.01177465579256278)
(4.944336613737586 -0.175177585751081 0.03704537134387568)
(5.155509422309819 -0.02801408766183086 -0.03458449954517618)
(4.664000577728109 0.1704380398498448 -0.2404510031866613)
(5.052601276222748 -0.0006784776993209768 -0.03354405145039347)
(4.97505173017288 -0.3499678092278004 0.03489463347928547)
(3.556603245209089 -0.1419343325273882 0.6370338716745112)
(5.090949247116238 -0.03104052937721227 0.02391200379204067)
(4.886548468865057 -0.2806707913069073 0.5735416062369874)
(5.072662706722876 -0.0226733288699697 0.01584542642613359)
(5.080793676576786 -0.02796707325361123 0.01963877284124053)
(5.081251548473044 -0.02408544023106438 0.0101381169859921)
(5.084827268889796 -0.02867894470946886 0.0002363272573848829)
(3.873245211678145 0.008206499539368146 -0.3106063836158453)
(5.084249130985994 -0.0006730266854928755 0.02676802604886524)
(5.068211749720558 0.0002150561618222819 0.03370031856772735)
(4.965430432945283 0.2016747127382633 -0.1179120441782152)
(5.082286071196039 -0.04188950643910413 -0.01227165723643703)
(5.01611320606969 -0.00186829105620183 0.003919747196601999)
(4.547506675611092 0.06234022149021359 0.1529429989056481)
(5.034153857237563 -0.0001370493578193989 0.0005300977850163531)
(5.017826204237953 0.04068096906189304 0.04141295673718134)
(5.101319125712129 0.08556445607331178 -0.136064104030791)
(3.355052258396817 0.2432348219209589 0.2259208579204868)
(5.028972290215143 0.09287357933687568 -0.0445735332031001)
(4.089461310929972 -0.6332962346807801 0.2832837826303096)
(3.740848278389278 -0.2419836913889849 0.07297866766006561)
(5.125645852919887 -0.06081023849317337 0.04489631323209942)
(2.551779474445258 -0.7572649543582721 -0.8419850826869415)
(5.068437791507654 -0.04823130302081462 0.1012181429479894)
(3.251395841153581 -0.4931019056352571 -0.5129529154667118)
(4.652392503175626 0.1804515507609609 0.07924488993595637)
(4.461241033788999 -0.06739407305045311 0.03899965803456373)
(4.988879312449416 0.009806140586457932 -0.001887561852275492)
(5.12483005864149 0.0008076281855237899 0.0212569974797223)
(4.881649169301147 -0.2484750487834865 -0.05864554080186368)
(5.041515741550977 -0.009802536476215344 0.05030390103730164)
(5.013173518567374 0.0005192024945498328 0.003854661728966187)
(4.985233099359956 -0.001935484783902333 0.01795385988000665)
(3.023602809838806 0.004161232739098677 0.09532158179100798)
(5.090143636258302 -0.01059220512305875 0.06200327625252315)
(5.086094307898334 -0.003007460619853861 0.02744349908239358)
(5.087331419159659 -0.0006093737280458798 0.05350040677040668)
(5.066737875395693 -0.007449599376804439 0.02488096066882566)
(5.086679560647427 -0.01165400554687568 0.03941425559866141)
(5.040997256012332 0.05672397180940925 0.0998953891240031)
(4.987992320616904 0.007004617541767692 0.0008387477724052217)
(5.064679546860503 0.08713913070505999 0.2541350602382542)
(2.571224210825954 -0.04541930658497489 -0.02855083372050419)
(4.78690721737972 -0.006427323684551369 -0.002466161164489262)
(5.073981073044102 -0.005752606731711004 0.02561577460399826)
(4.994169977223707 0.01829093260102619 -0.004123864630859638)
(5.077091443960665 -0.006324990312768098 0.01359225951873789)
(5.083603731158328 -0.01152645961032923 0.006855480609321952)
(4.979583465563527 0.0184253298647792 0.005887414152164371)
(4.984802870052047 0.05170442358051774 -0.02117865220869323)
(5.092159106304476 -0.03442088074386754 0.02157224214704973)
(5.033625273031604 -0.004996238655872711 0.001926862060781167)
(3.536154232949247 -0.3483383994715684 0.09662238935731216)
(5.041103952152838 0.07049205214368774 0.05012352060255126)
(5.10478441193121 -0.08899860756622571 0.009190013558537926)
(5.092588099347845 -0.03560326901522006 0.002306652123675799)
(5.111204716134075 -0.06161785420385346 0.05642849491774232)
(5.0966095024216 -0.003799320256462293 0.04436360443548856)
(5.087941065157529 0.005034489542904025 0.09837686764442002)
(5.116548121744107 -0.03911013627639828 0.05499370637249452)
(4.999197943692532 0.01154160642270239 0.002130506355228233)
(5.083094558842392 -0.008400162316548575 0.05520381273719808)
(5.06124281384728 0.07937885642352754 0.1019455453705317)
(4.23599239668967 0.2099529096164449 0.515556353646284)
(5.098132364472561 -0.03870233939086115 -0.008602313960582492)
(4.998947718638683 0.007565912416671436 6.861028117108824e-05)
(4.996528268223523 0.009938845726701936 0.004979449828950087)
(4.72681076730957 0.09321815701358363 0.0827486236540812)
(5.011937507097771 -0.0003435701991204198 0.004811743576052195)
(4.971996612974023 -0.011467472700634 0.005028950834193332)
(5.008390662941832 -0.005126979580519089 0.01781281757061358)
(5.077137850562499 -0.01033937285935436 0.01402091709364582)
(5.094665718385313 -0.01229235110196869 0.03513699763808281)
(5.074743114694098 0.00584897173331335 0.0288715702361353)
(5.085482238971089 -0.01386137525646779 0.02192444837268515)
(5.004786728020275 -0.03193079940901454 0.08653834757074833)
(4.990235436525814 0.1382575504728668 0.2186572686874221)
(4.996170301393707 0.001697062529082555 0.002259098337781139)
(5.107622941305259 0.003597544066569286 0.05152165274845724)
(4.737891391926675 0.1865827477864593 -0.3291797675645775)
(5.086807949731289 -0.02006372021680296 0.05138610462353636)
(5.02281317049962 0.03262169484105364 0.02577121476067543)
(4.967456948538318 0.06209876693172145 -0.0353715801127199)
(4.97200357857951 0.05196594457866086 -0.0379972321506076)
(5.080238309111102 -0.01918358816683837 0.001401677592415269)
(5.08174023366217 -0.02493063866252646 0.007633589742802998)
(4.993589116493461 0.002919078399758431 -0.01793662429007633)
(5.086445109863942 -0.03539065112004401 -0.01192532626650352)
(5.002180562324557 0.005633576673962502 0.002326671461971534)
(5.094461039991111 -0.05530058024646876 0.02822620453166211)
(5.069573367433095 0.01280450699565435 -0.0007668545267928175)
(5.089751223856853 -0.007635522090582802 0.006682433033892029)
(4.808024973877115 -0.02101755464501051 -0.06987623616220023)
(5.071696476900864 0.01341003781308769 0.01531575942094169)
(4.980692375228728 -0.003152777774595892 -0.02573340693281568)
(5.080301788673619 -0.002614098378055615 0.02326067841721455)
(4.545542313379837 0.1247033996964815 -0.6099779816498099)
(5.019758250300668 0.0006858458538688356 0.01737136012726882)
(5.040157659157273 -0.03715724313803573 0.1113676363841862)
(4.342305387409825 -0.03722213058203662 1.004343629583477)
(5.013114924901124 0.005024812842581968 0.003453080722460252)
(5.008760132901233 0.003987435997357749 0.002545409437514213)
(5.014774499567724 0.01033080092283262 0.002946881977331459)
(3.990298867319168 0.01131187017986233 -0.1942293340630818)
(4.997969969025089 -0.01148808042848337 -0.009002021717670857)
(4.973373861030671 -0.07985562568339062 -0.05640471234485583)
(4.976917329775731 0.04413008133078038 -0.0311292316815973)
(5.000145606178502 0.0005566442342142729 -0.001924969323093781)
(5.021571884990669 -0.006974097884127508 0.002813215838248544)
(5.00508725187518 0.06978091385972587 0.04268838081784434)
(5.046127800095224 0.06249138991844599 -0.07033082163936623)
(5.046174468464071 -0.008524788555259875 -0.06199444538190411)
(0.8311715107625816 -0.1608244964943037 -0.2822564793601456)
(3.863086536829471 -0.02008556579797287 -0.09280825293041294)
(4.988618669312401 -0.003079284028443121 -0.02796880947611286)
(0.02178054604524494 -0.008340826561935992 0.03726117180209109)
(0.004785125889478658 -0.0504880680674307 0.02373750311444097)
(3.487149600049194 -0.1892998651988057 0.1268591578742796)
(3.790672197062185 -0.01725922482206798 -0.2753308093346239)
(4.941568307157823 -0.515740146208034 0.03940698232413964)
(4.377977782937482 1.174219679078576 0.6834256453560242)
(4.967978667525965 -0.0888400295572211 -0.06872952506417923)
(5.02705609929613 -0.1426655073946613 -0.1720573232167904)
(3.403435197657041 -0.006357168263918062 0.366553990209363)
(4.960314381194761 0.005941095540536697 0.004520312401373191)
(5.121476090465733 -0.03805741796513738 -0.009945199814893552)
(4.987003419011633 0.007446760990841178 0.007237103486705132)
(5.044366502656416 0.03984026726186952 -0.01623030692386295)
(4.986023641686567 0.01142416909758775 -0.01003329178129346)
(4.971973072948947 -0.1093391539899796 -0.1983096498968468)
(4.946764221352494 0.02200125467410073 0.02267196097736835)
(4.995203549101203 0.007139082602689355 -5.0726274212792e-05)
(4.954913621210244 -0.04933714754777841 -0.001909007350174886)
(5.029265279746691 0.01625791277793047 0.03320928881616415)
(4.796914423118564 -0.05374514119102611 0.02851353664374371)
(4.591510286099173 0.1228537713723041 0.2836755441773411)
(4.979193654943239 0.0568669629757378 -0.03569866566636137)
(5.222088034308241 -0.06579520144822851 -0.2490661399951854)
(4.956678992370333 0.0152061360707026 -0.001615096211625104)
(4.672659649159622 0.4619111565593525 0.4546337528699869)
(5.004354821361363 -0.08234542716243691 0.09335840529660976)
(3.600369512338694 -0.2075342817708709 -0.09790816949343627)
(2.028250323257493 -0.09035479660645231 -0.1239945428026305)
(5.004161026706468 0.1227500306857394 -0.1841850950584681)
(4.98018687148 0.04143724714033376 -0.04715541744912106)
(5.05608796907509 -0.09598414258166928 0.01868088764767184)
(4.707749668122419 -0.02842247070423475 -0.01688955301810867)
(4.908634745030453 0.09787304676513138 0.08893773118136025)
(5.036229957493383 -0.001010444333733092 0.00397470619863369)
(4.995891873953321 0.02642704220865911 -0.03476385423223693)
(4.990512126467387 0.1183705303327859 0.08618542563907013)
(5.097856565930369 -0.05611796471758733 0.0565330418785665)
(1.865795175942901 -0.1268354862876443 -0.1079424749004495)
(3.992701944374731 -0.139399758368936 0.1320709067620052)
(2.544920186809278 -0.0587682778164535 -0.2052703733605635)
(5.005882579961737 0.05740976245180224 -0.05081675381140296)
(3.580855481184206 0.08515581296926208 -0.100016246059442)
(4.995426111643043 0.00341800247436041 0.002439803877409351)
(2.777006517280028 -0.07422678213276557 0.1978338404382679)
(2.237293715698081 -0.2706630165867361 -0.290343467563502)
(4.988496539086783 0.0473290911829456 -0.02549303691980847)
(4.538616738115577 0.01498189574191525 0.02551829997482738)
(3.214477238991555 -0.2327389161992541 0.337110117612243)
(4.995622298509973 0.005695742746999558 -0.001380599808350939)
(4.958444410691364 -0.1159367761997979 -0.1147591604582034)
(5.004473296472033 0.105627241616145 -0.1239706108120149)
(4.925446002647699 -0.005272196293059082 -0.05110115019931698)
(2.745292910549878 0.3795964677887881 -0.1837459496308826)
(3.526998700211702 0.2977275608639169 -0.1596505004982481)
(1.108859972479644 -0.01492554792197588 0.3037572733518945)
(1.965614829253444 -0.0008966809057316307 -0.05702927504090927)
(2.653274406971704 -0.1447344165571838 0.9101256046135161)
(5.078782971421597 0.02133493361943235 -0.08164078460981557)
(3.838151724400935 0.1156432453927088 0.1585051875050535)
(5.149314830473265 -0.02712053396429784 -0.06655470181806837)
(4.987091876066522 0.03765679710442815 -0.01421704308376498)
(5.01125336977229 0.02107694093939579 -0.05469251200712132)
(3.883478031592686 -0.1637671514410227 -0.2086581105867735)
(5.155133373746022 0.03712669542987763 0.09028813613747022)
(4.998992422728606 0.004246266575352604 0.005722119223575129)
(5.031668503546729 0.1366740463644175 0.07755179031674959)
(3.575643181209064 0.1257008395114078 -0.2806975591629068)
(4.965688824225028 0.008067798453933239 -0.01239814183478411)
(4.694230660048666 0.1819109799531752 -0.1780112376129436)
(4.908454538904773 0.0734170400063691 0.1862047129736006)
(4.550140315454111 0.2479954383979509 -0.1222792913231658)
(5.058438062256168 0.1218335649631983 -0.0210953298944361)
(4.805750518530558 -0.01250104626793962 -0.0250175086228078)
(3.426916656270868 3.251222259535837 10.51975035092268)
(5.041720624987741 0.02536168033712326 0.04270951227468413)
(3.148865938626937 -0.003179978332318619 -0.04017719534115909)
(4.983418247142913 -0.05367268949939225 0.1096953727724639)
(5.037515685693731 0.01783461109250585 0.03788869499243888)
(4.971686724159161 0.2453755329335396 -0.2072006118689256)
(5.100920998435081 0.1848565023657851 -0.09629468833265471)
(5.001173818996008 0.004497733520259288 0.003653831313301316)
(5.001956024421291 0.00981519436346316 -0.0009255420432581823)
(4.974708280404179 0.008887630607525123 -0.07184932167060032)
(5.028328145219831 0.05895012411197977 -0.2491745179346304)
(3.58586746512945 -0.02100612418576628 0.001030526707350189)
(4.118428818915667 -0.2995383471869092 -0.009699981414177527)
(5.074098279924879 0.01914994438368275 0.008420364913474979)
(5.094459182546101 -0.005906166999383474 0.04582398568447475)
(4.992164898666205 0.0007211983543957047 0.005656193972321921)
(5.107666286860528 -0.03607275239659587 -0.04448186723569084)
(4.999092761294581 -0.04131849989613903 0.006050468972617525)
(4.066647330990866 -0.3453112597594818 -0.05284278556569619)
(5.087762734464091 -0.04977426346314628 0.0213652043815439)
(4.998065246213577 0.0600879351114308 0.006416801066989906)
(5.013348027230432 0.1066556932464886 0.04677968790677776)
(4.605979904258501 0.118667941967735 0.0008649794918457522)
(4.980424107811934 0.0002926118487325502 0.00236714436177009)
(5.010737718475984 0.04663672747426686 -0.06753943596059137)
(5.00079601458437 0.002745458844993253 -0.005806219226120913)
(2.556136851198861 -0.354028340054786 0.01668675273184949)
(4.618693195010884 -0.33881417521892 -0.2018271043937805)
(4.987059627071596 0.07817894691090799 0.5980307097910124)
(5.093609163923823 -0.05658946142157465 0.0850737515420267)
(4.9427094654813 0.04774414375649438 -0.003871032640813614)
(3.209020179797129 -0.01482878606856014 -0.1925491752708698)
(4.994316883921628 0.1070732649624352 -0.01829274372504161)
(5.104495358237491 0.1247893550957428 0.1190870992371717)
(4.431490188019074 0.2012160827495204 0.03031613602390619)
(4.985134973457862 0.0005736500535876686 0.0002453023751280782)
(4.214894273311296 0.3498376375483941 0.6242202181182377)
(5.074266109343061 -0.109322863334246 0.04077519901198272)
(4.993884631965821 0.005721908202048429 0.006809080260489998)
(5.25081337991957 -0.01030536276188271 -0.1138726668695891)
(4.618164421507853 -0.2143860812965905 -0.03055983959131654)
(5.019299765460297 0.0632833832178593 0.04773853448345267)
(4.412532898135059 -0.04644955208109795 0.06369153214088659)
(5.073835818032275 -0.0107062834917704 0.01557709524605023)
(4.994867401547295 0.04498730146960302 -0.02275049647720006)
(5.034403571011106 0.03601658403817869 -0.01197446399565186)
(5.08189941323006 -0.01527149528099536 -0.0339899457976512)
(4.999363493472741 0.002691685816842771 0.0001333337875830434)
(4.121166219998888 -0.43700915731839 0.3032969475906758)
(4.980948154157272 -0.04415633043445004 -0.1220457348773812)
(5.035026591302413 0.001605939984461169 -0.01982902689035732)
(3.740553021249233 -0.04240394705854818 0.04901128477786436)
(5.038696635085484 0.03027244955579024 0.05091165153857723)
(5.067907674965452 -0.08425790398544038 -0.05120253465799501)
(5.030267614824337 0.3591480332315274 -0.04981465780733572)
(4.648111544187087 -0.1135920742441934 0.1806138275148346)
(4.224781676531342 0.6625425416581423 0.3740986302798942)
(5.132945489675484 -0.1202269270963081 -0.4088358513462577)
(3.560184104398058 -0.07451451560996034 -0.1233562557608904)
(4.508389443016043 0.07375751359705303 0.2276574561895482)
(5.07372453188965 0.08890351630789917 -0.1027114597155279)
(2.901272717973513 0.04973007695432489 -1.109349699685638)
(5.016320509996154 0.07132465774151203 0.02710457788141321)
(5.092203170453423 0.02017324152719274 0.1073805001754061)
(4.222634201799845 0.01352954693028068 -0.09147303929084261)
(4.970792531997767 0.04602954768446701 -0.03587585761820348)
(5.05071658839615 0.1192163784528924 0.02366697537326126)
(5.038675658509041 0.1141395427969477 0.0404114043877435)
(4.888310219407577 0.08662383773623719 0.005583347267969997)
(5.002597324041955 0.005574178029490837 -0.01380146957886948)
(4.566218588226067 -0.339631165172627 0.03444303664346651)
(5.012150018554401 0.0279786018474281 -0.02714817648347821)
(5.046659123928864 0.09491905026989601 0.06598959771352239)
(5.019387492645433 -0.0004329049218079092 -0.0007036326488332343)
(5.02373168287706 -0.2373962097670591 0.1900781893708212)
(4.983168260417111 0.09670769698472428 0.2719471968338064)
(1.442424164186656 -0.09862425062637398 0.08015867623491053)
(5.089875105073234 0.05595192620348181 -0.09352105940473382)
(2.910729312292019 -0.02584462538673812 -0.4670094285515824)
(5.208868341486039 0.1280595691513309 0.1333674343807728)
(4.976215207367896 0.07335907831752937 0.141847013430117)
(3.108534036114473 -0.4682645443397998 0.09213271243217944)
(3.454781555265528 0.07736158616697995 -0.0534918080505787)
(3.198310514515954 -0.07522992449698157 -0.3884027770806355)
(4.638663872105761 0.1756090118517922 0.08149449926019464)
(4.994184700266672 0.0139069213121422 0.0131363150567631)
(4.994244441884693 0.02644339155476027 -0.04758707917069651)
(5.009790354479796 0.08687910419140941 0.04645046403570681)
(5.026658957285758 0.03976047731116061 0.03105093223987909)
(5.035834285388513 0.08316947562533548 0.01831698471222432)
(4.97220082651735 0.02613991650034342 -0.01294901167415755)
(5.017686343385394 0.0145100756773467 0.006099490120499776)
(5.036946619400141 0.04612887854515217 -0.06588421282137198)
(3.447905762000031 0.3829443402868995 0.03341454455357376)
(4.997406343445579 -0.01736652026908448 -0.01901124064981311)
(4.952387663197233 -0.1152174167651197 -0.04501678238279673)
(4.967983602044206 -0.04647588031435118 0.2010670336625683)
(5.060218986261404 0.03085062019863943 0.05637996730097484)
(4.47453077674927 0.09775025118479018 0.3031881995555767)
(4.861543374713509 -0.2549735624762943 -0.4443941989899516)
(4.968136221424789 -0.06793118833675939 -0.08159051441844642)
(5.038148022289109 0.01402461177395306 0.03132395441825369)
(5.034814256900318 0.1460835643231155 0.06560928416775852)
(5.057733055209106 0.0441528861541901 0.04273538745143922)
(5.007781333532034 0.06881278294010661 -0.01455737838156295)
(5.007705166686706 -0.03410620267471237 0.00515252380018684)
(4.991123997191998 0.003286598208658415 -0.00894668910332759)
(4.878919836078322 0.3393485551297867 -0.08650620380536575)
(4.994942817422947 0.01033640580274609 0.01604253017562013)
(4.964746538154023 0.05508427696610407 -0.07464695170612302)
(5.004779710414322 -0.0002888658399552909 0.0001955415397468951)
(4.996516067568081 0.06201264894148572 -0.05432617102546521)
(4.144809181839509 0.27881602308938 -0.005115902923772585)
(4.724191941572399 -0.04686895455920654 0.2920523291661821)
(5.001189719323377 0.001171379752350968 0.002457912592600349)
(5.047087073114867 0.01480149571787475 -0.0002928109371862908)
(1.24686566166177 1.50781933792029 2.96668243822232)
(5.01799640319184 0.04802528480099658 -0.02271984728421969)
(4.97033741899098 0.006855061018853157 -0.02568752818970746)
(5.0456550090006 -0.08498126768411313 0.0691956109334317)
(4.967456746006866 0.0166439500549831 -0.002176230425924961)
(5.071003546401661 0.008112640539946727 -0.02724286277111026)
(1.757227055452293 0.3322646590353351 0.3339181550998995)
(4.949075981382538 0.158474413070768 0.02498712322306802)
(4.866311953879823 -0.1516637757543489 -0.03642402909409537)
(4.96102202460888 0.01117269895308611 0.001440050430660385)
(4.997782758361749 0.01326513980090642 -0.0156474744381719)
(2.422486560717363 0.2273238454868865 -0.1685823066812671)
(2.73156686617153 -0.2964893021055982 0.3323398885255644)
(4.974717932912766 0.01765461588605498 0.003917564660110395)
(2.368102775292277 0.04579549758802963 0.0873357340577357)
(4.994728304267675 0.01950003903987289 0.02176587857169134)
(5.000380585781889 -0.02296162950724146 -0.04626466420307917)
(4.963734485908913 0.1548105759464668 0.01238666691250102)
(5.000946118147916 0.001372479600649782 -0.001728366038458582)
(2.483510331212697 0.3952115963225146 -0.0957021515082413)
(4.989377798166242 0.081016710200394 -0.04788749602145705)
(2.222844566281665 -0.08211243065589224 -0.009982325159081235)
(5.058165802160548 -0.09250780977626205 0.07527784109999852)
(4.99094271103569 -0.01667597512743073 0.07410819264254798)
(4.721352927868288 0.09074771698556389 0.1582123754718037)
(5.055844695664478 0.5295130948815909 -0.04152808972686759)
(2.490555696254199 0.02373248171865214 0.3332184214534725)
(4.646578465824002 -0.06555965527381498 0.09643175577863351)
(4.911417583101895 -0.09368434456411046 -0.0002426989928662878)
(5.037998049421133 -0.07559201658695154 -0.04728527805036934)
(5.003435393417441 0.1721110523552108 0.06939333183474911)
(4.913494292135848 0.03439858066520135 -0.007210754939083823)
(5.015773002988341 0.04419347705072932 0.05370865043356348)
(3.992372992019677 -0.1173865854548431 0.0692903565653354)
(4.975567700698519 0.6421046981838869 -0.3280085585803966)
(4.986139153962184 0.0002835484237386642 0.01112018515630092)
(4.978411496769426 0.03634815194944432 -0.009322881381771345)
(4.971086320372891 -0.1823743332898881 0.1785600743353865)
(4.393669235586978 -0.1005006952726666 -0.143163917615623)
(5.056603297467946 0.02447075773564562 -0.03190407272563375)
(5.016710328954039 0.1508978603444581 0.04624522860824365)
(2.300613064122964 -0.1119051274078938 0.09610470217566483)
(4.310525587074306 0.09882622314896179 -0.1849029722751087)
(5.009318462097181 0.008174080645171179 -0.01183564141255771)
(5.013985641083401 -0.03609180827828765 -0.02402864664411692)
(5.175754787945406 -0.03027948278116184 0.006433868739167895)
(5.008145527855022 -0.2290448766481014 -0.3118089046876601)
(4.880006881004551 -0.06663296366605553 -0.07797800124507268)
(4.460394412896644 0.01350301713416571 -0.2474582081070725)
(4.755698903004582 0.2795677294342447 -0.2502850136323007)
(5.024347430806087 0.02420035973182689 -0.04612099780613923)
(5.231511926920794 0.106411200321608 -0.2609538827691786)
(5.000064610078988 0.04718912230056176 0.0294774040115265)
(2.269225445400314 0.1512166953884058 -0.1397198770709117)
(2.400350156687555 -0.07523824992477458 0.1078776661591429)
(4.625377494025697 0.04981228247675821 0.09839159765422334)
(4.999533346806185 0.03440717673883661 0.02639375406102958)
(4.820558324089685 -0.1909040101853143 0.3347980092152005)
(4.998334989328075 0.003631416375373227 0.006449396164984036)
(3.396332239771805 0.09506336205867079 -0.2411244057917137)
(4.929981708815261 -0.05915095883472389 -0.06195682495070188)
(4.904238964030444 0.07973808463267419 0.006487650805326171)