/*--------------------------------*- C++ -*----------------------------------*\
| =========                 |                                                 |
| \\      /  F ield         | OpenFOAM: The Open Source CFD Toolbox           |
|  \\    /   O peration     | Version:  v1906                                 |
|   \\  /    A nd           | Web:      www.OpenFOAM.com                      |
|    \\/     M anipulation  |                                                 |
\*---------------------------------------------------------------------------*/
FoamFile
{
    version     2.0;
    format      ascii;
    class       volVectorField;
    location    "1.1";
    object      vorticity;
}
// * * * * * * * * * * * * * * * * * * * * * * * * * * * * * * * * * * * * * //

dimensions      [0 0 -1 0 0 0 0];


internalField   nonuniform List<vector> 
19631
(
(-0.02106178188787444 0.003321004446033217 0.03767406692255518)
(0.08391728326365325 -0.1817140362919535 -7.936349504743314)
(-0.04254527884827011 -0.0250161749213318 0.009008735947130385)
(4.486551518617328 -0.7748170970352555 -16.16436620894916)
(0.1152362180790956 -0.3493993654871123 0.03291059714311265)
(-0.08813587281043339 -0.3515209496335668 0.02773590342406535)
(-0.01011767677825637 -0.004482621871533192 0.005283690196226331)
(-1.895967998304264 9.608658696974793 -9.226954232345788)
(4.090575438988916 -0.1653699604611506 0.4758991268711492)
(0.004534504631022413 0.001308206343308769 -0.003675581164608814)
(-0.4781587022999438 0.05487509979397359 -0.02323316636141293)
(-0.1781969030769893 -0.001699866882737586 -0.07469361173396218)
(-1.352676890038338 0.1905474413206192 -19.90190646237928)
(-0.1821449583792533 0.1076674156046769 0.06051260366050207)
(-0.002059149983109612 0.001450587814529855 -0.007076703176324477)
(-0.8414987488515333 0.0618440866375829 -1.048097214302975)
(-0.293559996030253 -0.08186717009274627 -0.2830195227307553)
(-1.256760639055082 5.848856132057569 6.45790021514841)
(-0.7939341455087809 6.739505194817035 -0.5819126657985155)
(4.966727395930762 4.701064119106997 -1.212616132048244)
(-0.01527536725131005 -0.03588432480208788 0.0142974117425778)
(0.07077083485355193 0.04089998648466708 -0.07307962525906864)
(-0.01693235446283814 -0.4669742314004455 0.4148901932669186)
(0.02040022708217755 0.01411276858404062 -0.01092972993454976)
(-0.09794283906621812 -0.1174619955465511 0.08556735695768623)
(-0.02385888941508066 -0.004533294444871628 -5.49169813285601)
(-0.0324311679490154 -0.2497531390931026 -0.01170138728718106)
(2.060289032885549 0.01794818117417485 -2.696060853961106)
(-1.087175272139515 -1.259293835166098 -0.9001296436896336)
(0.002919314559650299 -0.0001526179161949905 -0.008206557835427439)
(0.04073510800624928 0.009708522825238177 0.02265450342037674)
(-0.1095858206356937 -0.06222351756965466 -0.1428175163509195)
(2.232466005242811 -7.464934192230854 -0.3361667206246294)
(-0.08634804403616009 -0.03436548319770796 -0.120813220249937)
(-0.20541718415571 1.882520098323093 -0.1045941798302518)
(1.690837679802446 1.191072740780307 3.552803301537327)
(-0.006575603798870244 0.003810504527297783 -0.0375031994964133)
(-0.05752977227889059 0.1942358706801009 0.5535681054897948)
(0.5962790247752949 0.3255193024716798 -0.4803247772254897)
(-0.06105292562757111 -0.0009294428487449588 0.3122655783124056)
(1.186848474478269 0.8028797751288334 -6.211240985783268)
(-0.2579691790499105 0.03294760391991795 0.1046175502936229)
(0.01004742728985252 0.001854544058139783 -0.002840666596817304)
(-0.06168990907340036 -0.02752224217248441 -0.04433244231897113)
(2.65154283046969 -7.565341836403667 -0.2737615435629368)
(1.700417121345424 0.5099555710149308 -1.201517166047045)
(0.01899684233718246 -0.009849498825018326 -0.01117771682668824)
(0.0353236152227092 0.08381768196343151 -0.1266863137615909)
(-0.05103225308186055 -0.004729620988737759 -0.007067001251547619)
(0.003275664648673479 -0.04423079503343843 -0.0343515871176024)
(-0.0343161657352723 0.216791408798934 -7.181896522018001)
(0.2532510530942594 0.9776429373858505 -1.206272627607513)
(-0.009230299446879441 0.07169442949366907 0.02843556004265581)
(-0.104375745735304 1.949742917654716 -5.949529087422159)
(0.1706894241546067 0.09051078569087134 -0.8622034158194536)
(-0.5599626746483486 -1.353310416990844 -1.657218673374758)
(0.2329653922425068 -0.02125354808774933 -0.0152025362731345)
(0.1832253969658029 0.1068848267027124 0.0574364734732824)
(2.574188663892591 -7.509819636840193 1.295259755415782)
(0.005701473490626134 0.001313362934266197 0.00228853014989221)
(-0.007674994613201957 -0.003780673861878954 0.002623948941482613)
(0.6823187184072615 -7.215872121395317 -0.431901701316908)
(0.1308206973225916 -8.559783781254414 0.6978115829385928)
(-0.1985719673133251 -0.02032851641310797 0.001769032971940345)
(0.1537501964234807 -0.0433483808612414 -0.08644573000343057)
(3.629184432855869 -12.07813333864303 -0.3035580648698719)
(-0.1238752560674682 6.375092940109038e-05 -0.07383707155577263)
(-0.01326051356609617 -0.06475266496974112 0.003913224221403494)
(-0.1946071024076853 -0.02525404729817839 0.02909637011626184)
(-0.004515577109404187 -0.006077856235647758 -0.003401349485151666)
(0.003284169365923869 -0.0009720056241428628 -0.001939745194501196)
(-4.826567323315891 -13.6562527825118 -8.816192171742664)
(-0.05759100346827578 -0.0294560813455076 0.04048017183874189)
(-0.1695132207857881 0.1893042181921885 0.05937101472065591)
(-0.08207206847034407 0.01198845187350284 -0.01104736693602604)
(0.05604287590677871 -0.3873090508863603 -0.3071952699928736)
(0.03280109548032912 0.07044522275867965 0.03634624258861049)
(-0.3798750961996425 0.09600985677636431 -0.8391363980170762)
(-1.121927282901109 -0.1907388235562878 0.5570595043057049)
(2.295198338093613 -12.70060000664617 -63.66935168099292)
(0.09605282821567186 -0.003135751039515335 0.01396742884440834)
(0.5755798853242838 -0.05007573253052695 -0.1923694911747322)
(0.07176743732316221 0.1245270587163869 -0.04322161258207385)
(-0.5211703412557573 0.9057589493812909 -1.094971051111585)
(2.619711706347234 12.09511169529963 3.120673505420471)
(1.316315538787697 -44.88320631719277 1.21298271261375)
(0.0708446062732781 -0.09276845751928305 -0.01181144612022026)
(-0.6283709039592539 -0.9498452167305504 -1.385918010736354)
(-0.356429951211612 4.605196078201262 28.31749072142919)
(-0.04795782203444984 0.02762486230797298 -0.09623377111213591)
(0.9344777624475371 -3.050211148983014 -4.691335994131808)
(-0.1382970036011979 -0.05022305448556282 0.03247721579836523)
(-0.2035965750421588 -0.05229318345668969 -0.08833951423498644)
(0.03921357861877391 -0.051392779400237 -0.02891454769180741)
(0.3325836484823626 1.62065353773569 -0.9132863788780482)
(1.5556301186024 21.10035710543977 -1.142039409266054)
(0.01533286019699389 -0.09266521829568153 -0.01796631813886272)
(1.028958634576692 -1.718692028082379 -24.35637203897556)
(0.06734472486067786 0.01628975535367979 0.01153836395149842)
(-0.1116378734108849 -0.07151528273440824 -0.05806505849966471)
(0.1387890894510662 0.1403995423523622 -0.06053863799600215)
(0.6763344498270867 9.129918736914007 0.9536039476199188)
(-0.3500373704775519 8.013194156567893 -3.661540582981318)
(0.0009588643968513264 0.02759757881415232 -0.03650590768730886)
(2.19098353419137 -9.905651144306324 -0.6055118646234063)
(-0.6999274407602913 0.4202452057470146 -1.842237739136943)
(-4.787772283613867 9.541206876837562 1.381665627800053)
(0.03721516877793797 0.01272027470124553 -0.07496406521640081)
(-0.2060256027652508 -0.1088958326416143 0.03779987649083223)
(-1.07241325567834 -8.998094828637868 -3.214584772500328)
(-2.608638066319526 0.2849689246695729 -2.611133312063939)
(0.2374805845810711 -4.575064900821143 2.053249027297738)
(-0.3107965892357992 -0.2037360881580714 -0.3198019153616325)
(2.960294313618914 0.9717811208446003 -0.8600108728590796)
(0.00287521758349325 -0.01337655055822804 -0.002323420378061328)
(0.0101775995749443 1.626400348702769 -1.696420604982018)
(1.803643845481611 2.814870302282291 2.160537227097686)
(0.01955383606842706 0.01221145174535385 0.01188123651139142)
(0.7110606832632926 -0.1651988051578102 2.640015849317614)
(0.07206500784083371 0.1189525832319416 0.04993307002425929)
(-0.06582465181512642 0.07450757527934905 0.08329656505262947)
(0.03783079027646219 0.03747909768504683 -0.002589361355310038)
(0.07902594057185154 -0.0130759634805194 -0.0140735255853493)
(1.951625170028012 0.4789590754072138 -5.732792841800165)
(0.08139074475207023 -0.03158761582409021 -0.09148260695031191)
(-0.0182397228316519 -0.01042261171508121 -0.01343044539753157)
(-0.8821130038586846 -0.1831111934533341 -0.2479160565502014)
(-0.06418842391867133 -0.1104987704393127 -0.02984238454774066)
(0.009171988473806049 0.0009022126797687453 0.00270771230025098)
(-1.449176702631898 0.05984133526343238 -0.4505730690190592)
(0.009269545265442082 -0.01613552120201529 -0.02501776021257566)
(-0.06726803442532747 0.1792656450001962 0.05886672612808594)
(-5.128033544781613e-06 0.01493763760685068 -0.07582278387351714)
(-1.486933022308058 -6.886325855750604 -2.57040768919527)
(-0.0422848484373587 0.1901698162677903 -0.1370872265086522)
(1.776093765869174 4.963006501308227 -5.230936601917202)
(-2.234746394933697 3.977584151532438 -1.756474598515646)
(0.3849528417997384 0.3617091566261411 0.0177678023333375)
(-4.695059194871045 8.113984747076637 -35.74563888775752)
(0.8133718930080513 -0.06340121106026983 0.08624624035379613)
(-2.261446187538105 4.629720661066955 0.8999347863778473)
(-2.686286546687753 3.798894975621121 -6.00222473309073)
(0.712321405416434 -0.164903873830084 -2.302568653726967)
(-0.00403870794258107 -0.003398892948935311 0.01327445526095204)
(0.02117983077268934 0.03574309058125392 0.1012909721099824)
(3.372866677981388 -0.1206454250403693 -6.499384636436433)
(0.003163736706457821 -0.01917810053043898 0.0119981507683567)
(0.003515589505835877 0.006883642923858015 -0.008966918602092496)
(0.01184230848923219 -0.003814194112190724 0.003147147638172624)
(0.9535778991264672 5.997714646803967 -0.9136528740845344)
(-0.0893933105593066 0.01571270553332836 -0.01427757634097609)
(-0.003209871235246475 0.04527451064949658 -0.002943666359672643)
(0.1552626768823701 0.1342105299441474 -0.07390559745317983)
(-0.02403785138349313 0.01462830685335234 0.008983662692666171)
(0.09157910547458509 0.05280053577322891 -0.01303684330085699)
(-0.01014532165646153 0.009741392618014974 0.08905899585660296)
(0.004626731219118896 -0.007824140152856759 0.006942863232179644)
(-0.2463184084312211 0.187389302450668 -0.1151488521795281)
(-0.7537465735996796 34.67079252122179 6.113964768867256)
(0.09973923668585374 0.2984427052143583 -8.755060432159915)
(-0.00880955052108039 0.01940330333130128 0.006443407664481336)
(-0.001211358184306097 0.0001797986395403611 -0.002855387021526329)
(-0.05395404656970745 0.02676683931587517 -0.01717183035645261)
(-0.04801027176556705 -0.02139751063732522 0.05746175253936287)
(-0.0179357443713459 0.0005122044314072123 -5.514903635196232)
(0.004180789579766638 -0.008566412010025996 -4.928357728315903)
(-0.02410308301136572 -0.05820567470292413 -0.07078682262599026)
(-0.02524298590820266 -0.0215853503753265 -0.04123375197566662)
(-1.329704404442301 -7.047540634108626 4.64173769412273)
(-0.01605530957387385 0.01485452056476008 0.03468763588822905)
(-0.05212754945768484 0.1524477924335508 0.0338849694845097)
(0.1030416899197609 0.02662291494750316 0.02479987106970518)
(0.06056184141968973 0.04676319966610568 0.1039989000352479)
(-0.1284223093055712 0.0520667367306233 0.02295852031285187)
(0.0207580016457425 0.04358767382037067 0.0464058885585862)
(0.184539947437636 -0.004261214419879165 -0.04516960478899613)
(0.00374650568941472 -0.01431586774679261 -0.006668798140936609)
(-0.1016426159006831 0.04160277368696457 0.02767535860761539)
(0.1044208483093505 -0.00268971964373927 -0.009544732994609922)
(-0.2621296586762643 1.386121715916617 -1.691819471188867)
(0.06900520799282406 -0.03869134219001209 -0.0007862525956187491)
(-5.981602873274586e-05 -0.003572189992292977 0.007106723576297536)
(-0.001742685944415458 0.001095727722778259 0.01920834189347211)
(0.01319015669407647 0.02851082020241033 -5.514966160910671)
(0.02754287105138021 -0.01290178774295866 0.05627834172141216)
(-0.008023326966227866 0.01212395764507422 -0.04361700278762198)
(0.02898122896991372 -0.1126281361985695 -0.114542257840903)
(-0.03901164459310297 -0.01942827843247131 -0.01170968576466311)
(0.06178773233270579 0.09632671608246006 -0.06328322116613064)
(0.0219915114154884 0.0191455974860025 0.006895661812028941)
(-0.1595700139306213 -0.03025025474213349 0.007277262438713145)
(0.0183203949916656 -0.1307467744842124 0.1522447239510729)
(-0.5303511688458418 0.6283017324531384 -0.02206574650828926)
(-0.01679533443520919 -0.0009941296548403333 -0.009946211261118424)
(0.005844596397617452 -0.06884195561182341 -0.00783773717731355)
(-0.4953701102868545 -0.3636783215511211 -0.4800900443989349)
(-0.008106321386636948 -0.2316042607621635 0.1026672474605669)
(-0.02228137703973757 -0.007422581329884535 0.02960139090736338)
(0.03168816436734492 0.01312235378915862 0.07845685868131395)
(-0.06478291662578028 -0.02123489888997675 0.002523991099773117)
(0.011742435065524 -0.01140778039846016 -0.03510893617224614)
(0.05077543015114288 0.03175585328452701 -0.02014845371810406)
(0.003626156135827228 0.008006767892127266 0.04911029096216971)
(-0.04332957444029126 -0.04967544208987557 -0.0421866964526887)
(-0.005829781189576183 -0.008285755537309451 -0.02292522779940892)
(-0.0444544452671697 0.08221175492147657 0.06778341797465734)
(-0.12945604550822 -0.06808337192916566 -0.2448083309309235)
(0.02963436010867403 0.1164493923231594 -0.08547217469390593)
(-0.02359637788454368 0.04506089013216613 -4.842622555142233)
(-0.06107385104988344 -0.2189580554048224 -0.04515663117772784)
(-0.04144141149579939 -0.006655591039977344 0.03405161027245044)
(0.005685667754980583 -0.1141692369237433 0.02256724507409863)
(1.90804084653037 -3.863540035234997 -9.263082876611817)
(-0.007868123592395139 0.0008034229182523399 -0.006195832865579396)
(0.01417158004161055 0.02724138647340299 0.01966522271611408)
(-4.910495264240345 -4.55183277458698 -5.632001264169488)
(0.007551522280385822 0.007763346450415769 -0.004114928111630811)
(0.005928962985627573 0.004441278807255088 0.003028233499652335)
(0.01262306419762699 0.00780273645054539 -0.005966273849355065)
(3.516988680526269 6.40776049797477 -3.719290174102457)
(0.0522969560157274 -0.02068588554123161 -0.03600186530721741)
(-0.4024740206538553 0.01692145460897966 0.231970077728667)
(-0.02563819832791534 0.005770036737616165 -0.004108820627037741)
(-0.001640712409078083 0.001069016071387309 1.920015262143928e-05)
(-0.005341113594263674 -0.003546844396000472 -0.001336924421951267)
(0.01119581681878166 -0.01644540828764317 0.03792549761077495)
(0.1082881874409572 0.06648104956532395 -0.00877869628977055)
(-0.07914977026503553 0.1275935217910242 -0.09529227451057685)
(3.76036397015026 9.535940673187323 11.79471132559491)
(0.9464139934681759 -4.01160813017751 4.951214927675048)
(-0.04155342929258221 0.007056191441047518 0.0139528858915498)
(-2.03504682460058 -0.4771153412484644 3.369046126313751)
(-0.01737203844792806 0.6223000957603451 1.063384403882829)
(2.367621540434325 10.56882652829296 -4.752366655916598)
(1.330729363319498 -2.383344569743654 -4.650737765789775)
(-2.236299851599052 -0.728038894795134 -2.543388713996658)
(0.4816094291045345 -11.93007638147288 -3.591134811587411)
(0.1559984074137173 -0.5836023862679471 -1.151723533829291)
(-0.4055842888660314 0.2203062624592186 -0.2825931712266386)
(-4.064433383249709 -5.706326909463264 -0.1981698857144361)
(0.02892949347504237 0.007774790910160557 0.02075567522254784)
(0.1595928834497226 -0.1062383780412731 -0.08910453345976366)
(-0.01074979077038597 -0.01836447451625317 -0.04521902361574561)
(0.03168063788335772 -0.01790194805185715 0.009885336933610182)
(0.01411002339661416 0.003756302631288452 0.01735350899645347)
(-0.2693551263808929 -0.3361500754032338 -4.956981766897947)
(0.0004067410035570847 -0.03020301750693547 -4.84718076208879)
(0.01469827578447072 -0.0002327962718297252 -0.005705344647636804)
(-0.2716384070839342 0.863998787589523 0.7625380854745651)
(0.006383986675555103 0.01665734405291566 0.01868722302599111)
(0.1080729910010007 -3.80222959166629 0.8303609716215625)
(-15.55053713461146 1.665300498284318 -0.6798570212472574)
(-0.0363284321565442 -0.02286375962290162 0.0008220571153196195)
(0.2781131579760378 -1.34030668889733 1.677371268759883)
(0.003060255313842314 -0.01913203235776727 -7.907696369483435)
(-0.5006206785826732 1.022054557129634 -3.045335488477297)
(-0.4406009205153573 -2.444830515362468 -1.383984572874065)
(-1.892934589960203 -37.68897323351418 -1.249663047925438)
(-1.666313608625791 -33.33803146189896 -3.435926736794352)
(-3.032811845180105 -1.881909086739546 -1.766745861737986)
(0.00449092896548769 0.009449314839629675 -0.002507452721780679)
(0.5850846423280579 -0.5288091878513244 0.319268597040457)
(0.3584062579506022 -0.8423373982871807 -0.4157487881605085)
(0.6146455394559724 0.3075839518752481 0.5988528746694129)
(0.0654749804956095 -0.0357734586227287 -0.01175352255222447)
(-0.06900765163090726 0.05795972087260081 -0.3426630747122872)
(0.05435707727700358 0.03469571033316919 -0.05111925783138589)
(0.06209209895411051 0.1036986972896282 -0.08472027585833063)
(-1.354829960441178 -25.35948441057912 3.351412877094)
(-0.2230675194286358 -1.53218338624624 -37.01058014110311)
(4.556909390121335 -6.385880534163022 -3.714028699606707)
(0.02447605873889822 0.01706556428892345 0.02604663788967432)
(0.06800385503679751 -4.758886561389581 -3.628153394539497)
(0.001500081297980218 -0.009700460185306195 0.002513763736369754)
(2.923676314204438 6.483948352830103 0.1424841650237646)
(-4.097273949242799 -39.68756469149683 1.625930374612246)
(-0.06454570351172143 -0.01735658046956238 -0.02905770075061093)
(0.04304672312784744 0.0621090498574421 -7.43084404976357)
(-8.476583080138564 3.520165804338532 0.5728646199706779)
(-0.007233297299591887 0.004593238871564798 -0.00523837098891433)
(3.406051376585702 -3.066457955346608 0.007469624691373467)
(-1.745126679861151 -0.4075776695704361 -0.5953926774597449)
(-0.4715108079713706 0.9374270363321022 -0.2743431959667301)
(-0.6247121783944802 2.044649305390496 -44.93551637289207)
(1.845099639773579 -4.469495575830814 1.67721526381777)
(-3.413548219980093 -16.86378491921023 -1.077961054056991)
(-0.5445976869140776 -9.639869468757965 -39.9664236246794)
(11.72588987545304 26.31041724489442 -2.259548300338937)
(0.02116468104489632 0.06495847187887924 -0.003251599209498437)
(0.7767372715671136 6.550205603670025 4.353511229979561)
(-0.1369728695848794 0.03111825114980854 0.08352052764142556)
(-0.04384250997009076 -0.02272060312204365 -0.01257712099109096)
(0.07107288026778105 0.08407990536392004 -0.007679370123482882)
(-1.645456963466793 -10.18157752341001 -56.40570249728836)
(0.3279790274639679 0.435982058642027 -0.09713637949814881)
(0.001050627883777869 0.001553901204176323 -0.0002057143386836658)
(-0.5955116030855148 0.117535988200602 -0.0771261970792696)
(-0.9785437363209935 -0.5491174117433385 -29.37859680771721)
(-0.03377427025957085 -0.01188784264101343 0.004682969429770444)
(0.3830715813973194 1.207064892674928 -0.04386332710078933)
(0.4000853549002255 1.283404110493707 -1.250904499531283)
(0.2217703758508576 -4.747358977559397 -2.374723548234166)
(0.1234125270397768 0.01163918661780475 -0.9281930294687121)
(0.004410285931661669 -0.1111737395867078 -5.571142691996448)
(-23.28612845169055 -46.35179285500884 -0.6478911172470383)
(0.04379526778268114 -0.02314451634787763 0.03088902344931645)
(-0.4740100430154116 -3.693669260327896 0.4836570985927834)
(-1.054903524018531 -2.96756034773461 0.3531690312299426)
(-0.0006335688105808743 -0.02404022711728345 -0.0202639908621455)
(-0.5043553251913057 0.30887436558384 0.3689733074648032)
(-1.261471323482747 -2.013979175742439 -1.468061802049442)
(-0.000505438429855547 -0.0009329028930890014 -0.001917504753887094)
(0.01721703306336439 0.004765538922667949 -0.007754900721426409)
(0.09287329396112531 -0.02183228112053499 -0.009196906815037875)
(0.04616928203223869 0.1668563366054995 -0.1022029209615976)
(2.120574515006151 -5.724839356462694 -9.761398884914138)
(-4.633335598565308 -13.2844661912752 -2.511409397205388)
(-0.1290047086029333 1.743007378462208 -0.6019561822114083)
(-1.54929275890182 -0.2391788318842842 0.2586754820613337)
(0.02098456526807151 -0.002895612729603548 0.01188365915440491)
(0.04908283758224455 -0.08579927811391537 -0.06567382445333807)
(0.4981495541095955 1.059262931183752 0.1624222908826184)
(0.2993024376803317 -1.77151196967419 -0.5052826664095303)
(-0.008232821982571621 -0.008879511952123777 0.06768128406708555)
(0.025667370214851 0.03532004975658157 -0.01387094518560936)
(0.2380956364216526 -0.2082891850017395 0.002342113085133983)
(-0.7552690466468011 -1.086905735495313 -18.55660313929619)
(-0.02501708166761977 0.003690778022286709 0.0179926111848757)
(-0.1125110193757267 -0.06053541480775265 -0.01344030644696724)
(-0.009888963497902862 -0.004323556070039626 -0.002475170218149157)
(5.792769074056567 3.446612465208131 -7.044327128417124)
(-3.097185943651532 -9.234402601097351 1.768580933980738)
(0.4301390140858939 -0.3878907757149965 0.7287424040968662)
(0.2328196255026923 0.2310052419894363 -0.1195893356289794)
(0.03654190538340038 -0.06129300546466405 -0.1332903516942365)
(5.646547946411389 -3.675632580207481 8.041073478839175)
(-0.02994363627662659 -0.1309062740267608 0.2539154699040392)
(1.263969964971059 0.57423583282707 0.3565115978029063)
(-2.960602035576984 1.991282066090598 -8.32251520587363)
(-0.01049953782001596 -0.02123963800071762 -0.06879698298586948)
(3.391112600400672 -0.1664666959059606 -49.47520951351289)
(-0.0532450415302098 -0.07847556465088334 0.02422629018707283)
(0.009372819896182067 -0.003113883166396338 -0.002760395104239641)
(2.009863041744503 2.717538310196474 -0.2150511279992362)
(-0.994506662430424 -4.810557141597325 -0.9419727578173414)
(0.04016441664101135 0.03410828776952198 -0.03224041650278518)
(-0.4878176287175305 4.260045784722371 3.222210677928975)
(-0.006274846835997945 -0.09428919543961242 -0.08460840902162849)
(-0.001641679315879742 -0.01030032804249097 0.05767163200265911)
(-0.002382249005983876 0.02474500773915429 0.03663699618331193)
(0.03039756418906889 0.07015447563080408 0.04218951183483188)
(-0.0005209626202255579 0.0007320406459922699 0.001145612452930568)
(-0.7490273336790045 1.937789953463873 1.744556539738251)
(0.4042837058231434 0.005831299278247243 -0.4899778109662378)
(0.03426717975892745 0.04992562547447537 -0.01183521822743315)
(0.7352003623028863 4.84392389314656 5.490807481726798)
(0.03236840681625686 0.01824904976436395 0.009538024111072024)
(-0.2554982244496209 -0.1850593622064117 -0.187484380745091)
(-0.4995325904551514 -1.47644295062359 -20.29708868471111)
(-2.643763027623983 2.090958364515101 -0.9852583361108791)
(-5.973587820569692 -1.138512034116711 15.28133792480455)
(2.817080355821911 -3.319694154541082 2.222030198288224)
(2.887722283361367 11.9117221826814 3.130689748146288)
(0.1386738252000153 -0.1941710598338686 -0.4266456778465966)
(0.249339852186203 -0.2535957625983449 -0.2023805180982948)
(11.782092936309 -10.09152776899543 -5.25714043787211)
(0.003228563884143417 0.007676705264577656 0.004404988481262535)
(0.01004220843945021 0.00559286259340866 0.03602904018161794)
(1.315654116693233 -7.460947121337147 -0.004722279038799959)
(0.1541181477719519 -0.130558784717146 -0.01630368548548679)
(-0.2974203450551628 0.2298762407467507 0.2974406409488532)
(0.544591844609852 -0.3064868909527823 0.02569330962130345)
(0.1799169826124708 1.120031510827315 -0.5713913840064019)
(-0.008155408200161279 -0.007267484670638006 -0.01728300690191455)
(-4.29507608474441 -4.111137043519837 0.827738368824789)
(-0.07792807611453496 0.009574254416068555 -0.0161848687523202)
(-0.1151592188139537 -0.08132400602433733 0.05189533878042897)
(0.006030018957304963 0.004298977062488427 0.003704388317097984)
(3.360090523182689 -1.175121717878436 -18.08777289949167)
(0.7871165841875418 -0.6754748177620655 0.08570288740663032)
(3.337740803399425 28.3026353723578 3.950331879084376)
(-0.05233409823671676 -0.1269780227917613 -0.1958751631943649)
(3.149576746888526 -8.127579770925381 1.208571722949706)
(2.388079710062326 -1.626006575410403 -0.6871391501193579)
(0.33354168360028 0.08272691303372651 0.6565521743535377)
(-1.929655213893149 3.139676419433903 2.071544097474204)
(4.471241360674811 1.963760538649859 8.551169955996057)
(-0.7887402278184564 3.015178797667159 -25.63865930157536)
(0.7265723055459901 -2.15237653798612 3.937487680173975)
(-0.02323865552139785 0.04030755030429499 -0.02065522016029546)
(0.07475553742841348 0.005332927871172358 0.0293685296577274)
(-0.07556244786591676 0.08637177445119383 -0.008827325122980241)
(0.01289787347576518 0.04921129021939077 0.01820770960973365)
(-0.01511584535965094 0.0110650469044242 0.001568332702414584)
(-0.001679252576880529 -0.04830792071963186 -5.476522244701615)
(0.01101206815117653 -0.01071800317124415 -0.02374469529062819)
(0.01627372676372263 -0.01519501197901631 0.03743477800021523)
(-0.5614116622366 -0.306813313871059 -26.04784302695047)
(-0.006629790579293755 -0.01198637961294227 0.01664211755695148)
(-0.7482839316053922 0.4907842510315678 0.2032277110976547)
(0.08604624226457713 0.4049463902212327 -0.2959431641916892)
(-0.2599691012620899 -0.1884697714577164 -0.09288597192509891)
(-2.457101644314415 2.75610401529182 -7.765945674454584)
(0.9534075110879157 1.785795363841185 -1.141771101654568)
(-0.658399649878819 0.04242474542859673 -2.157096016740112)
(0.04908104245754082 -0.01244512404313631 -0.03472962241644197)
(0.5470386259322056 0.3964243922208441 0.3148481691914357)
(-0.04905168327444792 -0.07080945526443214 0.02383002335316927)
(-0.169734781825181 -0.03480420996279239 0.03623744656467386)
(-0.08345514248208878 -0.01924860951103312 0.02089914400957358)
(-0.003589306294160702 0.01695862220169275 -0.01648709338891096)
(0.07951082341046345 0.1844146043029966 -0.1820358888308747)
(0.00332367102340295 -0.004497386344447778 -0.002910280879856526)
(-0.08823411613011545 0.01127741108465998 0.02381653274773662)
(-0.0004341100859439442 0.00121251514008611 -0.0005329780401110306)
(-0.1151437863915729 0.02093506867443879 -0.06135814671426765)
(-6.301182429488973 62.3090626735312 -9.322031137426825)
(-1.248691422365098 -1.270426534517963 -1.896222098012315)
(0.02700775807746842 -0.01539159296088172 -0.01054037871540578)
(0.01034558148078127 0.01874164457114091 -0.006841843033011834)
(6.005959022319438 74.20169022221745 9.898371836164797)
(0.008086522674989998 -0.08607940836420265 -0.03748438879268971)
(-0.005017680727081049 0.06487708927888414 -0.01499447966566391)
(-0.4662408398103068 0.6011674577659307 0.2647843003046502)
(0.001492403935749197 -0.009888823773916328 -4.992148118299347)
(-0.2212860466357569 -0.01442130059045194 -0.3937024045778722)
(2.018419352763107 3.296043091818229 7.951041765224669)
(0.4104447470315904 0.01472783812660119 -0.02692240098398807)
(-0.5313989600927906 -6.15043445388295 -0.6329040020884169)
(-0.003476644552099126 -0.0151801775906659 -4.788503362987058)
(0.01557903674211734 -0.02488166240169049 -0.02695112204877718)
(0.7551072524381697 53.00710532803457 3.440269218964509)
(3.120807166915837 44.97967232200784 -4.383335917598857)
(-0.01980520639549539 -0.01632000874654734 -4.983686329588067)
(-0.3581719521637202 8.656662766738862 5.328881234502361)
(-0.003567804623658165 -0.0223383166390522 0.003547579502238257)
(4.002110399280404 -2.864955470727964 -1.021948115783965)
(-0.0935952100666714 0.4126409642548626 -0.01053870450661876)
(-0.001349115060387251 -0.0004982619305640855 6.384171494583086e-06)
(1.06200268616754 -28.13650388111989 -1.43190499209587)
(-1.235806906230039 -0.01555714987568119 -0.1776047029753815)
(-1.15802984247749 -45.33027611895629 -4.424013257827788)
(0.2397781558259702 -0.01125063733135208 0.04211056819003377)
(-0.3442549661743834 -2.501184374283853 1.092877559835522)
(0.01724874807223375 0.08879087096202132 -0.6341570036334205)
(6.318963626534802 1.509253130690297 0.4368449272442552)
(2.334415203283434 25.85469520586248 4.508171817344184)
(0.3613577036361897 -2.51632134139014 1.128546429225729)
(2.162504340482293 3.474721937073183 1.002156350580953)
(2.240263257333784 0.2510672883902207 -1.892797817448318)
(-0.05452340637633128 -0.3614303635931287 -0.421389506333754)
(-0.03866618907407254 -0.08386949553743214 -0.6112455365965784)
(-0.01761233193408107 0.1749065961527676 -0.03626762072352301)
(-0.1334592669099876 -1.282812023302315 -23.78036066316826)
(-0.5507567972293652 -0.2199054085718437 3.582183599075474)
(-0.01014231250468514 0.02050799073034132 0.00206878710483361)
(0.06973047823514027 0.02130051015896285 -0.008887564531391605)
(0.7441996326368271 -0.06852540871018567 -0.3005637135964435)
(-3.436510159879628 2.072540643032176 -2.196645219575336)
(-0.1089028076946467 0.02136678336272649 -0.02610040383046198)
(-1.083598315040117 -0.1776056025056876 0.1498121337119329)
(2.476033634521892 14.04328629880757 -8.588283159294825)
(1.08118507914141 7.192296292694051 -0.6574180181490779)
(0.006375643474812828 0.002209696097187011 0.003370570896402819)
(0.8025325153865728 0.6508165273199393 0.002318665738136161)
(1.566647545272969 -0.8282877221018803 -1.575005128162679)
(0.849617316777425 -2.095253397242437 0.13200956458701)
(-0.3224113074598525 1.450101684258204 -2.82057843725883)
(-1.280287969569098 -1.81382153907136 -2.38389992329278)
(-0.1886087298085162 1.379959582859176 0.3106061466694034)
(-0.02308178299795324 0.02415710127262417 -0.1110326960727702)
(0.2598946146452857 -1.034198878062731 -0.6657239868599173)
(0.002399814441070937 0.004710736587245253 0.03615266818959059)
(-0.5192721643584646 -5.355561366379151 -38.80792085387623)