/*--------------------------------*- C++ -*----------------------------------*\
| =========                 |                                                 |
| \\      /  F ield         | OpenFOAM: The Open Source CFD Toolbox           |
|  \\    /   O peration     | Version:  v1906                                 |
|   \\  /    A nd           | Web:      www.OpenFOAM.com                      |
|    \\/     M anipulation  |                                                 |
\*---------------------------------------------------------------------------*/
FoamFile
{
    version     2.0;
    format      ascii;
    class       volVectorField;
    location    "1";
    object      vorticity;
}
// * * * * * * * * * * * * * * * * * * * * * * * * * * * * * * * * * * * * * //

dimensions      [0 0 -1 0 0 0 0];


internalField   nonuniform List<vector> 
19632
(
(-0.0116990411099586 -0.001694422819499861 0.005256726066033798)
(-0.003458374957172797 0.001498768570133795 1.855107381546668e-05)
(8.909540191904218e-05 9.001643619439888e-06 6.892371144005504e-05)
(-1.165774080888668 -0.1743020026499533 -2.090948198523499)
(0.0001658414103690365 0.0002352445813083776 0.0006134173071281612)
(-0.00143774569093157 -0.001159990297595888 -0.0006947342728134858)
(-0.003783300178498926 0.003799652212410557 0.003935527399625311)
(-0.002109387990532128 3.489726755496245e-05 0.0001005654325595371)
(-0.003514273633538101 0.0006755574773338478 -0.0003002476495455668)
(-0.2342719723037824 1.566026261593259 -1.431591910488629)
(-3.20703394330818 1.681567585211274 1.757436961365017)
(-0.0002067583821866507 0.0002892244657210308 0.0002974736710194519)
(-0.0001010531896098097 -0.0001023511851541027 -3.54626116880124e-05)
(0.0001929995715727323 -1.120752603500099e-07 -1.177609175920054e-06)
(-0.01515668978404733 -0.001201194418098721 0.01215669150235427)
(-0.0007675920039030574 0.0003692002343117162 -0.0001898001973260696)
(-0.0006090642978487661 -1.19028755476368e-05 -5.558890312665001e-05)
(-0.00027894498757089 0.004416416968107231 0.005236018218506533)
(-0.0001671218267132205 -3.30939608586565e-05 0.0004157294852975708)
(0.0001238598589099855 -0.0003338176228767842 0.002837782334382505)
(0.01604997469565643 0.002901094385178941 -0.0008403003745919846)
(0.7403658741193674 -4.315585798905696 -0.09635044503399015)
(-0.025954386240256 -0.01675235991762712 0.0183356088176509)
(-0.004278291009662594 -0.001266694370601668 0.002618590061252158)
(0.001497103083809269 0.0003976088397144154 0.000181767366238952)
(-8.073380334469262e-05 0.00129429559008547 -0.0002974375320451892)
(0.0002004560373604107 0.0002505962793210411 -0.0005638769726977462)
(-0.86818367710042 -3.676636614535474 -2.047771177252012)
(0.005601518759784914 -0.01320202283331705 0.02378922555197619)
(-0.0001379575696750545 5.64941353418047e-05 5.343723347873911e-05)
(5.431683317121605e-07 -0.00021427181521641 -3.603569131770502e-05)
(-0.0003016178557234316 0.0005183452901920843 -0.0003496364940793544)
(-0.03805164043103024 -0.001888887445421421 0.03172977422073418)
(-1.303494789701653 2.582673051421781 -2.493067619440251)
(-0.0003834984072604331 -0.0001167003220076888 -1.513979605632636e-05)
(-4.569535567384032e-05 5.677061158459345e-05 -0.0001008580753082008)
(-0.0001787913094457715 -0.001032004000863063 -0.001398571506387001)
(0.000777798072468818 -0.00013905084316566 -0.001108890692091681)
(0.0002822492839892392 -5.111594820048153e-05 0.0001615067266367237)
(-0.00036081947474568 -0.003106605971390163 -0.005765704268505844)
(0.001638292905696202 -0.0001411040269808232 0.0009229740540771827)
(0.0009306882847368648 -0.0003015178293342262 0.0002345747375459692)
(0.001253847055257308 -0.000423204354869012 -1.377507791731563e-05)
(-0.06588161636903507 -0.03040666352621637 -0.1425468656087666)
(-0.001247716219261744 1.568195669668642e-05 0.001776051209841871)
(0.001147707546299774 1.169943638486783e-05 0.0002826864009267643)
(-0.0002460498665167517 1.43940180232474e-06 5.603627956416035e-05)
(2.660616931350266e-05 7.2468984998524e-06 5.46630473623396e-05)
(-0.0005440433364814422 -0.003792612139587754 -0.003949639634030142)
(-0.0005631411607300434 0.000171123583239939 0.0003261617589330123)
(-0.004483731606104858 -0.002132767226741176 -0.001409939260914337)
(0.006935334451726217 -0.002253666327191632 -0.008269508240972005)
(0.0006105833863579728 0.001112279627722851 0.0003983555209111463)
(-4.97624797792405e-05 -0.0001013533093210437 0.0003762351174516319)
(0.001770799391593553 -0.003157791261593134 -5.741364763871871e-05)
(-0.00633903329736068 -0.0005930840337046103 0.001954801025352321)
(-0.0001722866857328944 -0.0007024967556705142 0.0003968872677484748)
(0.001122980980907247 -0.0005790098987788604 -0.003524052325603529)
(-0.001181819387804989 -0.01765545919869876 -0.009972749257457437)
(-0.02791991654830222 0.1639444792612372 0.03889759911835151)
(0.0063747310553324 1.78251587858285e-05 0.0008466228310827204)
(1.893075127933849e-05 0.0001829087917807338 -0.0001754440525529128)
(0.5849976437056953 5.239266316436862 -5.644083397752905)
(-9.077411354056565 -1.620116766716734 -6.396360404538764)
(-6.574291942139016e-05 -8.034536241728024e-06 -1.476837416482139e-05)
(1.603294512031781 2.365401738571366 -0.04201006344937123)
(-0.4393127024234513 -1.647354434670427 -1.700141334185807)
(0.001402206791640216 -0.0007480265917028751 -0.001868141228059894)
(-5.462308448732662e-05 -8.163560048667193e-05 6.701693459465428e-05)
(-0.0003729903836388718 -0.0002760493799598924 -0.0004872723534885293)
(-0.0003810806845841144 -0.003739322356235798 -0.0001105801630914074)
(-6.142149557013963e-05 8.372817852337682e-05 4.192231966508417e-05)
(-0.0001713814110109531 -0.000233032655028394 4.839157821780143e-05)
(-0.001210914378281115 -0.0004009582935010607 -0.0006690702181582589)
(-4.847848839450202e-05 7.075164389130869e-05 6.310305155391027e-05)
(1.580715702446792e-07 -4.630163815044776e-06 8.769973594763122e-06)
(-1.212973183249633e-05 2.197542805740364e-05 -1.921945904655607e-05)
(-0.05712550025766783 -0.02499800517239086 0.1815470583243242)
(-0.06280511658817964 0.2098511920225891 -0.165953605711116)
(0.02983175242839384 -0.0145742658568511 -0.004964084644411897)
(-0.06780999531358921 0.01934760371609933 0.04363353268729082)
(-2.715326687807142 -0.05615810818165878 -0.5529633268460048)
(-0.0002157778807539387 -3.086146463182863e-05 1.834322948952008e-05)
(6.216500716304681e-05 0.0001376945277440405 -0.0001334137631861479)
(0.001679011776909499 0.0005724998691245634 -0.0003658835729052829)
(-0.0001144978573197348 0.0002060918639681919 -7.664465199951938e-06)
(-0.001023948244146847 0.0001783794238460561 -0.00210204529197511)
(0.001426602813924477 0.0001185858308133786 0.002997291706293558)
(0.0005562690348939793 0.0004260750936954519 0.0002425587368567007)
(0.0003758774032741746 -0.001221055647198004 0.00251250694228826)
(-0.00496285946526788 -0.02316176961653794 0.01994767120965779)
(0.002613400201741958 0.000649283573934581 0.0003449231077163775)
(-1.803493930552354e-05 -0.0004520380114215492 0.0004149896646647682)
(-0.03357060676534192 -0.01282398649841333 -0.002201310186210432)
(-0.003316374456553244 0.0002500818613262118 -0.0003266011543761162)
(0.001837384935736991 -0.00069826216761813 -0.0006881832853266292)
(-0.0002569203808786391 -0.0007110544004877708 -0.001216035554237943)
(-3.768606530788362e-05 6.155414360260684e-05 5.219919658132176e-05)
(0.002257241624859967 -0.0003823423366511534 0.002183961129263805)
(-3.035649653797029e-05 -0.001037501387861819 -0.001570221604080202)
(5.433291418819556 13.19608384672966 0.552751076752362)
(-0.001163140838822021 -0.0002183172589885811 0.001308592028406237)
(0.001948899973655522 0.002602831047912231 -0.000985696688478619)
(-0.003424712805959003 -0.0006350965693372869 -0.001860539143872451)
(0.04896373238152318 -0.1973853495063502 0.4665715943125299)
(0.1097946757133795 0.3057126822180237 0.2971332630257759)
(0.6287827707901722 0.266589772000739 -0.6591227615536559)
(0.008375065094662583 -0.02475912828116889 -0.003963777366534521)
(0.003893862665416231 -0.000709672951705333 -0.001885618379013351)
(-0.002153078290932775 -0.0004015157609446819 -0.004959384408775079)
(-0.3310188477791445 0.7261326892080464 -1.255084935873826)
(-0.001795244656472144 0.001330464559629377 -0.00129709666581029)
(-0.0002591050736144018 0.0006531493559171938 -0.0004501835508579083)
(-1.270389955603216 -1.043038445688314 0.2373791116871607)
(0.00149077453985614 0.0006313374004115763 -0.003834153381095891)
(0.2075012833173208 0.03352745281328915 0.1117094955394396)
(-10.59824913232415 11.70416733349752 -5.953242573572268)
(0.1242991087544273 -0.3422923488789206 0.007799226872056385)
(9.394527317726208e-05 -0.0001564015012687493 -0.0005688003226388193)
(0.001983866180015466 -0.001121523949502264 -0.0008468517512769235)
(-0.00145480743109822 0.001393407534889822 -0.0004365092797196816)
(-0.0007093940118951456 -0.0009973819587328794 0.0001448607524133667)
(-1.946086639959343e-05 -4.633455741561484e-05 -3.406219155710284e-05)
(1.94480723648253e-05 4.358683597479156e-05 -1.686510948557745e-05)
(1.222917390301389 -0.1926162861818835 -0.00818179262388502)
(0.1437254999247303 -0.03274355719771212 0.01091141080102542)
(0.001689734907646612 -0.0001027596638742503 0.0003502198124966359)
(0.001780574351016389 -0.0002056180097976969 0.0004569908204899316)
(-0.001626251386063367 0.004889453798033509 -0.009219494147167301)
(0.0006886000024966018 -0.0002221417221504642 -2.984874987932244e-06)
(-0.000205577983712746 -0.0001147944883024213 2.963854252864965e-05)
(-3.582577734014146e-05 -3.287305472537658e-05 0.0002080770409567084)
(0.06118002625207927 0.05265141571206455 -0.005730412056370295)
(-1.581343424320859e-05 -1.990738165336943e-05 -4.085380124397176e-05)
(0.0009617437622110183 -0.00835655360195716 -0.01909738553512422)
(-0.01279818048729841 -0.01768388905956182 -0.02365223943823832)
(4.227442346683649e-05 -0.0005138213628761827 -0.0001985269706105833)
(4.041366257402475e-05 1.851341470196807e-05 -0.0002480968578069781)
(0.0004271659707032024 -0.0003920688778927069 -0.0002845822166367315)
(0.0001364555461745606 -0.0003782259552945665 -0.001052945115956471)
(9.193405763641795 -15.69263392838204 -48.67422676295167)
(-2.001049471166028 3.51332936505379 -4.210240436782239)
(-0.283915050099606 -7.533416349525663 -2.510482550222735)
(0.7353577460344631 13.2115396024996 0.177527622263654)
(-6.719684425446559 8.631918893209487 -40.11087258829839)
(1.146294240598168e-05 -5.507884010004096e-06 2.745214260094885e-05)
(-0.0002405261404603341 0.004359732080218024 0.002210079954170294)
(-0.02754240707447855 0.03554288777749375 -0.06687856901176306)
(-0.002680210635878751 -0.003299109123276735 -0.005235500582062505)
(0.0004157867380970706 0.0001126663950557804 -0.0003235158184753692)
(-0.000457208802872398 -0.0003327616660668216 -0.0002323123882073857)
(-0.0004232584754236178 0.0004299746153707935 0.0002895830915459909)
(-0.001376144730651665 0.0002446726659200658 -0.0001493549930682145)
(0.0017484212349333 -6.663550400344044e-05 -0.00232821697172182)
(0.00157318415156778 -0.03548567376006213 0.007337929156343783)
(0.0002168520447977195 0.0002486716091651545 -0.0002123173162592578)
(8.355554393983783e-05 -2.386803425839171e-05 -1.84650070735703e-05)
(8.014548834347154e-05 0.0004957299932635282 -0.001644675363887346)
(0.0003212661286448562 -0.001003499716855711 0.001478247124170207)
(-0.238809106361298 10.11157753050545 -1.541465160746232)
(0.4245650267045394 -3.885500747584271 -1.759676354470888)
(-3.168447500432102 -3.45326850647377 -2.115717037361268)
(3.834764695289961 -3.489250363181255 -11.1406577800876)
(-0.5916541402484568 -1.940570135090435 -0.5613930413535644)
(-0.0002144361007040219 -0.000565936640969714 0.0001058066957289016)
(-0.003850328098386008 -0.004317008188751698 -0.003826494349671282)
(-0.001543099524604819 -0.0001361711387907427 0.0003638247334819767)
(-0.004254147542741163 -0.0007360943614356929 -0.0003347838584229525)
(1.33093675137349 0.2829080378625921 0.02352581056705061)
(0.0003246413471822456 -0.0001091948539716227 0.0003199674596228955)
(0.001103860006022082 0.0003232026532663825 -0.0002584835574347113)
(0.001569041585932274 0.0006947215343158981 0.001191839081766038)
(0.01030299197717637 -0.006659246639010422 0.001776436541538961)
(-0.0004696011294613629 -5.405573892565584e-05 -0.000156814941457223)
(8.811686756233608e-05 -0.000590514066800215 0.001019933192429207)
(-0.001137945685143076 -0.003450546518754069 0.001445835733256363)
(-0.002524685803035582 0.0004957627739911416 -0.0002632813821918941)
(-0.006267891158713066 0.002956675289841951 0.003799953327677014)
(0.0002842443563973406 1.744052868927455e-05 -2.853684912674782e-05)
(-0.0001990699911667258 -0.0003178595197734241 3.757254904944937e-05)
(-0.0004846820694465782 -0.000217489499572807 -0.0002559206525089301)
(-0.0002158758461413608 1.34947574300625e-06 6.472052707160101e-05)
(0.0002712944753226608 4.356256787226581e-05 -3.416129202300939e-05)
(-0.002374864248689866 0.004079500517656109 0.0007646111051126557)
(-0.003132799311398453 0.0002524311424683822 -0.001235412475659631)
(-4.469766476802356e-05 -1.633621777179908e-05 6.096697206245073e-06)
(0.001874950339482372 -0.01046288902991092 -0.007107828095559271)
(-0.0001795100446558769 -0.0003276758240443287 1.329605822901955e-05)
(0.0002920596091578163 -6.065865810418339e-05 0.0006973206915805844)
(-2.807908757715084e-05 -6.985271568734492e-06 -3.456344074073026e-05)
(0.0005456528123262512 0.0001992846570698487 7.809471152667197e-05)
(-0.02208928558568424 0.002736922867310899 0.01401407334553361)
(0.01084982541357806 -0.002818074863454634 -0.0402327250383265)
(0.01053198924361264 0.004526149484528369 0.001214743532904415)
(2.793350546047427e-05 0.0001315997300418311 -0.0008620444266046222)
(4.761366735970983e-05 -6.752389372190308e-05 -5.246738823164815e-05)
(0.00360703524384275 -0.001320014875161339 -0.0009808210022769178)
(-1.022461206235549 -0.8138685988875256 -0.5116845374794808)
(-0.000602164339413226 0.000158062793044113 -0.000627510231079653)
(-0.003917585168104004 -0.001497528284684977 0.0006383658596932979)
(0.00212424641572635 -0.0006062435370967401 0.001582690076903798)
(-0.001691942413119557 0.004695700492822475 0.004102351545080391)
(-0.0009677127744817759 0.0002230685825596122 0.0007073731735577691)
(0.0041342042400634 0.001335894855665322 0.0003169639454717787)
(-0.01150533415361749 0.004945426069890919 -0.01211607359841881)
(-0.01005004009951762 -9.921180381956612e-05 -0.0003277358041784844)
(0.0004313170185243586 -0.0004997546323722034 -4.782040190680153e-05)
(-0.003500199720930883 -0.001641074220879513 0.0004417397621499155)
(-0.0003171387674922275 0.0001373146118691711 0.0004218509169942659)
(-3.098113477427728e-06 -2.645818254446048e-05 6.103309270605551e-06)
(0.0001845960638489738 -0.001096497071224122 0.001130220179577733)
(3.108351637140677e-05 4.036146809787488e-05 4.507623105816258e-05)
(1.954085584351674e-05 3.096073458494758e-05 -4.897422700872657e-05)
(-0.000284429794034172 -0.0006432194804782323 -0.0001829279162365214)
(0.002774621636096185 0.001385993949627609 -0.0005111891411432499)
(0.0005653341034482687 0.005949312472280131 -0.0009114840435364272)
(-0.0006793249940882417 -0.0002307125928721948 -1.391477844251879e-05)
(-0.003151978107856127 0.0008180977800143249 0.001672026094985203)
(-0.0005502814161195964 0.001048873281147542 -0.0002060963385855348)
(-0.003888830662704045 -0.002295352773502214 -0.01565238365035198)
(-0.01358907637365057 0.01125609119749689 -0.003012369327088042)
(0.01115691424830403 0.005368656680904102 0.0003620734371659013)
(-0.0002263924421395752 -0.0002035223459619391 3.371847411704433e-05)
(0.0001095346117431524 1.485983085105604e-06 3.359169053589475e-05)
(0.002724749146571841 0.003731761421694317 0.007079216166583809)
(-0.001724056445115591 0.001323002086727245 0.001519914845434917)
(-0.000524081732253107 0.004970450325828214 -0.004118798114673421)
(-0.0004077811418719271 -0.002464950100861247 0.0006133400117821387)
(0.0002743017286781124 3.573416842496937e-05 -5.837076444807258e-05)
(-5.584870027210048e-05 4.312664312433426e-05 -8.140563533825352e-05)
(0.0005064220049425154 0.001950412795161143 -0.003363332897777591)
(-0.0004515018563586104 6.861211412010589e-05 -0.0001657119298146877)
(-0.0005192639747855115 0.0007962992927286502 0.001746350626492694)
(0.0001231154121093105 -6.652490774311112e-05 -2.808291752377666e-05)
(-0.0001168307615967217 0.0001463184893417113 -0.0001286880944817419)
(0.001700451084123841 0.0001698977935825024 0.001489519670916703)
(-2.108028154883988e-05 1.0267627617297e-05 2.655328046872077e-06)
(0.0002644242771929004 -0.004662143861475135 0.004824775936823596)
(-0.00390783157491148 0.0001135452340433937 0.0005511393834335011)
(0.001425896780584115 -0.002560702564332727 -0.001452707050366215)
(0.0004668491897219021 0.0002261215587064586 -0.0007648370423138472)
(0.0729621953378214 0.003229848219081769 -0.04345382755877608)
(-0.002725228032316352 0.0115238177060763 -0.005998344730317605)
(0.0001529370435616013 0.001409791702409046 0.000504141422262933)
(0.0001354317511026581 9.929207361857032e-05 -0.0001499492007203547)
(0.006504434510743074 0.003065568328347431 -0.000217317328043571)
(-0.0007496184377472398 2.922619521189378e-06 0.0008297028255184561)
(0.002311350655942537 0.006036494645419852 0.001551533351247)
(0.0001268273410345078 6.948713710731058e-05 1.638035896675001e-05)
(-0.0004114677756397992 7.052531428927282e-05 7.98820520579751e-06)
(-2.714181307915243e-05 1.90190684646335e-05 -3.845327712827313e-05)
(-6.872546047938907e-05 0.0001064349694094576 5.532866488654554e-05)
(0.0003300481356659015 0.001892893931637557 0.0002177262142386662)
(0.0008689854584136916 9.08827494100848e-05 0.002231118458860704)
(-5.502463809272848e-05 0.0002720845611761544 0.0007071959738304333)
(-0.007019303300420288 -0.001204694634124338 0.006950065900158087)
(-0.0007486897118688705 -1.458993819911972e-05 0.0003124080687059448)
(0.05251535552726878 -0.0004607596283286068 -0.02778475819434647)
(0.02820685730686378 0.003124482272047856 -0.003145551441658236)
(-0.0008365255501825518 -0.001144669018131134 -0.002168848303961993)
(-2.121360360384352e-05 0.002561487008893415 -0.002867562536656506)
(0.0008935335315430737 8.520554011089803e-05 0.000133381983644444)
(-0.0006877135127571824 0.0009192853660326379 -0.001260542485334324)
(0.0001201712663728165 -2.957747153687594e-05 -7.320945289335957e-05)
(0.00359668271871103 -0.0007850772946136249 0.0004757293057160883)
(4.488469863046595e-05 -5.429267736647475e-05 -0.0001082344776639801)
(7.759876092921472e-05 2.982921750945854e-06 1.085517322255813e-05)
(-0.000187321132951864 6.708871033760942e-05 -0.0001481745262799951)
(7.676327648257453e-05 8.047194388669799e-05 -3.953406547896298e-05)
(-4.917337566322778e-05 0.0003735425411895411 0.0001806584842964382)
(-0.0002104478967155062 -4.374509410628173e-06 -4.641302656255332e-05)
(0.0009486534414145586 0.0001678154521137459 6.064628240654978e-05)
(0.006418617348143281 0.005806866030580291 0.002375285915243508)
(0.0003422323531124207 -1.343643707538689e-05 -3.306270794407619e-05)
(-0.00124442935485755 0.01119474347410243 -0.00106633900412245)
(0.005816003112234526 0.002379806334768114 -0.00750041850030218)
(-0.0004041620572753045 0.0002299889224973609 -0.0001631084566100788)
(0.0008588042007648707 -0.0001728177608323504 0.0008267887188536158)
(-1.09583630434323e-05 3.084428468283382e-05 4.686938759039107e-06)
(-0.0006974877015821783 -0.001078363388926367 -0.0003729826843424876)
(-0.001082232986263719 0.0006071268494552732 -0.0004416757412172978)
(0.002792206727149942 0.001493354443545508 -6.907225543143893e-05)
(0.0004864062815371861 0.0002814683782400923 0.0005279925423128122)
(5.445475007175624e-05 1.690477269043954e-05 -0.0001042468430078081)
(9.428686352464133 1.707738979947197 3.813522375231208)
(-0.005476798970416529 -0.002498901173831001 -0.0006845979959424358)
(0.0001317563404850354 -0.0003268177724834138 -0.0005454554723742231)
(-0.01032459172396713 0.003949161382285956 0.0009410095430946584)
(0.00172982732828053 -0.0008945547251703254 0.0003078991715353769)
(0.0004590828140060761 -1.209683239618211e-05 8.448730532518197e-05)
(-0.0002219281632602184 1.908810580689748e-05 -5.709251222536637e-05)
(-0.001104544628871409 0.0004826948964218935 -0.000317272204451264)
(0.0002813648362419179 0.0008069942035905048 -0.0004464403683681523)
(-9.000718850481028e-06 -3.974715970084802e-05 -2.381634573064723e-05)
(-0.004613806670959016 -0.004370943109860786 0.000351385620075755)
(0.002885977680443919 0.001468748054811758 0.0004310442122386828)
(0.001785105808117686 0.001642346767055376 0.00342551212933412)
(-0.01411613721617814 0.028236896773556 -0.01225328362549469)
(7.26794662663675e-05 -0.0003478121857699739 0.000201375209541523)
(-7.606307344878543e-05 0.00108725185971069 -0.0004898427371821211)
(-0.006144490133256134 0.009113911358920708 -0.001688946713756745)
(-0.001759162624955752 -0.006263311747587724 0.003556797996203723)
(-0.0001797465309515675 0.000140111010751647 0.0001729826452663591)
(-0.0001081552750638935 -5.489130830902406e-05 -5.166762789575272e-05)
(-1.264041926908547 -0.7580118178951425 -0.4492372859743507)
(-0.0004451297151966455 -0.0003328685251473426 0.0004062966238752899)
(0.0006862815555391583 -0.000179599183436135 -0.0003316133454047644)
(-0.000108116063596563 1.4932006861897e-05 -1.207265091393057e-05)
(0.001231104158439163 -0.0009297511638822495 0.0002358171466153979)
(6.022763990821847e-05 -7.696386238956438e-05 0.0001655579862547574)
(-0.1764782159398621 -62.05218232821483 -3.493813526210395)
(3.235243733265319 -55.41163976990818 -3.437879286969658)
(-8.922826462460888 -4.628859277609394 -19.30595219082948)
(0.0006362309292915133 0.0005044553852301957 -0.00182774537611675)
(5.609477049877775 -2.828163827342151 -4.679134282221851)
(-0.4086494963677314 -0.7022525087143721 -11.82839672394288)
(4.233010202159572 -56.82754186269946 -6.458980577326068)
(0.0005028614370641678 -1.167383772166987e-06 0.0006206708766594885)
(6.578651250511378 -9.786516093397474 -4.830274408350331)
(-3.202316675486878 -8.091684267171303 -66.89717846955698)
(-0.00258266034176933 0.0001536884290061337 -0.001289019795566221)
(0.002460925704383984 -0.001767029182217441 0.004235596472770236)
(0.05165068958628277 0.1616982183298922 0.106522606115337)
(-9.263507378338209 -5.477566989294846 -57.11385071009238)
(-7.868205678818643e-05 4.818867941051682e-05 3.913646790264712e-05)
(-0.0003454299690908468 -0.001029121161713823 -0.000717791566654498)
(-0.004512137426659762 0.0009962550546440722 -0.0007040175552320247)
(-2.150405146591519 -12.40152778045008 -11.23957816217983)
(-5.991063105017372 5.232058847597848 -6.419416680492528)
(0.0007912467250830204 -0.005386540975072106 -0.002281153228545308)
(7.580089207818252e-06 -1.618281766786572e-05 -0.0001233735152253721)
(4.740806266117026e-05 -3.853681571943843e-05 2.41241029790231e-05)
(-5.512448223898739e-05 -2.879720653794502e-05 0.0002225023549552506)
(0.001032190026566129 0.0008420439995845219 -0.001149763343496817)
(-0.001655404112695918 0.002917201003991676 0.000594943839721657)
(-0.002547870127910741 0.002026272606780315 0.0006236062835754918)
(0.0004240167525405385 -0.004586989753988931 0.001052707313490915)
(7.015482603810115 10.69182486780962 -3.979921228716755)
(-0.0005125004659455746 0.002680703747299074 0.001070225754222581)
(-4.745286360030356 6.412488968966358 -57.71073600376148)
(0.0001645884956062262 1.347597107590558e-06 0.0002048603573959885)
(-1.753700662772765 63.57861362011933 2.257370823548952)
(-1.962785535751591 76.58814787663336 -12.67455509446422)
(0.000131984241125861 0.000220410581007818 0.0003141042691601271)
(2.706326736715724 4.208198953964811 -2.387034908691538)
(0.0009814553506077594 -0.0001101280886385688 -0.0003734940543747572)
(-0.01411024099182985 -0.04728758836395838 0.01023229759106708)
(-0.003197453136377327 0.001243535019771492 0.0002558756068700877)
(-0.01190552993397643 -0.007919656803631993 0.03850282714221347)
(-0.4722754809790435 47.44034963273577 3.232832113959431)
(3.03914528336938e-05 0.001400288187851586 0.0009225429291581347)
(-6.159890091864696e-05 -3.660819468594131e-05 8.947317687339919e-05)
(0.0007995443984521765 0.003073569918698751 -0.0006077437729604133)
(3.574431259647123 -5.99391418673165 -3.608447325127634)
(3.98350503059803e-05 -0.0007030533693791384 0.0005870647464107375)
(-0.0003758495512320557 -0.0001396044380215133 4.331654439994901e-05)
(-0.0001492031398243567 -0.0001287431716172831 -5.23229941162306e-05)
(0.0004914871292277632 -0.0008549900314991993 0.0008923484139984556)
(-0.0009263340003292647 9.516322316217575e-05 0.0002907281001115382)
(-0.007164815234039522 0.0005587511862440479 0.0009482919927495447)
(-0.02868841449276163 -0.03668314073173985 -0.05959041488072347)
(6.355971427160709e-05 9.849784374565496e-05 -0.0001434727598273402)
(0.0002914558421110826 0.007468664500138387 0.004235116440951207)
(3.465545662706682e-05 -0.0001482655227808412 -0.000106317553452374)
(0.01788492957280417 0.007553619950018733 0.08805378061004951)
(0.013730828593432 0.04845711549348565 0.01921440697350134)
(-0.0001358270334771614 9.406852980569403e-05 -0.000183458047872837)
(0.007066197798096637 0.003875580412613081 0.02086278836574177)
(-0.0009394690022558308 -0.002565405228677316 -0.0009676546493890953)
(0.02705506396031296 0.03888494340593276 -0.06557670504700233)
(0.001510872059293749 0.003743302184533017 0.002483773040578264)
(-0.001189611144111377 0.001842272161135962 0.0004037581762238206)
(0.0143176384764193 0.01158002520809613 0.0551298329590937)
(-0.0003092748041054636 8.919879387261728e-05 -0.0001338920125208396)
(-0.0001098153349126966 4.790899193924276e-08 1.099365831801977e-05)
(0.0002445969411540666 -0.0001880869677073011 0.0001684719238917262)
(-1.96420691407759 19.38697667955616 12.553544123266)
(-0.0001644782594670975 9.698490180045459e-05 -9.796854463537065e-05)
(0.0006336921463172506 0.0001827225061648723 0.0001598590544438414)
(4.589971618333422e-05 -0.0001961717735228503 8.046150382161321e-05)
(-0.2591550087927265 0.07220037166998487 0.03863824350044401)
(-6.447410483288271e-06 5.963070754859392e-05 1.129167581666515e-05)
(-0.0003140905747110869 -0.0001128716086741716 -0.0002616387962859507)
(-1.302703448346294e-05 -4.544012702090002e-05 5.291036156608888e-05)
(0.01972830557383352 0.01804218457881544 0.007229313059520213)
(0.0002326678688273445 2.112847069703662e-05 8.317361354525213e-05)
(-6.54999710718958e-05 0.000166600839754562 0.0001575673810708477)
(0.0002102190710139654 0.0001855219602607038 -7.837148908427641e-05)
(-0.03627390959337935 0.02140513004499717 -0.002686955630450866)
(-6.977827995022798e-05 5.878359488363008e-06 1.93240912629717e-05)
(5.643521258403318e-05 7.011967656049138e-07 -1.008210237782034e-05)
(0.0007388067351892585 0.001308688846623282 -0.0002062363719796875)
(7.50900007180496e-05 -0.000110169349008254 -9.732468429650778e-05)
(-9.381133456228981e-05 0.0001442548774641148 2.16968183566106e-05)
(6.647738878580504e-05 -7.600412216686947e-05 2.181090191412251e-05)
(8.646791322754053e-05 -6.462014039586418e-05 0.0001673599446207651)
(0.0002348423782013639 4.334783272540441e-05 -0.0001933381938204872)
(-9.775919506506321e-05 -0.0001083558341424786 -1.33170862688567e-05)
(1.365891351799387e-05 5.299489847517166e-05 -5.509645592506099e-05)
(0.0003309770263025918 0.000229641562311603 -0.0002129725401995279)
(0.0002276508623376086 -0.0002140459473083539 -0.0001098770043146316)
(-0.0001111576319999525 -0.0002913799863283724 -7.968568207930224e-05)
(0.004383236840592724 -0.01422509568429522 0.04269531873713529)
(-0.0003114513040123405 0.000161793167837286 3.611270807845203e-06)
(-0.001401097381648037 0.0004258546122879695 -6.760375393847942e-05)
(6.329119812642555e-05 -8.146796500509577e-05 -9.389690935716151e-05)
(-1.687339062643332e-05 4.77669449952547e-05 -8.814051640145115e-05)
(0.001797063942437645 -0.0003181035286717469 -8.67683122654594e-05)
(-8.960890632640859e-05 0.04559896880291938 -0.008625206038278543)
(0.004975497627884806 0.001416661459148501 0.0002192011264946689)
(0.07271121411010782 -0.00306819167317561 0.009878012733489216)
(0.0001039278700420923 5.940500433440277e-05 5.587393171352352e-05)
(-0.05838987578289142 0.003802639822817614 0.02686179882990614)
(0.0001772355093721992 -0.0003139594642396679 9.806807505222994e-06)
(-0.01477543573696505 0.005148643714724213 0.0001078659142345348)
(3.892386045862278e-05 8.63956822696059e-05 -2.839168533854113e-06)
(-0.000288148585476194 -0.0002144338267842004 5.830915626163936e-06)
(-0.01378582643877796 -0.03334286610518594 0.06413495620428299)
(-3.757645448276942e-05 0.0003853641460698186 0.000172423776460631)
(-0.0008039685053692462 0.0004388557518747318 -0.0008460726242617957)
(7.760886767748769e-05 7.123468693922422e-05 0.0001679676787812152)
(4.32890816383556e-05 0.0001509276575462405 4.228141089971634e-05)
(-0.0001295208375870033 0.0001316725421399972 -0.0001054349198326432)
(-0.004516393730191912 0.009246018413133595 0.00648022093762981)
(0.0002164236329088492 0.0006011911574411291 7.961935662152902e-05)
(0.001754722257508448 0.0005733040640062081 0.0006907856927466723)
(4.948216712096236e-05 4.24853890765608e-05 7.104516563590061e-05)
(0.0004193959976528417 0.001042551113342005 0.0008211512683010284)
(0.001943227823143584 -0.001654106595024183 0.001346037002247214)
(-0.6227690102457022 -0.0439899822740871 -0.06768031703849255)
(3.868053819381548e-05 -5.115566167853187e-05 -3.678052888025144e-05)
(0.0001685509021055651 -2.666578879146776e-05 -3.055614336805768e-06)
(4.679842114766814e-05 6.423310584162001e-05 -3.574686985751601e-05)
(-4.968679150584299e-06 6.149782883640924e-06 -3.979959060764614e-05)
(5.096133880845737e-05 2.615939948250807e-05 1.083376174080156e-06)
(0.0001352661879018266 -3.240256307288501e-05 1.844277809666239e-05)
(2.278656023744904e-05 2.14557003477298e-05 4.226841119744896e-05)