/*--------------------------------*- C++ -*----------------------------------*\
| =========                 |                                                 |
| \\      /  F ield         | OpenFOAM: The Open Source CFD Toolbox           |
|  \\    /   O peration     | Version:  v1906                                 |
|   \\  /    A nd           | Web:      www.OpenFOAM.com                      |
|    \\/     M anipulation  |                                                 |
\*---------------------------------------------------------------------------*/
FoamFile
{
    version     2.0;
    format      ascii;
    class       volScalarField;
    location    "0.7";
    object      p;
}
// * * * * * * * * * * * * * * * * * * * * * * * * * * * * * * * * * * * * * //

dimensions      [0 2 -2 0 0 0 0];


internalField   nonuniform List<scalar> 
78526
(
-0.06922152198335942
-0.0167386616725626
-0.01017046114431021
0.01575659929554993
0.002702038794686744
-0.003904030994552277
-1.167150072869016
-0.02097215470927727
-0.08234905595492049
0.005425208579435748
0.03014818569906779
0.2176037442656068
0.1199400685475024
0.45229604877025
-0.006423999097621294
0.001653757947605039
0.01083213775939315
0.01225980743581475
-0.01214292484648082
-0.07321185975968698
-0.488649908364671
-0.752147366905897
-0.03807315968011299
-0.005698001773557201
0.01606516633849501
0.01405870133137008
0.004004707720718566
0.01648145337335612
0.01306092049616701
-0.02776380366412886
-0.1855785447246186
0.01177676953309242
-0.1517365181199863
0.00311379996479387
0.002118158388986891
0.008145801404160085
-0.2052322488059784
-0.0170550830272708
-0.04041816510175605
-0.02300072587159732
-0.1431140546387972
-0.006617220965298465
-0.02666125509699752
0.00579707851358316
0.002280265645193112
0.001686579653265546
-0.05402446891428125
5.743954530111487e-05
-0.009020426015054938
0.02956905454281765
0.1355340488379992
0.01074829046542934
-0.6545264241040407
0.04028142442628998
-0.01346793927037646
-0.2798780747791443
-0.1256336636526983
-1.557021560900854
-0.08751412660307065
-0.4923864009809667
-0.00826489658578506
0.00146243308818578
0.004022483709771731
0.001462504322383368
-0.01019791345236662
-0.01160698590586741
-0.01085137073283414
-0.1305620966386946
-0.00845126304209021
-1.462795762028014
0.004046995709402064
0.3807595595050359
-0.3053420616697959
0.3161709166659
-0.0211619014687926
-0.1884737254145134
-0.006911483730775928
-0.044889614936464
0.01141185337550476
0.01105547744363882
0.009442910903759245
0.001457973068673513
0.4759414197293777
-0.350690257611871
-0.06372325323031415
0.002542160136622406
-0.2944666517037395
-1.027996064665893
0.0009097151506518744
-0.008768625670071155
-0.005011425189961468
-0.2194830723040884
-0.01725089615452994
0.0004899963804037192
0.002646732802725263
-0.01398872971316341
0.003631404881579154
-0.008759936506128779
-0.1809247075113267
-0.006831585793456889
-0.08583568010569703
-0.09064190403238451
0.0002652026061931676
-0.5221717415540698
-0.007285653835317124
0.005072419411513062
-0.01927438644778505
0.02097638839278893
0.005704347551387685
-0.6710589771127342
-0.05708523868468052
0.01873273498481153
0.003448770465601231
-0.2239646941106019
-0.1382030853971748
-1.322995322118013
0.004844650600373401
0.009062185419297085
-0.09383922174719325
0.01591522673914994
-0.00985467866563528
-0.05362915222121708
1.830679696615068
0.02273918981292126
0.08133887733739405
0.007059592771986011
-0.006493250049638142
0.001435686086007867
0.02578320790138872
-0.08089796060469512
-0.2170294921036761
0.008383096523364069
-0.04599755613499257
0.009322042791630972
0.03631176911893348
-0.005389780999644799
-0.6931747704821318
-0.001227699225088956
-0.003766936334016571
-0.005617500549879676
-0.07622597562102358
0.05022427596678943
-0.3098428259108745
-0.0017186760506898
0.007474633728209439
-0.9693841764261343
-0.1804195980133106
0.03572411176303178
0.02388435034217526
0.007022743477064658
-0.01860475392630253
0.001297613070500079
-0.04471374321240519
-0.009214503069837902
-0.05845138847187833
0.009893312817860841
-0.01193068874161446
-0.004979333713958217
-0.05222354813287268
-0.2371459224214812
0.02376252218351515
-0.05999782374437704
-0.07806594881849278
0.004948150395541485
0.001766307465494416
-0.00115811549435003
-0.0009068593232558925
0.008233658366775263
-0.01818424798446608
0.009069258590990472
0.002220320020101819
0.007923130809390028
-0.02935450771525037
-0.2197307783752539
-0.8136854889913125
0.00457374986273265
-0.0004368094001298806
0.007684142299078843
0.002116899204518072
-0.005846369136539054
0.02591071620097141
-0.1033116392471548
-0.1574982898522517
0.04207972441839286
-0.09022494066757179
-0.01265178506432088
0.06142515270349998
0.08266058850118657
-0.02729570120927197
1.554383892602694
-0.0168329932142438
-0.162223286581588
-0.01644281275169065
3.16116269517564
-0.007174418069369872
-0.01297576101066349
-0.1915947115326507
-0.06349450890073524
0.3911310563670274
0.01480528783721497
-1.908354892750969
-0.00777440710875954
-0.002249202212349474
-0.01362344565250282
0.004654703218102478
-0.01036495257429815
-0.1343640570459066
-0.3113777539021051
-1.022296978543098
0.03754262579590103
0.009674407850043882
0.008880451430054032
0.0592568880572537
-1.753208891167004
-1.547109216995947
0.03786397683044239
-0.007545486157754113
-0.008367569778344431
-1.602534372967938
-0.07595344211412987
-0.4667981217205032
-1.631439782737514
-0.0247396715651802
-0.008995764475716667
-0.01104591064645739
0.02097513415709128
-0.06023929121625669
0.02361322338470882
0.02800851512046038
-0.1275263959727811
-0.06681576335963374
-0.01214066937807281
-0.004817293555738153
0.1068016598174055
-0.005638769200134861
0.005029755368347762
-0.007832036827601545
-0.009139273857677649
-0.2275958387893897
0.3802584572074265
-0.3072990571387917
-0.0875046277158311
-0.2030417430146154
-0.08983379791914718
-0.004316395201048779
-0.1398937893026425
0.05645610921801034
0.0458073441517955
-0.09080832180086167
0.01439227757107553
0.01625971122094573
-0.1580360887236218
-0.1951107471566114
0.02985785658953998
-0.03848595894350694
-0.3792134103447198
-0.2106671400389405
-0.1576030165055015
0.002861226693832773
0.006328305151882348
0.01003899082969782
-0.4583699109576658
-0.09073412036899496
-0.06101227514393453
-0.2817690351190246
-0.0164139354347297
-0.2913481856907337
-0.01560484091583364
-0.1951974742736979
-0.823004867878349
0.06415780383297795
-0.5506486135394079
-0.006428249043729184
-0.01790420533703908
0.003122014452044109
-0.00622794269899386
-0.2487343030623585
-1.502915034325233
0.0320100820925287
0.00895160957769171
0.01735789265458981
-0.00871882710104261
-0.006347054526983421
-0.2313101959611361
-0.007782378942286445
-0.4054269175806742
-10.43337536670619
0.003552625764964147
0.02263569400078802
-0.143005795916
-0.01201413870338881
0.002722056473869934
-0.3964469859866761
0.01544983690354429
-0.4532380762298782
-0.02149742729750902
-0.05413012621470946
-0.5264130367263178
-0.052644186437546
-0.02430763438014658
0.02001990715393038
-0.01330328697619668
0.1762281750247698
0.01265564615414305
-0.2095022663040646
-0.9126699459911722
-0.2107152324747585
0.006648153396493005
-0.006059297354348706
0.02129249322874779
-0.2911422498824223
0.003872212437014747
0.0008786762740822945
-0.003393577235696147
0.0003985881024906011
-0.02232264583196442
-0.2321942941420687
-0.05290002839258675
-0.01238668766441538
0.001143052415143269
-0.1355416593952535
-0.01705527666423728
0.4183633504128729
-0.1848255264351644
0.05315975234803615
-0.005407813734215745
-0.161916218011629
-0.007988736592732287
0.2355682075670806
-0.001603032557427713
0.009071448737027817
0.008745540307477321
0.001823243448291413
-0.0619788071955747
0.008889579275554074
0.02522348915730493
-0.009910013046317247
3.587474640100508
-0.06750874219645935
0.006237984120364746
-0.006199743146448563
0.1201875035032177
0.03205697569606973
-0.1847347459401509
0.001787423042763819
-0.4551414280442702
-0.2122618498304811
0.006044334145773706
-0.367799034036507
0.004072263897883112
-0.2808303752177433
-0.004798632877805162
0.03070525501911768
-0.2805824182839483
0.006257146703901523
0.1382617107460684
-0.4988931671670889
0.006497019871951346
0.1782588461988887
0.02029101211396525
0.01353135354384857
-0.08809285470998558
-0.1631157838355911
0.02585286075331088
0.04525349810568472
0.02034529821251186
-0.1503130146553062
0.001019132742898619
-0.004782591641455104
-0.6244698837030784
0.2179200877785482
-0.005286056886329033
-1.003841343131439
-0.3704794517395396
-1.233646656204297
-0.01142567269001096
0.09595072560474219
-0.01676140876734982
-0.08542550460123582
-0.00695588956209151
-1.061335061534909
-0.00657010310279389
-0.4884841830287861
0.05199794352632098
0.162901244934802
-1.896595883320382
0.4678611794133333
0.004963227976089041
0.03221003779766767
-0.9479983522541684
-0.9575604120829125
-0.1243798707122239
-0.00267942783788983
0.2027554834681401
-0.01463532731900237
-0.2165254022173038
-0.1221107365359391
-0.002129760441312703
0.1776005483591081
-0.1450658227468564
-0.09215729370256501
-0.8569179980265921
0.03471348089551476
0.06808418527675268
0.03745941901260324
-0.7419968857804474
-0.4654535741111384
0.02600530743093269
-0.2242979759003005
-0.3198808064536396
-0.2097910545491023
0.05032788493524466
-1.980382939688032
-0.0004980644389178053
0.004243831810164278
-0.0252700379702362
-0.2158879885036128
-0.1795460457877062
0.0001425382332682063
-0.1455848878679833
-0.7790030183240491
-0.1543103694723218
-0.00885726545995349
-0.1081110896391912
-0.7404501200087144
-1.126611499981061
-0.1259496449636351
-0.003206364972164419
-1.469131944207835
-0.2342871688774382
-0.003677588662164977
-0.03020442782101303
0.190856038096962
-0.03395651271422442
-0.6288175018750153
-1.603108061118909
-0.3944764861640037
-0.06454442162713153
-1.458368110640406
-0.210076230723214
-0.1815017342047202
-0.205785409720233
-0.9317781980972618
-0.1654930999773167
-0.01594462099792533
-0.004107457847126642
-0.4695668731989787
-0.2472734348219529
-0.731051158210317
-1.260519826249525
-0.1960101416916927
-0.007514837907975119
-0.1861735498185568
0.4112728684538152
-0.4603059328528014
-0.01372029124005754
0.2270558371737817
-0.2574280051032599
-0.004919194627127969
-0.02424922561819657
-0.2540142343015291
0.001335341323432214
0.7216184160836656
-0.129940433969998
-0.3302583647741437
-0.001818437481498225
-0.1052525454894171
0.03824765454451473
-0.9233687814080608
-0.7199896715325389
-0.5502430646942181
-0.6231338742620013
-0.003799076334540774
-0.1009847004889941
0.002881540725431248
-0.01377677530711655
-0.009964284870321397
0.01868844850291758
0.03154587991480284
-0.8640017078375644
-0.5103861680118229
-0.2122363302679075
-0.711751595338741
-0.008189295126547451
-0.2110698233548528
-0.1642633098593058
-0.2272758629518618
-0.2087499782125362
-0.1933180794739946
-0.2124979065225471
-0.0335658548243986
0.1862392482276534
-0.2757233264445629
-0.1545277437583399
-0.5162468387745005
-0.5295618299199739
-0.003110669363448081
0.02710654010737198
-0.2610299015802931
-0.1811180081834612
0.002034458418779107
-0.2067746062605476
-0.01176995465084732
-0.004443378987441337
0.005531248580353384
-0.01675935547017546
0.6682717978779381
-0.1121553089316743
-0.07918852964175027
0.004839600479767486
-0.6291427801705103
-0.01839108908628514
-0.01387879931602104
-0.2658477989161785
0.1043946229420401
-0.005259185516427191
-0.02164846693652676
-0.1336954179354186
0.0121682953112881
-0.2138543712131844
0.006867462853258568
-0.001743076217470606
-0.08120999394040121
-1.328019253346777
-0.1398392796080808
-0.006047446417678197
-0.08925708814337337
-1.750605007793099
-0.5092995650542453
-0.6984314007405628
-0.1564735772815127
0.008624873017785412
0.6031756881994023
-0.01662413289300222
0.07696038930433317
-0.3272564063653512
-0.2041080276162554
-0.03019083993451249
0.0344957915409751
-0.001207604962456667
0.01528905044695477
-0.1749866418615752
0.04158559331244551
-0.001393339183175392
0.07689991926437391
-0.03281532222919942
-0.1831596060943949
-0.00419366687977302
0.02058699032471708
-0.3679282565706036
0.02364708996296777
-0.6767470641640823
0.03937529241613765
0.01765745831743206
-0.01173887500333401
-1.178999407326939
-0.05004070960995367
0.02929606341441991
0.01075774773439334
-0.1463547344809405
0.1982288825937831
-3.30417264253781
-0.2404993720778624
0.4452841855460959
0.01451267816245977
-0.2437106590215328
0.1121900647536693
0.03409119479012603
-0.932820400771427
-4.129081026495747
0.0007020673670161984
0.02618406181272927
-2.312441822685517
-1.878653271190948
-0.2834876229585729
-0.03868030134413465
-2.918653404032836
-0.1972834282149037
-1.655066232612951
-0.005195588412503242
0.03757860888652077
-0.008751205504052314
0.01260562637440775
0.02933316921401543
0.005559732528920857
0.006212587444904465
0.005104768530854674
0.08337436411262972
0.03033778253339559
0.02474877999257965
-0.00019589175168795
-0.004946016409858755
0.05173634037964728
-0.1907414872528184
-0.009873679807118884
-0.2231424520480881
0.002910540854892645
-0.1949792819117755
-0.03458239127769602
-0.06457318218642316
-0.009018864405844415
-0.003544546743139242
-0.004531790887655165
0.001340333391492508
0.03788437601020844
-0.03430332565961846
-0.03554659230161165
-0.2000816538859506
0.001808671002919353
-0.1489056317792272
-0.1819963476098588
-0.02803149310271569
-0.00375009205637164
-0.01578858181843279
-0.00697135579819765
-0.02923282043092242
-0.004707018599725248
-0.004392456210041236
-0.01335629753741889
-0.0003683997434130686
0.04963124004578306
-0.002128745130926116
-0.07247057100510138
0.08015613631123543
0.01414177187782887
-2.031908595782525
-0.03005364444423533
-3.349481357927546
-2.290988039935236
0.2124690129028085
0.000214569311910516
-3.720932918368219
-1.171905219582539
-0.119588047885154
-0.02033830150418158
-0.00161476812016307
-0.01077097054258472
-0.01119324324951414
-0.002092201596627638
0.03670959788172276
-1.591954593216125
-0.001052392159278536
0.005570979015072214
-0.003453767817428269
-0.008233790559366204
-0.06287630707740033
0.001083588440661703
0.0005095586259299839
-0.005634651814449866
0.0005107046572153016
-0.0009123624841428972
-0.008321604852481157
0.09789655011482058
-0.01545154439116911
-0.01592651702573072
-0.09215065162147064
-0.1247349834039948
-0.1703674890770131
-0.03049127535633519
-0.007288361722490416
-0.06062926217386085
-0.008706312170135426
-0.008275780617584806
-0.005010668375309417
-0.2073677465405163
-0.006850525364378846
-0.1507975300185447
0.02108885181246908
-0.008934304918062951
-0.006862110331594082
-0.0128530680781916
-0.01027285825432457
-0.2620822670061553
-0.0901166837903415
-0.007636896977845423
0.1437826174801601
-0.01236292589778482
-0.09608181163221646
-0.007229572432805097
-0.005693457073262975
0.001850941810175446
-0.01023313209717478
-0.111212491977094
-0.07661588897244083
-0.008259443255117696
-0.007121846516748319
-0.09075592074538689
0.2739412134149635
-0.1664301336712605
-0.04315668621436008
0.01343092615004623
-0.005073691737855087
0.01643781726768475
-0.009552453757163199
0.001502750359773643
-0.03999930343461689
-0.1518984953367238
0.01290480080036342
0.002101413295733203
-0.02807080082139849
-0.01265983178032887
-0.1145806188338047
-0.01420099142210639
-0.1555539630025052
-0.002404763505207453
-0.06570262675535916
0.1872011690978019
-0.5100910602873744
0.01283697796726828
-0.008191261184547804
-0.03314076592377822
0.008151828410337835
-0.009100513707113445
-2.25285482708817
0.003432197770046017
-0.03750035454399329
-0.009498353544340298
0.04936871212997383
0.001591345447266852
-0.03020817947294148
-0.006167073691019993
-0.1558898357049903
-0.002553383905019026
-0.01087429476061363
-0.1918228164945878
-0.8077341649895741
-0.05030217606854964
0.03043517342487501
0.01908748587993895
0.001446475884098098
-0.00398102672256099
0.04849783611727465
-0.00133041075786593
-0.006320976596282325
-0.00806081225440952
0.01060444657254151
-0.06174768373350128
-0.01852712297264159
0.002647027456224079
-0.2164927951352265
0.005303405186330624
-0.008994531144055294
-0.02104354058348432
-0.1251640963151499
-0.009958311630953707
-0.001331759720383785
0.004102508928614836
-0.151534671945852
-0.004744572829333279
0.003907508420985431
-0.0322234270091255
-0.008871966984406251
0.003035761827045721
0.004773425096298028
-1.229985910651366
-0.009072155422113379
-0.01402720621751749
-0.01133855401291142
-0.127783874355275
-0.005648625953185419
-0.01212622060347741
-0.005192734606454336
-0.01352207293548217
-0.2039881827972179
0.003730660541026368
-0.07231669697546231
-0.007179849260169158
-0.01296716437607535
-0.02227357841863559
-0.02017367354768634
-0.01698735122238867
-0.008126676217008353
-0.08783159609288535
-0.09327984967109569
-0.01565334999298809
-0.2841897114240084
-0.0009989837189269787
0.002791254743055325
-0.006421020022939377
-0.001607467082234165
-0.2135460858256925
0.007414595644922986
0.001466354220478349
-0.06720111157159532
-0.001913844905202406
-0.01439677706931632
-0.01558192002486818
-0.005803251931514532
-0.2261105470887528
-0.05385439866157724
0.3129545506046023
-0.2639158118662153
-0.1809399857304296
0.001004700436080438
-0.1989330164479803
-0.003572215225813435
-0.01246893333494333
-0.01869904808214679
0.003079169297621078
-0.09445545623937036
-0.2124514913192216
-0.01443359794400001
-0.0102711819331936
-0.01708156536340039
-0.08417754569348107
-0.01042133588966894
-0.002738333306698371
0.01666527330235244
0.001473128911775524
0.0008008217694553015
0.0112269173902677
-0.2021976322267596
0.02234567985947602
-0.1842577971241812
-0.01336593624139975
-0.002993112950915815
0.01985266971562016
0.0006675846835630496
-0.8295029985654396
0.0003205467495989171
-0.006795070031117947
-0.0002680164922935432
-0.01590123431902413
-0.1941365705708834
-0.01818782834457396
0.0007250818779629708
0.2044755826332685
0.01093229199488748
0.01778182512219951
-0.07749602064510162
-0.1717711969143086
0.05461590220373541
0.0007729838021073276
0.06109255153458955
-0.000926592208645724
0.04212836684268358
-0.00347814584472659
0.01663481901109744
-0.007131516964300947
0.3019209670238449
0.004796430000251845
0.02000001889379566
0.004817685967125389
0.04365628911058641
-0.001357509317341995
0.003175528734864922
-0.007825064151749045
-0.008730513732098783
-0.007491522704378067
-0.004674220956121368
0.001522967549759208
-0.006434833410323837
0.02868708755794129
-0.004989043169764546
0.005587416261980191
0.03210879830118786
0.01446257979683533
-0.01147730477950637
-0.005976083218729155
-0.01172733431115408
-0.007334217374702689
-0.06100967689467097
0.01749714682026132
-0.04957535541808269
-0.01325642418222008
0.02467081613120414
-0.006265329397694344
0.02678020892607855
-0.422442389704369
0.005411878459842114
-0.202303313435536
-0.2047949710914844
-0.1672679117658238
0.02471088971532995
-0.003626680179682867
-0.1935285618114552
-0.1968662531656555
0.07373381548293596
-0.04206869729706229
-1.428059232581902
0.0003089764407249188
-0.002300880463518777
0.04338520688425742
-0.09758609788340325
-0.199106629597551
-0.001416714613171174
-0.05433266282784622
0.01148659166871923
-0.03469310445692556
1.051620335693099
-0.006135088668261394
-0.2182414228735214
0.04360907950367863
0.2798612925356837
-0.001725034830543462
0.2620732301575329
-0.000600687874845236
-0.2800147080900756
-0.007039355384400393
-0.23024271190462
-0.2137054311999339
-0.001945413943136444
0.1022331452699559
0.002747504444231697
0.02693808957963036
-0.00117313694988297
-0.2166271653361002
0.01120974444747667
-0.01511449941160852
-0.2311895644080867
-0.02883594283776526
0.002257567418348904
0.01411784667936698
-0.132222178741131
-0.01351305051929369
-0.01571118803481663
0.001861540885333549
-0.01499926701671497
-0.2068058480225448
0.06572781975145428
-0.01388489282781523
0.03387262145059563
0.007543185310376331
-0.00447265229271084
-0.009536480022571589
-0.2672323289406307
0.1353392564705301
-0.01520969631397718
-0.3497730704221821
-0.00709481452901359
0.01002640714485048
-0.1821753558309105
-0.09192644784537471
0.05446753466252519
0.004177700867890693
-1.154456691756576
-0.01255383335529263
-0.7167553828509082
-0.008450663212160335
-0.01610994333102139
-0.01554139625929237
-0.03382406243998491
-0.03613928837117532
-0.1319671703115862
-0.1132646183753985
-0.0429841545095675
-0.004347344779413636
0.01233981212692301
0.001388943127978235
-0.007271604870259487
0.01315842977264361
-0.1232532198589672
0.001817807651450488
-0.006959512789920347
-0.004576978259621878
-0.006617435979374222
0.0002643797909165456
0.02038342786190716
-0.05448689733472269
-0.03122755538816799
0.01248582801171685
0.01563067768678841
0.008308987161001723
0.01334103703108078
-0.01517222528719028
0.03941353874705619
1.624859802294045e-05
0.02129437998778851
-0.04660326071959509
-0.1512221805162377
0.005449481851254774
-0.3982474663703202
-0.1999863664427148
-0.3165925482683617
-0.1415139535942416
-1.00350543397483
-0.03275310771724323
-0.006095057982751119
0.00122731528196548
-0.03943124579197341
-0.05453291837053802
-0.8453499538856265
-0.06930290161096304
-0.001756552015560539
0.01366245866693947
0.01390953658276988
0.01465407070695252
-0.01241896215905212
-0.7534881995265149
0.04247678885628211
-0.006484598804245515
0.00285252061567355
-0.04052035890949413
0.0114829956553923
0.00614274609021469
-0.04443293871136672
0.1060634282011876
-0.05173176534251437
-0.1003361273381163
-0.1026334769258561
-0.08280258962620142
-0.01131605191285586
-0.08187333944679202
0.2372693374943647
-0.02455293273553984
0.003441518063525223
0.003798671906711856
-0.01348314339590502
0.01113068564619466
-0.007451057896174854
-0.008675273784036951
-0.008894598441674719
0.0100499806892223
-0.009128651300971093
-0.09708354803624961
-0.03660884146102449
-0.01264316219499338
-0.9184183554958093
-0.008921109284152498
-0.2832958042619638
-0.1867928804449276
-0.9228579705113297
0.01241138985323889
0.01337531178370603
-0.3851442348938877
-0.0483145647867607
-0.01232263519260307
-0.01185326732682629
0.007622567525768043
0.0004642942098531381
-0.1795880628320984
-0.001609407437333979
0.004026954204128814
-0.0007631088663055906
-0.4273882383822534
-0.009530218419837226
-1.521552555501266
-0.07003148820736388
-0.06335557950563794
-0.01600298741401541
-0.6971523974106207
-0.007855995782604382
-0.193625699187372
-0.01149976812722593
0.05451410220277786
-0.006976102072613019
-1.499219816100011
-1.119978334343838
-0.3003510000645098
-0.05257305697560707
-0.03868682071654456
-1.417115083652834
-2.650697110661004
-0.003239751175086097
-1.610300806367801
-0.004100277249913798
-2.289099418131923
-5.188190679744528
-0.008489913137070589
-0.009617371102255188
-0.07996870924396178
-1.7072331428163
-0.0126231713830501
-0.04764206548157848
-0.01186800675196021
0.02545313832082964
0.02085420518300652
-0.8348594837929697
-2.578415483164295
0.0004064105341962852
-0.0182010240986846
-0.0021969783803238
-0.0069054551150238
-0.008562919819052729
-0.04008671784990523
-0.01390947254177397
-0.02505661764531037
-0.04715997577012618
0.1675572017835497
-0.0842856506342074
-0.02122411368615538
0.02681058715024912
0.002329080959542015
-3.446463546398366
-0.01642624691370582
0.03898775780941403
-4.966313616166986
-0.03247548923980944
-0.08282590731387691
0.0008616655523919643
-0.0325802352780191
-1.039001380081962
-1.814632305134153
-2.225634026094152
-0.03582870717408757
-0.07607357329297766
-0.1110370827016875
-1.431489199401545
0.003443731922910336
-0.03443680759438835
-0.05024289685579079
-0.06688889062300002
0.0161578135812233
-2.141671578138655
-0.5404085116597197
0.1020287821959196
-0.03813424855619176
-0.01505500989280415
-0.02197303796168406
-1.650008592397048
0.02658875627033329
-0.01125080768272732
-0.008982098144835134
0.002436918752450708
-1.269939179620065
-1.469737874012773
-0.005657386213756854
-0.2912975557975187
0.0009496294028901146
-0.01397453759297787
0.02639992515483739
0.02487180304191495
0.03442170222543455
-0.01491593299959694
-0.01893787449868762
0.03575281302789768
-0.1108865059459422
-0.004476112265865953
-0.002967677062070541
-0.6364275553449557
-0.1562748441457013
-0.02266367478237165
0.0129138447266298
-0.001266950960507382
-0.002993730701491556
-0.01754046166368648
-0.004985167905882519
-0.06033292858383238
-0.0251916805777692
-0.1327796445479085
-0.005370307582836142
-0.009160157496932251
-0.9147359753083317
-0.05863488406276043
0.001687700218039908
0.0008202483608360113
-0.09610803091646342
-0.2648928938797585
0.001849422975479603
-0.0178226291503221
0.01095385117078148
0.005144098746619848
-0.001487416179296494
0.001893775408409617
-0.1878914194638343
-0.0383533408895631
-0.8544075622613381
0.02200749107981752
-0.002695324931789907
-0.004466650361365977
0.001660074363301297
0.003864692960972132
-0.406240940852874
0.003404824689810007
-0.3370962253475611
-0.0299894704786226
-0.001281705232340203
0.001168515674874136
-0.03134753560784387
1.052628534291188
0.007463844879134691
0.005350293678756969
-0.2154661480618693
0.01124022194214145
-0.03396998368514177
0.001228096912473481
0.1153743372790589
-0.001255556474979872
0.0005271952150374879
-0.7645190199783378
0.1395798834705162
-0.001276720468182335
0.1718852242514546
-0.001005110475967253
-0.2302614970406008
-0.0007705492330297686
0.002035951731929472
0.003759708559683972
0.0009120356740915083
0.0001346364923343524
8.822550075093996e-05
-0.007014858714055592
0.02817975418771711
0.002022406369431834
-0.1915731472132631
0.0005816864553976293
-0.006103112581952995
0.003164592748236708
-0.01857709683970958
-0.002704808915133697
-0.06066144785417719
0.0004219134548542959
0.09634123382213855
-0.005532536813517785
0.4038683888058579
0.004200529755445008
-0.03283191326025656
0.08548070667679386
0.0237950615342038
0.002792884963483206
-0.003846536404761706
0.06566425780014269
0.007258810310085616
0.05801481793983512
-0.03931487607898383
0.002888034895151595
0.002459725715694357
0.06350176628692417
-0.01449014606080734
-0.007437696913364276
-0.4438438233962898
0.004783908209952671
-0.03005917076989059
-0.02967565807100332
0.06224674882418791
-0.009301104806665879
0.002928373503176096
-0.170530504085625
-0.1327875760925357
0.0105188712715681
-0.01367635016796134
0.001162520742557051
0.001700074053351901
-0.008559870674922402
0.001245953225731156
-6.182098943852672e-05
-0.001256250180633731
-0.0001634580480680256
0.005250666444396384
0.002058126716659314
-0.03216574918438048
0.01089965613897825
-0.1547785995958873
-0.01469272013733654
-0.3104508631086824
0.009918761908946992
0.02151618719901488
0.0008858717253355855
0.001165727677521732
-0.01288376542216127
-0.7905332081671503
0.002140226856955617
0.0001785253826381602
-0.6479146008553528
0.001933907052371117
-0.0383826309508147
0.001142684837038823
0.001250669800336861
-0.03224857957477439
0.02434045212683516
0.01003906572098887
0.001119220632093733
0.1793073830065048
-0.2825064995679943
0.0001075866980763453
-0.01126742134246378
-0.0238406719660172
-0.001651063941941301
-0.02409862485310923
-0.02483900557442364
0.0003945770730636399
-0.02482127494772553
-0.01722855395117111
0.001969728457802102
0.04252839574536837
0.8652558201747792
-0.003928950152487707
-0.303693955885093
-0.1115747755757606
-0.1444052562398547
0.03104208511252269
-0.01629082076711744
-0.5132448528541435
-0.02687265130371645
0.001787809107221869
-0.02603822949913711
-0.04743122244750649
-0.02726881708132212
-0.4968031828851363
0.007021749583562325
-0.0001419728984849177
-0.0479433943639548
-0.01669258515486827
0.004177087200308807
0.480609512124902
0.1744685309258371
-0.1731511962811341
-0.01009181994747085
-0.02400997611606967
0.01680856595668283
0.0003555483699857959
-0.218071772830632
-0.01133363140241238
-0.136156091253097
-0.01540482360448613
-0.3091093082402863
-0.2591511179079459
0.005833385509588241
0.01780517997054485
0.5652427088663773
-0.01007069238541663
-0.01688541786290147
0.0249522498098047
-0.009141583327844052
0.007089872120318746
-0.01750476088160395
-0.02501140668585381
0.0006590785909375829
-0.03353815852491519
-0.03022782562607327
0.04563340130107746
-0.2541113316230857
-0.03370167192912257
-0.02495117228264953
-0.003867724492144621
-0.003534112722916207
-0.02780947339298107
-0.0006381869532071091
-0.02036254525981902
0.0006827239548133213
0.001118344896148546
-0.3421001815600527
-0.006645950141777904
-0.03529819413672378
-0.01441638577735783
-0.007809965520539329
-0.01855905586670462
-0.06993421161865246
-0.01355512400797085
0.0005573389843780242
0.001874553399320288
0.001622447529591023
0.1582880948142458
-0.01231810234445774
-0.007219877283374975
0.0006775648144367441
-0.001196620362567735
0.000862629392343102
-0.3123876903166489
-0.003967057333708631
-0.002518092909283845
6.979098810402935e-05
0.01079211561126726
0.01136487038245981
0.01952482492628116
-0.01427531398162292
0.001514343538840856
-0.001181172087631528
-0.01407279450749712
0.1789688283988873
-0.5660732420179211
-0.01687026670685246
0.007114505703206094
-0.01515481247545675
0.05857572034181422
-0.01262560027125014
-0.3660259397301288
-0.01269597367605143
-0.01517800796152766
0.001760988618203399
-0.004030405972742389
-0.01774065931545985
-0.01735005460488641
0.005006442889678179
-0.01191291366393479
-1.030182078300939
0.01334081138253814
-0.01689410883982492
-0.02773669926139794
0.02375781078131758
-0.269561764723782
-0.02888250862331707
0.1463339579292075
-0.1260931843574765
-0.01519374285200989
-0.02072508886166075
-0.02639214327080428
0.1374591287812908
0.001402072993739729
-0.01127895463719144
-0.0003973935200258512
-0.003613590217666785
-0.0267372722972585
-0.01739404731801863
-0.01874593478709873
0.003133067725664288
-0.02819827603980029
-0.02305866378491842
-0.008982407545596992
-0.0243085625102453
-0.06709950756439852
-0.01957604380226539
0.009955221241627192
0.00549322662761157
0.01020138327309387
0.01073527306716868
0.1465391095269929
0.0004397573710793768
-0.03262892611903454
0.00703918539663379
0.009647581776666348
0.007312454250126625
0.01137207209354094
-0.006596587373471157
0.00375218029819854