/*--------------------------------*- C++ -*----------------------------------*\
| =========                 |                                                 |
| \\      /  F ield         | OpenFOAM: The Open Source CFD Toolbox           |
|  \\    /   O peration     | Version:  v1906                                 |
|   \\  /    A nd           | Web:      www.OpenFOAM.com                      |
|    \\/     M anipulation  |                                                 |
\*---------------------------------------------------------------------------*/
FoamFile
{
    version     2.0;
    format      ascii;
    class       surfaceScalarField;
    location    "0.7";
    object      phi;
}
// * * * * * * * * * * * * * * * * * * * * * * * * * * * * * * * * * * * * * //

dimensions      [0 3 -1 0 0 0 0];
oriented        oriented;


internalField   nonuniform List<scalar> 
153371
(
0.01643844196186825
-0.8059965196311696
-1.449251542053291
2.238809619718376
20.61954746143223
-4.648213176903236
-15.9709968744996
-16.55997814133964
8.219728124265803
-13.29036978217502
21.63061979924993
-0.3774968190047306
1.00281214908959
-2.773764289750017
2.148448959661048
-5.162338888853424
0.8045193231566793
52.37109783856223
-48.0132782728648
-18.28130546386287
21.92141423677512
-22.79625103533585
19.15614226241668
0.2248821674428671
-0.008988296027430379
-0.03796319706919322
-0.1779306743396428
-13.9149468343064
-12.07938766128074
25.99477639132039
-0.1094705702846508
0.4251271597047794
-0.4555226065396518
0.1398660171186872
16.79679293605322
18.26244975926916
-18.54245142972493
-16.51679126559761
-7.335228916786507
-11.02060112754654
26.13348880074351
-7.777658756480194
10.92822006682338
4.894025303490866
-15.82224537034547
1.587250056349468
2.8494906806643
-1.487270669121538
-2.949470067879743
0.3675944055280104
-0.9289334636757365
0.5613390581844286
0.1170793387220623
-0.1667938134256364
0.02985324678818718
0.01986122792160533
-5.078585198569723
16.72736219043693
2.82276564609218
-14.47154263796033
9.394227959064592
28.0525742673045
-20.95350297463124
-16.49329925174144
-10.19130763183156
-24.85805636626738
44.44359195716213
-15.08030342190251
-30.35233022463898
29.12961617445111
16.30301747208874
-10.51070701734296
4.569180245450264
16.44941056652207
-10.50788379466236
0.04021385876470392
-0.5989671024091207
0.834852836767637
-0.2760995931205956
-0.1095193056118369
0.1341073068287908
0.005891586919898343
-0.03047958813260103
-8.944797363574382
-24.34984377132279
21.23380757934629
12.06083355553381
22.75637351703276
-22.16003898855889
0.5022450524627305
-1.098579580941142
6.968464889383875
-2.977022891295102
7.608263361683132
-11.59970535976171
9.649026594885052
0.4366851489721605
-7.435382673705591
-2.650329070156801
-8.913181169278085
7.61303407973011
-3.178402937299079
4.478550026875118
-7.540049893485647
-7.298395491475269
14.83781530120776
44.35405489631982
-10.6374799549999
-22.34177156595214
-11.37480337536973
-11.26874590380689
-5.807475870149418
17.07734881250154
0.1627479086890871
-0.4877989258771011
0.3922433962732932
-0.06719237905880072
-0.1011396471377616
0.836985072776631
-0.6947502553171124
0.5581456611796931
-0.6293204813872154
0.7659250755458422
4.852401870529873
6.943137789093177
-24.12873814067175
12.33319848104834
-14.94172069390795
23.74745151445267
-3.415673439746028
-5.390057380795941
26.58458135469188
-24.12650793300851
9.191028821517426
-11.64910224322657
0.04749350200681797
0.1427375338170289
0.3037949051451128
-0.4940259409464509
1.512207405492582
-14.62323718734355
-14.3118843194145
27.42291410125595
-2.282652624018352
12.38903145460359
7.179200446500832
-17.28557927713726
-10.10267394579142
3.662168936981448
-11.81745502512198
18.25796003391752
-1.429866437971749
-0.1325752496253563
-0.6486255642102925
2.21106725184976
-4.878119649066873
-9.485934225689553
-3.427590596813227
-17.1413932419906
14.55205558864929
-25.46340670883316
28.05274436216602
-1.497385492897322
-0.9637718310749264
20.45570477427609
-17.9945474503304
4.407715105470584
-0.01699014742703802
-19.33244565195134
21.12579547142794
13.41293029933615
-10.79127425631221
-14.87906867635033
29.45349533354549
-14.57343588899252
-14.16004409021027
-9.921512464597013
-1.581531709771295
25.66308826457513
5.336436107148438
-18.7798037144419
-5.077780227729878
18.52114783501958
-17.95018744410781
2.313305205573836
0.3177031357475075
15.31917910280124
9.157945303829333
-4.652352367577489
-10.84682046473998
6.341227528490134
-0.07936839991588931
13.59389654819743
-6.546063258885643
-0.06170595219037271
0.06877841625818575
-0.01322104311871502
0.006148579060878751
7.276053848687611
2.770719663180973
2.51867441110416
-12.56544792289679
-19.60267243249562
18.7177026913814
0.8852559252168497
-0.2316860100885688
-0.01208156757327663
0.4116361329876931
-0.1678685553159865
-0.8203598425618068
0.3075794395318424
1.124980027138969
-0.6121996240870685
-0.2356341301486833
0.1627609853042478
0.2082317609075313
-0.1353586160561646
-14.05228042838079
17.8818110130635
-2.559878490517296
-1.269652094202953
0.6044146306972675
-0.02090474057444867
-0.08604552048624589
-0.4974643696288511
-4.448548525525365
13.58837911545379
-1.526796510141737
8.276075527523799
16.64760725516028
-3.797887311260381
8.637267805957581
-9.417702625089284
0.679295171977522
-8.329625124624437
15.13545338355345
11.09932387239707
-17.90515213129258
-21.67317998542434
-14.97759154561081
17.04809909853905
-4.708316185976576
15.79233229662241
-23.88822963677721
12.80421352613025
14.84896729708899
-11.62106697196186
-0.3800070981231142
-2.847893227004602
0.08365195522643414
-1.608454969233106
1.576096904902548
-0.05129389087365473
-17.09292890205462
-9.02319160294264
14.70373876638838
11.41238173860711
-0.02952520070021546
0.01877323799550356
9.725879611430203
-20.25023011924359
-8.184401841420051
-0.4841213671247609
-1.404465672128993
0.4526574873672051
1.43592955189576
0.3020274476586355
-0.5557078931472298
0.7716302828658628
-0.5179498373403401
-1.054056611072533
1.319039538040524
-0.2649829269541754
-8.443833910176512
32.55799813459294
-27.41571458195248
3.301550357532299
-0.4543316011958711
0.492782813784148
0.6089538547522545
-0.6474050673066276
39.66535520256205
-16.63499227252417
0.7787201013630991
-23.80908303140317
23.52728963438106
-16.29426950915863
4.25036555425843
-11.48338567948568
-6.220326694100402
-2.198691695397536
8.855703538486424
-9.729928400961619
5.606495188377928
-6.403033905601492
10.5264671182346
-17.21291662037013
-16.2873662124086
24.56401029956146
8.936272533188541
-3.233478407925339
-15.90502596146229
0.783077607861753
18.35542676153008
-0.06140640155484289
0.0006594759198391662
-0.1171923163870819
0.1779392420312295
-0.5659443764196227
14.44709919227836
-13.88115481587362
-7.677528210961534
-5.802342192089938
-7.84775226198671
21.32762266498743
-5.093025998704719
-16.72902011299492
6.42737135639065
15.39467475530756
0.1598686099348953
-0.2633799306342275
-0.4839255416750529
0.5874368623945881
-0.1176290396590886
0.09402165516801027
0.01171402410063755
0.01189336039649408
13.99468694650509
19.53502639749678
-0.9039541792273476
-32.62575916477421
-10.20531447840421
3.514613694517971
-11.99225817097261
18.68295895478581
-10.15215840929277
7.738566680999398
3.934787352019212
-1.521195623726885
-0.4701272341816493
0.8171688071118285
-0.04501412525392257
-30.54051002263884
25.67340447255476
1.531172642772565
3.33593290730421
20.81366778079124
0.376896985879939
-24.42404317459635
-17.58878445123067
-25.34523909938046
19.08110178957543
23.85292176102277
16.60764406336282
-19.01192889807567
-17.95789267040735
20.36217750512007
-14.33493459809408
15.4245047470236
19.72409763185937
-26.56081439158285
-1.126507718044412
4.120209429052
23.56711268057443
1.790486003691642
-3.125173487952167
1.488700532513211
-0.1540130482354565
-3.482576498141337
4.908154211616857
18.21451849133863
-19.64009620481598
1.471619980596397
0.1882060377660709
0.4146642663973151
-2.074490284769951
-0.9386340145334805
-1.521622196720759
1.351723849844364
1.108532361410304
8.562355460130323
-8.748393768295037
12.97365831521191
-12.78762000704995
0.1986066113684366
0.04589696685609067
-0.1789303311354203
-0.06557324707402039
-11.21810632774478
2.015062053526296
24.94907725509803
-15.74603298087952
-8.055009174530882
10.6053165003708
-12.91448357090472
10.36417624506257
0.1092381391853673
0.02769712030281716
-0.008826858326476715
-0.1281084011521455
-23.75601669601841
7.421350670860304
-9.021925133076669
25.35659115818043
9.289665666873567
8.778150380699749
-18.06799121260049
-0.02388772468887211
0.06974403290269439
0.03078892863814035
-0.0766452368430658
14.27294921682044
7.285507935436056
-5.889084569939429
-15.66937258236309
4.580105382752385
2.629270379967839
-10.18639865400115
-0.2190395607608354
0.3792858986657997
-0.4230770011561227
0.2628306632586807
0.4072237078092048
0.6799140310084569
-0.2658397492435671
-0.821297989544629
1.714853975108229
2.107482250818304
-2.709141687473593
-1.113194538488906
-0.02824636445275805
0.0006318780510295081
-0.03108618396759668
0.05870067037557195
9.073909992187577
-7.309746331371367
7.52550200605693
-27.40582356642251
1.955549870049209
24.24292272949344
1.207350966885817
1.104593580717658
-3.577987355616592
-1.010187874447466
3.483581649280963
1.461980194195403
6.971126872795434
1.294634303073324
-9.727741370200498
7.322482692280685
19.97888914173521
-43.18956979966283
15.88819796564577
2.895680110049851
-19.34913001635055
-3.933317649349113
-0.1185570031465003
0.1256767650695634
-0.1133355415104352
0.1062157795981366
16.3845955736206
-12.8018562205832
-3.131749038478488
-0.4509903145598682
14.78317919927825
-17.68106867492943
-6.351837677220986
9.249727152793779
9.112589664849192
-23.36566351294067
14.85835093789744
-0.6052770898059407
-12.71926112774561
-10.77325159397057
-15.57485115346962
39.06736387518582
9.210692385597362
-11.83673699658485
28.13137138904587
-25.5053267780604
19.29858156735083
-8.685274030228237
-8.236000840577136
-2.37730669656061
-0.8892005787363374
1.960603550033272
-2.769381491672581
1.697978520335059
0.5917557181699447
-0.07127958115905789
0.09262535039526276
-0.6131014874010027
18.88899056306666
-18.96389453009305
-0.8232904102674946
0.898194377283246
-20.44102750670447
9.357646212591705
11.08338129410813
4.25008402195661
10.5991466991848
4.510005154086613
-19.35923587519657
4.820398259123557
6.974716206644044
8.365715968479957
-18.93632973895797
28.59529463554845
-5.703214625635677
-3.95575027095746
-0.01375022184363776
-0.1620714591743471
0.1453437073712141
0.03047797365729021
9.44467814485188
-16.68493414157457
-1.054424546053593
8.294680542769859
-1.892022556212884
29.90191950469392
-2.918848706677055
-25.09104824180811
27.32070217079363
-27.16915970170142
-3.800148165681742
3.648605696587462
2.090455451606148
-4.635296542840926
-1.984870896140975
4.529711987319984
-15.57357052301366
-9.504136637871204
10.24744318134389
14.83026397953865
-0.1841307625549149
0.1336687145314722
-0.4196651861423834
-0.1407996908684122
-12.27729254153694
12.41814059591256
27.86007225050431
3.222053003859306
-10.759616340442
-20.32250891392217
0.08740577924939115
-0.09308484746803664
-0.1831324110978559
0.1888114793243819
0.169621969788177
0.01272040355862738
-0.1808885852849218
-0.001453788047394366
-31.88868542039804
-0.4617954562727015
33.62745229306942
-1.276971416461296
12.31671398182135
-6.315386863104682
-4.656437116073596
-1.344890002646503
37.09421796367387
-25.55230514156925
-34.52629205163731
22.98437922952144
-4.259885196362067
-22.447427196567
2.75748042792933
23.94983196488593
0.1536373361469855
-28.53766052697279
-1.046227346864051
29.43025053768249
-16.59423066787673
13.10052186292066
-14.47644699028936
17.97015579523826
-21.59044072149162
-16.496053468683
10.12432565466743
27.9621685355106
-20.76289257299802
-6.661103210666345
14.16665089904379
13.25734488460648
-16.1202122785259
13.55773896923883
6.851338875857176
-4.288865566549724
18.59611344930376
14.14101442794883
3.000196207275548
-35.73732408453031
13.93622424933083
0.3527509417722349
-17.24117091204743
2.952195720926657
-20.22493054008379
-6.320144978551316
28.0771068777056
-1.53203135910823
0.2166432987279468
0.3987735038774773
-0.1554674140155816
-0.4599493885756737
-22.19851642765732
15.41634436342005
9.94091870560772
-3.158746641376025
-8.123443659682325
6.979446834385525
-8.209286406969243
9.353283232242839
19.99923049757168
-25.72319699905672
12.03646270191742
-6.312496200509628
22.83278612931799
-22.06648537824993
-15.38011954591267
14.61381879484318
0.3899792715105443
6.646532530170362
-23.83849521664204
16.80198341495906
6.200089122088328
-8.321642914446057
-16.82262750928032
18.94418130163663
-22.64067651271353
2.170162076491823
20.07322155088981
0.3972928853358821
-6.761477655582268
-11.49187258543619
25.64275642260161
-7.38940618158407
11.48486399058705
-20.38381115324475
9.050565939902265
-0.1516187772438978
-28.98258035088146
-17.00445809590442
16.95429709987094
29.03274134690895
-21.77889729995938
7.072744347456815
0.5970623672025026
14.10909058529898
13.88174780477192
-21.00441212396352
-20.28315924721922
14.57028199871935
-17.48784886196069
2.918316829935946
-0.08060689650124209
0.7044739030449964
-0.06187057681634492
0.4655374169055548
0.02422014411708581
-0.4278869842015622
-11.08742502006126
16.29829199571574
-9.213766015270838
4.00289903961583
13.58121310315325
-18.67618525457146
14.90794451778108
-9.812972366369133
-21.86612167043799
30.74258222349684
-24.93282304380906
16.05636249074147
23.17819517612892
7.010939152781692
-27.70212461388838
-2.487009715021988
-23.26480775958996
11.40093262303093
10.94440801558281
0.9194671209758553
21.60797331367194
5.187767851556856
-2.0347381878421
-24.76100297737497
-0.449792299428888
-2.177241687949091
3.731627568058783
-0.01415587390569744
0.108622684510087
-0.1065798634150702
0.01211305281960904
-16.79276192019815
-3.71701688306714
12.22060480529147
8.289173997970963
1.393425637649264
-2.66620974661164
0.383583530198621
31.03858037984088
-9.155910169956115
-0.9265528326558536
-20.9561173772383
-1.323797826435257
5.208645423072928
0.05930756073658257
-0.6369737254795262
0.3321445131503794
0.2455216516149261
-2.967794611175644
17.53880853686668
-0.02197906070265121
0.06294651887423126
0.09501011090960837
-0.1359775690660235
11.34676804236573
6.69477953547186
-18.90911884726332
0.8675712693779899
-1.444793539779796
1.922788319975
2.203796296684954
-2.681791076932674
-17.50888771763527
-3.566123614215978
21.07536395165783
-0.03435774113508206
0.006746702894105815
0.121847680006537
-0.09423664175781254
10.31976606250387
-4.163080653283626
6.501205990481252
-12.65789139970396
0.2603921651582665
21.56007435211927
-19.45328683479224
-2.367179682490594
-0.4756889221660832
0.05838192873993153
-0.8942634185248169
1.311570411978895
-9.773895947954697
-9.45652655756027
1.082830394632241
-10.18528502479729
9.36319234044262
-0.2607377103387377
6.172066232385821
-7.812287543725007
0.2744467730425688
-0.2989036723160765
-0.008550209576992266
0.03300710886638716
-0.09949864114658348
13.08225668487706
-27.28213136571534
14.29937332197133
6.980812662939473
-16.31587042224663
-9.491201608244937
18.82625936750447
-14.69438722888266
-2.094929140862984
16.78973398762948
-17.14891186225049
26.87976835907113
-9.730965520797929
36.66806967015539
-9.098149623899193
-16.74825499989025
-10.82166504636787
-2.293983255035041
0.430849874507553
-0.02513039230379208
-0.04583946718989705
-0.1017808854273588
0.1727507449321997
0.02551172860259051
-0.09660414132024737
-0.04653662693845471
-11.30997021486678
-10.43339429635518
21.74240474883705
24.59324270641664
-10.46887431982711
-0.2426205818157072
13.54439711338407
11.34012211656437
2.624088817765172
-27.50860804771749
1.652479466742176
-5.707147451114825
2.41538430906395
1.639283675360966
0.04942622134260089
0.1149503030896619
-0.07035486925853651
-0.1409926141685088
0.01242521350423163
0.1454245240896666
-0.0168571234197637
-20.9310733400482
8.147055307181194
6.576842741155942
6.207175291655472
29.2181690004319
-20.03636445231452
18.46565659610354
-27.64746114421641
4.421947394068415
4.843490890834164
14.41438143179979
-23.67981971669987
0.1299391161952944
-0.1208268185838575
0.002601726494524087
13.09541067926266
-16.18557478875023
-23.76469108495456
26.8548551944966
-0.1468298223815037
0.1165466740309743
0.08692458839574159
-0.05664144003798984
0.2132912113596052
-0.08842442156640405
0.03789419551420306
0.5549004485710171
-0.702541820460956
0.1930185710932233
-0.04537719919405718
-19.97503387025587
0.003433768988721144
19.9718153772608
-23.79488175466975
23.96448578761164
5.815378753254245
-5.984982786192152
-21.00216612389207
3.668601815153404
7.174217116153724
10.15934719254606
-1.558703389365264
26.58020063219016
-10.70027542601135
-14.32122181687331
14.41818799454688
3.572724977194453
1.945450166268416
-19.93636313802372
-7.851224649224481
-12.41568506788327
2.353469380357219
17.91344033671702
-1.548181840952089
-0.9967398126783611
2.095129354152457
2.288646468086473
-2.21537535366468
-3.68111635388028
3.607845239489533
-0.1435692276036381
-17.28525316150597
2.527711030189971
14.90111135892847
5.842418067969501
-27.41523924134508
-2.277622880795858
23.85044405417052
-0.2205238958104275
-0.9220684761795517
0.9971542578792
0.1454381141535523
0.02152044214452052
-19.99641792989737
10.46129109353232
0.784222082904888
-15.84763297729655
4.602119800863158
35.21681222314076
-9.091961838932917
-46.4680657913138
20.34321540710308
-7.245196938397816
-4.340336407758114
32.36308801002106
-20.77755466386517
0.4057649028123076
-0.01068338786499053
-0.4962587932411427
0.1011772782932746
0.04187133008629956
0.6528219960530394
-0.1009988090412065
-0.5936945170724751
0.229154963669104
-0.01812208928170583
0.207717109540253
-0.4187499839151103
1.323666200508091
-1.182524280472815
0.5082219174962556
-2.043802960573877
2.718105323511158
21.43645786975207
5.094767783480005
-4.457046818870892
-22.07417883442141
-23.05789383989078
14.84814379320784
6.140802078086589
2.068947968597806
0.05142683697568395
-0.3101070387228927
0.1187429858258787
0.1399372159340256
-3.59183373051259
-21.73574466584982
22.60678776013847
2.720790636215649
-0.9523389619481963
-0.6723588384242333
0.1777481187339151
1.44694968164083
0.5174955154058059
0.2497036969697772
-0.5218644207799354
-0.2453347915870426
-33.11972121269755
-1.718186098296386
8.335990173080695
26.50191713794179
-24.37637305402914
3.870450245437592
-12.61379840410075
-14.42602964046297
1.033614709487348
-5.7529161206652
0.4237302570024172
-0.1836465354829739
0.3720416626486708
-0.6121253841545305
-18.48036290658739
-8.565680230139634
13.8120513870799
13.23399174961677
-1.051600405448634
-9.841886817580413
10.89348722295721
-0.6747725883798221
-2.79466235117559
1.150343432306931
2.319091507399783
-0.248071348283473
0.591194708788388
0.8094984776170978
-0.5480759692218957
0.2057602998357716
-0.4671828082255787
-9.608898621531782
-20.27394360488464
9.249886785767391
-16.20802114730032
-1.05413592830227
30.44328404950773
-13.1811269739064
-15.44354698562826
15.93785476112066
-0.4946923461708647
0.03293144570632865
0.17817702452136
0.03889382430050896
-0.2500022945141824
-0.1322115121449292
0.04216432417911647
0.1113977990218729
-0.02135061104824454
0.07353353234106466
-0.1181499013085209
0.02848754055701401
0.01612882841766498
-0.508476923114183
-0.09228862412259672
0.09681551885292486
0.5039500284243266
5.39578513683446
23.76712102680861
-21.51173452871326
-7.651171634946538
-0.09051430399849303
0.5916873662115928
-0.8717965235076097
0.3706234613097343
0.05087327487121232
-28.53203825921799
25.79079257869711
2.690372405641039
0.2977662981670491
-0.6087405021457254
-2.154518282517539
2.465492486521822
-0.04870010938915151
-0.2281970690336629
0.3837680996427651
-0.106870921209535
-4.150667347751374
-12.64373848839036
-1.653174948345318
18.44758078445562
-0.0624394872373512
-0.05031880000317528
-0.006440305747299256
0.1191985929929703
2.39805258167161
-0.3930928225585479
12.5698187545238
-14.5747785136372
24.21003306121856
-0.2590689519660692
-5.278603627232171
-18.67236048203358
15.51941834630124
-3.139732807860422
-1.415956207242933
-10.9637293311899
-15.87593109462611
-0.1672558179227621
-5.629993072877007
0.2723229019215689
-0.07626305001315795
-0.02395815294765028
0.01353861937696275
0.08668258358925947
-6.989453558605041
-3.222715695489943
10.77339739210532
-0.5612281381096564
-6.605517236138942
5.868805734963063
-0.9698405061062755
-4.920283421761961
-0.7153933082571833
16.45375889187133
-18.38746254297011
-24.62711074048464
-3.061543232192634
7.250262512640883
0.04528951572884507
0.04233478250378156
-0.03324000259453615
-0.05438429563236728
11.7859881239915
1.859815507080368
-15.0685625845796
1.422758953484798
-0.4986562197043705
0.4465453313179173
0.2998551807380482
-0.2477442923401706
0.01500769474683487
-0.1097691791779255
-0.04398605965517881
0.1387475440909872
5.888575934743454
-0.2112753335467354
-25.42614335489161
-0.5503149362669609
0.6521384525290552
25.3243198386285
0.8946915362639084
-0.9467650073519461
-0.3243016466941852
0.3763751177940874
-13.11615874549449
0.2207814778049436
12.89566288678679
-14.55749194490646
15.03548459666753
-12.69935057664764
12.22135792488517
-0.0534777402849651
-0.3860439944607631
0.6172022996623013
-0.1776805648953117
-0.8078363591233235
-7.704112557723698
3.894108121746834
-2.530654094315198
2.35591453267258
-3.719368560103817
0.3899064650444157
-0.3776750772453327
-0.1341708178701853
0.1219394300911291
-18.24925698103581
17.08201198917098
-17.0760966629564
18.24334165477401
-0.147286617192269
0.02816325000175604
0.02656068313051506
0.09256268406628709
-1.725909113137828
0.243543590672047
1.456724424933628
0.02564109752570514
-0.02836553355355033
-0.09786276552035254
0.0303394697990911
0.09588882928245437
6.231511804942857
-11.03762409868496
-6.397819927587425
22.85200392661372
-0.0241850408409983
0.1143808383051237
-0.1403204906302906
0.05012469317293222
-19.34517753857092
-3.463531261607254
6.600687652877537
-0.3140509382770299
-0.1576338303348027
1.151598799647084
0.03779997762150068
-0.1075160996549694
0.01471736817871065
0.05499875386550176
0.1164249132142802
-0.2995467198159008
-0.1593188482016429
0.3424406548129463
-14.25409492032061
-0.3036048144326581
13.00247173753591
-24.86402835325876
25.29785185965497
-13.43629524387219
-3.36784241599366
7.943895644649093
13.09934114378516
-17.67539437241503
1.958348549266791
-0.9811125328642812
-0.2477656525858537
-0.7294703638085839
-0.4336334943844997
18.54386223244533
-18.11031068843887
18.95399769302466
13.24597613523203
-21.82610087050775
-10.373872957751
-38.06971237970345
0.0706025041625314
20.92900625674465
17.07010361879368
4.403551369313377
-30.71957568233239
-1.866870726917353
28.18289503993339
15.69718533487903
-19.43823674470376
11.03911770040962
-7.298066290586659
0.3398277126388036
-0.7893139973493719
-0.6615297612647142
0.1816609139776828
0.3258632835605534
0.1540055637550877
8.841515622328847
21.09002897479716
-27.38108422908491
-2.550460368045257
29.21035096584067
-25.17441750692856
0.3676179103996485
-1.249403831754253
-0.08467861225373716
-1.375059243480725
27.80410629140705
-13.26394267792552
3.666497546170915
-18.206661159681
0.2194934788339169
0.3595371858295325
-1.144747159399365
0.5657164947543152
0.4711138726791636
-0.1330485203501786
0.1025942933252135
-0.4406596456481952
-0.09483140541351461
-14.36886752821685
-10.7496655800116
25.21336451361661
17.65562498975567
21.89907251631235
-22.27495173806697
-17.27974576800404
0.820355547098812
-2.1580580238084
-0.9562807783521644
16.7553999980851
0.9004451280841005
0.155241571276534
-0.01311164899883527
-0.08431390383460435
-0.05781601843556479
-8.544772085468148
3.965043278973081
1.518185574279003
3.206153622136399
-4.779798834718378
-13.3893897000739
-2.601078369165536
18.28365703264447
-2.29318896340541
-26.79511726821695
23.42841054332351
-30.65485753667577
34.02156426156333
-0.2173342927365911
1.526730323932905
-2.097983711538214
0.7885876803660073
11.85782794710587
-5.765130114631071
21.20720569896448
-18.59022952065039
-29.63927850652286
27.02230232821719
1.843770344686043
14.08525643474401
-10.87112863350306
-5.057898145927532
0.07217999723433831
-0.02739242470567302
0.01467773950608732
-0.05946531202197132
2.799281622533961
1.384870112500735
-1.425678124632309
-2.758473610354062
-7.693785753229952
-7.459790156594287
15.15334620328654
-11.65725306118446
-5.960177411302605
-2.598298424800972
20.21572889728473
-2.391526129560221
1.030926211584185
1.108554544837456
0.2520453731630798
11.24279154674324
-13.51389710187897
13.95340572263893
-11.68230016750604
-0.5300416605588917
0.5339440584062864
0.09274019629640794
-0.0966425941198607
-20.18128397621557
11.56399389214703
5.855555790045128
2.761734294040607
0.01464249871558594
-0.2834321957654841
-0.3690081681788703
0.6377978652332741
0.01026571279431841
-0.1242960713155103
0.03116820879205773
0.08286214973509745
-4.960235176111011
20.56328005261132
3.256716455102517
-18.85976133159877
-0.1577040967339247
0.215730793491027
0.003687174522002773
-0.06171387127062485
-17.00677662466278
12.5452742250437
-5.140564202677509
9.602066602327675
-0.2328532846560743
0.1242719916781927
0.165454409214753
-0.05687311622734034
-9.91123982802125
0.7863281618441358
12.22436314920699
-3.09945148301635
1.038341226361342
0.998509674557932
-7.255835242557404
5.218984341637246
0.34881176649658
0.0702122340577888
-0.4159514876646423
-0.003072512881184886
2.467790853115883
-5.91682850852289
0.0233985851705921
0.5848104882822286
-0.6234501601802935
0.01524108673638503
0.1197449278096472
0.08294287899698601
-0.1584804371375886
-0.04420736965509289
-13.23494309621674
1.676009321333221
2.951159976078206
-0.9626611252616722
-3.664508172068246
-0.007996242179519161
-0.3944095345175291
0.7068461992269797
-0.3044404224860572
-17.67348559306714
29.32004303132145
-10.17323112402636
-1.473326314233187
-0.9022845281992439
-0.5225775184392393
3.158916627008836
-1.734054580284524
-0.7655821236154102
0.6926999022812614
-0.6003348746412653
0.6732170960115441
7.062048368489656
1.201439785492876
-7.225146927609997
-19.52627747930684
-12.22153662715727
16.89822166219522
14.84959244426511
-1.720079681343179
-0.05026304705976167
0.3256058060164948
-0.3173364008105625
0.04199364186847523
8.156831680391885
17.77544513517206
-37.31405199133814
11.381775175773
4.979584885411739
-3.326830821251074
-0.002519197424255273
-0.1184762429522212
-0.02793594432861659
0.1489313847147137
0.6437946237739058
-2.010619586815474
0.400483402113005
0.9663415609594646
-26.03374972710123
14.37686958528476
28.41228013989881
-0.007075163292279394
0.0649050653138336
-0.09109858097709522
0.03326867896101966
0.007755344527402059
-0.135084351326851
0.1194434654209732
0.007885541387445856
-0.02695176883331073
0.01531949151255252
0.01163227732645507
-9.169747240054342
0.30448976872307
13.8448423567268
13.82559352541316
-1.137206677597467
4.760014791965076
-17.44840163982505
-13.88230629494947
-3.604998412597543
-0.0254492223224636
0.1547954368121864
-0.127880472390469
-0.001465742093406659
24.20738666186003
-23.65212965557479
-3.523051617461483
-0.07145084618834403
0.06934264196718722
-0.0373123767576671
0.03942058098329961
8.001586789810935
-13.58414551088968
23.7690876797312
-18.18652895872856
-0.2406217281920873
-0.2272943028213322
0.4585512747162086
0.009364756314860573
0.7335152342320954
0.07255429711615036
-0.01869961040054169
-0.787369920933941
-0.1769804859269556
0.1274779000747371
0.06415229347019011
-0.01464970761047578
0.01849034102409246
-0.04381978955908808
0.2386206598987982
-0.1784696722097932
-0.5347810518685487
0.0336918960307264
0.6795588280611813
6.808211107606122
15.0630955551214
-14.13605920900455
-7.735247453718113
1.565146026949457
-7.556089911014487
0.3200256064814471
-0.1515770838733244
0.10398936069321
-0.2724378832856715
0.008547550744273593
0.1004399533801501
-0.091375834456702
-0.01761166965782617
0.0443288262854323
0.02870161645153906
-0.07303044273155004
-15.79919652247356
6.971445244915893
15.4567816975127
-6.629030419962714
-0.1070770957217181
-0.005961153453087294
0.0982821367961369
0.01475611238501815
4.27322709386108
-21.78172282088349
-0.08279258811454203
-0.5295948077233741
0.3643160475560196
0.06702034915408739
-0.04465562984299959
-0.1089078001479044
0.08654308084591997
23.13616263192122
2.757931821339854
-18.85750678113685
-7.036587672126481
-0.07081722561841113
0.07097194104464759
-0.0001547154192156884
-1.932367746205367
-1.153058342236298
0.05045282636389924
3.034973262020798
-19.93018098740632
19.72245178286935
0.2077292045279064
-0.1816259975113531
0.05021964966497951
0.09467810693756507
0.03672824091753265
-6.831653147260381
-0.5747613795377345
-13.52465881328314
17.82379057272758
-14.75861956283306
-15.19442803120104
12.12925702124808
0.05867250158127753
0.4309896731827516
-0.05913359507844828
-0.4305285796719259
0.09704488611815532
0.02681260417012084
-0.08869249835226603
-0.03516499192548642
-0.1513613029408234
-0.4896777391448013
0.4365295957333766
0.204509446364921
0.05810152065398753
-0.02859162084867684
0.1275894445083574
-0.157099344306751
-0.1182305476624111
-0.2295411850538537
0.4641966459360752
0.1262109836217959
-0.5824607807729411
0.484143247713992
-0.02789345053277167
-0.307179745768739
-0.2456647856817309
0.4142688411146295
0.1385756903495471
10.77380405421007
0.7893421674531121
-5.741985356268859
-5.821160865381698
0.01203804123344103
0.167327296307433
19.00392288906876
-18.38942766215228
23.11509763561174
-23.72959286252955
-6.078360693911621
-12.15750527688111
1.551269347346225
16.68459662343642
0.1463437359771094
-0.07667377556761884
-0.1022205790478202
0.03255061864952508
0.2931083453867671
-0.01256538916150243
-0.03247185410484886
-0.459199568594347
0.5379820677088223
-0.04631064499548069
-0.2502918637798957
-13.09451957717498
13.34480639362654
0.1947220783890612
-0.2227717226073773
-0.1513311182444474
0.1793807624766847
-0.05780054623141585
0.1911854910857821