/*--------------------------------*- C++ -*----------------------------------*\
| =========                 |                                                 |
| \\      /  F ield         | OpenFOAM: The Open Source CFD Toolbox           |
|  \\    /   O peration     | Version:  v1906                                 |
|   \\  /    A nd           | Web:      www.OpenFOAM.com                      |
|    \\/     M anipulation  |                                                 |
\*---------------------------------------------------------------------------*/
FoamFile
{
    version     2.0;
    format      ascii;
    class       volScalarField;
    location    "1.3";
    object      p;
}
// * * * * * * * * * * * * * * * * * * * * * * * * * * * * * * * * * * * * * //

dimensions      [0 2 -2 0 0 0 0];


internalField   nonuniform List<scalar> 
19631
(
-0.08611805568457422
0.2063581086519227
0.1824539838528771
0.4000213448539551
0.09237569384203423
-0.42324071772357
0.102724108405075
-0.7142068678327204
-0.8849064606040303
0.04198601881503707
0.2600636218496319
-0.2702245615000914
-0.145725716163077
-0.2590828208136728
0.04364444837960105
-0.003129644186555304
-0.2530298105359746
-0.9372189425524223
-0.7002616261893136
-0.7856591441984114
-0.0153393014018
-0.2575471971750179
2.353978930384836
0.08794445563796936
-0.3137088931785486
-0.2229579299571879
-0.332091238817177
-0.8286860884002786
-0.1349853293340506
0.01648821109415293
-0.2569271692397273
-0.26209283007253
-0.09538260093224984
-0.01753747396179911
1.96052374817141
3.052465287196936
0.1333484987292471
-0.3785451945268228
-0.4659966240754407
-0.9892018327304289
-1.081581095706928
-0.03209738616754545
-0.003083360292825137
0.2121462736387916
-0.8754452990188214
-0.3739785317004947
0.06355874964225007
-0.04026908504843183
-0.1423306257003466
-0.3988721230745504
-0.2124400244306662
-0.3581701927786208
-0.3069423777958863
-0.4990634444513209
0.07144099783578188
0.08032257919894689
-0.2198348989735587
-0.2931313497594583
-1.359995478120649
0.09718657759199512
0.01614993163011743
-0.6142919291037445
-0.4689403306738849
-0.0001458645709304834
-0.2178472047931233
-0.8641470863561279
-0.2229295903527502
-0.2821122069283964
0.4910132137429243
0.02304521331367343
0.03782966168873258
1.916068434619697
0.1792773493754347
-0.228256454174432
-0.3162724140208981
0.3251348961478701
0.04663373602392428
0.04824774355873661
0.3557562792617103
-1.599569892098549
0.2722948048590781
-0.05492823286025035
0.4738460216535325
-0.6516914309892189
-0.9658283469502309
-0.3394970586402578
-0.2898134562298089
-0.06842514492015617
-0.01619062210106369
0.07436759996344072
-0.1679581012648123
-0.2429928309061567
-0.2437583746158406
-0.3031750498285166
-0.4990286639974685
-1.370843490262203
-0.5807106110848131
-0.4794511841985245
-0.3279750431777994
-0.2208097175637615
-0.2365686280625276
-0.1116990874187598
-0.2202208867727278
-0.05380324163431077
-0.7199477176263341
1.43619272089687
-1.142801257659961
-0.2330337458005755
-0.2323057139688144
-0.3293092814038499
0.2317244175781732
-0.9049628634371628
-0.4867055790127654
0.7799396022115509
-0.1087091661647196
-0.5222131241388123
-0.4436954417391349
-0.3113390996928492
-0.508227040503898
-0.2481577885955808
-0.2406987092460744
-0.3154720053578571
-0.2980668362466969
-1.645235756979506
-0.2741848641507111
-0.2192615466068187
0.4581218063911353
-0.2590772287103054
-0.04125401307532287
0.7785077136517869
-0.1161005123299516
0.02621781894245436
-0.4098404858979295
-0.1627750808539825
-0.1158373141599413
-1.530047729064465
-0.4939750837688047
-0.4245338357986244
-0.4145288983858645
-0.04493651904773622
-0.9905921921128333
-1.113179510114046
0.09183580215822632
0.02651792144639062
-0.5056650586953813
0.03236819583103624
-0.07907407175665214
0.07079721636753519
0.2180157525853443
0.1012127909074799
-0.226685202950783
-0.1941701311890796
-0.2045289454671468
-0.2218321393231916
-0.1703428328326224
-0.1253038193433186
0.1254879970791805
-0.0258005851191552
-0.3154976665190628
0.09870333003861508
-0.2029437254835077
0.03020941449857504
-0.1943225237763078
-0.2814609738716362
-0.02062345178192769
-0.302465602709636
-0.275705138027561
-0.1363353349177592
-1.181873738499846
-0.08487380000587427
-0.4071252939002667
-0.281110324136152
-0.3632102041086759
-0.2326894664189517
-0.1897774177463708
-0.3040833603287594
0.05877617373169335
-0.1935687158765857
-0.2003617663858619
-0.3477845462439165
-0.1902421290392387
0.09862650859689558
0.09938393384985826
0.5586497206117954
0.0893141596819039
0.01859239155050382
-0.04134744118748491
-0.2745707097872667
-0.2833169648559072
-0.2099728155894846
-0.232127550256828
0.08987016976440566
0.2291341043982744
0.1073198771619225
-0.3328030814220943
0.8925294131739031
-0.2919719259064124
0.006692096477288598
0.4373453535145813
0.3283118704555599
-0.2792672176938214
-0.2765955360563361
0.2379504927132328
-0.3143924783763452
0.02536838051237441
-0.3497053883389783
-0.1986914819399946
-0.2303671885220607
0.1128343338005013
-0.3062785040100205
0.1419182166311919
-0.3198212937961794
-0.1219441502662189
0.04993050748603307
-0.08206259014603447
0.05529304385162551
-0.01934008602359747
0.04052491813407717
-0.02598092994715469
-0.9630564259934027
-0.004863070023144919
-0.03908977921362582
0.3494446810455007
0.03517411641758868
-0.09402989322029999
0.1640676437850494
0.002926742347708585
-0.03569698455467119
-1.2401520582145
-0.4089913523432594
0.1945628355207331
-1.308265663930523
-1.375799149808523
-0.1919786777336933
-0.3925784747178362
-0.6818652481847689
-1.240984863773357
-0.5306612563118084
0.3511577985152646
-0.5839497179005647
0.3561417139738714
-0.3457483826106635
0.009195945129216133
-0.2960237843010141
0.1943574831282821
0.5226534640501551
0.1706747982794404
0.09905225986824931
-0.6471198118509537
-0.06621289135700226
-0.6433449865548472
-1.086346664495404
0.2079237986409561
-0.3841932660030812
0.1068217495202502
1.274944204800907
-0.6135909853909618
-0.3129431535769359
-0.9616369309480319
0.7254792368036617
0.1120961713286952
-0.5410036313495202
-0.8787351817784662
0.279104817254087
0.03393427217149097
0.0805541444235343
0.2264273091812427
-0.4671996055097049
-0.6022740884455992
-0.9101278651289285
-0.540621330173696
0.1848286361237813
-0.3093551725484306
0.08228779225782672
-0.8023626540914899
-0.3507900116767547
0.1416605855922375
0.1175011513871335
0.1437083827180362
0.09372793378312674
-0.1147629299874364
0.2476171332674455
-0.1155021259041902
0.7845086771431024
-0.4377344507247292
-1.579847763628104
-1.537353759916814
-0.1070090519824294
-0.3582820299075393
-0.4416801457587224
-0.6539261749386208
0.1005770542760419
0.1874582383728934
1.74214694193468
-0.3920480601607483
0.08329012924111136
-0.4386333361719001
-0.1946207511482477
0.3157805385047471
0.5542466037403118
-0.7272629911596573
-0.27823662958724
0.200493396733405
1.229792149090415
-0.4625537661882118
-0.09745582936297756
-0.4467503872143991
-0.4197489282634326
-0.08883369038975693
0.5749924040855896
-0.04030279058287749
0.1077223203369457
0.1013601118607347
0.5113794157530367
0.04586389212766902
-1.331489778605986
-0.4202308754514843
-0.4891076901420863
-0.6074007261171922
0.115656412501133
-0.4609490636214998
-0.1564511724469272
-0.02949736763227484
-0.3323043127537795
0.1843840362109191
-0.08404158464416854
0.1572869013881103
0.2180502576832851
0.07892461560145411
0.03451134378362463
-0.4454066491445369
-1.101714352323024
-0.3795431054415065
-0.088354440068559
0.5269913610428865
-1.099716786302963
1.29459672713126
-0.3972778737078425
0.3078709041039689
0.08287430300870867
2.893104126447409
-0.1709504124146748
0.06087322348956775
-1.058243387912599
-0.444567871874342
-0.1189461705590759
-0.5545243841509576
-0.2414326683260305
0.1056959130979265
0.1656715294660437
-0.2369793718226305
0.07617045522657603
-0.5487170851889033
-0.2726690731849462
-0.04662458547634717
-0.0821004312174258
-0.1077342910089827
-0.1534610508355264
1.523466168335465
-0.3851895431149178
-0.3295153547729386
0.06042853194494393
-0.7306269206054281
-0.1709901863298775
-0.4130134171665273
-0.5965026152245914
0.06987428956075134
-0.2786316326789481
-0.762196305861513
0.4077324134359569
-0.3512939918754943
-0.1203896511359761
0.1876454066084888
0.0009034250832054784
-0.4091384377705896
-0.6433542090489107
-0.1319612289775768
-0.05455109890993361
-0.1204435769037306
0.07783133194436054
-0.8617473764453946
-0.1722015490628122
-0.3396646770443473
-0.07143799753377349
0.05220643717344305
-0.3337938176105048
-0.5996144635557648
-1.535538691670474
-0.2420345291395827
0.03442481593139501
0.4476160642287927
0.05226970736940036
-0.03948859980591519
0.2095915320905738
0.4973457818365086
0.06800270078247067
-0.006464598979512882
-0.6942978011055339
0.08136976463695411
-0.2964049509337996
0.4709659194918576
-0.1050632467994642
0.9951604691150785
-0.3084428780232559
-0.4143307790492994
-0.09072705019721398
-0.1057183588654055
-0.1532543516253753
0.1455547360127471
0.05059253309918185
0.1450681111516777
0.688446775151794
0.2106622401664001
0.4900464248410437
0.01304290572768195
-0.1998006558070172
-0.9871513262018198
-0.3946268355871533
-0.03638380176174222
-0.151927185687738
8.562883984084461
-0.02318174585746228
0.09786177286799748
-0.7542465855546511
-0.0426586244653251
-0.6176083900798615
-0.745574175525367
0.3238417383487723
-0.4078340854690239
-0.0001756728656313926
0.131664408968361
-0.4531808701136668
-0.3994123756071825
0.1366956890111757
-0.9581817712213065
0.08707872273067384
-0.1258626849467954
0.1498410943093803
0.01554071280215579
-0.3209423867880267
0.3999035283643778
-0.6216623447393322
-0.2005085198998909
-0.3945077381477762
-0.34056435188995
0.1313232184665603
-0.5742203119644876
-0.4719742752695777
-0.5246728908734948
-0.1263291989059079
0.08967678090098674
-0.1954992547932425
0.6216963248844253
-0.2513990441072078
-0.1474378089601179
0.2240295156866169
0.2464599782681906
-0.01262249988312871
1.130780727529937
-0.1046100743564667
-0.3423080394610625
-0.8221883283560731
-0.3171776962319038
0.001648698995785571
-0.4258141298322193
-0.5551172862715337
-0.3640136147268795
-0.4153648134991331
1.220831900800108
0.9218769497842024
0.002485313397843842
-0.3530461745461932
0.09722764167422722
-1.261335646634389
-0.2257754361349852
-0.2129199125389542
0.08589291427987523
-0.1077963080681866
0.05120473263123951
-1.540306838165046
-0.738002232767306
0.7297038185432643
-0.1135680076894469
-0.01084958713247329
0.827489624590286
0.2822561446352942
0.1273192839934243
-0.4291407517973936
-0.03749185140085194
-0.8463133144930948
-0.1551606196548873
-0.1446615172195656
0.2819318067320206
-0.8973810708123909
-0.6888209983745768
-0.6138664234055911
-0.01084638020887944
-0.2141719407829756
0.2217362412721269
1.072854569084145
-0.009835747376458679
-0.2492376804835117
0.4408783222233625
0.2553479458884587
0.7112894283210358
-0.2067468406916109
0.1801042564402681
-1.956596504211338
-0.111570715117039
0.4221357597254335
-0.2677811206532119
0.3815762994894196
0.11324201017202
-0.03072268945648659
-0.107096040608478
-0.6043245976430967
-0.420707787421284
-0.8385715123523546
-0.5774795132551613
0.03405521949225979
-0.1626961836288862
-0.01508726762661423
-1.114248377715513
0.1637195291559354
-0.9404902050180238
-1.709676864590029
-0.1925501956281995
-1.349267325997776
0.03562073695146729
0.1352436553972962
-0.2906646015640281
1.688554290235567
1.954695036349197
-0.2370146207778771
-1.332937901854169
-0.3457211266146431
-0.8981605657848449
0.1885333854848005
0.7765969780203833
-1.459441542317175
0.1022854737216224
0.2074679438633012
-0.6341642505917569
0.01170140493313318
0.145188940638167
-0.1518280347311054
-0.0814135146749867
-0.4927568077212855
-0.4798621058513334
0.1945137396917092
-0.6413123005568396
-0.1455298296892945
-0.1112196986749888
-0.07054683688346422
-0.03324603204321388
-0.4010467837514244
-0.4211540892395991
-6.899158838445324
-0.001665502678662204
0.3228062895320932
-1.031947236359209
-0.5699268270187777
-0.9837802369053565
-0.2833751140870811
-0.9720806340607392
-1.324613018625717
-0.7653386952646459
0.01954850478258783
-0.9244137968467214
-0.2314828604600369
0.2120098943281837
-0.3261698853848542
0.1412654809098711
-0.4218069982861704
-0.5723038579645942
-0.08822607137714167
-0.04118123588937456
-0.6141525227836249
0.123129940246586
1.729743519164624
0.7577581205002214
-0.322760198071028
-1.017218680924539
0.5325355296628383
-0.3599355549439974
-0.6021618675712966
2.183328013505962
-0.7828828753761568
0.1696186111314067
0.2707495625146364
-0.2827484549920126
-0.4267479047173182
-0.06065461759703492
-0.2477858948629839
-0.4750027642512433
-0.4221761747239823
-1.070752456224632
-0.8364132842681207
-0.05489927565733513
-0.004797037639442702
-0.311085393983553
-0.1998680981795463
-0.2331694234429782
0.006064415581445844
0.8305871040647516
-0.4534898168542305
0.2105148611697686
-0.5155776806933678
-0.6815452950503271
-0.216031677649269
-1.447708433563287
0.304629085212955
0.4362237860299327
-0.1488193568610948
-0.1506665775920983
-0.8583523675993905
-1.542762555403396
-0.1480223056790232
-1.047916173088883
0.8236120262353821
-0.1020691073761125
-0.001719715732214624
-0.09316076756340873
1.539343865723893
0.2325347722858948
-0.02944919983336503
0.1729159896261642
-0.4749746379841431
-0.3970925693502546
0.08037144123787347
0.07321260521703984
0.1144829567713941
0.02924122110923228
2.488396818512138
-0.2539096813634889
-0.5683092293296126
0.07846910912035683
-1.438100364203454
0.1546312296528289
0.550319040855101
0.0644281978193823
0.2182045150401591
0.08518960142586214
-0.2458158803879176
-1.197851625076486
-0.4920498167575276
0.001830364898240882
0.4358422218860186
-0.1229323651150668
0.3899834316623703
-1.499502312204599
-0.1595134378335732
-0.4151972395664218
0.888491622731846
-1.279003367399761
-0.02983068268518128
-0.1845901522187839
-0.646483806639546
-1.926273262511879
-0.5125092298682058
-0.7960439597840833
-0.1224859761469798
-0.1294180956820418
0.0429162511514941
-0.7994249936738627
-0.1611961007585433
-0.5605040375274167
0.08745294815866338
-0.06980893505945523
-1.208697055964757
-0.2324712387117254
-0.1779021762393893
-0.8238608441655039
-0.3445238642666216
1.144421535776855
-0.2042449515125276
-0.3935891016743536
-0.245664889263207
0.01811965348162981
-0.5327107700422953
0.0058049953720649
-0.3309598271453737
-0.6090663501628468
-1.342513625475012
-0.4269225355862616
-0.2869476082455946
0.09718662050221737
0.1483254597124884
0.1023310485278678
0.09868596871240934
0.07275355270440392
-0.2009845122893362
-1.255160575742333
-0.124723314165423
0.2218362519821005
-0.05750323342508482
-0.1054795475779211
-0.3269677107110392
-0.2926168373639763
-0.3451281926487973
-0.203519956617527
-1.067400855679857
0.2773557516428675
-0.02962923097296091
0.155725449467364
-0.07532866054308997
0.0738329054035867
-0.3732956296025979
-0.7689221125562042
-0.02944708816673671
-0.6311846462769072
-0.5611862018076078
-0.276042040165715
-0.1878095629483691
-0.43172670749664
-0.6122486727720998
-0.294016774445954
-0.5016643305831116
-0.2674026265340179
-0.2547072189836013
-0.3169266782993398
0.04641159572560161
-0.5203349279679305
0.02558073273525862
-0.2156674589795511
-0.3614566882766277
-0.3537334118723854
-1.617813928678352
-0.4041682985792687
-0.5168735864664081
-0.6482842983480077
-0.3619227231583928
0.2298940002871573
-0.3321668005272442
-0.2176567793625434
-0.2849477613014311
-0.2835799129543991
0.1898481740256403
-0.4191143461858136
-0.1045058839580228
-0.4776004103605025
-0.1414548407434407
-0.0719312015435187
0.1403169308667426
-0.7138959993693083
-0.5577991720365452
-1.438603998274388
-0.5783808056686948
-0.7561715400651825
-0.09691436354800657
0.5283533378000188
-0.3502507091372514
-0.4727513334190436
-0.4584061671440229
-0.6809275933560719
-0.5894260955931776
-0.5555835489948171
-0.3774065831386815
-0.2770988766515386
-0.69559673786441
-0.3096599101199428
-0.4656125787736663
-0.452633520444536
-0.5993338291548559
-0.1463376533709935
-0.649499121505881
-0.004673023889938508
-0.2107436563020381
0.2483319423904656
-0.6703092873678034
-0.4841267843346108
-0.07059330941191727
-0.1430074760816975
-0.6938455850228963
-0.07963878044389038
-0.4093334142893366
-0.1064166436584977
0.1020803199876982
-0.3677776330072275
-0.4822605553286053
-1.024510585890912
-0.6776050627542345
-1.039174576949023
-0.3774568658389733
0.8091137814245346
-0.3661931049687756
-0.006099354766589647
0.5595934372929232
-0.4243671612555445
-0.04481476168435073
-0.5988886788722713
-0.08663624271569639
-0.5661900184106448
-0.1136910696624319
0.03105973138153593
-0.4954859216547129
0.2318683849496378
-0.6816860759163046
-0.7327310864217573
-0.8031806682531587
-0.3460924988545239
-0.3100058042165373
-0.08691959440065439
-0.5665659646678461
-0.2173165376389775
1.044042525251809
-0.4741084362861048
-0.02366851444549363
-0.207647557327952
0.02135779276942493
-0.8911021804748146
0.4685680331291087
-0.2888822861363118
0.5477172713808467
-0.1093480994915139
-0.1302126077678595
0.2586505180932226
-0.5069537578992831
-0.4170914555172545
-0.6318862406367515
0.07753712687758336
-0.7234978926698732
0.6047242623277342
-2.176725539571173
-0.2678432852653851
-0.4795277540250294
-0.1547465755664603
0.3500561526540866
-0.4767633407790501
-0.1966255557954484
0.05221351122066725
-0.1987539290863037
-0.1100477153877636
0.1988438800221365
0.08366705385163695
0.01755641597401301
-0.2167460075451582
0.06437400595455864
-0.7681222525410111
0.05323515828317806
0.929164225056456
-0.3854060902055311
-0.4731423284695243
-0.456192027540324
-0.4811688573749481
0.8727015079072971
-0.3267622405122022
0.1049535752878508
-0.07513833461666887
-0.2918444840289376
-0.4530230650388454
-0.1951221416855385
-0.05449800958893658
-0.8184967515964261
-0.6926594776720901
0.01993624773772226
-0.8266047045595447
0.5263554205118486
-0.1793253630767531
-0.6461878775608645
-0.1531365030391302
-0.09188005313597447
-0.1977999527703345
-0.6942923619136196
-0.07892682082584973
-0.8734868013106102
-0.4042982988769008
-0.3436198922098972
0.2324885813519282
0.001730568318540201
-0.5603907188593513
-0.2584198556252186
0.1283778422225376
-0.2630839233534586
-0.5368542360657647
-0.4049022333067459
-0.178176520302347
0.1495638070105575
-0.9280594437861912
1.433078993738764
-0.1266980835810154
0.3452881761525365
-0.3469569914419867
-0.5468902782806123
-0.6638582896591781
0.4799927193930749
-0.08307307889005335
-0.1514705230915561
-0.3958190620604188
0.9079001840524507
-0.9455713307819642
-0.07046629119160278
-0.6058194877129766
-0.09926756728766163
-0.6974137407010248
-0.3694218284313684
-0.1205480726052926
-0.5187137534756545
-0.8035939866288865
0.8626285020684672
-0.310823774364983
-0.6646319122303406
0.04715115573917189
-0.3929198089050207
-0.2927881884098024
-0.350711072041938
-0.1296984569683495
-1.477663641539862
0.00248230319765488
-0.2748862089235191
0.02787390808534194
-0.1732269558436069
-1.306927160131287
0.1030919079355174
-0.4007501602989738
-0.4295061824394373
0.1566950714046041
-0.3663471217265815
-1.79693072882024
1.002670155779902
-0.4079797150019974
-0.8020305574890729
-0.8567749215638648
0.02555702278045554
1.754961358533321
-0.1820491661887136
-0.5559664583773564
0.07298584892388336
-0.7154248254261848
-0.2346914092656103
0.09561514553108597
-0.2541178640745173
0.1427553079162769
1.327419303120428
-0.001186608442999561
-0.07326307317560267
-0.7722865401056044
0.02698099623432433
-0.05958020866861806
-0.1722890973139054
-0.350593810897817
0.07760750136770424
0.113352773780909
-0.5621398731965023
-0.1436995607375383
-0.1613331130358543
0.8837694532496952
-0.5929527942919806
0.1119703336374878
-0.2971073605564336
9.044322237131007
-0.2118569814091096
-0.14907428052354
0.4899393087468061
-0.7208090123709202
0.6177460846770646
-0.5011214015551039
0.8753358043236094
-0.3747203996251267
-0.2384257377238642
-0.189738200270234
-0.3319838352270398
-0.1186262111666182
0.06078460229417228
1.278952739088944
-0.3260206834812691
0.5055705327969462
0.7884989723267148
-0.2777207437962631
0.3779291992972177
0.4013184525525936
0.2643970305347912
-0.001424724204291906
-0.3090394932140075
-0.2948737724497075
-0.7186743720822525
0.4572898843535508
0.1444456873566506
-0.6433056289072223
-0.3060766170045664
-1.99184181119807
-0.9268454695312752
-0.216016418286356
-0.1211511014041592
-1.353697280341055
-1.649457501760689
-1.149662886247989
-0.2943685507620694
-0.1343556947192692
0.3443753747608607
-1.355033813529757
-0.9789028285774791
-0.2736940479456861
-1.554797450254001
-0.1696447526907034
0.05496845666485892
-0.1758255704290628
0.2140828489333562
-1.038302912222802
-0.1254435226970831
0.1442170944019867
0.2227815945761166
-0.5149996108181415
-1.061388828743347
-0.5596365652648044
-0.4044524180410423
0.06237244753990275
-0.5227613886365937
-0.2698923682840787
0.04413831605727168
-0.6605474636235893
0.1553597418096246
-0.2305454612785049
0.01390493686301248
0.06329492866669831
-1.187612429875767
-0.9257900766394228
1.010140635317989
-1.337911853796102
-1.287025464597849
0.08176006055168336
-0.3029537350153605
0.1863370576771108
0.3094412051833594
-0.01308957130392073
-0.4823270796021298
-0.6888852619869489
-0.8365273982802788
-0.4370489883416658
1.648472537798002
-0.2499012076202762
-0.4634775102707431
1.69032643747231
-0.6469895420691447
0.1734371196540816
0.5336062048352208
-0.2398234947690047
-0.02045147709123001
0.5464824621640997
1.08720638270832
0.2445749855390353
-0.1550184353621537
0.500245992906043
-0.8106468887154927
-0.7653958798028074
-0.06160142313399954
-0.2575157745582206
-0.272752615498953
-0.8042945975745228
-0.2061556148615315
0.127331705512492
-0.08806097900980495
0.08595973009150738
0.8308667362142262
-0.4786424292655642
-0.53267611701482
-0.2766004814284305
-0.3416030506262578
-0.1669692443711245
-0.2647387517638866
0.2577074371134321
-0.5952641077867573
0.4956419191802303
-0.9011964636905505
0.9490887598310925
1.25455952945684
0.5175317739203772
0.8510653058177727
-0.03236826858235622
-0.02596841363138184
0.1506170233681118
4.190291743549682
1.461193932384017
-0.7749825107730034
3.72048477368218
3.365530744601294
3.239212135345116
-0.8284209499552947
-0.7152988976422165
-1.998488033116613
-0.5735297664959285
2.329280788363219
-0.007947599755301286
2.631633424323726
-0.02293447700357318
0.08405503759661337
0.100690535025217
0.1010598639464077
0.1274549938475045
0.04555246807570039
0.03982143370349366
0.04663867758969732
0.08480924965417257
0.09392554067065732
0.2461427591939228
-0.01601984358569957
2.709611303550175
-0.4742830435236146
2.305518669595376
0.03703200575644566
2.895915624707551
0.2921136526930967
0.4851937064222159
-0.4886424175460763
-0.3984439379323141
-0.2309760646815837
-1.493157088741635
0.06847539747183956
-0.4911172033870842
0.1531855821531086
-0.4420651937254672
-3.569897276486347
0.9607852222604634
0.162175842647102
-0.03627572303099859
-5.322926971201081
0.09867097658983118
0.1648044900185535
0.1972347494440657
0.1541425253310622
-0.9964697025291479
-0.1034194135220976
-1.45935300202472
-0.2486281740256996
-0.5441225981055157
-0.920262171881893
-2.082051092722141
-0.2880827784959955
0.2162018017429534
0.2576305492034404
-0.04597908035784017
-0.8247471743260149
0.2034988694116308
-0.8819326147416122
-0.05990302566609636
0.1976749918280026
-0.9627399539734529
-0.05717879242994956
1.045371146484126
0.06462114668318097
0.09752755846008583
0.7868485452276921
0.8928900427142469
0.09618250207837388
-1.1280996483154
-0.2449043576100142
0.03692883311825818
0.7154440299134135
-0.5144884495027636
0.01026261349559077
1.039026169361019
0.01187135527593948
0.8924029533888144
0.01924478710304588
0.01578035722389789
0.1766282475843522
-0.1597596948566853
0.07013193257467332
-0.148976150528929
-0.02449636875477554
-0.4550267782749037
-0.8152231020222255
0.3163480168932761
0.03557589174713984
-0.09508645756783157
-0.07197537216194855
-0.905972902571816
-0.0265539455157554
0.08553592472037515
0.2082951477781588
0.2359441658277423
-0.4190897555673589
-0.08353546960811209
0.1389041490100018
0.1463287886259407
-0.78656525941155
0.08210214925956254
0.529950013066021
-0.489924194676688
-0.6683349100565833
-0.1639906120232905
-0.2786354203939511
-0.661596082759351
-0.650716379909803
-0.5185664465526985
-0.7623464014722771
-0.08906753367428302
-0.3058970993266759
0.1578745463996765
-0.5675300178272523
-0.6360242390899828
-0.8318585475672206
0.4089484989756952
-0.1177088860734544
2.178109817459358
-0.3187536006575457
-0.2529162245046621
-0.1999606027636597
-0.04233422010898916
0.5108317864642885
0.06754436761090997
-0.4761515609526316
-0.3493525883637406
-0.492200342395146
0.1683319086049417
1.117914025021452
0.1572230842838629
-0.07009169496683956
-0.1022884194413645
-0.4034656857244628
-0.03505554730861919
0.07935799441800138
0.1161790708891276
-0.5326062056360944
0.1985541743872686
0.3543522225635008
0.6318185002494789
-0.2419423269360481
-0.01574035096189628
-0.1143693190519056
-0.6340668858233884
-0.2289931483935147
0.1732337198221428
2.329348563690818
-0.06407186359110946
0.07027666293031913
-0.3179400058867736
2.30706421929248
-0.570435013775393
-0.03072644752218303
0.185765809111524
0.6976992332156086
-0.3195545593531053
-0.02927465087397061
-0.7732220474566863
-0.1772433047264392
0.01357580126749593
0.2535435342311188
2.890657863395065
0.2495332463169102
0.3500855421645613
0.9156309156099166
2.942699648133426
0.4953448244519874
0.514993954447495
1.46410003138469
-0.07195740850621168
0.0549994565773525
-0.05814927290156413
-0.1114705402239548
-0.1253606999900069
0.01210328779973564
-1.506540520021397
-0.1010977660416199
6.202316371007904
0.02498018564626791
0.1083634330220985
-0.07713124629648686
-0.5281153584655123
0.314213836770268
-0.2069868901142266
-0.2014004909272371
8.42215085813735
0.6354471734271148
0.05500832420921646
-0.2118222934265357
-0.3983968582177629
0.2124005783501807
0.2839190908794989
0.09146719870569578
0.9834118847400363
-0.1876964669857613
0.3459286264516766
-0.7541605838237763
3.288778476043599
0.5263138363737345
1.125174544143853
-0.2375709632143306
0.009531529513529024
-0.606937279016358
-0.09476152617244893
-0.1804173486007573
-0.4572112522288041
-0.1596340201263143
0.3811116101211439
0.09307085288745227
-0.02086949584204402
0.3371906120252638
-1.792318673474985
-0.1822391264980538
-0.2017755410678563
-0.04125037116196487
-1.638234583975539
-0.1441671439425061
0.05196548375529063
-0.2646771243998796
-0.2663321920894737
0.722716682909746
0.1518951163738782
0.6400718001473236
-0.3022245705290905
0.1777723329835822
0.08983411656271967
-0.08526447904139854
0.2914390641228868
0.4907820553995607
-0.3099336294394409
0.1313536865191254
2.826284176431296
-0.2406438416953438
-0.4196990130271443
-0.4600062761675618
-0.411890723183174
0.249158471057251
0.03711553783557119
2.360124617064931
-0.6148687449449982
-0.03710571671711503
-0.05874768710994509
-0.2070280054430402
-0.1856377082288101
-0.01151290670565486
-0.319379873521059
1.619609345809528
0.1078556477929739
-0.08250636393460399
-0.2959695239319375
1.081900733850284
-0.2034739602675981
-0.05439110843121497
-0.1137367457343913
0.119158206905223
0.2196662849059198
-0.06444772188734908
-0.1998113279789817
-0.1746261335778297
-0.0213965433415055
0.07261457500973473
-0.293653110881867
-0.09185153450105077
0.09373010450734606
1.375852334791511
0.1042339896820009
-0.8194202574585135
-0.04868880564322935
-0.2577974082650357
-0.875164991393678
-0.1837029432125962
-0.4294353125577799
-0.4613903156434601
-0.05975291452766705
-0.1800068537031469
0.1159470447026507
-0.2792453082551193
-0.1304202584792883
-1.004343783277304
0.09372021429754231
0.5506837311801736
0.006934374397113153
-2.768478539657185
0.3844049099136552
0.1896168006626172
0.1959085720977254
-0.05587802419502796
-0.1366243521963528
-0.1785494657133808
0.3103513343041339
-0.2154354265925214
-0.3803151703620743
-0.1542021201506059
-0.1658650037414857
-0.1638255923837478
0.214810510046687
0.1117323528555618
-0.4997391080182511
0.2712660377675868
-0.1437289327379011
0.0175129805493973
0.1455356595298182
-0.002005000082543339
-0.4796333893056119
0.06661344397715484
-0.1150478743836821
-0.1844811689331447
-0.1145560260887447
-0.4190344819552361
0.02046142025833265
-0.1458433955813128
-0.3338047622996161
-0.02528682997643545
-0.1717641262991021
-0.3546645895819577
-0.2599147750939502
0.2075584882030976
-0.598238875945409
0.08240401419354014
0.1486921276793891
-0.03387640699597179
-0.128920223951286
-0.3929866457688368
0.1009337946285617
-0.05845734078790344
0.03974244614536798
-0.2907350422195259
-0.3835844254530457
0.0132333255919232
-0.2341346904310929
-0.5620135189972109
0.1082210386893963
-0.04312390643189039
-0.3547938650577635
0.1641562121342363
0.2063666263315856
0.2147332397937422
0.07106061648961597
-0.1775332832400054
-0.09673257961058118
-0.3830082740815924
0.03226063291485476
-0.1221650631659506
-1.68197872438026
-0.07394212378087958
0.04022690906767205
-1.121509795530862
-0.157950316778398
0.1913609536493252
0.06096368305182151
-2.844995456141925
0.2825822913800105
-0.2199012296840274
-0.1631481895964514
0.1068505205695506
-0.01599691932110939
-0.5103950675421357
-0.04160252467558153
-0.7927704738782066
-0.02763222014048869
0.6394518837113589
-0.06580180923366061
-0.569140658986393
-0.1931642341809503
-0.3692211994820642
-0.4237820403954745
-0.5562226491722394
-0.08973277846925132
-0.07707764679138097
-0.06197021724537609
-0.03224165027320004
-0.6626476070787499
-1.182198795758827
-0.1891282346173172
2.066322772726613
0.5449205513139385
-0.1201447739698217
-0.4754448223938665
0.1634770976889869
-0.1835812704020448
0.0282746834935332
0.9240641847316197
0.6341646957706764
0.270836334160871
-0.09635907063449609
-0.1456135951648541
0.2799629745224927
1.985927209977191
0.1333998493275473
0.07566112826161719
-0.419534287717957
-0.02712618281150315
0.01817474744340132
-0.1038403397493426
-0.1433036675305639
-0.1430348910669693
-0.07626807761417027
-0.3094077688754808
1.499180845096742
-0.2001339060791961
-0.1039500486706095
0.08367403088710157
-0.4148153920958481