/*--------------------------------*- C++ -*----------------------------------*\
| =========                 |                                                 |
| \\      /  F ield         | OpenFOAM: The Open Source CFD Toolbox           |
|  \\    /   O peration     | Version:  v1906                                 |
|   \\  /    A nd           | Web:      www.OpenFOAM.com                      |
|    \\/     M anipulation  |                                                 |
\*---------------------------------------------------------------------------*/
FoamFile
{
    version     2.0;
    format      ascii;
    class       volVectorField;
    location    "1.3";
    object      U;
}
// * * * * * * * * * * * * * * * * * * * * * * * * * * * * * * * * * * * * * //

dimensions      [0 1 -1 0 0 0 0];


internalField   nonuniform List<vector> 
19631
(
(5.04496831584283 0.04161920469688724 0.04193075159620779)
(4.943436220873962 0.292171418464764 -0.2739963768889637)
(4.99779204856143 0.03245577796549529 -0.07186918868907845)
(4.757444061789711 0.4332462017581709 0.3737781472283742)
(4.991931355849413 0.1242678172987087 -0.05206572324731595)
(5.046360924238058 -0.09145859394083139 -0.001985421311586971)
(4.989726788856376 0.006404407692522211 -0.005066621788412933)
(2.111439858932811 -0.04604114950388136 -0.01703832054849957)
(3.648942290443236 -0.3175146827072974 -0.6011785143725791)
(5.007837581390191 0.02198998741609065 0.0004833510921814947)
(5.002077899222545 0.08855072368235234 -0.03161119562982679)
(5.069739672183647 0.005525917485601438 0.01608832056641906)
(4.59715236799923 0.4618409800781876 -0.2441100131470773)
(5.072654357379253 -0.03278935637317882 0.01745439249495769)
(5.002000477950544 -0.001003983990517773 0.00248920915983098)
(4.929272400760897 0.1540451517959879 -0.02732366323219887)
(5.099426132750088 -0.04224511829629515 0.04933395373461224)
(4.250853857303672 0.9906450699193023 0.8370771801754977)
(4.626123055786463 0.04055328320074708 0.2142336853521498)
(4.403317191565133 -0.07375492900741278 0.006488923054954259)
(5.027313121845598 0.06793426391325345 0.04786937287528587)
(5.080353906439675 0.001043562632465482 0.05879450338674132)
(4.470198684674813 0.3429214897344201 0.2642719077334917)
(4.973755381993097 -0.005333859825768548 0.00459171834802146)
(5.106638857630335 -0.00377092357254038 0.04378729110745223)
(4.987080628286384 0.06791576585403469 -0.0155423300509148)
(5.132585921559048 -0.06237788126395234 0.06791289284111665)
(3.717479615383757 0.1642964259140033 0.04338799112425321)
(5.06165037566266 0.1421975473231864 0.1859786127884483)
(5.003393017947775 -0.001758137270981533 -0.002004240763566902)
(5.08759134478525 0.02550130209302739 0.06166399860176847)
(5.082701436966095 -0.008591160247968061 0.05424386708904393)
(5.052322633120222 0.09193200708569543 -0.1855480705328395)
(5.053907595526293 -0.07041869075515778 0.03849229639537162)
(4.389096113354936 0.1274737005206928 -0.3144208765238423)
(4.43243897043468 -0.007449659835422321 -0.505102179348821)
(4.924093676756105 -0.03102116106897976 0.002446247970313082)
(5.101065699220537 -0.3693198096565543 0.07266960665741565)
(5.093742692803381 -0.06867672068699998 -0.05646752253651076)
(5.124885415484015 -0.287390714121345 -0.1688883091188751)
(4.552965207459343 0.09444151145462865 0.2765370356147036)
(5.017161939406602 0.03539788182984614 0.03003807898119075)
(4.998045187395428 0.002553079063024945 0.000992465302987242)
(4.991970120325964 0.01634068250151214 0.01410817069723344)
(4.56615732367675 0.05945828048886265 0.3419031536135611)
(4.394256755649232 0.2898573411426504 0.2570491863648826)
(5.001378739380911 0.006929592936041484 -0.0004026398689293944)
(4.970247589360891 0.09819470979877103 0.06776562977716233)
(5.048925887138794 0.05155440414888185 0.04949271618583009)
(5.103941566285387 0.02575085984976643 0.0458201074770701)
(4.736296371692189 0.09259253264039057 -0.1107161270160439)
(4.741377999756879 0.04774753631799039 -0.02756875298416966)
(5.093862822467615 0.01365673132656103 0.02562309536438678)
(4.170171683812629 0.1265790748516877 0.02516704749010208)
(4.962887888298146 0.0943690782902268 0.08752716161370064)
(4.712072850336599 0.06068230258135491 0.001530087355420242)
(5.083834171802329 0.04426583845246947 0.03786701683609101)
(5.091057821357143 -0.05911984986443933 0.02182469838767081)
(3.776295668344323 -0.3428612705556906 -0.1018011989312489)
(4.999391217660633 0.007195881898714387 0.005750306895410418)
(5.010986933715919 0.004566666426041331 -0.000597431800230241)
(2.228565857825504 0.03828946122372397 -0.05543979127172841)
(3.208234317728929 -0.07262419187794751 -0.4340134471525058)
(5.018411634467155 0.06761120826454015 -0.05060920131130851)
(5.074870639254008 -0.01112798859982003 0.0406308084401462)
(3.313970971036098 0.7315833456670768 -0.1906099272541155)
(5.079219884280642 0.009832209985103278 0.06264522909076851)
(5.089844207852884 -0.009207950292644651 0.07563381096042722)
(4.915907588477861 -0.01768515906331678 0.04958791663314689)
(5.013166794266051 0.003442431337641139 -0.005239171867139463)
(5.009509435377398 0.01602583077476889 0.002309709220661958)
(4.396643825926383 0.8439022119974987 -0.01256245161834929)
(4.992577379218011 0.01343254765547423 -0.05961475937160691)
(5.074207312968252 0.0006462703721236138 0.04422197232313275)
(5.114639498983795 0.04937321007794971 0.1197292311304106)
(4.989725040621539 0.09344514151036265 -0.1579562518796184)
(4.992585487449905 0.1469111429376346 0.006596392269408023)
(5.027726802797477 0.02469953668614465 -0.02996326056715177)
(4.82151744890223 -0.1055110618841368 0.2764467749681835)
(1.13872285931325 -0.1745819310610604 0.119712905514951)
(5.000692731905162 -0.01553429636690548 0.005823008027643219)
(4.979202128612491 -0.03651886935506086 0.1212496029572676)
(4.930742497780891 0.1273122361982358 0.09729824118716517)
(5.208806494654974 0.2976156051751251 0.1185303557465387)
(1.866970286422811 -0.04577265572492832 -0.1166982580225488)
(2.665703181679696 -0.5391851811201557 -0.846760835481473)
(5.100453446050942 0.001007868358607434 0.07641919932610876)
(4.940150220656588 -0.06287992775843759 -0.4082446526683881)
(2.006095136312239 0.341918454701835 0.1679535137010893)
(5.021296900648266 0.05666051498048327 0.03785008566748192)
(2.80626012768729 0.4107063448789408 0.07148135891148893)
(5.095092707475509 -0.005379856503745116 0.06845962049563399)
(5.081082308646094 0.01637143980013676 0.07743265637355312)
(5.092961783926506 -0.02842961109999745 0.04134451629221235)
(5.040057939986618 0.06249467236484772 0.1390332960936755)
(3.182857881384009 0.06691985814395231 0.3616726370326138)
(5.176588802433235 -0.1077628039487753 -0.153434128980253)
(2.647464380331865 0.1253197702550254 -0.2663325234285376)
(5.083043866908624 -0.01900429306676218 0.03083057871794294)
(5.079419421935762 0.00762721507823412 0.03495348610460601)
(5.075422699463575 -0.002076946658077708 0.04579751507894273)
(3.580333058195844 -0.1963793391624007 -0.2289717534019977)
(3.550765151321672 -0.2470394253577141 -0.06293974973859311)
(5.033732527392072 0.04875391222922644 0.02379908783994784)
(3.886497072512262 0.1142077606652471 -0.04753565765262426)
(4.220722304460272 0.5025693941227577 1.983719330885913)
(3.215203056210631 0.2741516538356037 0.3227869306486643)
(5.083872037590919 0.009656975973590829 0.08376605282527393)
(5.08921684564623 0.01023327769350205 0.07275415637743134)
(3.535704490026537 -0.2246442493915149 0.1473243750273204)
(5.012209045484325 0.2236803836901306 0.1823453688567686)
(4.932581602510182 0.1488449652170087 -0.02099041269072879)
(5.210308777596285 0.03870922200295314 -0.03791877453188325)
(4.612792498411632 -0.06338382818335894 -0.2442454527635836)
(5.058114322450365 0.01306622263529976 -0.03383326219318552)
(4.891881988367875 -0.1436607497643207 0.01713694260596624)
(3.081643117793217 -0.3046723895310969 0.5346418565921426)
(5.087767679601234 -0.0004719907794792758 0.03247897514052249)
(4.729798298537518 0.0277498969525718 0.06723947355392965)
(5.077720847003926 -0.002985024964815706 0.02920929859336566)
(5.084007731284738 0.005592359772332398 0.03882383662526936)
(5.09303112320366 -0.01676868209805833 0.0311261435861064)
(5.091821897645429 -0.02568868961131213 0.02979143999460326)
(3.827764948542571 0.0631910976240788 -0.2605364362004149)
(5.081886802626836 -0.01203051908923201 0.04022672815843244)
(5.066006075331765 0.005282465318221608 0.04259626277552616)
(4.929366781133047 0.3629241330151211 -0.1149523412956078)
(5.058810229068363 0.01975938040612022 0.01051005756415934)
(5.020809777099403 -0.0002581812779336036 0.003998787695130267)
(4.64298212211194 0.02552503540326868 0.0498050129095088)
(5.040398531661669 0.007664883431992061 -0.001206968943696062)
(5.031458884806565 0.02705921596563788 -0.004972527362878621)
(5.085854844820973 0.04466675286080613 -0.2718929651368485)
(3.057712692103516 -0.2654843006650009 -0.173185886465614)
(5.02975346034065 0.07773664864789304 -0.05041143415653189)
(4.319921817590965 -0.2011040811876772 -0.05556610770078296)
(3.625439275830967 -0.3277824344325287 -0.02467720477201332)
(5.102256792418394 0.006289092636522962 0.06435403688959072)
(2.572725670411754 0.437328914283812 -0.508283920128122)
(5.047178173882764 -0.01442687577386112 0.119479180213893)
(2.780905346053695 0.03651851834363023 -0.08047300504291323)
(4.895270901613497 -0.2620949259127038 -0.3965414923385718)
(4.383528541475791 -0.04273787917504814 -0.07282533316514807)
(4.983444586498623 0.008652833816990514 -0.002455037495978292)
(5.152446953563742 -0.03857570490144014 -0.02598747763590012)
(4.287856078288759 1.027355941704764 -0.4971852462885046)
(5.041389026428162 -0.007223940509252696 0.05031437719299384)
(5.025954790157249 0.01054508411476905 0.001031022237829548)
(4.98767534862087 0.004579860162136358 0.006196258309346355)
(3.135107273648408 0.06809944155721467 -0.02367945793213011)
(5.10055451060745 0.0174314187474993 0.0729145935413968)
(5.077095287117468 0.03322829632016963 0.04980310103661301)
(5.07046368804428 0.01559476061286145 0.05212401751736844)
(5.070503454543974 -0.001033677559908904 0.04222614767486681)
(5.079746866913865 0.01169362196378365 0.05539355005238625)
(5.031810809747711 0.0561590764984161 0.08913617247993823)
(4.988247477390035 0.01280859992068017 -0.00184867505409789)
(5.016144873976848 0.1968648728972236 0.3919228150932845)
(2.5118466209929 0.07507261101485478 0.3896919640135901)
(4.711990277842059 -0.02109631104290189 0.001029411621092867)
(5.081333252533163 0.01022502579652194 0.04689674303997772)
(4.99785266874161 0.01812602139131593 0.0003756617879889664)
(5.07975126878436 0.02560091087093877 0.03352163206461366)
(5.09678021372785 -0.01675996903745969 0.03242859195184023)
(4.979042812010475 0.01490015792885929 0.006392064207471234)
(4.979714006089613 0.07493191098647853 -0.03373612914435296)
(5.091509256242815 -0.03105588901772911 0.02617757388232375)
(5.035019511509471 0.01717719927277056 -0.00502298120234968)
(3.698008915243535 -0.06952672653527167 0.1504834551476784)
(5.03532950723624 0.07100533364704928 0.04278385166415563)
(5.123552140528992 -0.04686801411358079 -0.001400027221281709)
(5.079756428315719 -0.01313124927935421 -0.002800547636033169)
(5.104353374931475 0.006746308519246226 0.03585228479240262)
(5.070946551688583 0.001253125317725193 0.02355350169768905)
(5.071389484251391 0.01473423295450823 0.07130642535359996)
(5.105543347553361 -0.03389941211159778 0.0463762970788368)
(4.997224034543613 0.0132016974238113 -0.004474316173185702)
(5.079129225301881 0.0009432377879565237 0.03959396250939539)
(5.045681109804788 0.01509130973593567 0.1702987578712239)
(4.224457671314009 -0.01485426828238675 0.1002985295127969)
(5.072437506032637 -0.02886790865101596 0.01240780391743102)
(4.995988700005188 0.005297857777513788 0.001395866731089103)
(4.992004266940755 -0.005211304636967382 0.009547616649575152)
(4.670962539024456 0.1050685989879589 0.1095310245993036)
(5.005351074655971 -0.01106556799272915 -0.0001264991798903195)
(4.969056904424608 -0.01004702542877015 0.01102166175521285)
(5.004255069365098 -0.01443979524612408 0.02276774177601177)
(5.073936125655562 0.00865561693068579 0.02121258914599017)
(5.084867890184936 0.01183655451981584 0.0211907378985711)
(5.066888251034544 0.008104972029856158 0.05049396109432055)
(5.083205648731203 0.007563025588761665 0.05236691066736773)
(5.004955519474414 -0.04627391788312658 -0.03319857116098922)
(5.001148795355489 0.07743193231591274 0.1773045667712964)
(4.993733060993786 0.00518070243325652 0.004765537578662521)
(5.113675089375524 0.03229286927141092 0.05569171633601998)
(4.647346829337981 0.6869389621343666 -0.5712369642586259)
(5.097067592934897 -0.001142877907118927 0.05007444832334542)
(5.021107755238042 0.03979919528737986 0.02259123970790103)
(4.978095773138437 0.03932785178041636 -0.03958341371643801)
(4.969302384500395 0.06068884722346383 -0.07366245197779704)
(5.087732917429693 -0.003913793609148893 -0.0005528301414665477)
(5.074107278405679 -0.0250789307495984 0.06078262216507276)
(5.004617368429896 0.02328723618657537 -0.02052579159609823)
(5.093048718243428 -0.01094639135300764 0.01379814822771233)
(5.003968268840767 0.003677079146462763 0.005325592971083102)
(5.108060440033917 -0.03614301600989838 0.05726828280167229)
(5.033518968272662 0.00374785422373041 -0.02931369743562982)
(5.066839892974164 -0.02351701540231294 0.04980603659077059)
(4.75566882767885 0.08228524883562205 -0.06780715677061436)
(5.077997897248111 -0.01678506546949818 0.04484058248899429)
(4.980008426799281 -0.00586243362506867 -0.02657315886896391)
(5.084109970844987 0.0187365069845104 0.02571886333364884)
(4.129476605253455 0.3046685715423851 -0.2642956415202248)
(5.015949575176611 0.01368193165341511 0.02172416473885611)
(5.045973605414058 -0.00646569533228101 0.09608861349493233)
(5.349398251555622 0.1470284831316646 -0.2692810396396764)
(5.017832966456523 0.009442321436876162 0.01590756276322262)
(5.010128304026834 0.008108385314034372 0.009634184863009571)
(5.022140202970362 0.009454061488727942 0.008468710643289671)
(3.704793122655202 -0.1928319506922135 -0.4959143666170412)
(4.998610143538813 -0.01940833067485666 -0.01369075943769134)
(4.952604139871533 -0.03965990378911759 -0.06226900309982901)
(4.96050046771283 0.05480775944266132 -0.01590678517474595)
(4.999020033025145 0.001047295032893055 -0.00193017186125845)
(5.023515339576957 -0.008088710221002658 0.002145545686189637)
(4.98476384841204 0.1107529748811378 0.02938837333241138)
(5.060075107685289 -0.008114422204477558 -0.2665666901284107)
(5.041621233922166 0.01907575917466872 -0.07694994925041378)
(0.6712588128897014 -0.02879140589593706 -0.3002268993518681)
(3.675718417860118 0.0896955684982616 -0.3380158878754393)
(4.984582973419811 0.001933730905674847 -0.02753540007126331)
(0.04344160200770621 -0.01855353959505163 -0.00722971371561484)
(0.008978780507695964 -0.02233834472200367 0.009522002133098013)
(3.377233870753795 -0.1238982920427244 0.07733453623119643)
(3.849110683175934 0.1160890183745424 -0.004265557899791312)
(5.085870589032622 -0.5905168813781986 0.3149076828482718)
(3.342923766658398 -1.089132767272713 -0.6876760341577772)
(4.899768650514272 -0.05225650353815679 0.08609113965969419)
(5.024148102149635 -0.04802333734535499 -0.009785567645808022)
(3.306422835453571 0.2257488258251251 0.4791713065187795)
(4.952715688940338 0.006017026924561325 0.005727112674781294)
(5.125251181595055 -0.04136709772965261 0.004864371684324954)
(4.988890581627788 0.006909538007579795 0.01109048503622729)
(5.036079740792564 0.03539997268396502 -0.0123032094585428)
(4.984015377719955 0.008734815072507588 -0.01270523047665015)
(4.982503378914711 -0.1353608451903205 -0.21778514213105)
(4.945543931465873 0.02718953794482461 0.04258522936000127)
(4.986519716453113 -0.003602996707173301 0.001378869816838598)
(5.022034519082667 -0.257440877470903 0.1045189181904224)
(5.03355120702405 0.01456982472256493 0.03395064864707842)
(4.654475021630624 -0.05548377132105091 0.09281626605297912)
(4.504548569435417 0.483889846372818 0.1027152407640453)
(4.987772124176185 0.04528601636779286 -0.07400591634970524)
(5.081901171115417 0.09874184525775723 0.05818795271299182)
(4.944492904126771 0.01345791147208649 -0.009776097133127401)
(4.835936401269477 -0.3587654019555847 0.5659592842089132)
(5.04835704780742 -0.0195168701787536 -0.06775065047452071)
(3.330166584256793 0.1350528216533901 -0.2406297602872718)
(1.819531599519636 0.2206694429556833 -0.1116267757729333)
(4.913298794593982 -0.5769300499577676 0.8583595584814592)
(5.004681021797897 0.03552781984920326 -0.04231123507131252)
(5.04574436968793 -0.01458913057123168 0.04162623478076698)
(4.817165262745521 -0.04463306254777874 0.132137228628879)
(4.86505606577056 0.05362683101336284 0.1437220581185375)
(5.067528518231085 0.07689802855246469 -0.01686707373424839)
(5.006477201990275 0.03066277033109206 -0.03382498210914866)
(4.97124543804532 0.1070435996611568 0.08546040715789922)
(5.09796001102605 -0.04917133692082057 0.1271324059091639)
(1.395247159313007 -0.2295252457285675 0.4499748208290973)
(3.910032212233757 0.02203215717219303 -0.0906522250614732)
(2.477286899380197 -0.1717542787097969 -0.09981425623582908)
(5.001540260102457 0.04774033181517278 -0.03325770656019824)
(3.319437022559832 -0.1740583263964065 -0.02500933692155406)
(4.995363604851417 0.0009671847355975417 -0.007005586640577862)
(2.637007144847572 -0.3169046510920307 0.005375093449478367)
(2.080793906907328 -0.2236272173007424 -0.2214054916318179)
(5.003374142197131 0.04653112411324735 -0.01861151733361421)
(4.450280680848919 0.02934167980087323 0.03416286393959225)
(3.079235336019835 -0.01406171210467324 0.2891063580462162)
(4.993657500293213 0.003789789840318416 -0.00789109827226645)
(4.919983281535163 -0.04500101694461258 -0.116008811297408)
(4.981042610646123 -0.009428928392401103 -0.1925263566048986)
(4.947409372378597 0.1509139340817658 -0.1073337892353829)
(2.64025911342216 0.3013891047896132 -0.09522079039701356)
(3.154645687060236 -0.03845176244927057 -0.05470972987620835)
(0.9768791440801693 -0.02846621060669156 0.2186202019209246)
(1.967916466374885 0.05708500401415637 -0.01214199437851659)
(2.126129464296469 -0.3472153016338571 -0.3628539249805089)
(5.077400992362168 0.06606823847680185 0.03751764476598036)
(3.862881425724094 -0.1133874187732153 0.0611855812460104)
(5.124278940279686 0.04798707464044975 -0.12117737532663)
(4.980250379487432 0.04035922072723441 -0.01973182574606821)
(5.01509384980359 0.03151273054126092 -0.07402381518810924)
(2.708133541403914 -0.1270388330568284 0.3053220388147341)
(5.039112858094732 0.1447212929919907 0.3116128595894809)
(4.998278023781691 0.005334737985413537 0.007654422464581622)
(4.91579080754252 -0.02541966056194029 0.1810241496701782)
(3.406700274121504 0.3213699769452746 -0.6009532613849945)
(4.97196707762545 0.05178817841659587 -0.03466396277307598)
(4.75073099864774 0.06023125208288974 0.08943961273188415)
(4.98368610959391 0.1633367502813438 0.1831182891827557)
(4.354255784036162 -0.3010065061116271 0.06215945770706694)
(4.997653786035513 0.08068851267550599 0.1751872544153855)
(4.773376327551571 0.0002844358093703109 -0.04904611806842558)
(3.749366039896629 1.093131799460582 -2.723556501085978)
(5.047567330024331 0.03030133782346195 0.05341193708050511)
(3.174268607279445 -0.2266600591753413 -0.01397539305244795)
(5.035879686322888 -0.1096230468768021 0.02480320489922136)
(5.04642574194393 0.02869483869914434 0.02626483533802582)
(4.863051181046044 0.5694492449763318 -0.1555293103603476)
(4.872342769744852 0.03436318422785756 0.09244086895186777)
(4.999413143288151 0.00463136590421287 0.003934599251095684)
(4.994522618996852 0.008638605160571636 0.004589945650405661)
(4.967547517807883 0.02186535218829243 -0.06689847136955897)
(5.026616152854011 0.1048094984105014 -0.208190903599243)
(3.303439826034408 -0.007593849946583446 0.2189068637247063)
(3.929261206050173 0.1289696681761127 -0.0544162525639426)
(5.044883916344565 -0.02773093634939833 -0.04952225234165632)
(5.089889945983788 -0.1422090830944346 -0.05354171385816951)
(4.989272141251965 -0.003844308324255068 0.01479843969238619)
(5.121362174156593 -0.06367375272768043 0.05907335756873341)
(5.109976773239403 0.01722402908585811 -0.1334049432536818)
(4.104883502325475 0.04804697111458939 0.05705685819636272)
(5.118514411650889 -0.05754571616539714 0.04375802186686382)
(4.989306059168207 0.0681994840790463 0.01428323477050688)
(5.021177790163388 0.1184883797613526 0.01220182845869863)
(4.637917408341511 -0.01040122047645623 0.253389779607948)
(4.977508243781176 -0.002907695616885992 0.003123034221033754)
(5.004801818737213 0.05148422332402099 -0.0661268402858039)
(5.000346073837139 0.006654079569339747 -0.01183483859656891)
(2.479327501866339 -0.2499186374943505 0.04062336815673995)
(4.516178396430859 -1.155290651299532 -0.9792130542054512)
(4.836309791322881 0.4030027423456398 0.711334301919396)
(5.076762447332229 -0.03825772727747054 0.06064855805940888)
(4.907785258079622 0.0669750050614772 0.06656920147511625)
(3.351733167402647 -0.1988477735166434 -0.2140579375763751)
(3.883344638258211 -0.2562803725129825 -0.8274190225146141)
(4.887754723586987 0.03335602843419513 0.06699941501813551)
(4.53889802348704 0.2187013176712982 0.189475343825221)
(4.970299606498449 0.002188080383046093 -0.002476155413223735)
(4.076848341538643 0.09287944525366072 0.2255089063233334)
(5.09144421282594 -0.07993717754320759 0.02949699876655452)
(4.98997058565614 -2.273318186265556e-05 0.008362170075300032)
(5.236082128276244 -0.02152131626591615 -0.05384372353578748)
(4.528225424386428 0.1956118181691736 -0.07872738831837878)
(5.024933695286424 0.1403983709525295 0.2131117106922582)
(4.349168406797653 0.004350277044700063 0.07242483851900446)
(5.069446338380619 0.005348651606853042 0.03684082486731084)
(5.031670343467879 0.01173303317131601 -0.02013906701971108)
(5.039274417262049 -0.005161620241743834 0.04824037184385652)
(5.084980243712993 0.01079342577690048 -0.03580753927171428)
(4.998941728514637 0.001914063039189969 0.001066394908517312)
(3.921469992930034 0.3238347700990944 -0.06712854114176373)
(4.949339980046283 -0.1181907595746182 -0.1282345151094067)
(5.032869878104167 0.002227988396775957 -0.04639464890852187)
(3.555252171260638 -0.1125712936083462 0.03105324085526977)
(5.04306756680787 0.04573326741295099 0.05222744356861424)
(5.083442512638422 -0.1658836539564163 -0.1085888650798039)
(4.73934440738645 -0.01869855317690461 0.3315194714848854)
(4.589456061626913 -0.0842855310048625 0.03366258791516599)
(3.925262653559087 -0.7770519641378305 0.08450488254592639)
(5.082323790460253 0.1883255290581653 -0.07513093246881246)
(3.496903385651472 -0.2306023809904637 0.02344806442050641)
(4.461180788974014 0.1965132543921874 -0.4225055936362817)
(5.09094275869722 0.05357261490586884 -0.09765714910793954)
(3.098620878430246 -0.07898624485253948 -0.4811395423711471)
(5.010149508800939 0.06419993784086768 0.02497491975977002)
(5.101703538862584 0.03326273101500794 0.125177005389474)
(4.296065566022881 0.08040060701969326 0.07235779839115722)
(4.980116154247572 0.08842019727620137 0.05801393303319452)
(5.112265851554395 0.07422875630312099 -0.06365961750636433)
(4.925357727445601 -0.07258421186481184 0.06625799582594401)
(4.846579779634773 0.1865398588155804 0.01433600292313156)
(5.000470287063663 0.04951945317805348 -0.07986718263561425)
(4.489356912692032 -0.1316672354012865 -0.03107054777676613)
(5.033123571234456 0.07563457344699168 -0.08457398823877087)
(5.048068468352728 0.1006101466528861 0.05420437049726242)
(5.020698638532902 -0.01085951811480445 -0.002423519164431167)
(5.175348380127561 -1.190286464148825 -0.2254339942570828)
(5.083057110650873 -0.1207128370719166 0.0288001095559139)
(1.371081701266353 -0.2177785271321342 0.1207187977397181)
(5.077317793812689 0.06783833980753141 -0.1176303536092255)
(2.849353226486363 0.03848490764785954 -0.2534070320065718)
(5.054401003156137 0.1709580611396612 -0.05052297900065893)
(4.951374409621653 -0.01583883721152275 0.1364317930000283)
(3.118808901928525 -0.05241341753439181 0.1429280705938268)
(3.345803557788551 -0.3049283510221486 0.07560978111712047)
(3.659205296093939 0.5019063455992091 0.05074124244188587)
(4.480929507095071 -0.61477003828497 -0.2832879480097875)
(5.008381307714836 0.01948749295408575 0.02519580021060372)
(4.988726715458967 0.03669691609676084 -0.02301088072513446)
(4.994183490769148 0.07301935215392284 0.09206553591764881)
(5.034594453998871 0.04046114251888444 0.02968602899761356)
(5.032217149411311 0.08312766966259723 0.1326596363080003)
(4.94842777468802 0.02854445649754755 -0.01359342586578241)
(5.006098140297542 0.03913007789760536 -0.01199055788637833)
(5.037239559964905 0.08127788502351177 -0.02055976553797437)
(3.462922979318987 0.4273629684005502 -0.1854022641250459)
(4.998825800466211 -0.02151072419681796 -0.02664883682864541)
(4.870834751367559 -0.1823239571578994 -0.0131881179765215)
(4.963791843233905 0.2578116290228494 -0.006720041377370681)
(5.01287907198479 0.07380345881957059 -0.03076572095255011)
(4.181047889227184 0.1933473529063101 0.5818829094961177)
(5.085245952290398 0.05995514665163146 -0.118046724003631)
(4.870834143466942 0.1766910612545257 0.004991502311867116)
(5.045700847476588 0.03175231367843337 0.03229194179301444)
(5.092983617261355 0.1507027443061423 0.01221614665986141)
(5.039247517878279 0.03761000922465488 0.06297874960319944)
(4.995026063643442 0.1156584790889779 0.01350512181420847)
(5.017378444863802 -0.0337993549274027 0.0009139569710033725)
(4.987690999389677 0.005053399156606005 -0.002380848470796205)
(4.863775266481353 0.2340182699762586 -0.05389577889839168)
(4.991433298463557 0.01296826869656561 -0.0004889958515982777)
(4.941657577413084 0.07839560998074138 -0.102375309617961)
(5.005816304360447 0.000594554749615566 0.0009235169562719673)
(5.048787325268413 0.04139634987286452 -0.05916787715046718)
(3.848719838555918 0.6017712669674703 0.1842271169182738)
(4.552365196641015 0.001494273277200101 -0.6526738119253092)
(5.008399203041126 0.0007643943195510696 0.008447422331267005)
(5.070697546254326 -0.0009865519382321077 -0.04761243088692853)
(1.710903522139831 1.284703904175555 2.557506673412131)
(5.022044422266671 0.04461693734514277 -0.01812241437302515)
(4.959025005888012 -0.003028447429440174 -0.0159353956721093)
(5.027216794392871 -0.009999365535559711 0.05481517159134508)
(4.958879053726196 0.02251339915736533 0.002809707121984114)
(5.098347826399122 -0.02910619753731645 0.02418411243539641)
(1.508405858349568 0.4366127816213055 -0.2784909833377679)
(4.978741589081958 0.1835682076190356 -0.05081448184279531)
(4.70436522206036 -0.1315957343109968 -0.1312267739657422)
(4.951144930194593 0.009854611190513184 0.005648176546321173)
(4.990281864355746 0.01813272911846081 -0.0175755489291073)
(2.200630050513984 -0.08440923058561724 0.04364725137095782)
(2.604613652801426 -0.3966263332485422 0.1361455565351547)
(4.96368605638016 0.01797575579097086 0.004342736282617049)
(2.007572050247444 -0.07636673346878509 0.06553277186222191)
(4.98626762479945 0.02178954590292051 0.02486477868807566)
(4.993102977898704 -0.2033140268601757 0.1009886267274501)
(4.985543504684221 0.1314048223395568 0.07804209872326559)
(5.000367485851416 0.001372090417763195 -0.001395699269043268)
(2.352830911961351 0.1325705359818886 -0.01632242043202756)
(4.989063055782759 0.1462793638149662 0.05502543193557015)
(2.059680907254611 -0.4022887468122494 -0.1402613826447888)
(5.075450337376044 -0.05598347683144141 0.09910340456794947)
(4.933333152744553 -0.09759916264311119 0.05559865619650422)
(4.578312880357406 0.0002085014634439645 0.03248093814633519)
(4.83477272146537 -0.04531302454464931 0.06895371786939013)
(2.067782960257647 -0.4491789872561643 0.09606663891129912)
(4.527167777812239 -0.1236681383675913 -0.01389417525516687)
(4.815623532653545 0.05032742269889386 -0.006840130661093824)
(4.85701294225257 -0.0004020181296145834 -0.2707461492286998)
(5.021182913387542 0.1829209045910184 0.1328007137073924)
(4.907531405331412 0.07127521576479917 0.02367167075864741)
(5.037969853610663 0.04511219841522798 0.2471318872682438)
(4.093795290837188 -0.07434871359826084 0.2538460629628543)
(5.053193042617377 0.2696757550190984 -0.1837809222255682)
(4.98946062317061 -0.008930380574865435 -0.006980612231516401)
(4.964657477662612 0.009455499076788323 -0.007608875165667123)
(5.064636772807 -0.07656971940314236 0.04374329629541402)
(4.563797230026419 -0.6484470962415319 -0.4977210153954794)
(5.047511370761956 0.06522497782428645 0.003191016053298099)
(5.081755492616588 0.1127382355350327 0.04645682139811324)
(2.118053013172082 -0.1568485391416699 0.1617426483871912)
(4.23740697698091 0.3855063476134112 -0.1679881952874035)
(5.011578719640729 0.0153849589621034 -0.01311344674571043)
(5.007969036311481 -0.2447970886677578 -0.03901061245121293)
(5.08428727591333 -0.1743047788009736 -0.1422313373405446)
(5.033341341635675 -0.09844262088003607 -0.09095280957544166)
(4.712770574574169 -0.1482303237132451 0.01827841093846566)
(4.140198225306529 0.08453852681382872 0.2551964198382786)
(4.430785166228878 0.3197926746053699 -0.1247871079578407)
(5.005914669385639 0.0451728063778786 -0.04090090082814157)
(5.106397904709715 0.04341951991488992 -0.5762972257926887)
(4.994004476860093 0.05180501493799775 0.03237594168848767)
(1.966842174690446 0.1227184301981448 -0.2943449603235567)
(2.385891879356979 -0.1599966054143292 0.1248321390123774)
(4.489383017836981 0.05483594035863958 -0.1352424764848041)
(4.996149201224227 0.03521138510631108 0.03541709378323318)
(4.304976563338777 0.1740320602722003 -0.5162571894067319)
(4.999074619400219 0.001525721325151122 0.0003719799715423588)
(4.601422071044637 -0.4013736390763689 -0.4202422640608265)
(4.933120381680932 -0.08478230496779428 -0.07408169056076451)
(4.906954733761991 -0.002774798158984371 0.04841124537722879)
(5.053603593223248 -0.01396291873894042 0.05861650633037687)