/*--------------------------------*- C++ -*----------------------------------*\
| =========                 |                                                 |
| \\      /  F ield         | OpenFOAM: The Open Source CFD Toolbox           |
|  \\    /   O peration     | Version:  v1906                                 |
|   \\  /    A nd           | Web:      www.OpenFOAM.com                      |
|    \\/     M anipulation  |                                                 |
\*---------------------------------------------------------------------------*/
FoamFile
{
    version     2.0;
    format      ascii;
    class       volScalarField;
    location    "0.1";
    object      p;
}
// * * * * * * * * * * * * * * * * * * * * * * * * * * * * * * * * * * * * * //

dimensions      [0 2 -2 0 0 0 0];


internalField   nonuniform List<scalar> 
8464
(
-0.07568389423423819
0.100635865093503
-0.04597676206072053
0.112009456478226
-0.1236732469186372
-0.04560239188567775
-0.04364912449901465
0.07793350606015773
-0.05063388985572627
0.007997371588289417
-0.03863854471475504
0.01620067052735935
-0.0557706531498533
0.1233380107263568
-0.07194645079316347
-0.0294516042045336
-0.07766215279799989
0.1518386873932941
-0.01114713971273671
-0.7141883726694654
-0.06036749669181968
0.09772117168871894
-0.1494704303987058
-0.09207952863539298
0.03025278809392289
0.01250459032042061
-0.1724469613983135
-0.05153609200806873
-0.0379110655406593
-0.0762455212495126
0.1817953294055969
-0.08250995893524396
0.2764168380325576
-0.03397369858659405
0.01808125036673608
-0.01685898880861175
-0.01392802273602959
0.05456695242791366
-0.01736826236636593
0.02957116938166566
-0.06056901044673162
-0.03688658510497988
0.05490112195164355
-0.0445523368255209
-0.04319070241482535
-0.04196575278800467
-0.0414028860367698
0.08501198382528928
-0.2237870688978416
0.005631981189192196
-0.2304993289765989
0.05167250862903384
-0.09750388243527841
-0.05180753524193912
-0.09047079492600678
0.03929591449069684
0.1809517768365939
-0.06009140081531066
0.08091637134733291
-0.1010303956258289
0.0217587802213803
0.04196095659666824
0.03895664922355849
0.6511666378559886
-0.02095354924807357
-0.08157038375455503
-0.02579522119099698
-0.02776789720210129
-0.3820667302010908
-0.02913132591551655
-0.02454396876698483
-0.0448001307039388
-0.009420895375843032
-0.02326181840316663
-0.1080003307207303
-0.01486233748899051
0.07006700184271208
-0.003302447160277085
-0.2397354199070076
-0.2017441349055327
-0.01037055117566103
-0.005833154896300934
0.01680737778151654
-0.2441556570750235
0.08028967299252178
-0.06326938500417498
-0.1725391207858849
-0.2758135281335087
-0.05893454868922469
-0.02294694393088502
-0.06325693075615954
-0.03094606281630615
-0.1165643240615313
-0.03840742669072094
-0.0129625706316792
-0.01190803395810547
-0.06020496551754082
-0.1159113015433399
-0.1816921992462209
0.0801106035810009
0.04927114320119288
-0.06761184527732962
-0.04443789943363514
-0.09060988586798206
-0.05461922033965246
-0.1461788439090418
-0.01116672044051298
-0.01155727570977234
-0.03689140085012807
0.00647831848898097
-0.04961892971255866
-0.04143026595779551
-0.06006422232266743
-0.2532022465354249
1.006022473138948
0.2355426494335352
-0.03120227402606258
-0.0464814305574271
-0.1592352338731275
-0.25724516126466
-0.05494991569337277
-0.02575688480262393
0.04721819707899492
-0.06253388030864737
0.05303820301952022
0.02107146568184993
-0.02680231788777317
0.005518957217321408
-0.01414777258289912
-0.03249074502605678
-0.01725354300361706
-0.008843538763281557
-0.005712893283752281
0.07581763772077965
-0.08010493760715447
0.2133251636998715
0.09226557415477013
-0.09227657200807834
0.2024989090610558
-0.07883530004718345
0.286908835372317
-0.02375657551605728
-0.09587532709334093
-0.06195984268495834
-0.02337020799589539
-0.2185943266091777
-0.02995276747243859
0.06408809371423711
-0.1303758019059389
-0.08744880223881171
-0.1713885995775374
0.04397926166681722
0.02654468995595757
-0.2961858740249129
0.1569324967401763
-0.2076474251900957
-0.04322374871907958
0.1042562788240434
0.1487094190670311
-0.01969071888470716
-0.02937681200633235
0.06373274063045968
-0.009827571012775085
-0.07047786585815355
-0.0187899925726948
1.68523575685742e-05
-0.01296603730801486
-0.06241562590840014
-0.04852546954041664
-0.1383104021817916
0.02274961049527677
-0.3123630647127666
-0.05384542389285712
0.1241726072644714
-0.01652678931217784
-0.0008621363716963412
0.01478639798364575
0.1622783513921303
-0.1055339251388609
0.04961744603736171
0.06133558499690447
0.04393875240560161
-0.06555973522486511
0.1516497855026077
0.2018854834099325
-0.0584524438167045
0.02399074753525024
-0.06396019195485608
-0.04327137968829937
-0.03121339143403691
0.06890185646221116
-0.02401880552060311
-0.05796081999250225
-0.08791692108632561
-0.08603093118553196
-0.1127175305870735
-0.01039810574333981
-0.06511577412913183
-0.002114888922967828
-0.1355724260576205
-0.05654081762158344
-0.01757212211089946
-0.008858139831284898
-0.04027017622157463
-0.3781581061184983
-0.0156637564788776
-0.08376893829224148
-0.01768208140033532
-0.001293280199813712
-0.06783560657428243
-0.03896446265317059
0.07357179319817145
0.03229445533927153
-0.0161088801769052
0.0141522488126993
0.01313633689601133
-0.3524301291749299
0.2822678142550381
-0.002705219455504357
1.04619476826981
-0.03697731763239209
-0.04378784125435196
0.03095497366670623
0.04932386455455715
0.1383425739750586
-0.2375938138732916
0.0136444554520966
0.03088006981612761
0.03810964753090011
0.005221210009847778
-0.04463235279415626
-0.01402995455904596
0.07617955050367504
0.004954194790463306
0.06881442471311519
-0.05584474351034157
0.04144312314614108
0.1265422661154695
-0.02449184591333581
-0.04191932894330228
-0.002958584055236604
-0.2776267306026825
0.2839365417487834
-0.02918434997800841
0.1164780704287913
-0.02200408458971363
0.02126468609522669
0.08415580338087372
0.1551815584881439
-0.04747384873067097
-0.02326294653778579
0.2128884421397885
-0.02550092491927607
0.1780045879888346
-0.1204655104126403
0.05223753257833774
-0.006624015125016674
-0.05289070665339428
0.09614892157158461
0.2181214716398889
0.03037706068553335
-0.008992715458244862
-1.09058399326319
-0.003939406369155352
-0.0009613240281223713
-0.01392174362682061
-0.0250434946518887
-0.09461901292542342
-0.02974950905938218
0.1107349237122077
0.005109920050255746
0.0826270427713492
0.07846035446591769
-0.02736701331304541
-0.02803994563677996
0.5308708227670197
0.1448644282258645
0.07099139030749964
0.1144208829608326
-0.0211956763082828
0.05006959917394088
-0.06143248123531953
-0.1796069459957411
0.08121041707180407
-0.01803628314365617
0.06425112695571512
0.3411470758122302
0.1174527461068955
-0.1016357421558577
-0.01667271300233876
-0.02744882551105841
-0.003251621099877686
-0.02337154594570867
-0.1025596245655794
0.07902141623581346
-0.02959465166955848
-0.1127522822455595
-0.01542799502948262
0.0691686727400017
-0.1014017367457398
-0.01755099071609776
-0.04744160706298905
-0.1006063573279706
-0.1508479726140043
0.006290534709197946
-0.1213322395612401
-0.01629126070301467
-0.07548836973106784
-0.007578766821713029
-0.05563986944080328
-0.3898840348963229
-0.009563235542394513
-0.00493727491100214
-0.006994458186087761
-0.04337013260503286
-0.03917679932577608
-0.001682494291416956
-0.04161330567435773
-0.03872359345591399
0.02062638917049871
0.05323471612699093
-0.06045444725761746
-0.02325202983219223
-0.03555595064778708
-0.1361818074940842
-0.03538296491958812
-0.1156103006412702
-0.1208822182569075
0.007583918562676369
-0.04274702435052727
-0.1079927894305987
-0.05685755595179748
-0.03896331118261522
-0.03693447543956896
-0.1169546782992064
-0.04157160976554804
-0.09292753927153817
-0.09683371006656133
-0.02874979774417175
-0.08252157335034438
-0.02305744439871862
-0.1217643559446777
-0.09995307866752423
-0.1665323517329809
0.04076390128192556
-0.02110256078160485
-0.1261976877399677
0.01690678893264625
-4.471827345707274
0.051044048142537
-0.1182585779147575
0.8126682101220369
0.05359236571591264
-0.0527902644683312
0.1826418746880194
0.08514420564986284
-0.1342946063636485
3.536286727828516
0.08656658590531725
2.616102430608747
-0.08247048360529742
-0.0265264527545604
-0.05233842226880291
-0.07913981967096738
-0.07638257966834228
-4.706487382747481
-0.3088811650964887
-0.2300878872915059
-0.1736400761943531
0.03713047814395096
0.4265967596414663
0.7601726467117701
-0.1138206843888928
0.0543103808136331
-0.1225769637478219
-0.0885346366512189
0.7587144032738103
-0.08568112711921852
-0.1177898194653158
0.06400551566880089
-0.1146405579177632
-0.07987244881901803
0.1945051641613991
0.0560420108863085
0.7525218197244259
-0.03006236806073506
0.01564875625130334
0.02049435222473004
0.8242496919961455
-0.4931887666304429
0.06408328938278496
0.002254560502930248
0.1802344666898337
5.149041365751029
0.05874734146192215
-0.1180337319545535
0.01679577611381045
-0.02005076392770315
0.04274501991237882
-0.09271461064310969
-0.09550786150107302
0.08711242881348534
0.01751318565359431
-0.08419568349812669
-0.1054169986152225
-0.08135699968591611
-0.1209727453430583
-0.06306878830878893
-0.1290587763391518
-0.05742190367592464
-0.07060596728443412
-0.09220770068395116
0.1176955149178115
-0.05063418973886512
-0.08806507297808852
-0.0278607096078236
0.04734930875464407
-0.05469212786206977
-0.0705592114215869
-0.1593960086395718
-0.09945462269220247
0.02020796854511487
-0.05085836125733521
-0.05260127949040267
-0.109348864000191
-0.1081868641615347
-0.1023473121967207
-0.1048212688282164
-0.1508836002165558
-0.1761583984793735
-0.02382096407039592
-0.1491354660734351
-0.1696594506159498
-0.1095506777669461
-0.1076745237756598
-0.1282316214551273
-0.1187451556686654
-0.1118920215219413
-0.1146683129342795
-0.1155785851881636
-0.1079671907247933
-0.05397769731514029
-0.06057066723151436
-0.06737917618349291
-0.02956065040631507
-0.2740553921702525
-0.06384990111594645
-0.1250532413495035
-0.1213565434056773
0.1658654527162789
-0.09890808069064022
-0.1147736287565417
-0.07875670986886972
-0.08253305845404244
-0.1055886576350857
-0.05142967451660095
-0.09016630899563816
-0.06046162478432866
-0.09814522623596701
0.01234442047178661
0.02254042760569526
-0.04991991318250858
-0.03345181739017738
-0.1108582871669325
-0.1036217428380962
-0.03169780574510916
-2.265382681943898
-0.4707154801041054
-0.1203083772548664
-0.06185072838653172
-0.1537331952734099
-0.06698238417185434
-0.05679285665597829
-0.1110557949277549
-0.1147905715216924
-0.1168917753073895
-0.08688577227692235
-0.05838114769288263
-0.05617416173402853
-0.1135946281455329
-0.05916184250069156
0.03787575859216964
-0.1009643686892628
0.06245847209853771
0.08498426930234793
-0.3653554122665612
-0.002986077750524289
-0.12903980784083
0.03708821033274716
0.05430654183687555
0.02162828703033173
-0.1995473154326388
0.03353452938707934
-0.07889237638616965
0.05091124603400199
0.03578693278079853
-0.1138361249274643
-0.04615110282117165
-0.4332710350541714
0.06322617767864749
-0.08710143111018732
-0.123464396768982
0.02568340844018559
0.06164935719843937
0.09207535498816664
-0.1934272562860731
0.0617759688467064
-0.09907379789741649
-0.05583184007813168
0.02822633589188427
-0.05425379935592388
-0.1135130988517804
-0.05525939437789987
-0.05431355587549856
0.03508542920595341
1.077117003843465
-0.08616150147628493
-0.06597865732196946
0.01142003807960905
0.1128287625388549
0.1131648784015576
0.04024926827313045
-0.1088624666741279
-0.1091259069986038
0.1582932759309911
-0.09252274139718292
0.08422593672100258
-0.07879652689694351
0.2338529810663761
-0.07222208965407695
-0.09809150954272919
0.1187874638313636
0.3338876045129133
-0.06299026492519899
0.08425518774239693
-0.1222204630621761
-0.4981041674246743
-0.09807587870331068
0.02412309606262166
0.02767740067009424
0.006891092897887118
-0.01678633026650587
0.1054431580027627
-0.01427778691692051
0.02686215040607585
0.03536303452403321
-0.0268870870603046
-0.1008376826095967
0.1292870873330243
0.07442487088662698
0.04232961536299802
-0.1531497336948767
0.03690995975367442
0.03640340132076674
0.08122666035040202
0.04476062838450372
0.06697616552701828
-0.1231704534616752
-0.08243087710329325
0.05611638144874312
0.02314612556740511
0.4321806291270042
-0.06353701947620789
-0.1124642043308505
-0.06981919406363102
-0.1021425694640986
0.03330725956825479
-0.05922016365481746
0.03047497001386425
0.02381083523762587
-0.1337761931489178
0.02560693966636749
-0.07151178873759891
-0.05190748046382006
0.03768930969922538
-0.1018112390449017
0.02484517830567771
-0.07401996314360967
-0.1187356652037656
-0.1384914002577043
-0.1075700327022878
-0.07140400761174699
-0.1633707031842235
-0.09157474181925356
0.02436731228309349
-0.0839239389104601
-0.1403663019463158
0.0001725345856331743
-0.07556478708098747
-0.122895227484406
-0.09126016864101048
-0.06189625675553671
0.02436950246036006
-0.1488406995233049
-0.1411490887127565
0.02283640540944508
0.1962824193781909
-0.1236977488849217
-0.07133346778835239
-0.05913126151484981
-0.09147527044492323
-0.04858123571059812
-0.1228087524436692
-0.05893237087112567
-0.1075700765979507
-0.0737184117713832
-0.1267873436789049
0.1176205242607442
-0.1059440295313139
0.1066808004209694
-0.08773593309146385
-0.1022697917133146
-0.05944553082723389
-0.09804145466451765
-0.08272538329031306
-0.09976962564286872
-0.0697356477019439
-0.08272167578255445
-0.03153945495471493
-0.09903652218178215
-0.08129411440786059
-0.05455966436833901
0.1811424128410817
-0.1139408971960799
-0.0810522442092879
-0.05025488203030382
-0.08302012978789895
-0.04351957042701686
-0.17369419028376
-0.1430699239780736
-0.07070806219640809
-0.1394839397447367
-0.04919498344415708
-0.1024685393894798
0.006948772541933959
-0.07376173406267918
-0.1023492875066256
-0.03952094651218738
-0.06875109225404336
-0.0725620039374634
-0.0634918808538827
0.06091851233366568
-0.07876018486194994
0.01839723498194288
0.001160673721218327
-0.02612928803660409
-0.06806830006053702
-0.03043907304810457
0.03269508415682889
-0.04611917731366744
0.01732443585156791
0.02751830452220837
0.5274483455099674
-0.2856308465246392
0.09675317239286177
0.06216467524739038
0.006431207324582796
0.2368841223409679
0.07413448954905218
-0.08211798221236447
0.0509377540919143
-0.3062230215153803
-0.08299483905666891
-0.1043164444741622
0.07356504411264207
0.08523696448990968
-0.08450890873776228
-0.1061254713803498
-2.569877419479149
-0.02795903486291327
-0.01094026878483017
0.07405574499756569
-0.009447736528663179
0.3198128570671607
-0.01229146399053503
-0.01834907817068876
0.01936158845083645
-0.1172373323186433
0.08636145785664158
-0.4081926065891581
0.0854753760563894
0.1187623631930802
0.09526685712539371
0.07490310453452356
-0.002636760350582925
0.04097862217622762
0.08382986295812923
-0.1900870129646152
0.1974173372585731
0.4492632175422684
0.1025874548187211
0.1358030842640433
-0.03924777327542981
-0.0281777024914931
-0.04821884575699481
-0.03311523061255849
-0.1300301791592187
-0.1014014162448093
0.05776757100366343
-0.1377613110409624
0.1614185222992548
0.01505226799753003
0.1374460989147681
0.0620785697114231
-1.876336543050342
-0.002380782624605381
0.04019543289567795
-0.03889447620023632
0.009811571248519644
0.06466074166958219
-0.05292041423957792
-0.06268605241118623
-1.895278527454824
0.1089140974339556
-0.06969389018962699
0.05133211601055599
0.072464418800759
0.02872204253160538
-0.003248186709209533
-0.09789782712948904
0.06318730506621405
0.040034365932013
0.06108796166385049
0.1971723777349807
0.1875712920583442
-0.08877426622984957
0.1376583553338656
0.06410543824510799
-0.004257996282427025
-0.01791207513741184
0.1164880983036049
-0.05863942633458172
0.1378133358605345
-0.03637092291601857
-0.1081124159209065
0.006032658393942441
0.02353523724270251
-0.01905263332714454
0.04417663239372812
-0.0364635292180383
-0.0631398385271052
-0.3390512230864386
-0.005307130985817118
-0.09097839048499275
-0.03893466044708978
0.008053644821348958
-0.1045555987221763
-0.04790016905605529
-0.117460340520079
-0.06241538763009701
-0.0779133330575266
-0.03281085357435239
-0.0683435572390266
0.1367279421016016
0.03570672895616927
-0.005330135298222886
0.03054895886677401
-0.04656468812347758
-0.09898628135914028
0.02700514227075034
-2.594010377779167
-0.03706208485279901
-0.04724755891665185
-0.02457626479406735
-0.06956780028757185
0.02598268608557649
0.01328599155076412
-0.007663759879209388
0.0006129797278575707
-0.08027661764175005
-0.0170051725666624
-0.02593093029597386
-0.2027567785053413
-0.06932455481717464
0.05356429332840738
-0.06472027168012892
-0.08414440949994081
0.2018165781944636
0.1212521020992954
-0.05551579056745427
-0.06237927178457664
-0.08434510576022404
-0.08988176435945922
-0.06277205695151183
-0.05990630903837004
-0.1227743477837163
-0.06848931688941799
-0.09245801344868215
-0.05447160380510286
-0.07950496618317615
-0.05482968630927536
-0.05049876637151841
-0.03996715194441357
-0.05809412453117963
-0.04834820969140106
-0.05553165623176635
-0.130342063039164
-0.0542548376869892
-0.09434526677991967
-0.07372964067515136
-0.1394867646294256
-0.07787723073697979
-0.08925677192108071
-0.1057663943373067
0.01685428532973515
0.3376864928295375
-0.09112637533719849
-0.0622053022102812
0.3693513210143494
-0.06300289650924976
-0.06916620372648621
0.011940492480012
-0.01474055441365262
0.1657972444229089
-0.06881560439809681
-0.07443712250221569
0.03214197950101592
-0.02203005237576658
-0.1361799178705996
-0.1482720915877759
-0.04290896999882801
-0.0980746818374041
-0.1999090575382772
-0.1231855467118369
-0.1659639392289977
0.1280706886331625
-0.09558484373726878
-0.07487152697635588
-0.1238546390987732
-0.1299575584903727
-0.01891280279162853
0.03327888931197883
-0.004606139289260958
-0.5381953227158739
-0.03645095370303284
0.3166880302602702
0.04854960674733862
0.0585371137447858
0.07319890112446033
-0.0283796133706667
0.08520790163969903
0.07681820391688438
0.08772199888380411
0.1819545047721602
0.1402913821645766
0.0704639207596414
0.1926150898075006
0.008559752463826769
0.1396845071640422
0.1024591844036297
0.08374116812532718
0.09634411781694628
0.07803635906305524
-0.04601567433247581
0.03847770977077172
0.1332715699227883
-0.02388242874643758
-0.01715359495778981
0.0578310371841084
-1.727581695391468
-0.1270921873888153
-0.02634324245921781
-0.04840929749115229
-0.07953948773218485
-0.07801350980532037
-0.1303222885234261
-0.04085553503373915
-0.05257977968692811
-0.07980016197350695
-0.07157712037801278
-0.07517039452063087
-0.03228940716375823
0.1287634878178323
0.5657365492346951
0.1104681126676425
-0.05808057692518732
0.1233321851389109
0.1468713593173994
-0.1584000546151339
3.930050178398274
0.07007444953062281
-0.02790467934722751
4.385365530573304
0.0109737106890734
-0.1309698229066156
-0.05840582857395487
0.02750124982706332
-0.05056776241151259
-0.1083597471518481
-0.07145442949443143
0.02151348488091766
-0.1317934668173656
-0.1322510931232934
0.01885103714762525
0.0563962220446437
0.06050058173747058
-0.126733706859727
-0.06322183739579078
-0.05098704291054664
-0.02278205073077222
-0.03480809557323444
-0.04414731894054826
-0.0509615290194314
-0.08628168509016097
-0.0003715989784003842
-0.1018192429474449
-0.1221895122370963
-0.127463965817344
-0.0134505181702374
-0.01911708877135429
-0.0005326082350626548
-0.1048394332230976
-0.1832072309276595
0.008047500149046285
-0.02941899808471145
-0.03095585698139432
-0.02269119876032022
-0.1010830916321112
-0.204662419082731
-0.01173609770732448
-0.02081877931475863
0.006620575543073259
0.05234332873838001
-0.01219176949073435
-0.04078702354793713
-0.1283169726211794
-0.0670007682334819
-0.1311162479076229
-0.05245566640110673
-0.1109440726352639
-0.04174005511395705
-0.1162598540523802
-0.07879609224080364
-0.1257833155687968
-0.1228127460754038
-0.01340584515199416
-0.0886220756361969
-0.09415689983017557
-0.01927802222535694
-0.06118056952281715
-0.09228829230022784
-0.001651645960872398
-0.01361188109681179
-0.0380774450395111
0.008385048026004528
-0.008678990157275319
-0.003331755452405215
-0.003096723444821173
0.04092110839830659
-0.1643647881147942
-0.2196938351162439
-0.009183223636390347
0.0320406309425934
-0.1428718067301127
-0.0929949603936744
-0.1011889797286644
-0.06913866337263866
-0.06358695721828926
-0.3724282050939073
-0.1018544135360172
-0.04812666167605791
0.05598842491911737
0.00809261527846172
0.09796835700711877
0.1569187293176749
-0.1433121348439866
0.02002015279549146
-0.0828354766595252
0.01349050217137109
0.02255480427455164
-0.01127349425455384
0.06682709351610754
0.0573648990834957
0.07901002681242328
0.0934886754715378
-0.03198987481500127
-0.1234749001656451
-0.0503097548893656
-0.1871784950997618
0.09546084926266754
0.08492869610252711
0.009512305339155135
0.1458024530158595
0.02625036287577833
0.08112684781868716
0.1099097180312448
0.1230907418344564
-0.0575028001806742
0.09452485950867526
-0.03653307222384376
-0.1494579771293404
-0.08451668953222434
-0.1369216457181305
-0.03666749815088562
-0.07096913914969426
-0.1286470489390132
-0.1042940526259774
-0.0839848452751818
-0.1377112177370812
-0.1471521575555951
-0.153627244443182
-0.0171549425675743
-0.018764833770359
-0.01230252847292381
-0.02325620263625887
-0.1371235046849037
-0.1188417832649063
-0.06766264539665354
-0.07338471851335325
-0.04362569953671671
-0.07949144062262641
-0.05994601657637012
-0.06606732575719741
5.241284309283567
-0.06120511142216861
-0.04011000056174576
-0.526800060506068
0.0263206619480819
0.4147752512761097
-0.03778326487875567
0.1055072669961487
-0.04303200771566508
-0.1053141550306237
0.1977767140433359
-0.06383583887964081
-0.2622146178966388
-0.08932108940360381
-0.1325520625122958
0.08758546368253887
0.02337632523157803
-0.06057954505524952
0.1016087698780954
0.2319059461273079
-0.0974259950577617
-0.07130864456952558
-0.1280029745940224
-0.146331085085798
-0.06933775737076003
-0.04609106375101893
0.02276801126098965
-0.07870335903716504
-0.1079446889532946
-0.02603533904492133
-0.03557793714370597
-0.0556323863030782
-0.104368722708347
-0.155183147532599
-0.0717956305644752
0.4232267308953119
0.382200024587268
0.1463151598847373
0.03170652894479586
0.02860636932180554
-0.06311489648501277
-0.3048963425034389
-0.07156395294496722
-0.06958706687646082
-0.05946795346625277
-0.1212160853995149
0.03469866643836136
-0.05926070641120427
-0.06300133856042259
0.007005001692577398
0.01482960718557745
0.00862304888209867
-0.0233667923445691
3.363329798313778
0.008775500223267532
0.157509944791102
0.2226698336112904
0.03693540814342133
0.01654766241489659
-0.1145412429027061
-0.1225302267035043
-0.02885251440464814
-0.7795802571698182
0.1817236258032867
-0.04107933294545721
-0.04211364101912963
0.1801851365885326
-0.1280369928975338
0.03318865588006758
0.2494989196516156
-0.1235828219186012
0.1298255114997423
-0.01537595319968727
-2.48279623756648
-0.05652353262852545
0.3197198680687828
-0.0401266242129161
0.04473098544443569
-0.09967626662416412
0.08101303584411884
-0.1317478107415905
0.0152669524761839
-0.03254470068155496
0.007605002999185173
0.241124528856159
0.1507022935104347
0.1453957900269105
0.3077215978014828
-0.5219627841113162
0.2539614095137703
0.3282622965458533
-0.02855238542742274
0.01172442350781376
0.2471107844540325
-0.07352925974658323
-0.08689583093955071
-0.07906991450600785
-0.1456978050446911
-0.02015392017408824
-2.508690136488157
-0.02636302661761151
-0.02757614896001105
-0.1416365353467714
-0.0835210750286728
-0.1234964269285409
-0.0956150404131511
-0.124228582858383
0.06541045193847256
0.06743609105851833
-0.09176976631890643
0.07509466347537175
-0.06126956345798038
-0.0653213375932309
-0.09047942163393027
-0.05597381451220352
-0.2705086201531124
-0.007450108604379989
0.1767101817957176
0.07176428006540525
-0.1228353290652308
-0.06168163926102131
-0.03823506268125367
-0.1268024122187681
-0.1090922847528817
0.1767148762294672
0.1199883604817674
0.1065918229131989
0.003366908159609971
-0.0525693664700272
-0.005239688848406298
-0.01991928980137064
-0.1386616794416722
-0.07532771709639935
-0.06276415975415522
0.04586152610778746
0.07201561509465043
0.07160870421547468
0.09538875121342939
-0.05096677680804613
-0.06968369874443132
0.1097560480951277
-0.04174229487250084
0.04883981262251771
0.09240994105603224
-0.02145011710756669
0.02554230016895457
-0.1986626903374913
-0.06925183394936649
0.3084769892834721
0.09113809726620008
-0.05467645706987243
-0.3071686719507079
-0.09762428187293924
-0.1101271132127198
-0.09764697474648985
-0.06225271431992799
-0.01509263400902967
-0.05162904592497958
0.04331414024428959
-0.006771929588057024
-0.04574307970828226
-0.1150316665828932
-0.1018184963904722
-0.08008428855041658
-0.06827452950710729
-0.0695102122469262
-0.05480456440718116
-0.09148212595830706
-0.1376008903582902
0.030484755983147
-0.06654753783557166
0.02858404561076903
-0.04742573537546309
-0.06230334103076752
-0.07686318078455565
-0.09885972853044556
-0.05807171404006641
-0.1037205708022366
0.04234313446973546
-0.05606909757047671
0.01368526589889577
0.6893115670677279
-0.01992423368325415
-0.05359975830287581
-0.09580786147463724
0.05330416529474871
-0.03770307476398688
0.03540229030789056
-0.01023588312307434
0.03595263669374796
0.02291183164602165
-0.1790801889618815
-0.06477261380918438
-0.02108964462024039
0.06889135053999765
-0.09995889248536308
0.123971440279029
0.1172721553122971
-0.07251306099565233
0.1711629026580113
-0.0996515994269308
-0.008835404051488657
-0.04277236377320326
-0.06758134033358451
-0.08942551701852727
-0.003473096110864024
-0.08235973777673486
-0.1321692857000792
0.1287714545012664
-0.0006131350500522084
-0.1217457657696403
-0.02615993659794216
-0.002547932859861392
-0.03269216133011286
0.1712668573772989
-0.04735291792327719
0.1936433631593959
0.03508066752627313
0.0469291140188406
-0.08597387225163756
0.190670969959467
0.09109416646349848
0.1330907705942054
-0.0803631503629231
0.08361075580227065
0.09736917190676783
0.1344256858603542
0.281795339002465
0.04443277142626438
0.1036003399447312
0.09426908225743323
0.129580590006812
0.05488069385216682
-0.1157971603018575
0.06372564721982846
-0.03057371960964268
-0.07441827302178948
0.07098968281866688
0.05894035418562892
0.05259449215631964
-0.1044221303369759
0.09444454033887362
0.1008623922247964
-0.06367079471449355
0.2142030294937591
0.02456301993446956
-0.15093357188635
0.09526922703815442
0.06454063672602864
-1.240203584732778
-0.08292290681095286
0.03342431934634797
-0.04843578363546338
0.1438735035899508
0.06016820490439103
-0.03634883227747748
-0.008056114237220097
0.07024213020769346
-0.08553909879563525
-0.03306455925047907
-0.06301944525251553
0.03778966942986674
-0.05570747795393963
-0.05812807489496531
-0.07954351228908932
-0.02741556576029106
0.1047660925436648
-0.02133516920112074
-0.06034865658124799
-0.04001802127244542
-0.04183743016678215
-0.06962506886882509
-0.1182245534152399
-0.02419302794135513
-0.1065429773757545
-0.1576483927197348
-0.06438439285711232
0.192398110541692
-0.02693543205597917
-0.08516634214419502
-0.0561427285375424
-0.05805952765248392
-0.05114236605250033
-0.1718265867650467
-0.08290491030007265
-0.08617293420606363
0.04775048795116854
-0.1030126217271397
-0.09438375713394898
-0.02251844884167508
-0.09051459457476294
-0.05536364241237551
-0.02527594128760917
0.07546221340535535
-0.1472958701816319
-0.06574265511515
-0.06032073813942265
-0.0739726019080435
-0.08645488625886458
-0.05461365777510523
-0.08666534822330386
-0.0698965477998027
-0.06130280356751917
-0.1140029027111972
-0.05999114989685689
-0.05208785807226609
-0.1148691913139432
0.1940282920753154
-0.08855674864248099
-0.09270574485031183
-0.04100327348440224
-0.05551812509337439
-0.1135777786064808
-0.09403580046683394
-0.09056555556031522
-0.06789721196816184
-0.06114337842780437
-0.02506483589307369
0.03662499769850081
-0.1331478430064749
-0.1171159575384598
-0.06370670001149019
-0.07633992511705587
-0.07996912972804834
-0.09032364562502336
-0.1121894256707481
-0.02192639879395601
-0.0667216779336222
-0.02555637212497756
-0.115726125572848
-0.004272346126248228
-0.06858351185427827
-0.03466803039996445
-0.04101966416869861
-0.02216020609043566
0.07980885567519756
-0.01702324554468612
-0.05808177567539884
-0.0762978184125991
-0.1100358705184393
-0.09460584920374539
-0.08929913738958675
-0.02658349938814208
-0.06289165052261245
0.02935427772631287
-0.02070213391984693
-0.05899243360257814
-0.09603211257247535
-0.05568454408164823
-0.1029793270857279
0.02875727784624164
-0.1155883531223353
-0.07628068053280891
-0.1102074271958253
-0.09051796204483319
-0.06194577249529226
0.09926935607337482
-0.0740381178935034
-0.07034283100718541
-0.05922145457022532
-0.06923793189360508
-0.08086640208609573
-0.1003375753288793
-0.08441127783786453
-0.08342263025235044
0.009297209532038738
-0.08585411653129177
-0.05579249582121049
-0.1051712331281873
-0.08490772295973738
-0.05952058978314485
-0.06259686474710606
-0.06620077895004239
-0.07336114596739753
-0.1214612880067932
-0.09197438103174317
-0.0889002008939723
-0.1067625525944838
-0.02373189166274748
-0.121963813588168
-0.0787458173398863
-0.08658262083941404
-0.1318442766480366
-0.07437081728378081
-0.06039979142729981
-0.06184845281940091
-0.1644214883809764
-0.02736383311050361
0.03435529859171819
-0.0657251674038616
0.01002655313427964
0.4067213013810435
-0.05657109047469688
-0.05866556702304512
-0.0570245414041454
-0.05245046594607321
-0.05867453017006232
-0.0812223683265532
0.0587402700346697
0.03304637732590249
-0.06716354724372789
-0.100620375095326
-0.03112273678924274
-0.1243129914144908
-0.1164968402610988
-0.06838766245320507
-0.07972462760626364
-0.09112607603533183
-0.03149968728716265
-0.1665394804705685
-0.008217305281115894
-0.06154130511535796
-0.09284748694851941
-0.1225368392789017
-0.0914585168113717
-0.07792050116317686
-0.07869228788964633
-0.06100276919471765
-0.07183436496180801
0.02115967586598724
-0.05943212205445407
-0.0846554425065779