/*--------------------------------*- C++ -*----------------------------------*\
| =========                 |                                                 |
| \\      /  F ield         | OpenFOAM: The Open Source CFD Toolbox           |
|  \\    /   O peration     | Version:  v1906                                 |
|   \\  /    A nd           | Web:      www.OpenFOAM.com                      |
|    \\/     M anipulation  |                                                 |
\*---------------------------------------------------------------------------*/
FoamFile
{
    version     2.0;
    format      ascii;
    class       surfaceScalarField;
    location    "0.1";
    object      phi;
}
// * * * * * * * * * * * * * * * * * * * * * * * * * * * * * * * * * * * * * //

dimensions      [0 3 -1 0 0 0 0];
oriented        oriented;


internalField   nonuniform List<scalar> 
16097
(
0.3317355536582562
-0.3245385793582109
0.5750851303578352
-0.5822821046581388
1.51139229866717
-0.708455923431392
-1.117867046161145
0.3149306709253152
3.461428831999709e-05
0.02559677165878102
-0.2532195561382783
0.2275881701911543
-0.1056867761124879
-0.02581287686480434
-0.07980648096993126
0.2113061339470671
0.1192166277495061
0.08193883768259476
-0.213150892017507
0.0119954265853495
0.01445058353522231
0.5352716314868819
-0.4014237400636125
0.5148390946860673
0.002477716677880386
-0.7497789996157017
0.2324621882516432
-1.027475404787282
-1.368122042278172
1.38012775660742
1.015469690457663
-0.05247260196521536
0.4158953351698752
-0.4068216656275928
0.04339893242290969
-0.1668580322555993
-0.0956198275935724
-0.2316855990899619
0.494163458938977
0.09574261361325813
-0.1650361620499119
0.6308541166451587
-0.5615605682086354
14.02221225534973
-17.25932063736482
-0.1521078535221243
0.01611337919780635
0.08296992091018834
0.05302455341408297
-2.218998840338886
-1.477868733287087
1.010047910183029
2.686819663442722
-0.2352347700813107
1.025299834016394
-0.965008553401724
0.1749434894666075
0.1548299592338953
-0.2098839325515826
0.07623693592617686
-0.03814036029435418
0.1194215964462536
0.002871659286900821
-0.08415289543888563
0.1436207525701313
-0.1847890249772523
0.06519453259548873
-0.02402626018854472
-0.00250445516693046
0.001724740795194494
-0.1453513389643436
0.08418498023287052
0.152377575899797
-0.09121121716839273
0.01356403621725005
-0.01352827282393161
-0.2697775533667736
0.2697417899734018
-0.1404249916386885
0.001070996959274751
-0.2659044198755512
0.4052584145548466
0.1530828177323357
0.06419616034026221
-0.007384399271391845
-0.2098945788013092
0.2694635151530398
-0.4563057238202205
0.8701483100546206
-0.6833061013876622
1.798936519124894e-07
-0.0002961902468410871
0.00636507728254902
-0.006069066929392123
-0.5659082292514216
-7.111127293674497
7.333281626734142
0.3437538961916832
0.2279334025552792
0.3063507331657122
0.005857677025283102
-0.5401418127463934
-0.2441803079933045
-0.182309207743813
-0.0732305466965059
0.4997200624335768
0.002341602987642473
-0.0005603370600900862
0.0002897686136806906
-0.00207103454130354
0.0579723175427705
-0.1044853392910652
0.03812042686876198
0.008392594879394666
-0.1534625833361807
0.01207734211942687
0.09433985861413616
0.04704538260246558
-0.4417742710783784
-0.04005085064220251
0.3623065880858263
0.1195185336345294
0.2002426776071613
0.1131569910521945
-0.1968187652495738
-0.1165809034099468
0.1986042864443347
3.661597628044738e-05
-0.2446168746474042
0.04597597222668878
0.1350841095371403
0.1270169426299928
0.1457920563345155
-0.4078931085018601
0.5647870383502438
-0.08859771841930655
-0.3376499841582482
0.1217002909445001
-0.2887265809931414
0.1624399535452339
0.004586336503131408
-0.2106744670496156
-0.5112506424343707
-0.3636285228789718
0.4955158466316117
-0.1856862097814813
0.05379888602869028
0.1462342197054875
-0.03588106771652288
-0.04525541230656176
-0.0650977396825671
0.7544041804755569
0.06066043802431097
0.3876984911449972
-1.202763109645023
0.0008546505341834043
3.137477781953833e-07
0.001486638705668905
0.1118416593143018
-0.1344438078316786
-0.05304240190239084
0.07564455041967666
0.2010634362371381
0.1811600981777964
0.001214568832351726
-0.3834381032473826
0.002535900172384767
-0.0005146787862492738
0.0003708684911949701
-0.002392089877384454
-0.0154199545017986
-0.1963736729334714
0.1978500972297666
-0.0001136024291911898
0.002089165541474676
-0.6441610016790428
-0.08645701786324723
0.3184132822616105
0.4122047372803836
-0.2041153867611814
0.0158122848249534
0.13969235134582
0.0486107505903707
-0.002305425012350163
0.0008092438590206151
0.001496458141530064
-2.769882275405558e-07
-0.8000481528681308
0.5829213320685888
0.2875396950292908
-0.07041287422975359
-0.04036855664125771
-0.008342356872773448
0.02258523984553375
0.06334665798947664
0.3496563624231646
-0.3504341208663082
-0.0625688995463856
-0.02923800295922091
0.008389899893790298
-4.60901455281047e-06
-0.02368477526477171
-0.1047511646725946
0.1284405489518464
304.8257937631824
0.2020654223940391
0.3603187228279923
-0.5541728063900896
-0.008211338832164046
0.06623260872883047
0.03595152906744198
-0.04421182025355253
-0.03680157211141822
0.2599939385725305
-0.0149385765018235
-0.2082537899594879
4.199471888032313e-05
-0.03269272847224304
-0.1474537823154649
0.1801045160688095
0.114014477218671
-0.01206863090130466
5.542934686112424e-07
-0.1019464006109055
-0.01458568231053349
-0.0005010103131580839
0.0004955950082994224
0.01459109761511477
0.1969714512928666
-0.05187174231757004
0.06702054605334581
-0.2121202550288557
-0.01989508670569812
0.06839732782560447
-0.04850224111995957
-0.001093612036823816
-0.0001078234986309916
-0.0004476766190671525
0.001649112154489625
0.07554783579201171
-0.338405417983402
0.007600029407262992
0.2552575527841148
-0.04014390378187734
2.006887319400909
-1.424434546848137
-0.5423088687707309
-0.002120048826210368
-0.0009253336412644026
0.001951770430597453
-0.07549584229189314
-0.7245523105762803
0.0005559817053753669
-0.002789632960791063
-0.2471500970417113
0.2274543275639944
-0.001809484784960659
0.02150525426265073
0.326570062188124
-0.5283399180960897
-0.08570588093953803
0.2874757368473951
-0.2115158771203039
0.1497407874453717
-0.005300155912793485
0.0003652482478810243
-0.002259912753959756
0.002450646211419116
0.06478167931861571
0.6732791188034601
-0.1756297909916336
-0.5624310071304719
0.6130516308178834
0.06446364764710069
-0.1937706761360471
-0.483744602329003
0.07442856126606184
-0.05119671937308596
0.09003765336764831
-0.1132694952607182
0.003569862700286683
-0.001188209654091962
-3.238232581744863e-07
0.2079465281863205
-0.05640025940647486
-0.1515462687799169
0.4670142115213534
-0.07338888200800604
-0.3936253295133413
-0.000521982648170422
-0.001713103198635387
0.0005301741032531671
0.00170491174350811
-0.07021672214956801
0.1055986506189631
-0.1517072916146953
0.116325363145157
-0.3554467812417745
0.1414404129081433
-0.9298000229300958
1.143806391263306
-0.3612328520451915
-0.4882462993384991
-0.1192840470021742
0.01949930381466887
0.2975824905757553
-0.1977977473883631
-0.1001675360825926
0.2727467884466225
-0.09066464622893508
-0.0819146061351592
0.05958507172619997
-0.05474637195974511
-0.4268227485583272
0.4219840487917834
0.01940199059075555
-0.02893527842379092
-0.1757760777803293
0.1853093656133141
0.2730835703978516
0.007499504842046635
-0.3001142351438333
0.0195311599039187
0.0008165923096635979
-0.003885218224547275
0.002143292273590099
-0.02627108241745746
0.5274459005888447
-0.3964952939961409
-0.1046795241754027
0.002723905602084256
-0.002068888740547004
0.006818925613206166
-0.01035340806071326
-0.01844257771244005
0.02197706015987292
0.1455100082662646
0.319320070872415
0.00248056442370899
0.001270738009367481
-0.002934710123473881
-0.0001104878905633355
0.002069069666091911
0.02689621757219611
0.0601216316801279
7.222381936677336e-06
-0.08702507163432086
0.2023163205976849
-0.381322313636805
-0.3348829741757021
0.7341683299528222
-0.3992853557771405
0.3363690135696668
-0.3884013257885812
0.09040383468810063
-0.03837152246930919
-0.5054286312012694
0.0353547363234754
0.507749909118932
-0.03767601424172482
0.3992238013921469
-0.3236183613087262
0.09908909795017749
-0.1746945380336848
0.4519190047322634
-0.08432155799164932
-0.05290388355058658
-0.3146935631901029
0.1963455680916962
-0.4438283787504473
-0.06492856030692445
0.3124113709656354
1.083813900891582
-1.543629844806794
0.4598159439153491
0.007975904135534806
-0.02476447308856806
0.01678856895298002
-0.0005501886879192713
0.0007522957534714278
-0.0008706066298848331
-0.001563539780082011
0.001681850656465271
0.0001101812876668918
0.07690349548688438
0.09101937698376111
-0.1680330537583238
0.0004722230293155985
-0.002745190763739135
0.002162479843797205
0.02880225281189107
0.3548289216579815
-0.2126752405715391
-0.1709559338984469
0.5174100930930247
-0.3830303662316907
-0.6614330339159589
0.1909620923170448
0.005748057282693476
0.4647228843158877
-0.04071903295738362
-0.5143056656109436
-0.0803743481512363
0.6353990467195209
0.06721258100939416
-0.1622478464406746
0.115725324841096
-0.02069005940994329
-0.1259233409551282
0.1833933162153206
-0.1131243201470554
0.05565434488676529
0.01038451831920544
-0.2967700271963385
0.3788317375841315
-0.09244622870716036
0.1087178849074803
0.3143388218551069
-0.01917325347525423
-0.4038834532874175
-0.07108201846738881
-0.006257094841168853
0.04431812989920723
0.03302098340921369
0.02295002767502978
-0.03563089881140024
0.03450762595584564
-0.02182675481962342
0.2616121997858937
-0.2466624310587951
-0.02758953473624457
0.01263976600905458
0.00612632354813105
-0.007823378017325496
-93.93785294206154
148.543441590871
-0.5300165331280746
0.5833572652265093
-0.006508454109980404
-0.04683227798858652
-0.4262167916355402
0.007274300978258669
0.09925938954662571
0.3196831011102296
-0.05481306514038995
0.2275525976083529
-0.1757605082862929
0.003020975818268971
0.01810660106806674
-0.002254509965329045
0.0004213079822716789
-0.001943567986135783
0.001814216105515825
-0.4940306933129777
0.5415328283562229
-0.5352977320321258
0.4877955969888077
0.0001278897768373446
0.002747725877565888
0.0005809419022194815
-0.003456557556669234
-0.0005475047080903187
-0.003640060924584969
0.001683110465702369
0.001485111280597809
-0.004159617650735005
-5.723204657317492
15.6129644135042
0.07359583299541009
0.180573829343936
-0.2541696623394262
-0.01689037945704435
-0.1627923075918467
0.0885362691308354
0.09114641791794864
0.8021516858590544
-0.6621432352636506
0.1373469601084356
-0.2773554107040447
-0.2555458750236632
0.1448990986155801
-0.4601007578971888
0.5707475343051333
0.004537424188499159
-0.007058461321179982
-0.6363647668359742
0.6388858039685953
0.009069461134144275
0.2808064215600135
0.3491412575823122
-0.6390171402765944
0.313998718206934
-0.3806015348571792
-0.117483673130807
0.1840864897809918
-0.001309221310661313
-0.001664324751089673
0.001324558214942226
0.001648987846759533
-0.6300906703090345
-0.01733917866203412
0.8387759614656746
-0.1913461124946338
0.00401223546093906
-0.001158483884425438
0.5162331502918108
0.5873784552012209
2.691162754208845
-3.794774359701882
-0.06492662742487841
0.5168238094828931
-0.5273930243499405
0.1396681789242052
-0.110762032050424
0.05521264957393422
-0.08411879644779015
-1.609531229306154
0.4797377377409128
0.9700921086584606
0.1597013829068262
-0.3623262813700335
-0.3679675741161293
0.9997573706390791
0.3507325888351553
0.08944733693429832
-0.3646320899774453
-1.007959868301047
0.132160281821901
-0.2042194683609862
1.080019054840084
-1.352302378906824
-0.2751693171819854
0.3305973153838101
0.05457480035556226
-0.1100027985573619
0.2247655185694797
0.3040186900274129
0.2431729664569569
-0.7719571750539902
-0.2160113023155302
0.3850190669728065
-0.1690077646573476
-0.06250143119255762
-0.4331201860962121
0.4676982361100739
0.02792338117861103
0.04516078348355899
0.5577950707199014
1.137868180628582
-1.740824034832273
0.3329960340507508
0.1892277604537571
-0.6188366820693781
0.09661288756481987
-0.004614110496188367
0.1664814157002772
-5.069884436625589e-08
-0.1618672545053088
-1.058305759701947
-0.068751195879781
1.716112567659068
-0.5890556120771744
0.1513156554769553
-0.09674941608791149
-0.04096631981206587
-0.01359991957711833
-0.001429613769497873
-0.001458151401645562
0.2252607642960268
0.08123974474094317
0.2325249850596681
-0.5390254940966807
-0.1103583580235303
-0.0275997839309112
0.09863206449575575
0.0393260774584517
0.001204078397269541
-0.002631546824571967
-3.417101524138515e-07
0.001427810137420358
-0.001577864361117288
0.09556741007089979
-0.05561219310530722
0.5862532807910908
-0.112322055645525
-0.145655446506807
-0.3282757786387723
-2.955675872136224e-05
-0.08718269256042288
0.06531176216384878
0.02190048715527843
8.033830086201528
-0.3256578590438206
-6.35572148512162
-1.352450742036556
0.09066197115322303
-0.04676315269756356
-0.4051316705008566
0.4548605669414235
-0.7726227676756706
0.2603085502326246
0.0574536505015739
0.6840302929308049
0.4075138851768323
-0.8495542768028602
-0.2419899013049839
0.6305592389597059
-0.2036909383752015
-0.6675771225503837
0.2407088219655961
0.9285239279049021
0.1831621587945834
-1.054551257371817
-2.128002255269911e-07
0.0005330935708013346
0.001859017503357478
-0.002391898273973416
-0.3496082297759276
0.1410136126431413
-0.1638131608853883
0.3724077780180454
0.4934269547409889
-0.1424501860616011
-0.3509767686794563
-0.3724988785733504
-0.1040983267646487
0.5658706689455772
-0.08927346360774248
-7.797253336842762e-07
0.9123459150416287
-0.9123451353164963
6.997331238567642
-19.73988382671505
11.39025020924056
-0.133784810781664
-1.932537085537575e-05
0.1473681723697228
-0.3245471567905447
0.03763654475246501
-0.2637261654862454
0.5506367775242709
0.5143581867848598
-0.2852307484064531
-0.2291274383784538
0.2295379165355614
-0.7389087912261829
0.6149487147889465
-0.1055778400984476
0.001897353915956784
0.0005433364403550566
-0.002440903156574366
0.3302637384765829
-0.3125587231847318
-0.160443345319255
0.1427383300273843
-0.1054415619708975
-0.4552266867567016
0.08881251627840747
-0.2582765486406071
0.05956949167608987
0.1987070569644863
-0.6784075053744782
0.1234974262223238
-0.1052522336995804
0.6601623128515923
0.0002150321427362643
-0.001223958076424534
0.003809889414660554
9.05683505129351e-07
-0.09452527419068286
0.1046755286103718
0.2665480966081575
0.1431279439353457
-0.1342141162867553
-0.2754619242568795
-0.4633838441520469
-0.7253815707855995
0.4065834960113678
0.7821819189261423
-0.1952354031309003
0.152567958455928
0.1063999510495854
-0.06373250637459411
0.002276474446390494
-0.002698773357510801
0.2839461222241621
0.2014932053738304
-0.1551755891214318
-0.001084829893419104
0.001837482661016488
0.002026591503053587
-0.002779244270698309
0.0768309941372966
0.01676630954916996
-0.01212702305832841
-0.0814702806281646
-0.2595897991990324
0.08012452912226863
0.3091148191835552
-0.1296495491067629
-0.0008841005388268796
0.003326283013110529
-0.002227150331590556
-0.09235963249280149
-0.5283431573276427
-2.829275200983498
3.44997799080408
-0.2696533951695105
0.0362621191305868
0.2565024857309047
-0.02311120969208726
-0.351389284141118
0.05377384829083371
0.007250591275547881
0.2903648445746044
0.001531983792065812
0.0003451354555720027
0.6420780064175865
-0.4802651778290204
-0.3478984150637303
0.1860855864750132
0.05701457589564381
4.225299190556671e-06
0.02897480051628116
-0.08599360171128854
-0.4796959839029935
-2.953477541078378
3.340813892488499
0.2161065989406584
-0.3536264705507531
0.4099457216872614
-0.2724258500772481
-0.4909313269950082
0.1034121139187444
0.3876653421628081
-0.0001461290866725678
0.09905491951924093
-0.1841604400228403
0.1427378149112641
-0.05763229440777891
0.4812656297605348
-0.1547385149956862
-0.4664572826128606
0.1399301678477671
-0.001090421580556014
0.001738304833784146
-0.4504395635613087
-0.1734761944717478
0.540447495057499
-155.8219209297916
0.7298839504464082
-0.4616509928568021
-0.2610736321055644
1.042805043640833
-0.7817314115353773
-3.715191470586422e-07
0.001522061461737233
-0.3308841527000704
0.2972140489418358
0.03367010375812633
-0.3745621122869291
-0.2650330324543685
0.7675285366052079
-0.07933143611730925
0.2109863057721161
0.383184225031177
0.2781062743340456
0.03773975162656196
-0.2716157355036956
-0.04423029045713031
-0.145507459813988
0.02700984393387505
0.1326474119455223
-0.01414979606552744
-0.291533113164906
0.3172305470469043
0.6583328590487261
-0.002955907561592994
0.005248554129260922
-0.002292646567698627
-0.07937095331493035
0.1159218819483713
-0.2034089608891358
0.3904835924007767
0.0309082101674263
-0.5192304379590726
-0.298934309618882
0.3446766597258408
-0.008568107694999424
-0.03717424241218346
-0.0003903553352556927
-0.001864016144889527
-1.38485192090932e-07
-0.557890022608115
0.1002081205776805
-0.005919252813393166
0.4636011548436783
-3.753402023673714
-0.6670721804815625
4.420474204155088
0.3357955082900771
-0.0495299376850218
-0.3273453597196044
0.04107978911442246
-0.2798733454181928
0.2132741194748101
0.01562468393172812
0.05097454201138588
0.01937539668209379
-0.08277669083597744
0.1378298554198916
0.2656991513320204
0.5351146480584392
-0.2145605185994161
5.352340845248198
-1.559938314141304
-3.976897286604957
0.05282389452580574
0.3133326088700831
-0.366156503395956
0.1222586352363332
5.071121460783398e-06
-0.01705409879482886
-0.1052096075631677
-0.281799403578101
0.06643938551103379
0.2153600180670298
-0.003442896287471724
0.0008128425210528759
0.001545223872935874
-0.09158574451679227
0.07679047340666972
-0.03080267948176394
0.04559795059181232
-0.04943892924281114
0.1103771708760329
-0.06569239156499133
0.004754149931713318
-0.0009174505894293484
0.00190906701944936
-4.400479291810826
2.022238525031647
-1.306549920733465
-0.1603936826998607
1.107817020860228
0.3591265825732325
-0.6209028454511335
-8.507534380731839
9.128437226182939
1.930640363713845
4.195339922738125
-0.5337482907672944
-5.59223199568472
-0.6641555757385239
0.6057063089664934
-0.2028257560800332
0.2612750228519575
-1.386816664561921
5.238554494287433
-3.85173782972536
1.056875005136767
-2.694208352848973
-0.588650538453518
2.22598388616548
1.647117609692714e-06
-0.119618835827766
0.1126698821544116
0.00694730655555773
-1.372857558161357
0.3453821533740037
-1.946550681246878e-05
0.0877857746871433
-0.02855571170722298
-0.05921059747316222
-0.04948414274092038
-0.4435078826858492
-0.2155710599758851
0.7085630854024756
-0.0256797906911455
-0.3498776094246364
0.3246180133404793
0.05093938677523956
0.7108863341897576
-0.80086320272581
-0.03101253551949748
0.1209894040552864
0.09903170917842671
0.01749612662215825
-0.1128219325521468
-0.003705903248518216
0.008689468441848099
-0.1401608323703427
0.07598188750800276
0.05548947642038438
0.03066558162273217
0.08504530259526188
0.02415962461637982
-0.1398705088344714
-0.008162260875281515
0.1390065496243619
-0.5559331383814423
0.4250888496322201
-0.02028943862543497
0.0009092250868755162
0.01695736430540393
0.002422849233096055
0.001500980023764109
-0.0007938294078447636
-2.347557130433375e-07
0.04458887513934668
-0.4855498683434348
-0.01520732937648478
0.4561683225804523
0.4353295414509618
1.265741754344771
-1.204657263101368
-0.4964140326945957
0.1085074566824712
-0.1530010666485918
0.01853003219550318
0.0259635777705526
0.0002406506017349051
0.001565804410895518
1.939133678474785
-2.229285719805233
2.5868550582499
-2.296703016920214
-0.2550281393115042
0.5865425366130381
-0.9883967857274196
0.6568823884256446
-1.382492390691405
0.8047411366204802
0.7843084676599432
-0.2065572135890612
-0.1447146684825782
0.1227608966121736
0.1085799569414711
-0.05754840527977238
0.07122708357451915
-0.002773781090560083
0.001464192934946005
3.668449163560751e-07
0.00500170034126658
0.2065990760067165
0.2588852571309737
-0.470486033479089
-0.02174507416051677
-0.3849403154342744
0.518708079652304
-0.1120226900576689
-0.1323165522335947
0.2917051250848569
-0.1588293039106411
-0.0005592689407774967
-0.1211961560203906
-0.8371804816813131
0.9916412499833785
-0.03326461228182915
-0.002583911494571445
0.001734140515719142
1.637524284040186
-0.8784631973978646
-0.7590610866422086
-0.1013511791956286
0.1716077278617041
-0.07025654866614392
-0.03070591667889914
0.007096059725417855
-0.1145925519447508
0.1382024088981485
7.854758474659112
-16.51443703425821
8.422265738725827
-0.0004955752861716129
0.001878290313131999
0.3726648622099096
-0.09598094848373882
0.08926484941338735
0.02597618593438729
0.02436327313118649
-0.1396043084790451
0.5331588340364146
0.2689928518225614
-0.3362635103569482
-0.02865140259421848
0.07568545592311851
-0.4243561272261618
0.1755968047505751
-0.2812572106525466
-0.0002798333419789347
-0.002741754963237124
-0.3057640075339629
-3.090718048289782e-06
-0.03049641210497043
-31.90773479101633
21.2629886128634
22.44228216979725
0.0008649560648851544
0.001555498880182261
0.05497800470922169
0.4528443520939338
-0.004288996035801501
-0.5035333607674705
0.4181601698023725
1.330114615374987
-0.4247422912609831
-1.323532493916195
0.06774475568557396
-0.04413038134443152
-0.1788998207068626
0.1552854463656287
0.03586579923427191
-0.1001116506801178
-0.2660405608571573
0.3302864123029534
-0.298827900095827
0.3355549163498376
-0.04666825321020977
-0.7691694915060459
0.2406476672112064
0.5309995409725794
0.3122249974628919
-0.09402421582940626
0.1505622956236753
-0.3687630772572214
0.2002415945688368
-0.02629721629208113
-0.02086156054447858
-0.002602452528207761
2.7537797048491e-05
0.03734579632707771
0.114577298435102
-0.1519506325592828
0.07565546215078355
-0.1289992442787488
-8.403993651044967e-06
0.1222202735572728
0.1175337949169453
-0.2397456644806291
-0.002526815207664727
0.001776117948602663
2.584249892113081e-07
-0.002219663492462243
0.00170472628119728
-0.03583239379943198
-0.1580801963061761
0.1875263323284034
0.006386257777182461
-0.2241961918420849
0.02678716873404064
-2.11268335307834
-2.572444296092292
-0.001700318888712374
1.528385939838276e-07
0.001560638324102053
-0.3450215725409408
-0.1432221470125406
0.2168167081068577
0.2714270114465537
0.3848356504966018
-0.5755857344425936
0.1295557054151203
0.06119437853083358
-0.2329588997536469
0.0250145178975466
-0.01046551297952653
0.2184098948354677
0.04624693173642481
-0.07605618519644565
0.1504110202916902
-0.1206017668317043
0.003861181852859694
3.615768713568249e-07
-0.407759454972706
0.4172031544414848
0.1780179526548198
-0.1943303620954879
0.169793000270487
-0.3198577261966348
0.3443950880215603
0.00980847283503933
-0.4815524666663085
0.06398453885849732
0.07003476157193092
0.04852879979716672
-0.1865435676410515
0.06798000627189531
0.04630220260656683
0.1333640670558568
-0.1046942931348991
-0.07497197652756232
-0.01367891540193023
0.3231201860208241
-0.5540845846559915
-0.6636885417151858
0.8946529403502183
-0.03891284479787857
0.1091609356776719
-0.1400327589191887
0.06978466803932429
-1.786895311303522e-06
-0.1286530044250173
0.1151265184963552
-0.2003939439787497
0.2293936911897914
0.1696045392332514
0.5368544568740011
-0.2388030491141354
-0.1011630045635014
0.3399660536775828
0.2907803958268677
-2.610688737522032
0.007475841532804843
-0.7084931918343401
-0.4902351135450643
2.419937731116778e-07
1.822348492157921e-05
0.180188528346586
-0.2723527711898876
0.0921460193583981
4.160747785811122e-07
0.00160053107153543
-0.192995503076565
-0.1209830533964885
0.1860998205717073
0.1440303485917358
-0.2710224410580748
-0.2229112837441407
0.3499033762103012
-0.02279127681546745
-0.2712443944663682
-1.173341378584821
-0.2860186811586179
1.093607789903994
0.3657522698393113
-0.06271335885046693
-0.003871181611251273
0.003914654390475779
0.0626698860710677
-0.000289957622727127
0.006236478889183149
-0.005946341372831023
0.00326210225399704
-0.07313533938690543
-0.00106852778997681
0.07094176492275463
44.04353200926777
-0.01464864155424838
0.0005012749638397094
0.01464569510669191
-0.0004983285165284535
0.04567472237915268
-0.04246063457462296
4.801444926143076e-05
0.003030392465208234
-0.06759013738202184
-1.956562348629516e-06
0.06456170147913295
0.007307225683473007
0.05694478265532551
-0.064333270816847
8.126247787431641e-05
0.005807017640833917
0.06973335738929148
-0.005891545494898631
-0.06964882953542194
-0.0677008358308927
0.003019663725728575
0.06771156457029623
0.005597987840601487
2.730868052616543e-05
0.1012569477479499
-0.1068822442690882
-0.003872542099718657
-0.0275238721331484
0.02663010953224804
0.004766304700478735
-0.002534879035210652
-0.06517186267681656
5.905881053617818e-06
-0.01000051721417846
0.01343520079787462
0.0002256792343636522
-0.01135944120653512
-0.0003901801512198817
0.01152394212336102
0.1085476368630722
0.1465363086271906
-0.1754874255996602
0.01550515591659007
0.02204051957176295
0.1379417501112453
0.005832101575032703
-0.005606676353828567
2.540131419486994e-07
-0.1662952631826039
-0.2200992111351444
0.4720232576954276
-0.08562878337780006
0.0009040639549376162
-0.07291741262527421
-0.001121990716729178
0.01808039041770427
0.3933060112666299
0.009966358565731845
-0.4213527602500981
-0.2461294479483917
0.1956439137542996
-0.1541092443395377
0.05308102447006544
-0.00168691505110579
-0.297523557367362
-0.0009865985270659
-0.01359836019100087
-7.235924834891515e-07
0.04426514229136856
1.310281265761451e-05
-0.04337418114923623
-0.001616237974125444
-0.04245037154811156
0.001670531934780883
0.04239607758726841
-0.00199723469996718
0.02347885718682548
-0.02246822101399363
-0.0025318088938461
-0.06759320752341011
-0.0008366148085395344
9.603540012729941e-07
-0.01381298709973084
3.844144569222753e-05
0.04403332889503369
2.515550997640351e-05
0.0002156242504103872
-0.01107379049311591
-0.1510034099077014
0.003562596086576564
0.01858671478470286
-0.06576057425378649
1.54683300620736e-06
0.06322721852690638
3.698326177357897e-07
0.01425514512284953
-0.02431277431306683
0.02331343548332791
-0.07267828795687561
0.06868205363463559
0.0001250527108411869
-0.00110889111269389
-0.0664805507492244
-3.765661502609361e-06
0.04445475121820304
-0.04265024350163366
-0.0001794103672502126
-0.009525156878025855
0.009920191495666201
-0.155286112544779
0.1499558612652957
-0.03182653835774278
0.03715678963705554
0.02876879803612234
-0.1912833389872189
0.007228428406116336
7.144970124210782e-06
0.02092638712110934
0.03345016298515381
-0.06437706732055294
-0.001110920954137241
-0.06575854441234798
-0.07342924573843049
0.416207798716586
-0.1118460280989132
-0.230932524879242
7.47331581433233e-05
-0.05880425341002122
0.001173025780564141
0.05656269983917927
-0.06393068476301079
0.06282045900048842
-6.951916312564964e-07
0.05636915997856287
-0.06296664499078754
0.01133839110809442
-0.01102220646707825
0.02966526760990773
0.3116891639202435
0.0004609614974096812
0.01413039468642862
-2.585687299791675e-07
-0.03810232980084301
-0.2437201453093708
0.380661021734286
-0.09883854662428554
1.366530301493915e-05
-0.07107707347474911
0.01150939498277169
-0.01570828827354769
0.1014255049302248
-0.08569818728431665
-1.902937243341353e-05
-0.09638109134622841
-0.09482051202048387
0.09638160178853805
0.09482000157814001
0.08943637178125119
-4.002788851326317e-06
-0.1051406572660098
0.4136902689950355
0.01996848266622124
-0.6054568072609504
0.1717980555996204
0.002731077455683798
0.1069782330205701
-0.1097139367394462
4.626263147399989e-06
0.3312946770309186
-0.4309371426638111
0.5133327346278291
-0.7139899133409751
0.0816958164873676
0.6751544287417844
-0.04286033188823472
-0.4920576978658547
-0.1075225936604101
0.3643455214448875
0.009741459569063363
-0.6673026131896473
0.278472364914783
-2.000758207018392
1.380430901501324
0.6203273055170212
-0.6164626722073944
0.1966121418665468
-1.201845289948892
1.621695820289694
-0.2248660169126911
-0.3186910031845741
0.5944414474339058
-0.0508844273367025
0.3169615193331661
0.849199765757558
0.5090680259982839
-1.675229311089058
-2.746438147641459
0.761142054973137
0.2401924682718139
1.745103624396346
-0.6424035972975906
0.03433099143396814
-0.08618826216618324
0.6942608680295326
0.1173514628718383
-0.162930060628332
0.04558487978808987
-6.28203163795037e-06
-0.1158619901163999
0.1787079667988247
-0.02335137602705897
-0.03949460065546109
0.1799902841621179
-0.1799752452838365
-0.01349701244057358
0.01348197356225423
-0.8295683292895706
-0.8000923017665009
-1.116777516585419
0.1523431618691422
-0.07374199234609734
-0.07859551374049921
-5.655782618049925e-06
-0.01493683380277767
0.01494060103096324
0.1523393946409058
0.1111725644952549
-0.123496617970019
0.01236062853347561
-3.657505874019447e-05
0.1111255977267084
-0.07094272696804697
0.0709896937365722
-0.02373425808734511
0.1348778877581191
-1.803194410275653e-05
-0.1135603643693383
0.04260597152275736
1.166587851965894e-05
0.0001186625135258288
0.1065096616687842
-0.1780491785075103
0.07142085432515469
-0.004295599530378794
-0.008032731846709435
0.1186886657054197
-0.1063603343283667
-18.56360553209703
-44.6205274091981
0.1391686427695567
0.09339110187011385
-0.2324410821262081
0.1448372614366485
-0.02969114931797793
0.02402253065083081
-0.1739166738557655
0.1489634060565903
-0.1472636202459927
0.1722168880450704
0.1359488834532672
0.02396195132214881
-0.1988236795733509
-0.1143164014316204
-2.702162104581007e-05
0.08137820735911072
0.03296521569349722
-0.1362149799856878
0.04708461986124454
0.05505135325689694
0.03407900686748245
0.0880089653375518
0.01080246768194329
-0.1397133594431832
0.04090192642361272
-0.08133930564129803
-0.03860740456060435
-0.01626826978382995
-0.1076467417353852
0.3264706086571203
-0.3982245468769539
0.162230347762916
-0.0904764095430297
-0.02351774771827905
0.1228599453398972
-0.09933125477428627
-1.094284739091772e-05
0.07673918432573482
-0.08576950659339136
0.009028535372300282
5.899835247196786e-06
0.1336675180973099
-0.1309423404769177
-0.05736014792837991
0.275671770264814
-0.2079271040173589
-0.1732866806317977
0.01245678143885178
0.1384800730691732
0.02234982612372805
-0.2254208516694078
0.6415011915131755