/*--------------------------------*- C++ -*----------------------------------*\
| =========                 |                                                 |
| \\      /  F ield         | OpenFOAM: The Open Source CFD Toolbox           |
|  \\    /   O peration     | Version:  v1906                                 |
|   \\  /    A nd           | Web:      www.OpenFOAM.com                      |
|    \\/     M anipulation  |                                                 |
\*---------------------------------------------------------------------------*/
FoamFile
{
    version     2.0;
    format      ascii;
    class       volScalarField;
    location    "2.1";
    object      p;
}
// * * * * * * * * * * * * * * * * * * * * * * * * * * * * * * * * * * * * * //

dimensions      [0 2 -2 0 0 0 0];


internalField   nonuniform List<scalar> 
19631
(
1.871141250935306
1.036400237090892
1.80987288217732
2.058186878075838
1.936320649699192
1.641459668343751
1.252330205958636
1.26682954678557
1.737643017072717
1.881917322299884
1.710995413325758
1.909682288327558
0.356210662273073
2.183142383015265
0.2435664090876287
1.904128631147652
1.640337475443887
1.23993718782402
1.918769511248433
1.562925144315984
1.846636666634629
1.829376233027085
4.551118368227865
1.723572736593797
1.584514151301831
-0.7375263056416392
1.932239656765678
1.426541570835582
1.722588920757915
1.672073451887359
1.786234642161476
1.79958109852349
1.803765128402809
1.989278456996463
3.311386854157623
4.500402701012953
0.03934686935927217
-0.5523089528394254
1.492301137187434
0.8758795694249568
0.2828741434620706
1.86279372807111
0.6066385646088792
1.820832528418313
1.647867362360428
2.96784952467537
0.6256947567892791
1.963410500010295
1.915824558893642
1.650916211755802
2.013100540054106
2.111064324681117
1.701143731314011
1.386905667393049
2.118301619446533
1.730535332381417
1.711543628864246
1.616907527808003
0.2441490165760473
1.729842519553169
1.869153916138105
1.413755984751004
1.339321420031404
2.004575903654564
1.86084247618526
0.8592161547043994
1.798193933160211
1.873845277495424
2.233753894071818
1.931662133467176
1.849824049039736
3.834388278991729
1.732231389069705
1.761048795468271
1.655635838173199
2.207399454572757
1.963397002529744
1.757721355823245
1.22001273799858
0.8360075603965262
1.383571875973481
1.731572576421866
2.228039427422773
1.37218249290193
1.497304582936516
1.529972293049098
1.707869005066748
2.378739128702579
1.895998776132333
1.989256663313513
1.703573396749045
1.781151763824373
1.741189409301312
1.854749744593657
1.752932755666392
0.2720253928744554
1.755416937332076
1.348592198562516
2.317127252287164
1.683699663201181
1.734567859289912
2.126802469824116
2.114807793020884
1.896124436328303
1.306554591903749
1.597292088744514
0.7535000334455708
1.903324999142723
1.792648096088912
1.689287216619215
2.100224713000134
1.375709389406837
2.369799700074987
2.37981463134098
1.955218047130917
1.585576058884468
1.442017895676545
1.907884737777096
1.426089932456856
1.723264408691507
1.797449458502268
1.898692185733893
1.904448595916343
2.099921185670011
1.877849058227594
2.037367964401194
2.481849961656654
1.8423030674654
1.992277273932375
2.019085376201082
2.013551221506233
1.993165400283264
1.442725047848185
0.2877255682025686
1.990342136227075
0.516703619364399
1.918874627098608
1.507716756094
1.710550097907276
1.916208374943988
1.44573219960359
1.142005685099106
2.097785827287395
0.7363137605196355
1.255006801529906
1.389430801422308
2.019925110953063
1.267611143826736
1.11511317257195
1.766784702711931
1.755564505028247
1.827975043230114
1.920498204111498
1.752652288015222
1.903313342648917
1.886197965163848
0.6923185320450078
1.797454370503213
1.757161479301445
1.477127807254588
1.797539967374599
1.211972300091093
1.821238090963154
1.865931234607654
0.5456951884831899
-0.3110119306848197
1.902111415116305
1.998118742186599
1.643658777741245
1.879225970319042
1.944779524554069
2.030747940083764
1.572075462066854
1.836069241529239
1.901786439746314
1.364293082556014
0.3378086449400536
1.771776344910457
1.81024779281829
1.62421940707801
2.048110128208686
1.694336504959042
1.632636488718174
1.216559730715994
1.84409535954557
0.8186445331865341
0.7030343580015737
1.687725886635371
1.896690325417706
1.832919246867688
1.736755635572851
-1.321367472570015
2.08166710351863
0.5635488626060188
1.700428113206302
2.163191226390021
1.744856609783554
1.848546482627218
1.8778744425812
1.804016275421785
1.884425964886621
1.848534652468319
1.251685861382407
1.837503455948737
0.7134803472056067
1.832947824654351
2.028893967871571
2.064998568818626
0.8513151743709462
2.052952068013625
1.285675546338592
1.943643678662531
1.895959140667211
1.887662512050251
2.054999608802959
2.281534333273926
1.963371667426874
1.784795668063764
1.848615789269985
1.354000090966477
-0.8369385972851322
1.394383253939058
1.549370251794781
0.7221809103247959
1.98897568978846
1.898384875762205
1.836259377764722
1.926677683756468
1.192345672398692
1.84700929535517
1.417111111434036
0.7261021174986921
0.6364707030385811
1.969027915074742
1.675765194287081
1.451944366340392
1.817564675003188
1.65864129913823
-2.513558285294823
0.9693212696314156
0.836496377071611
1.664069476470407
0.02930609006632176
-2.425567171227121
0.0059340116133744
-2.175649289986026
0.5539605999650354
1.480036078061622
1.723752243294751
2.013845155879115
1.618845638381726
1.644648406829737
1.840273816566475
1.657647262565879
0.9372723768390785
3.34335888494683
1.872536099326859
1.816569077811168
1.469567346343762
2.483702395479308
1.781317902922684
1.463000839403769
1.771391495909948
1.918217964821392
1.758579542569541
1.812276172888233
1.910795872175371
1.554268261634357
1.529942741048004
3.137774199267475
1.859285232955494
2.213084724195803
2.052254437608763
0.8543562184554362
1.382447879633962
1.637298077218903
1.7172068059812
0.677950795557008
1.756514956524847
1.022769816831079
1.536634210911903
2.221591915080233
2.001177164213666
2.595370300484517
1.618031664667256
1.046775215247727
0.7433549702829847
1.726193025252959
1.750357508997196
1.543284013179558
1.436944328816225
1.766258398133398
2.074480045268339
4.372065154363805
1.287214228874722
0.5268960724905077
1.677646397597211
1.97661150327961
1.805173926595822
2.680881795845989
1.510487592480394
1.202830098486459
1.699765057026131
2.472053651553568
-0.3230299348614088
1.940320705240223
1.965650701737424
1.557698226396466
1.90625316543882
2.194486093438775
1.950366879047737
0.8859145089007415
1.726351937801062
1.966987382718143
1.812118098560604
1.205205792454228
2.208446490527793
1.92226623673732
1.857493246092077
1.590213746184243
1.691417896642764
1.440519832300726
0.8802839371802713
1.832653226927
1.878778155335266
2.005705990159943
2.462016924339423
0.6487736479693953
2.12075613410728
0.7851790129592962
1.925756331287158
1.54533812829919
1.682249845437775
1.77815691045296
2.050759233548932
1.484004972071658
1.813362656852693
1.680701782738354
2.267635359497794
0.6137119881366035
2.988318454773387
1.76493088316867
0.869582470856655
0.7823192230506851
1.830292918648455
1.867896601505614
1.460737977555395
1.733947554541313
1.821599297080399
1.971022707100933
1.822438382634068
0.6131733409605277
1.936773190311278
1.720917575621537
1.911231614380736
1.973927497899421
1.835571585570788
2.481990896239654
0.4381378875730969
1.898107555500653
1.712392485534863
1.723394494522045
1.317567187701793
2.077538467787519
1.77848531475031
1.377434840102812
1.849233666492532
1.710863190021663
1.347503199682637
2.149051961111925
1.883743905952345
1.967220098120186
2.149680867639364
-0.7033344502769929
1.562919203104514
3.428321075963658
1.828722735910647
1.811164784551126
3.190589381100647
2.241102296707521
1.777740557113976
1.721763500400203
2.043376253982947
1.787241089978264
2.009877254013784
1.685489270173359
1.259658516874611
1.865966694603673
1.077453997006349
0.6743446923416915
1.853201217960232
1.842353080648512
1.968015955581735
2.134114755235935
1.088749133413614
1.860337444363527
1.987578424805995
1.01176059255575
0.3140703145152728
1.912890601187644
1.226873959320065
1.953560887284663
3.078175374017099
1.841645626292864
1.454283829807485
1.934555463972879
1.89815301308186
1.794822225896036
2.14472150019144
2.036541637793094
0.9014925999155456
2.230694148333879
1.640092690541961
2.046023149746115
1.665661997783578
1.901909634893497
1.050949729438228
1.764970547898323
0.9802577428439446
1.858361674515579
12.21076923758607
1.935353607764737
0.912346384463258
1.907596156700746
0.8127684986075902
1.62305288472839
1.260612489888521
2.40931211401809
1.933789714162243
0.7169083659174471
0.9381615363214905
2.088209654572166
2.193052530923902
0.8077186520139318
1.282000755091864
1.697901374177441
1.594313864155837
2.0462631249229
0.5882563267953886
1.882596691075469
2.116226425617442
1.853468130200387
1.931090514712648
1.243606851559532
1.530361806153066
0.881053255007985
1.448930512041867
1.388414293961797
1.733558476590293
1.356355454569275
2.029148738923041
1.49818256456419
1.057770465690772
1.875182126196514
1.928785611028627
1.509020773391269
1.334502649857226
2.049572665394055
4.122782566486189
1.883683614281834
1.743175697796933
1.684467130317
1.699607384763383
1.875923015624535
1.674632244738341
1.532299083775946
1.878357869474309
1.183846565287197
2.443109620571379
2.065659319041479
2.003172366110898
1.533927745665489
1.828228869709346
0.9351485765561652
2.784297455089985
1.632701126925893
1.736508337831059
1.741886976061943
1.253979543164015
0.4501577084639259
0.8698481854384341
2.216701796562201
2.078308224033519
2.126515294631073
2.723811619738471
1.142323809497938
2.009103170401594
1.752409847231732
1.965095862563279
1.736935833964647
2.140363733733122
1.76895278127828
1.959137354305494
1.171709376287376
1.508708477394857
1.378393346900385
1.904739183115756
1.778707589006578
2.087598887832643
2.957345141043458
1.758965493516588
1.761974433544959
1.988116980011456
1.790191458750789
2.453906220292491
1.9830599522629
1.814393839990845
0.5658156560975791
1.826145450589139
1.419388494428028
1.707291347497717
1.811605953873085
1.819703700151116
1.913059057581534
1.888995456499244
1.472578453872192
1.798817841418478
1.874117270660556
1.66940379123555
1.719430219535994
1.708225507491712
1.92367148576886
0.7766580699922707
1.830026111078959
1.292445180632714
1.131641007018645
1.783890749713845
0.8988937682487087
1.654282145979159
1.538660497774968
2.345296055607902
3.267176061773541
3.419678158455617
1.61312649410675
1.483103091216302
2.366166558347713
1.984118992243599
1.820497850081184
1.955210229492829
0.9355623183739359
1.845182583248161
2.142494321469146
1.39269642843258
1.850999064548052
1.783237862075227
1.874538770271356
1.741272868847112
1.740317518434235
1.566922762509899
1.921863596104971
1.12548002142935
1.859937536054744
1.799362227369592
1.938857902051314
1.994787993093183
1.71794108562179
1.621709048740311
-4.418379392332005
2.013800288148085
1.995418260325057
0.8395855862472743
1.8318507690302
1.090239021328467
1.723829030009075
1.519932267403867
0.8114462316703503
1.556362199066097
2.434382533154925
1.766442276297587
1.816473882507383
1.784552951234903
1.678085202487267
1.915702205886799
2.196237870985536
0.5819977599331289
1.889445550608916
1.888555789055852
1.32032196798102
1.712940559443713
3.561562005279793
2.316405124847241
1.087332188260539
1.177850189324037
1.909504909428862
1.731355686626294
1.799935960764961
3.257871668799651
2.06359118992293
2.09039998899836
1.792921987099268
1.443004850537013
1.390848636599987
1.562299762920723
1.795510950808574
1.67102894446703
1.534381830277749
0.7551824723715871
1.83147059165743
1.942925769917876
1.862845047267522
1.692697841006499
1.779905688927682
1.847218644781008
1.885483241406757
2.435386623134703
1.705434059996863
1.505493158282409
1.758654162741927
1.096578516471417
1.732255947928748
1.654274340468641
1.83568706262783
1.997194125801528
1.728392332651394
1.766378479617813
1.63836697398717
1.08873911256882
1.782500559319887
1.833633394290797
2.263577278625565
1.848830021710834
1.844187515192159
1.728821966976661
3.656986428536459
1.149581846245862
2.063775096329002
1.954500728042876
1.595378057235212
1.428499572948919
0.7943182668406787
1.853476800011974
1.792731724615529
2.370006425872011
3.795544639376832
1.81743210366056
1.396514436543756
2.640572549222009
1.269255667684448
1.65013809112324
2.105077856899347
2.605888045871067
1.815743808055448
1.853831514265019
1.62931061509268
1.187515238940433
1.701230184573086
2.041432316437899
2.226072009439839
1.92688564847229
1.952093208866245
0.3387593923855788
1.793687283073473
1.572977040023216
2.177225195994206
1.12244017390294
0.5989255549435966
1.795231401597487
1.931612318202573
0.8800605018960546
1.749269734777219
1.403654723720381
1.775527323390384
1.519640477826323
0.6162542023731576
1.204543711576296
1.775279711088697
1.430058239660412
2.186295204405976
1.970005099195779
1.130589691860936
1.557333943093233
1.965376090855176
1.358806153778146
1.453943248321887
2.559712489148938
1.881178855564118
1.578499735639739
2.125027029888616
1.658301000918035
1.573438877742839
2.030131669272044
1.286729651438767
1.238012457901528
1.827844489327692
2.009625057994847
1.998104713299843
0.4673586847121598
0.6181895387610353
0.7095006536019449
0.7187442348796573
0.5674211112990928
1.703849084915754
1.617502664552545
1.977461891855628
2.182812704406949
1.933517616963338
2.117382529742297
1.552960009411517
1.773790253363525
1.714379051586869
1.966202034553766
1.296039839002733
1.869838003560826
1.979492572910881
1.607133861510072
1.898540531946348
1.734866427798774
1.799650350509002
1.599235339674161
1.898980167805311
1.273322401322413
1.548576221162105
1.68697561826839
1.788663133605547
1.722486671228418
1.27923271977216
1.716561462892901
1.493433316871373
2.358798481352077
1.781483404552357
1.55810746996984
0.490496135063834
1.922074994738286
1.927764320752183
1.728664628732857
1.676984910449006
2.161468089299861
-0.1400275250056231
1.282041830771482
1.857751652900001
-0.6938074519021297
1.549750422081861
1.687189273542815
1.835286539677866
1.81096488242288
1.694368042496832
0.6627758630063177
1.796592259301242
1.869589696658629
1.808240492368146
1.962446179474337
1.7924952724786
1.847784009731451
1.932921934722616
1.382136144640342
1.513164065734198
0.9678274483140634
1.445151546920914
2.358143451061343
1.448540431298236
1.934633108586379
1.577050334623378
1.171141865749227
1.582243615940959
1.689918952017733
1.803599007575282
1.934488909251886
1.681209962659894
2.0276010075809
1.699054857038367
1.338222687252598
1.974386578224864
1.806203477652756
1.392330070212678
1.047670145234142
1.649708574387373
0.7406971167065475
1.973644352380477
1.715540502510979
1.387362077399748
4.290460322542564
1.994076650748702
1.820008596455624
1.395530300024463
1.475909298914415
1.872256979989842
1.751308614149732
2.153812177902758
1.666645689685619
1.753332476679435
1.921864392736265
1.628902849312268
2.041247273766962
1.649905755411447
1.93267997716691
1.287423627788518
1.36050073809835
1.879869084575812
1.457277365565275
1.973523516000505
1.600515125856163
1.750714570292983
1.433700352343999
1.933352530488823
1.944240818009888
1.424741458004013
2.371858448437161
1.411097145837656
1.33972925161575
1.409926912902518
1.943475481551447
1.668219843848096
2.047324109466413
1.875809311464446
1.956925762415584
1.897822191584921
1.848180369592599
1.948095689325218
1.888035140143367
0.4902886227667246
1.741249461191272
2.22073710859702
1.7614326167944
1.827192827559317
1.887671380660379
1.893655369302418
1.847273008664494
1.019494540318783
1.170609990084255
1.38297953029196
0.433882644064705
1.510434366585191
2.08989194061957
1.66056371049512
1.511220100792163
1.750585799937185
1.815957435941497
2.107761976299131
1.605879443872764
1.84793528848557
1.714568147462154
1.771483846753153
1.892448450769275
1.559019639395306
1.828087101269687
1.713803502728092
2.171647789287586
2.127501352615505
1.808680172890526
1.990814225219959
3.26757095260308
1.736634868124995
1.637638532261243
1.516420687032849
1.698313956296898
2.471406640362825
1.802104874245871
1.86011703693493
1.565240011640394
1.911387847583185
1.763557235204502
1.713099199033088
1.816111715928053
1.310573363853452
1.548131399014913
2.025567794083165
1.806476349913435
2.149281905476375
1.687352115392523
1.488551008928781
1.893649572355609
1.978985689619884
1.763632865299052
1.988135063529504
1.707255966391867
1.83949927883361
2.21887200172355
1.88062144058123
1.890096593130559
1.974233463549486
1.888025157132533
1.618248831658941
1.8378648122827
1.897787638420293
1.500087902644835
1.666166239885736
1.660985585057231
1.969344831031225
1.801714717351327
2.948917419024457
2.547323465093332
2.903576892379689
1.421591567181973
1.594420292879205
1.506053089395182
2.261634743130208
1.931641833483051
1.064510782418464
1.64642025836721
2.486811689492717
2.027729789155599
1.914164491199035
1.838107765090903
2.054402191089809
1.618912001228941
1.807285467693366
2.063584696306747
1.604639551432928
1.185948764400916
1.69126157620057
1.728700058771402
1.658568074020599
1.978212190322411
1.668907937941237
1.884527609647832
1.752116804042662
1.84843626352707
1.424381286886632
1.976112096339982
1.908880521664175
2.819331334128485
1.893986398670608
1.452965410492081
2.131626654802228
1.682133897114135
1.383199205359161
0.1190529509821461
1.668846906150133
1.658249214700787
2.678039296651489
1.320947937831519
1.456765465533769
1.286025137549515
1.722478292422013
3.237648813694026
1.365540402505658
1.475844503531275
0.5835150428382301
1.35335519486229
1.607820114888774
0.5611836928819229
1.87262668950551
1.893537700217349
2.912653944247331
2.373215971295747
2.297067072725058
1.207037177025669
0.867234314022881
1.964507031441386
1.156875739181051
1.349851334967022
0.5770226064776754
1.432663912876161
1.492382146438769
1.855304177242092
1.719291685666761
2.072837792006627
1.404919485744716
2.091112752199653
1.651928272628459
14.155728398793
1.690192107957147
1.749071237254922
2.019020774743152
1.371829998330291
1.94013463900179
2.160293876875604
2.112307669344499
1.812791484633881
1.737511685335308
1.705958510260642
1.629158212318876
1.787597980545861
1.76955516383699
2.599442463576363
1.794818581917858
1.069594789401092
2.061758290921379
1.910491148688253
2.225723690616582
2.086462370479413
1.887651288005129
2.397071979190751
1.660005022486764
1.847009506429154
1.812499849714874
1.994185813877298
1.534070934751207
2.111255895101205
1.54144981321913
-0.2159124294820193
2.425414046414779
1.848337239269256
1.783714515479457
0.5685901463989111
1.090906048441217
0.68358546427845
1.97598042681227
1.892088308791064
1.913544245780395
1.253887071645692
1.00279897697536
1.683586276117763
0.9150139868956133
1.820251585256564
1.493724278015357
1.802995539785887
2.207398327400364
1.648810796811276
1.860856763697012
1.769903757554932
1.801850201412796
1.583448772436282
1.170643076434646
1.566931832509921
1.841096377926198
0.8211268538128296
2.11552379464317
2.22381409911497
1.884914843799745
0.1083924316325427
0.8761664860462687
1.901421942477761
1.855248888064309
1.872085934385217
1.548702862426865
1.669122729654387
2.467873542193379
1.659485367267524
0.5707332717228563
1.778229036459606
1.76242067198628
2.01314766329574
1.831245642909977
1.154636366238151
1.773279678504701
1.05041483992766
1.643485002949125
1.958984717577702
3.239193178248495
1.985646183567244
1.513010684316708
3.322602367991102
1.353042209780965
1.562331564222995
3.144563201834305
1.538092372189896
1.944867915985385
1.580321747250407
3.217020283073317
1.564541726073572
1.103997698235162
1.856717568031644
1.048628620095399
1.93948512388857
1.667369183924327
1.625941762799235
1.737007013907449
1.764623901456353
1.742462371863531
1.711888173557498
1.843717788431147
1.881848367383119
1.705287122682337
1.231177160481708
1.694074630431885
1.524523820933443
2.226247297858861
1.744572570108559
1.600804097840024
2.076447396636921
1.847291735265621
2.58507813549607
1.523817020414775
2.667085908385646
1.98239024235867
3.074109542378285
2.2373306172311
2.05617157921041
1.810793158270282
1.324061440737398
5.05784576436749
3.175181722781792
1.019176845502426
4.659091397632094
4.642432628042335
4.485708986122177
1.361242027575959
0.8367076683376294
0.4035680828691776
1.684140412452439
4.180454833436758
1.910828609640361
4.288244933218126
1.79957411831969
0.8148873467253739
0.8615846781241673
0.8358865683803058
0.841262315735422
0.6528620018240787
0.575295831163456
0.6255207020782008
0.6845071319013342
0.7473808926865675
1.724913895858131
0.5461035225821463
4.629865472873973
0.2743755315782945
4.68834395118868
1.839436358169927
4.161866513913749
1.575212877738361
1.409081428139158
2.887394022752335
1.113865219854377
1.888523181778042
0.7806302767124534
-2.605968682106841
1.157281162256918
0.915491835463058
2.171059397656089
2.464754065200343
2.111287520843502
0.4736526871482885
-0.4827034275961009
-2.77148952655153
1.822490044183254
1.536141990971857
1.720018159449591
1.650900323971541
1.075584818041747
1.874850783263023
0.3210342937913961
1.810245709283775
1.298748044569761
1.430152764868271
0.3433037005261227
1.624233394703127
1.68500509028768
1.882910736953331
1.821974714845526
1.750116419835258
2.005934550654553
2.156330402965126
1.939804777467191
2.000143005611305
0.688235985381224
2.025988036272164
2.686548116295356
0.5193055959565234
0.2238081943487731
2.531988499145112
2.658962105639747
1.999507659572552
1.156332979083407
1.767775596463031
1.857281985855387
2.585883875071584
1.349841119820084
0.763345238867429
2.861706837522646
0.7801068230692907
2.66444099235028
0.8469220494602416
0.6243356028804058
2.009336800013858
1.892534876506958
1.862281668803034
1.935738004454607
1.881144019471908
1.501795472484059
1.380310559745126
2.111578127561317
2.012755707708833
1.882292931878958
1.954878216045649
1.24842706792514
2.081681863956847
1.820673788214004
1.952525093075959
1.820700506211766
1.628517559454082
1.772480091409006
1.817894052521494
1.846185300929302
0.8195407480777082
1.860019498558602
2.449087356509209
1.299063069255662
1.216918337158233
1.949951901273449
1.724175531135239
1.291228353964074
1.299210863171527
1.631019014492301
1.411139495958791
1.977168737522594
1.426843193967572
2.149435741963304
1.52885121370177
1.280643290891273
0.8542203250844144
1.207719240693659
1.951695216523922
4.235839294580876
1.318566280271625
1.794332351151186
1.45546126099733
2.002607892969547
2.010693312036141
1.964892212214686
1.901994010517515
1.850331550443257
1.277715636308114
2.164367206621683
2.245363720504164
1.081983121614336
1.821228181091343
1.862521739827365
1.338955539038451
1.7151326774188
1.979191220020014
1.80602434837159
1.451839354701244
1.712292158714166
2.159547423036758
2.52902593164963
1.658647828984602
1.895485776124227
1.961166457440508
2.420724581991199
2.061590349996827
2.313528215742805
3.154329037695091
2.019059850847068
2.203221911040866
1.947440378231688
4.994228648383077
1.765652034306827
1.905528600267393
1.734594881668724
1.728690095744073
1.740857299246224
1.754140111978523
1.398014524660479
1.637334655760021
1.412422314624481
2.166969693414767
6.995642718600001
2.165680387167228
2.194325137042079
3.330056561075223
4.499904899519561
2.226193950942229
2.491545544583377
2.449196060022328
2.075669848486277
2.087027273229115
2.06000214574696
1.996189997890273
1.843892604989555
2.287104376862504
0.3567458074298512
1.953623810162339
7.265143265389963
1.861306087715841
1.972533490632387
1.820754110698137
1.957982416777395
2.205278126844514
1.871183065500385
1.567492578670427
9.221709210294366
2.776071908777883
2.179595836447509
2.07765767070673
1.651467208542219
2.351649466863676
2.270405602375307
2.101850801615481
2.647395853434783
1.767444991376807
1.801181196421911
1.636171447495611
4.874796955010861
2.683795314799055
2.996221843065244
1.711683320900664
1.83685745028464
1.225200008529106
1.94814746170723
1.777735670035097
1.58336084459478
1.880631318244761
2.251214370785153
2.182207153259933
1.902689014897894
2.299966804400654
1.166928902756652
1.881921049914504
1.857317207874835
1.991759834787683
1.066277098887333
1.756926906494685
2.021094413361021
1.611659554379991
0.901075198391793
3.166331708566344
1.943807915177597
2.427005242874691
1.762581482036838
2.22694472799179
2.122647170075103
1.924475889353642
2.197267434234856
2.463520687447754
1.45164712163192
2.231027390047179
3.867162238028988
1.76436323221911
1.821645108757842
1.538467424090452
1.611569687247874
2.321689029427898
1.156194919634251
4.977118992117062
2.285610167651206
2.027977999535041
1.957023401148258
1.73341020516059
1.860231671917381
1.88834878921818
1.754009803525063
3.047276298424347
0.9606143767639019
1.901806866006559
1.755248085661582
2.111701953363649
2.055381012968497
1.897233140838869
1.947472260344782
1.805356351142972
1.882218191572756
1.89160107710301
1.77026574115314
1.231006306023353
1.540208523068127
2.144329282468096
2.015351923003351
1.962701898515227
2.037766099718009
3.189180603853048
2.10506830714216
1.378701522818123
2.173793382531028
1.730990789855023
1.987578802902383
1.964234787022817
1.729794869008189
1.522971943195515
1.472246384258605
1.931662735262049
1.840197287828652
1.796185282045186
1.969627853757334
1.763586376026073
0.6827261547925311
2.52158161406128
2.074760671851366
-1.279398144135156
1.608222498748019
2.266411820681972
1.015990586983786
2.006634682726389
1.734717504597885
2.408448958910347
2.256934120000957
1.888165035265889
1.90449668540788
1.879705478479035
1.808390581924884
1.913522382532549
2.134952671504494
2.075560399957317
1.746915047618336
2.373840829371079
1.955065493062642
1.997363448717049
2.163158192455046
2.037646831370051
1.871528949592046
1.691320801429932
2.008854088321135
1.723374629942266
1.837396073986102
1.504545618630324
1.766252341808943
2.222112958022346
1.671115730661275
1.874233125696287
1.93914094859455
1.727603058595122
2.621453551380185
2.43055470185807
1.698928590416705
2.069588780031634
2.054101405777498
1.983413762509118
2.037142988042882
1.764966499474073
1.48480822565585
2.013946802574525
2.167984477896655
2.024690172879926
1.69310159046438
1.6962089438488
1.779169146307873
1.823493489002859
1.877967391747552
2.41111209611433
1.521987933175849
1.91861224696977
1.53352412175762
1.878909738384619
1.99418052720109
1.804211347236844
1.927956872655463
1.411232310804034
1.99109311306139
1.966994447508781
1.866944614963087
1.94630082920762
2.189917796967551
0.7545560359963206
1.883316672404865
2.29567011899262
1.970058067706739
0.613676996794724
2.604798666988347
1.939757959033388
2.413837800630082
1.991524730754014
1.95461480915088
1.596549093116348
2.166567238354191
1.519054978622973
1.844899775851928
1.998377402860807
1.787615250745773
1.601347198161824
1.730412900077697
1.605255101015276
2.600909135064731
1.067984858814471
1.878740739238163
1.839068824523265
1.884270836946648
1.862842266759398
1.802648858452671
1.211948964677924
1.839629417571306
1.634513606695976
1.989771393420806
1.913340528541988
1.181477261384799
1.860285700123913
1.917205985283247
1.908567188165168
2.369621596715393
2.115650170485342
2.061437811727779
1.735371060221918
1.769675436860743
0.7337384860680115
3.247507354179227
1.512075845391549
0.4523687763785431
1.517599613086437
1.888694463587802
1.96070927101277
1.873275654186108
1.84579529729946
1.875078689702868
1.822945939809454
1.824737994318569
2.846781606293252
1.626233172696846
2.482872481449221
1.836216072209487
1.032246249553992
1.720891196500052
1.972381197658635
2.127957990529626
1.636165497268874
2.119951249730741
1.969820121033756
1.867893703284902
1.79286893873127
1.837126966624673
0.203248057252091
-1.08696380020823
2.069140290347305
2.022906490414163
1.878653043896542
1.793187563710058
0.3769239713511243
2.02264721911381
1.955099399706009
1.863894919867131
2.084599809755733
2.159400346607415
1.935996845858156
1.317401326840056
1.932672981555568
2.493461581100999
1.309912528989868
1.281792281848003
1.824241643440698
1.38121999590671
2.170390370527032
1.755995285709548
1.742463600469116
1.858992121417885
2.009093536980847
2.19440223609524
2.100026074905504
0.6738441632835401
1.988046082075945
1.575251637999228
1.642435156167761
1.862228461347375
2.221402715110363
1.954688358587472
1.922193183667576
3.068720942028832
1.928684445514655
1.674529288858101
1.497782433495357
1.972385205479671
1.96719801464895
1.661923196900171
1.100058837808339
1.869621146067344
2.029034287722271
1.71838619107499
1.871679028802042
1.789675992111525
1.184084779907735
1.889524640041749
1.433529059025863
0.9414176149600492
1.886018698494384
0.8828232273264088
1.025577432054949
3.4412935869095
1.83095785589661
1.831596924673925
1.722827760840524
1.758370466161312
1.922385760265948
1.919071148401686
2.787431624675633
2.323364120590649
1.895487971969783
1.672476288819966
1.846715014112597
1.635798966876105
1.963959873709057
1.970689038563268
1.73615159521244
2.11153874228885
1.449454423493291
1.91138316385125
1.690236687668013
1.096375456704592
1.865050654562695
1.774500400296925
1.7637911001012
1.654110926881093
1.833498330409068
2.817314591465448
2.18217373129142
0.2010164505093672
1.936323783526782
2.072141687079039
1.859480913696455
9.001918619360053
1.861617499385712
2.504057953483919
1.771907451566831
2.202960818149128
1.898756671113849
1.876242313174366
1.780133582075262
1.791723825367883
3.526519316926843
1.032749749432737
8.113356344342055
1.585202380389119
1.452492389097388
8.324306862633691
2.446713015491268
1.903111475553109
1.915633410942618
1.373227738298715
1.9555419199191
1.931862548207117
1.783792471981545
1.915601443024658
1.988342123083918
1.793652071079643
11.99146992141076
1.932088058682286
0.8986685468894987
2.050438545514803
1.530921769993934
1.899697781282293
1.635332433771467
1.954524672718027
1.875388634098834
1.702011074987765
1.689584947344611
1.883119743161761
1.838309657835763
1.846912358174984
1.867034585833628
1.891718534781442
1.796387354538032
1.937122268109131
2.046683378450108
1.326779641352214