/*--------------------------------*- C++ -*----------------------------------*\
| =========                 |                                                 |
| \\      /  F ield         | OpenFOAM: The Open Source CFD Toolbox           |
|  \\    /   O peration     | Version:  v1906                                 |
|   \\  /    A nd           | Web:      www.OpenFOAM.com                      |
|    \\/     M anipulation  |                                                 |
\*---------------------------------------------------------------------------*/
FoamFile
{
    version     2.0;
    format      ascii;
    class       surfaceScalarField;
    location    "2.1";
    object      phi;
}
// * * * * * * * * * * * * * * * * * * * * * * * * * * * * * * * * * * * * * //

dimensions      [0 3 -1 0 0 0 0];
oriented        oriented;


internalField   nonuniform List<scalar> 
37423
(
-0.1092037278968335
0.4201781957667565
-0.4562049182217622
0.1452304503948702
10.67757344493493
4.585015641472931
-15.26258908551244
1.564246398696502
2.838786628005344
-1.473860315508795
-2.929172711586676
0.4083424329661717
-1.012612725061541
0.6042702911143588
0.1167745210448326
-0.1668279760186824
0.02970613000426037
0.02034732480145227
0.04023642692327659
0.1500547657897285
0.3058014937370936
-0.4960926870994485
9.068367593298222
-4.445852003800039
-10.85808204421719
6.235566454624217
-0.03684790038929271
0.03783831385868398
-0.004493693910284551
0.003503280119368328
-0.1408421282233833
-0.02738986068729813
0.315926145617339
-0.1476941569962051
8.644496658914976
0.5758638546927656
-0.4703828156440205
-1.404201929729675
0.4256070404819676
1.448977704582471
0.2386318249036469
-0.5136112812329554
0.7726218764859173
-0.4976424213445378
-1.02396469675048
1.294690365083544
-0.2707256687197112
-0.4802367955226266
0.4660499473995326
0.6253350003214525
-0.6111481531669214
-15.97066103496058
8.543191741015825
-0.06108439587456674
0.007745200206985492
-0.1190844222701991
0.1724236176990073
-0.4478723699510514
0.7857129930109472
-0.09920879868006917
0.1708453337879909
0.05728623075552276
-0.188771056048976
-0.03936050886887692
0.1087602426535506
0.02216096448186326
-0.005888144694656684
-0.1250330627420853
-0.01905135690749149
0.05244008734509378
0.01995692907308148
-0.05334565980759996
-0.2216759074125942
0.3761155193803882
-0.4213556714348217
0.2669160592510262
0.4085586412295065
0.6830339308627076
-0.2678634259230832
-0.8237291470371552
-0.1159984709536146
0.1247709244957469
-0.1012578878250892
0.0924854339725955
14.55302820728949
-17.43943371242556
-6.207217373004721
9.093622880493717
0.5951534568747466
-0.0779386936104461
0.09158517077657878
-0.6087999341676904
-20.41502678430244
9.256848136195817
11.15817864824336
-0.156142847265207
0.1376853814870425
-0.4294149046603323
0.07630079351235644
-0.07176449885871952
-0.1577610653870547
0.1532247705029468
0.165685394552029
0.01086520575321884
-0.178063625960812
0.001513025176836885
-4.295812620162223
-22.13748306409895
2.58765048530617
23.8456452024728
0.2162549749439993
0.4010275600617649
-0.1602838203294925
-0.4569987150836872
-0.0889150522178595
0.713728668191106
-0.01678722419644291
0.1082938810811631
-0.1027160767038808
0.01120941953170024
0.06083439031105355
-0.6363613486547464
0.3257414479289683
0.2497855097411297
-0.02852357815588652
0.0617497945573977
0.09196706218791038
-0.125193279047579
-0.03955493429090402
0.01414033344103953
0.1244311254661667
-0.09901652481591051
0.4067586939722636
21.08849540203428
-19.00883582414399
-2.48641827169902
1.357282038821302
-10.20286254271144
8.497519534686283
0.3480609709468235
-0.02688228009778696
-0.04744535103035394
-0.09500508830796345
0.1693327191656635
1.865428830638871
-6.174333586407118
2.598486558687578
1.710418195658066
-0.1318224884251628
0.01952949587390882
0.1375836613991656
-0.02529066901287931
0.5633686307909235
-0.7036508371634559
0.190096052365129
-0.04981384622736643
-20.98570095474278
3.748582676943172
7.1098215319497
10.12729674704065
-0.2183674928321955
-0.9205014735260265
0.9968977368373558
0.1419712282481554
0.3265810742344746
0.009650168531395257
-0.4772404316063593
0.1410091888756297
0.1177340854553218
0.6556583150118527
-0.2478944585693349
-0.5254979426497669
-3.568113923074605
-21.53747351679764
22.45092521895699
2.654662221163048
-0.9668870467097674
-0.6672990355558005
0.1866036210731775
1.447582461123787
0.5150040229311138
0.2472515259903466
-0.5253163092456529
-0.2369392399447771
0.4137390948658772
-0.1702514326638326
0.3946275243806066
-0.6381151869804658
-1.646085884655081
-9.155150739158552
10.80123662591512
-0.7972204136000415
-2.843876005505389
1.411343181677188
2.229753233060594
-0.2753582042467543
0.6001822467840326
0.05248189414057675
0.1324507213432151
0.04724894866133944
-0.2321815645939758
-0.1308904842267197
0.04509656402324587
0.100128479199856
-0.01433455923968485
-0.4895848073453904
-0.07728624616310317
0.1044129060344266
0.4624581463019277
-0.02795607621008437
0.5810733342205165
-0.8748500444979738
0.3217327860411842
0.2775201211503405
-0.0744039991196615
-0.016038081099632
0.008791817128676271
0.08165026295037552
-3.205409643175691
-0.5736789205190782
-3.095607470926621
7.297486520062377
0.03061511656538887
0.0328714447879745
-0.02600671808589299
-0.03747984346005631
-0.008404335311386475
-0.07075948222714547
0.0006994870568216222
0.07846433034162718
0.3960594962603977
-0.3779363358041058
-0.1355139725962545
0.1173908115802139
-0.3454835858729218
-0.126618353032666
1.155135869017037
0.02882834153816279
-0.1046409401816228
0.02288067329726943
0.05293192500612964
0.1093878655142066
-0.2980257401445718
-0.1527314845350565
0.3413693588700029
0.3456901731998377
-0.7838050322884621
0.2074494424402609
0.3616886887654245
-1.133251881643434
0.5641137498535415
-8.503962978938688
3.891244278812177
-4.798569240551053
0.08089949649139794
-0.04663787412537641
0.008683820579535532
-0.04294544332700244
-2.382236188293579
1.026359961923375
1.10695149982787
0.2489247258119102
-0.5432281004831597
0.5232885955839723
0.09158055739078466
-0.07164105315465467
0.02227698795598796
-0.2926711518082406
-0.3537543367325436
0.6241485004899819
0.1104590519844733
0.07877256753239432
-0.1523444649635579
-0.03688715491264966
1.647000903439732
2.946375974572569
-0.9711273655734965
-3.62224951496286
-0.02350995287007699
-0.3970620372378239
0.699619459984961
-0.2790474710506323
0.552212560758794
-1.923294628739493
0.4676792356885773
0.9034028314356577
-0.01485129526318884
0.006970959552198859
0.007880335539492788
13.86261302499081
-1.216817961899613
4.773074458132203
-17.41886951996601
0.7330923270712452
0.09486371754680144
-0.02900057906069709
-0.7989554659480103
-0.1871417336263115
-0.5281967634994739
0.03571388171064052
0.6796246150149113
0.313876036503819
-0.1443273734782341
0.1007356021802835
-0.2702842657110565
0.009417274033384666
0.06410566434454935
-0.06237613871792873
-0.01114679994135582
0.03991051489874908
0.02633787161612211
-0.06624838667938739
-0.08220970535418433
-0.5415114177904859
0.3483629188765282
0.0652902553985053
-0.03629822703244948
-0.1089905266402275
0.07999849801237678
-0.04397739945130928
0.04641190226907459
-0.002434503018402982
0.06475806084007697
0.4283159780444847
-0.059075568541436
-0.4339984707211906
0.03368040626668966
-0.009592489039777899
0.06034493620824966
-0.0844328536622742
-0.1143315929965216
-0.2362827767797467
0.4600022351374881
0.298119041905306
-0.01142307513550951
-0.02654151433278647
-0.4652823807916837
0.532543794971477
-0.04071990023983187
0.1569524621203644
-0.02585376934685311
-0.1620921295143396
0.03099343630399252
0.01188600376164421
0.04229844383136448
-0.01568920905022957
-0.03849523878320111
-0.1235985582558668
0.5358628434414339
-2.072165568836902
1.659901282627173
-0.6045934868172947
0.7971090590251266
-0.1237615508717977
-0.207297561442571
0.2050935346920624
0.4192988525261654
-1.170084170147374
0.5456917823261191
0.4686196095186591
0.01788217630424855
0.0613979842105401
-0.05362840798944496
-0.0256517527627641
0.0417297093438588
0.04839742370132007
-0.1804153270107373
0.09028819364705919
-0.616064068484391
0.5891017995253474
0.2281536005212305
-0.2011913319190328
0.08182505944752383
-0.04245337138598822
-0.1072833469949141
0.06791165867935052
0.1000471739256961
-0.1096923181810415
0.4660560562916871
-0.4564109121938172
0.0681166064087024
-0.07015037895143393
0.101183653007925
-0.09914988073415655
-0.1065106301446592
-0.1451837723032489
0.3827006526265314
-0.1310062501154539
-0.3257500799395523
0.4781126693266418
-0.2588732194349336
-0.02667608039446668
-0.03025993930304939
0.1252856368796979
-0.06834961743839418
0.12068371636981
-0.04696819595477118
0.08369334969408879
-0.1574088703944627
0.09968918865859554
0.001497035497025653
-0.004372177500626483
-0.09681404684239689
-0.01656363442788817
0.05292450519877324
0.08691013928606499
-0.1232710105621644
0.4191322347852324
-0.5490700437817895
0.1272716375226022
0.002666171342649436
-0.4306968179089728
0.6515925114729274
-0.2188255247200743
-0.002070169279554714
0.06415886464105469
-0.2167991155090307
-0.1992320457271228
0.3518722962932703
0.03682534144110605
-0.02102834792425108
0.05757990140362829
-0.07337689514052009
0.6145613486940091
-0.3657956332016879
0.3027468094123736
-0.5515125256724153
0.09516619922815903
-0.08157385607951813
-0.02209773626793536
0.00850539286436959
0.12666708288006
0.3100367184095111
0.03191580781328305
0.4525968934274167
0.1973587847849539
0.6856175585014319
-0.0975977246753955
0.2054480093212971
0.7868713507309181
-0.3067018019937132
-0.2048752323014305
0.1321821187593546
0.1652824428545191
-0.09258932959454604
-0.5134046941878
1.297192885377785
-0.5357903175111686
-0.8880209213189862
-0.03326257634245048
0.08694074280085283
-0.02169725782894927
-0.03198090886684152
-0.190512608867765
-0.4903402331968469
0.3902512529111071
0.2906015877493368
-3.138057615653337
-3.014563137480982
3.778235973810438
2.374384780639719
0.2893536469664379
-0.2570125078437036
-0.5322992480673645
0.4999581081150663
1.816473397411182
-0.4024085045683164
0.507353443665633
-1.921418336531322
0.3464538172664922
-0.5288772141403673
0.2432577867264414
-0.05969033391960873
0.3291690144619629
-0.5332453625970482
0.2637666818044583
0.1152184490030439
-0.1307971262510152
0.0709327941497085
-0.05535411729587797
-0.1242097578382824
0.03953061478247784
0.3163670299822063
-0.2316878872617981
-0.06647714447191697
0.009788505482868691
0.06193270394517748
-0.005244065206842997
-0.1944423386007373
0.006142057035091056
-0.005591183727406463
0.1938914649820387
-0.08308966746187162
-0.4960094956239527
-0.01807042462103891
0.59716958718637
-0.1464645276253163
0.1052437317412197
0.04122079575890816
0.2231284869582203
0.02005167620008855
-0.1659119662931019
-0.07726819738924116
-0.01732910906621113
-0.08494332355343499
0.118276800895713
-0.01600436855025924
0.1881108931947345
0.06498909464651817
-0.09912770777373971
-0.1539722803884885
0.2903577067715162
0.2006786276107987
-0.6671891417531277
0.176152806819363
13.67058905243135
-9.137866737356674
-22.50333383773305
17.97061152385161
-0.6106057588323363
0.03441490904096269
0.614014726066193
-0.03782387685236896
0.1090765479723857
0.036178503543766
-0.004817635980192206
-0.1404374159695707
-0.06796124727383436
-0.535903627869555
0.6087571683678978
-0.004892293475944614
-6.68236006126402
-5.442559469614139
-17.338638341512
29.4635578754191
-7.778228098582743
10.99060123008774
4.253681842653227
-7.466054975238001
0.08885909304621371
-0.08133456599641681
0.04598736404356
-0.05351189136623517
-0.4679441610093418
0.2254506353608132
0.07844940497494644
0.5321773022911317
-0.0937477256950483
-0.5168789820591437
0.2357710908076771
-0.1208406120994798
-0.2601142511477971
-0.2410229115818259
0.4745644072753887
0.4233252351619147
-0.6568667316382417
0.01619475560075896
-0.1483422730637475
-0.4457678595839262
0.7486071738198236
-0.1544970416955148
-13.6795410567206
6.046103471852785
1.215490374458349
6.41794721168521
0.07899503059103991
0.0004180741669518746
0.1722801710720542
-0.2516932761163571
0.07928451681289132
-0.06953949558088494
-0.009745021424732565
-0.1920242916687519
-6.794557976755052
6.986582270269698
0.3942631880902112
-0.3680227426205656
0.4776528377952979
-0.5038932836108777
-11.15406157053541
10.65286620621827
10.51890678328788
-0.03822954415546942
0.5240732895887453
-0.09444677590822004
0.08176128842345992
17.79652453162087
-17.80177832587342
0.005253794987446393
11.70987912744333
-22.74661937341271
11.03674024599323
0.8859890214984706
-0.1479972173642732
-1.590335024567867
-0.06747462237724121
0.1147572817138027
-0.001080773618696404
-0.04620188590620981
-0.116384377412238
0.1777275886060781
0.2292554024559059
-0.290598613707423
0.4566100536036918
-0.4450624362420353
-0.1850686795148324
0.173521061878308
-0.08938664792172227
0.5207000733168878
0.4696901918337211
0.07049262550743843
0.04089051659435615
0.4779152917592592
-0.5968177313814755
0.04726138602605683
-0.3075306275090758
0.1011161992379894
0.08557381609343898
-0.579431318848606
1.300621883673446
20.62492922239628
4.49291454616106
-26.41846565294955
-0.5811609498689653
-0.2125332911547217
0.488087276887045
-0.4121632399823965
-0.1341188265600384
0.05819478935538377
-0.04784697926987551
0.1862587005673937
0.03331834605566618
-0.1717300675329462
0.3454357432362423
-2.586896432725494
-9.569095304472993
8.950582095637035
-10.51315676216445
6.432109510037457
1.494150820525729
19.16967734482644
-8.849383657725907
-10.32029368687584
1.098836192757852
12.36775716458022
-12.89072950160613
-13.66156252911045
5.878509791823529
21.06076892754355
-13.27771619037969
12.54948493035287
-11.80849219120866
8.400253475015523
-9.14124621458997
1.152736485874573
-0.6039045241200869
-0.2460851533224224
-0.4804858741408269
0.5805899938620719
-0.1383336640184874
-26.304014507637
9.44592833121739
16.89436770984619
-0.01674064758659542
-0.1347282784964827
0.1903748267370557
-0.03890590103230455
15.90392910315314
6.649167096445709
-38.20462851313634
15.6515323131856
-0.07365040953981641
-0.6052448039310628
0.04078002636898321
0.03495104039974646
-0.1436452054444334
0.03198096396862155
0.07671320076244928
-0.02000837044755447
-1.643625795583578
-1.982659169792388
3.923791703585529
-0.2975067395678698
1.84591105127593
-1.166593458228572
-0.0963909212610039
-0.5829266725234459
1.37756839351106
0.104215048636963
0.4724031101866003
-1.954186553281546
-1.138646202641082
0.1281943230473569
0.1804370813745811
0.8300147966835849
-0.08350744169016838
-4.677514728682278
-5.25456742429304
7.312910689155435
2.61917146303112
0.7255943689845338
0.1894713044185926
19.44412992513218
-20.77446871078228
-12.33122374444923
-0.1998194015075201
0.462212031691853
-0.5298988439304122
-0.2655240745966205
0.3050826845071239
-0.3684251207882758
-10.32784147417904
21.24173556755832
-10.91389409269321
0.750033341438101
-0.5642056878613811
-0.6992323485122104
3.997686944473131
-0.1160270819448115
-8.5591745917417
0.09624807267570884
-0.02757374373981543
0.0395235616269423
-0.04506755964800248
0.03311774164053548
-13.75674998860748
14.77207185499076
-0.1919753687996971
-0.01562897780754825
-0.04200493672968726
0.2496092828269418
-0.2673920316574101
0.05820135407377471
0.2398678841770133
-0.03067720689111965
-2.794038129841122
3.547224793505702
7.147164129049361
-8.703077215785328
-3.242656153296725
3.87292205112875
-10.06061036577439
3.393650185883283
-0.01927822994788279
0.01334157204583858
-0.05403053337927909
-26.34523718336744
-0.5900999217211851
2.280030007372874
24.65530709913027
1.942999383833679
-7.81393369375325
1.686428405421827
4.184505900854593
1.887908196243343
-0.4264433640511897
-2.945889937915506
1.484425104622629
-8.681471446515744
3.924206078288649
36.22264804343932
-2.946667892745433
-8.471446952093775
8.129976298113396
-0.7769363866396137
0.03784120507681954
-0.04467625718016283
0.7837714383497728
-0.06215759879281275
-0.2721534559093762
-0.1389338955928529
0.4732449495695668
-0.3613619133753864
0.171619893705919
0.056593555295853
0.1331484637632833
0.02393746943501488
-0.01452019559306597
0.03764537540886048
-0.03473112169887774
0.1670013321220865
-0.169915586182707
-6.522957816280633
6.562152194068143
-2.972127588254083
2.932933208827838
0.0002377848546118478
-0.0001496061201110976
-8.817876772237704e-05
0.000237784840393889
0.02722619529891914
-0.0211128259594329
-0.1204215258837464
0.07238218665913367
-0.007409484651864817
0.0575911047488606
-0.1225638070636617
-0.1475978287676482
-0.3205526326352459
0.4198400127456808
0.04831044828645732
0.323106620520913
-0.4308703886701922
0.09494838253619557
0.01281538546704479
0.1626582933312321
-0.2426773252509326
-0.086120161486314
0.1661391930942157
-19.27055042234671
-6.945429043489263
-0.05592974526658663
0.1182269722658441
0.00999858530519125
-0.07229581262034186
13.02035538149222
3.775110829774846
3.29027636881536
0.02742681715299288
-0.3635305851431134
0.03965513852529817
0.2964486290335475
15.2342331274343
-13.94616176515919
-9.518349288673141
8.2302779264626
38.22063492611743
-19.76424813900952
7.228653243085658
-25.68504003002259
5.162890127858707
14.81409113896724
-1.433853591750156
-18.54312767464894
19.27201776949095
3.252990211733298
10.9207475535041
-22.8510361851598
11.93028863123002
34.9161302234732
4.760185379931586
1.111030065369916
-40.78734566621748
-0.07607663884779758
0.1220756066034577
-0.2306397748479581
0.1846408066692942
0.1887670902939336
-0.1381935797559715
-0.6218289884730379
0.5712554779985538
-0.1391729009798937
0.2791010046154282
0.07340859751178691
-0.2133367016436932
-0.06198183387173229
-0.008321067024353881
0.0918190984210419
-0.02151619762659621
-0.129831487813233
2.003780605139735
-0.4005984975308594
-1.473350620440844
0.2930750173973717
-0.5188625723031461
0.2234499733999665
0.002337581379316581
12.01408294087406
-5.612751393477655
-6.401331546699262
-0.2097151042922663
0.1257484202186344
-0.07467030502028292
0.1586369888465801
-0.3413937339706954
0.4923565450464303
-0.2035925736799724
0.05262976221396047
0.1253447353212348
-0.08769936003374049
-0.0558107692216987
0.01211219192794379
0.04369857716558947
0.6384481303836739
0.4492639314734249
-0.4793076538552952
-0.6084044095635931
1.925316601829584
0.3784409050132291
-1.064479601633765
-1.239277906543953
-0.1402155440092722
0.1079532957961521
-0.09080894580801191
0.1230711936634799
-0.06892951560601591
-0.09863962270575791
0.08041489307012786
0.0871542449205942
-0.8872084374814405
-0.6652193261810295
1.736729359631846
-0.1843015966233242
0.3995203828432214
-3.894148098397908
3.364369456338349
0.1302582572830968
-0.8325306168394964
3.406548578741014
-2.594332570350567
0.02031460760375731
-0.4780917482043208
0.2376195869349319
0.3018978588953373
-0.06142569804595803
0.1903023206375929
-0.3238172410605876
0.5056183621042428
-0.3721034420899978
-0.06121281590429245
0.06962379587405962
-0.008410980187051493
0.1039727712756996
0.1515108207942888
-0.2554835921255112
-0.06591017795152414
0.0004775580628813715
0.07924479024674258
-0.01381217056917702
-0.06083189055066902
-0.09885335808135309
-0.103025098524558
0.2627103465489296
-0.06557508861285918
0.09446420999589955
0.1575257070814637
-0.1864148288036348
21.20096394928111
-13.65711674386581
-13.99532387044835
6.451476666114801
-0.01393772702838555
-0.04121169084314358
0.0005963960318402554
0.05455302162037095
-0.02842789371356208
0.03528714090404723
-0.006859247278691244
1.968199279485885
-2.584556692496392
13.55362907381439
-6.386017038219803
-7.167612034824603
0.03107233306559616
-0.07842009739461524
0.01684566603599198
0.03050209804947941
-0.03797914995909074
-30.0568657518054
-0.1895488887688895
30.2843937914452
0.1092224136261616
-0.06289614737154903
0.2069285514979612
-0.2532548180581962
-0.0481903543730064
-0.02511979342056254
0.06304729333312264
0.01026285430177721
0.06378489707238755
0.5901663843971884
-0.2399874786671754
-0.4139638036353817
-0.05825619879006233
0.001292182688756053
0.05696401586759924
0.01673514308238285
-0.0193300278677053
0.07313520956519357
-0.0705403249786503
-0.002653845291240234
0.01798830406607484
-0.009977531163921614
-0.005356927828393995
0.03711383736704098
-0.02154549019316911
-0.01556834736385557
0.007097234947999306
0.05563162592238509
-0.06272886108964121
-0.1452241372830638
0.5681350272151792
-0.4006315275091663
-0.0222793628980262
-0.005849429008527204
0.07996644950557412
-0.08159664457554421
0.007479623779304788
0.009699801347700845
-0.4078851120364236
0.4061343997961803
-0.007949089903334235
1.110440215812294
0.5718078301438519
4.192459809533605
-5.874707856305642
-0.2863014003536445
0.1430885389250384
0.04224170101764644
0.1009711600943215
0.0883981648831961
-0.002250144103626908
-0.08614802107786955
-0.03509428054922364
0.1326548222431798
-0.6163088699291233
0.5187483277072023
16.46710894317349
-21.10085967125747
-0.07373852540564647
0.1464887279746592
-0.0002763216244543119
-0.07247388116407433
-0.5225790807520664
0.0368815394908331
0.4856975401419036
1.59085222044162
0.5923348999251119
-2.267335540384279
0.08414842013303822
0.7958302338872303
-0.06914608157997934
-0.5636093698821694
-0.163074782784274
-0.2256505966926444
0.2868278773647028
0.08302951842478329
-0.1442067994813642
0.00253677904089787
0.3186609570900885
-0.320560013320038
-0.0006377233855401151
0.154776067399148
-0.2839787079727644
0.1413508176722122
-0.01214817732661217
9.413755757425893
10.33539975098047
0.1707835550680495
-0.5443222482293361
0.08499161687762591
0.2885470759969528
-0.2247275978819975
-0.436556683062635
0.5904948914039382
0.07078938944715216
0.01440795832322629
-0.1455782822431738
-0.01834383019798892
0.149514153812648
-0.2676395728365963
0.00170814719360943
-0.01065802504433234
0.2765894503570462
1.437744716341555
-0.5585562039060493
-1.677528356453399
0.7983398430369856
-0.02666429953967241
0.1209039844502258
-0.1057583106638213
0.01151862538726916
-0.01459095852987246
0.02659109110073759
-0.1019150896258918
0.08991495686997461
16.08201305616631
-23.62082202585325
-3.125495021166749
6.235198901855683
22.80638328410615
-1.349187340058652
-0.1683939616380196
2.144690936080027
-0.6271096349334914
0.1591824088826716
-0.2528053486256546
-0.253583986987901
0.3472069264884776
-0.07840514716070841
0.004633919325555887
0.04803071326871768
0.02574051428755408
-0.1033919555124753
0.008733200047799186
0.08545131848749822
0.009207436824070733
-0.1267701262471381
0.1694049444119073
-0.06951709854923849
0.4185113832394409
-0.1811377409664412
-0.3473353470584912
0.1099617043398845
3.170591254980435
24.58265094285733
0.08340359710453263
-0.04295209706897529
-0.2346833130811227
0.1942318126876187
-0.010218446909976
0.3832101092843265
0.07565896436610922
-0.4486506271690724
-0.4404033663639404
0.04162183435348285
0.04071117618994035
0.3580703553469155
-0.5192044324133712
0.05405705451512096
0.2524790482468943
-0.6081583273351028
-0.05057917538012931
0.7026246485213086
-0.04388714726374361
-0.005226955410682421
-0.2568127138550578
0.7422795645104936
-0.4802398960462004
-1.611780325411566
0.1369378461059973
1.474842479223533
18.57165057526078
-7.353617214762916
1.80232202079891
0.1553106749011968
-0.2750142083536212
0.05522629517624669
0.06447723774109777
9.011650477851861
-32.5065755713989
32.17619201757486
0.04097195043873435
0.06383552376005988
-0.06307776503683966
-0.04910763384717945
0.1515101971505271
-0.0002879868677120503
-0.1021145766979239
0.05939107882076101
0.03153614631505036
0.04806838483207639
-0.1389956101933862
0.03545084418402854
0.2631361070954518
-0.079375157403862
-0.2192117941700294
0.4338144109404416
-0.3098495442315695
-0.5020991475692567
0.378134280389407
0.07405690204239315
-0.01975678841820995
-0.07834512095060839
0.02404500715201999
0.4743259278108283
-1.102577601900627
0.2411896200346247
0.3870620528160365
-0.1015741416732183
0.06001962602133531
-0.03218400987809716
-0.0668704557653769
0.06445208601813859
-0.1136601795335717
0.1160785491257692
24.28568983973646
-13.06482109529328
-20.73991223343268
9.519043489266478
0.1965715317893486
-0.1667884928114738
-0.02978303919990001
-0.3165345780205102
-0.03314803775019923
0.4589475036689244
-0.1092648881723345
-11.58321254342719
14.84981835025285
-2.133611589706609
-1.132994218584327
-0.02243071401066804
0.117813019368247
0.0164974092886006
-0.1118797148363588
0.06247431022706532
-0.1684523579765692
0.09525294393468466
0.01072510351180045
-1.290311542289547
0.9492608422572074
0.4546580749453493
-0.1136073752857031
-0.01610568669952338
-0.1934542982893236
0.1929707219114663
0.01658926283842461
-0.8363745333549881
-0.628151446000058
0.8606214548188623
-0.9878039387130199
0.2047892383368096
2.551920608722713
-1.768905908193989
6.940219207054461
-17.48835683897052
12.32472900593152
-1.776591370722081
-0.1016634419716457
-0.5407897408788825
0.7435611115182816
-0.1011079286202211
1.60647261124617
18.26903413801488
-23.44362067283106
-0.03333957169874712
0.08338257358860797
-0.03519845520013017
-0.01484454688341849
-0.5027840342618348
0.2958889096207701
0.2302577083284107
-0.02336258410935282
0.5006689897513282
-2.166472062264106
0.7043476454869161
0.1634882628399885
0.05785131701836718
-0.1488921796280483
-0.07244740058459773
0.4947050662190218
-0.04075851752940676
-0.4838950637285583
0.02994851506933563
-0.09210527461465641
-0.3708333882326633
0.2994001541208848
0.1635385083394111
-1.800334661368011
1.722391593986381
0.07794306710621073
0.1071677253299154
-0.1122494398117222
0.03242472386195554
-0.02734300973066676
0.01494191578009667
0.08957296284250124
-0.08843922219216313
-0.01607565666273702
0.01390896945896751
0.01900697849087613
0.1084310485829065
-0.1413469967645498
-0.02275838872868541
-0.05205657579545525
-0.03365073224942811
0.003479549867930264
-0.2886741819585938
0.05663402923722803
0.2285606026283143
-0.1447849546366893
0.07537730599462883
0.1118623220548935
-0.04245467365367679
-0.1082160645954545
0.06139086088562439
0.09714231490933706
-0.05031711178050824
-0.5988163642103443
0.7163783818492178
-0.05020786882862422
-0.06735415051298542
0.0006910301544628885
-0.5152128914342622
0.102461118635279
0.4120607425222732
0.01495594608153067
0.005281644989362541
0.1436276983452603
-0.1638652895410093
-0.3220053769540581
-0.1970530074392095
0.4253016973787163
0.09375668642524806
-0.0001449704348576943
0.1772429030244392
-0.1575791926427574
-0.01951874029713369
0.01035569536378571
-0.1409131126774396
-0.02733435253306684
0.1578917695772396
0.6847328801757849
3.835537060933921
-3.707235555545485
-0.8130343897936099
-4.46438072006719
-41.88291087345029
35.92574541986285
10.42154617380423
0.06232055686270702
-0.1522995684988953
0.07537127792330468
0.01460773349480212
21.69795029472597
0.3436895609176554
-22.43756303312845
0.3959231779311634
0.1494572626775308
-0.2000907261205154
0.04367340505163388
0.006960058008087955
8.147112602211768
-9.791063705603786
1.920910199153282
-2.546498501311619
0.9225661314764807
1.623932369485128
-0.109637294752477
-0.05014557323064876
0.03060141855802642
0.1291814490763612
-0.0446623571942584
0.04284806834941182
0.001814288640207807
0.1277583323677326
-0.07112173274739188
-0.2371045722905988
0.1804679723071778
-0.005095285568010477
0.00127330448406895
-0.06876016770292506
0.0725821486467388
-0.01568943694086865
0.09403386826116122
0.008759610943438158
-0.08710404255687836
-0.07003796183933479
0.005940843411216548
0.168076260541525
-0.1039791424585087
0.01846805750462168
-0.07294865039130541
0.03595739140509138
0.01852320120950877
-0.04923310094451689
1.774684110765359e-05
-0.003729724094544792
0.05294507796687338
-0.4572555772184145
0.1480978994589022
0.3091576775385449
0.1084186713136091
0.07641388299864482
-0.1649513253448635
-0.01988122925388361
12.52160601896675
0.5638494106279879
-12.50553510399402
-0.5799203244375524
0.1739422731908665
-0.1214233771097129
-2.207873904546341
2.155355007597032
0.3160773896107448
-0.3538580854239263
0.5116818576415162
-0.4739011622871659
0.6435436240230716
-0.4436843864336948
0.06390873786682408
-0.2637679758965075
0.1885778854839966
2.175987135678466
-3.634969052866245
1.27040403013948
12.925188988766
-12.97639810726131
0.05120911877579984
-13.66007067327979
-10.30405948542086
10.20738017163971
-0.2224871261483135
-0.2079424333431395
0.378549292837538
0.0518802661188097
0.3702948414433646
0.18247354996424
-0.5527683923870151
13.82599182354572
-19.45564496355153
-0.1826752719512679
-0.02397625727994071
-0.1862797903850792
0.3929313191731105
3.104804422973201
-1.044894932723266
1.779130212298095
-3.839039700866355
0.4202388088173657
-1.007532283657811
0.4782076827157576
0.1090857913991725
-0.02077952958854271
-0.004205311919331991
-0.0538246244453572
0.07880946567346803
0.366639266605008
-0.4905030927533053
-0.0709923291179617
0.1948561550648593
-0.2537518302257726
-0.08619624847385962
0.2395018893228109
0.1004461889685487
1.298747051045584
-0.5241395298749431
0.6631371944497496
0.1375902289738065
0.07453650446128879
-0.1100763718601958
-0.102050361877048
0.2331589153341873
0.3109297715049192
0.01481677622808318
-0.5589054633217927
-0.2469300366179859
0.2203503892820173
-0.005918637055326435
0.03249828386391256
-9.495007138901293
-0.651241287483612
-2.704919714723891
12.85116814072262
28.26211564949615
-0.6005730354092534
-4.350308293631498
-23.31123432070797
-0.002435394572768289
0.1414743174062404
-0.05913724164937684
-0.0799016816625973
8.333298768251149
-2.475180213008783
-1.332406072835144
0.709314964268123
-0.4042007734309522
0.2472543204999252
-0.5523685121664708
-1.246469187283154
-0.2283770535284297
0.08665155167054801
-0.347886091602724
0.4896115929058091
-0.09883242167216713
0.03225938648265572
0.0665730351477464
0.3444338085804099
0.06253858578095871
-0.4034928447632118
-31.78124345669757
7.105357499561899
-3.721002529548279
28.39688848690249
4.280418460504661
-0.6183401639540989
-1.799848710844008
-1.862229585478061
0.01270168710944392
0.02320541673676251
-0.03590710400024953
-0.1872262933309864
-0.009088886365617308
0.61395866245662
23.34344844353266
-0.07058723801577378
-0.005461380963259542
-23.26739982270855
0.1869437646819937