/*--------------------------------*- C++ -*----------------------------------*\
| =========                 |                                                 |
| \\      /  F ield         | OpenFOAM: The Open Source CFD Toolbox           |
|  \\    /   O peration     | Version:  v1906                                 |
|   \\  /    A nd           | Web:      www.OpenFOAM.com                      |
|    \\/     M anipulation  |                                                 |
\*---------------------------------------------------------------------------*/
FoamFile
{
    version     2.0;
    format      ascii;
    class       volVectorField;
    location    "2.1";
    object      U;
}
// * * * * * * * * * * * * * * * * * * * * * * * * * * * * * * * * * * * * * //

dimensions      [0 1 -1 0 0 0 0];


internalField   nonuniform List<vector> 
19631
(
(5.042713581171213 0.06553897508411789 0.03960548878044253)
(4.815648742549421 0.1225298660290521 -0.1313738828233194)
(4.958933288037276 -0.006785322073718954 -0.02247215438702381)
(4.247551725402769 1.316624227371502 0.1860856150395093)
(5.027628691333843 0.09613685532234204 -0.09104263764398488)
(5.060128462745968 -0.001136061829054703 -0.1146704451171486)
(4.950675479479495 -0.1078091264175686 -0.06479901707209172)
(1.633245072762148 -0.07553208276338232 0.07037621383649872)
(3.372542722030736 -0.206505903459061 -0.02105997511548958)
(4.996938719681577 0.01943660490847728 0.01107624883355992)
(4.981577523922385 0.09456031144731003 0.0145805522965172)
(5.014546583174061 -0.02686003805228477 0.4340965868074533)
(4.039947778822815 -0.9438146555863094 -0.2157455259218827)
(4.978960665519747 -0.01151509912336018 0.3395152891694952)
(4.987898865593536 0.007926216725590489 0.02367502007776903)
(4.900230307404373 0.2558674862141853 0.1024626426058401)
(5.092422094928033 -0.02827781739281114 0.3967029612866325)
(4.416243315385482 0.3144911641232931 0.3035148587372036)
(4.473073495127614 -0.0949186236527006 0.1518338941045769)
(3.507417882817096 -0.09265052328846966 0.3154037330882534)
(4.998312850542878 0.09120171634119266 0.0417643254577789)
(5.081989842379718 0.03520861545077247 -0.02546503178830379)
(4.410265813299012 0.03464346986093383 -0.07508826682663734)
(4.948215425259499 0.02497601290099936 -0.02227471120258889)
(5.081164787953236 -0.04506430324350582 0.1307698907186425)
(4.990307338250457 0.1038767179358081 -0.02061444027851744)
(5.079470295494628 -0.009463422488580696 0.25999452932352)
(3.438934984332889 -0.1208945563178505 0.03127522400700232)
(5.049385950542915 0.2168454952575322 0.1676116527428773)
(4.969922101095942 0.01503347938549263 -0.04495423948184137)
(5.073168080714178 -0.00857947997260514 0.0558172426900836)
(5.109466387463835 -0.01405826210873206 0.06500281017217276)
(4.910640276761283 -0.02839397016847713 -0.07226826800953536)
(5.016507450571289 0.08187231815501086 0.02525816616550791)
(4.338649322414773 0.2776582938359821 0.02218945756337671)
(4.346843535849501 -0.4144837398218584 0.09057371818045827)
(4.956866787536007 0.06558573345437499 0.04842827796306261)
(5.167391111022127 0.9207624037014621 -0.4979604358817414)
(5.08891346049641 -0.02039437625284193 0.1261208837560216)
(5.551678372523304 -0.1564039009462541 -0.01948105229933629)
(4.691997736278826 0.1205506655461714 0.2920719265393386)
(5.024981461599962 0.07231455314692029 0.09867165030508478)
(4.984632256536551 -0.01131316527252445 0.03162194911657912)
(4.981871446440571 0.05118281792433409 0.0383315285923724)
(4.375494183125257 0.2783196295289947 0.2775134952123324)
(4.010569299286555 0.5654516130754526 0.7205531841850549)
(4.968045942453806 0.00216699714785329 -0.004649038849116351)
(5.033812830913941 0.1224759445789449 -0.06186383632276778)
(5.036690580419817 0.06283634782907427 0.07002584910953008)
(5.109042809820238 -0.06927795503795936 0.2149486099532484)
(4.54925160283257 0.3962991729470715 -0.2041392939537496)
(4.813678837332419 -0.6302109265978719 0.09938692112600368)
(5.135666019496502 -0.07341367707361725 0.1867345841130361)
(4.000976935093382 0.6789018500864236 -0.8578202018093571)
(4.907860707398339 0.2320163482777694 0.1968859840176152)
(4.544324255232374 -0.2363457266492733 -0.4067241777165209)
(5.094740075444062 -0.02678284186565105 0.4164973206416143)
(5.057703104115442 0.01259153520388949 0.4082262770954934)
(3.829338776365129 -0.5055282674866507 -0.02561713600547261)
(4.993849928616414 0.0143758251588944 0.03813232845115882)
(5.024119363148815 -0.003280313229869233 0.01637079518092989)
(2.219127647275764 -0.1360986515594795 -0.07116287185503788)
(3.149465543042321 0.06201879119082503 -0.155131637360524)
(5.023319456742418 0.09800723566346169 -0.03273584775969458)
(5.029609063143635 0.03411011216037848 0.1742037297824803)
(3.476161741056483 -0.2841947630136291 -0.475239250336794)
(5.073394032117387 -0.00064290199589933 0.08470695314394557)
(5.075122702788868 -0.0358490989205464 0.02357522904584051)
(4.895717673656045 -0.01972571997633412 -0.02576981466112692)
(5.00770740398456 0.02253186848687379 0.02192236939876168)
(4.995118967144831 -0.01263833331943368 -0.02335865529107787)
(3.81175482448681 0.7280748663969996 -0.8607560107262525)
(4.979064608795266 0.01233035543034863 -0.04731413565954853)
(5.083361224340603 -0.02488920907138678 0.114158569409168)
(5.070248525140555 0.09101644408981391 0.0929188915420692)
(4.921671359187008 0.06832622915731519 -0.1645858991276132)
(4.885031452844734 -0.05580514910997932 -0.02495262501711012)
(4.956789578627493 0.1004031486327648 0.2016506557354838)
(4.681527639670716 -0.3466395361881828 0.1421282728028327)
(0.9209982908040298 -0.06704103791747727 0.118676139645094)
(4.978796303218022 0.06404164036355471 0.02632144496708316)
(5.086762200522441 0.08120414817318898 -0.08261912657823438)
(4.923830557606758 0.180355865493109 0.04533341648138633)
(4.962508201053357 -0.02910117537860986 0.09263145984774404)
(1.636425842061974 -0.07171277108192828 -0.3321573272173299)
(2.208327532450585 -0.0785302414628469 -0.4831116211624835)
(5.092066379980517 0.0007407398668164573 0.1723185024566194)
(4.781675940533371 0.2676020055055249 -0.004364104536672757)
(1.735643113656081 -0.09813038118926437 -0.0247083638967292)
(5.015092848501717 0.0833613087145548 0.06400148912421606)
(1.959359386399902 0.07397689852888754 -0.07444820196189481)
(5.075911377723346 -0.0318659836062482 0.09522632584398888)
(5.075033380786705 -0.02395462153239102 0.01275763259496578)
(5.052047730409957 -0.0194214166168575 0.05819229407930473)
(4.731268049518021 0.03805618906065366 0.1760122403905125)
(2.455032190042525 0.1665016235449903 0.1848984469466225)
(5.04211056863759 0.09220413536834758 -0.06598525728583675)
(2.535600378755424 -0.04588037807105759 0.1098903780579241)
(5.002003656402132 -0.03167036523051072 0.3078442634135601)
(4.948664621656762 0.05605190968170305 0.1200812930745811)
(5.107345976944512 -0.02973722035373175 0.0781893051828898)
(3.146315125983937 -0.4060689413186544 -0.1485326806585195)
(3.485457631411808 -0.02986136142633128 -0.2103560782134417)
(5.013404371730129 0.08343375850712105 0.0385443832443984)
(3.971662128650184 -0.2420246514682361 -0.01912132015327585)
(4.383155858800889 -0.5258213579918297 0.1456230748341901)
(3.075320681067874 -0.08205565812800864 1.030073120912086)
(5.080308983258679 0.006594620384186824 0.1255939433110982)
(5.102061783893006 0.02660625286807797 0.1249851990633269)
(3.441912327208627 -0.2530348556057852 0.1872974910701485)
(4.929831557982769 0.1795500970839994 0.1541009224590046)
(4.921813694705643 0.3225910142408194 0.3141361404403862)
(4.305123558448517 0.4955812950731984 -0.6130011216444066)
(4.658189327225466 -0.4080260198510652 -0.09792565519799663)
(5.010481513546895 0.03163321589154539 -0.0676959096286809)
(4.862366150677525 -0.09932510768756124 0.07193213009674569)
(2.538005112230036 0.1282617783985237 0.1482649431244318)
(5.073671630514829 -0.009559858940809927 0.1205666215153115)
(4.91419644815544 -0.01547259395042864 0.06457867229558088)
(5.096270557079178 -0.04581489247872377 0.0758785984727966)
(5.059011397440442 0.02353191301748551 0.120680379863421)
(5.062631444259396 -0.03021214709126024 0.09467571184804636)
(5.026132306608615 -0.03000423539307117 0.09119165627649539)
(3.582926937785123 0.1948221028335808 -0.01476307274807961)
(5.048703783775067 0.05365522266276364 0.3002464481601579)
(4.984128493793952 0.03403455850122419 0.09513136212782644)
(4.957029963759332 0.1666488378191199 -0.1740099495197816)
(5.025717714780474 -0.1513136061083745 0.2449764106497886)
(4.998591151026767 0.03392024470527608 0.0394070338950978)
(4.220829975810894 0.04214530017278816 -0.01860276449930927)
(5.091313627068657 0.09799975454343432 0.05112140104278495)
(5.014882500182138 0.09902276111791143 0.01426055523189201)
(5.051201242732932 0.1273801180391878 -0.1711887267904573)
(2.679846604713793 0.2467500401636595 0.1168874622545722)
(5.023002012663006 0.1347321640764897 -0.03732506396692137)
(3.877854038493132 -0.6430473075124888 -0.2349644640167381)
(3.52164492956339 -0.2853982390230164 -0.2919038730735516)
(5.063533915508427 -0.0290132201458224 0.09998267338398352)
(2.004632148275843 0.700403112869556 -0.4354812857327574)
(5.010645663125464 0.04051354412229671 0.1591234003708011)
(2.451499593779432 0.04339302400016493 -0.003606126923016062)
(4.564933459213842 -0.2075922334595092 -0.5107709235691316)
(4.207605616682849 -0.07809614737046407 -0.3694517655804587)
(4.969692121983313 0.0009467241591554828 0.003469969708981249)
(5.175617294288463 0.158991638297404 -0.1411163750172558)
(3.932214033318513 0.1206113093323365 -0.08369085023801946)
(5.037509851928435 0.01950705688074953 0.05225690379404342)
(4.987931285301848 0.02353776874620701 0.01123388374782883)
(4.983815709810027 0.01179312066836387 -0.01331707731894352)
(3.105368598134453 0.03551980736546348 0.006424186859150079)
(5.091026854142944 -0.03335892283529602 0.1307247010821526)
(5.072746083621611 0.1179593591176144 0.006583161413204898)
(5.060788578803282 0.001350567433665273 0.07399352213196139)
(5.020347740892399 0.1108055084964417 0.2007846816489894)
(5.075094527463831 -0.0003864651400500723 0.07624498475751323)
(5.010607515301803 0.01444652746174991 0.07640312961084944)
(5.005461627342669 -0.0484565163485237 -0.02286823382655324)
(5.062609923897392 0.2842376280435781 0.2138481437619925)
(2.585789380869036 0.1270615983104225 0.02894217938019884)
(4.394991154447167 0.1774208293666897 -0.06527583208253911)
(5.065496582332857 -0.03378332094404725 0.03796715868590157)
(4.989866737888302 0.04044764793673566 -0.01440877111412789)
(5.048449634813541 -0.03110534782909707 0.04135323296218207)
(5.049383400257454 -0.1347108089159697 0.09145188529612346)
(4.959631448991658 -0.007495943334028306 -0.0005395222808424102)
(4.959046448243362 0.1494431052147815 -0.07369310148250566)
(5.045746609146576 -0.0225975548606854 0.05410276249183686)
(5.115252530122934 -0.002342084734975438 -0.004822098026419812)
(3.087992602408902 -0.5059646604536052 -0.04000389318997821)
(5.040714539737506 0.08976701226865781 0.0312118268128272)
(5.022007210240802 0.04657535527830593 0.1396161980129576)
(5.029950643522431 -0.1280237697113263 0.3605590682123945)
(5.081054368723777 -0.06451523460607551 0.5219373013268953)
(5.058731193342904 0.08255880894273895 0.2181389643020165)
(5.061967049600697 0.005044018848166828 0.09897321686164914)
(5.113572021515395 -0.009797882019287175 0.3323103480270234)
(4.970144195843537 -0.006780621132266498 -0.01557147522545112)
(5.06757293206653 0.05403329038489848 -0.00439371897294521)
(5.035392486567098 0.1072551046994994 0.1321270047661492)
(4.162116158241826 0.2944183481175145 0.1926272100421278)
(4.98984710438443 -0.06899570542609174 0.364825010065099)
(5.013033788314622 -0.005945522767522316 -0.008657135222448939)
(5.02648486208438 -0.06720404104867721 0.01995187978265468)
(4.492616524745278 0.1048860972350352 0.2554939187773693)
(5.000960714119877 0.1274774464732094 0.01800402418672564)
(4.946322457926542 -0.02114004410430656 0.01694565298705095)
(4.986151986697016 -0.01664687345531801 0.09969407569550415)
(5.06801917849303 0.007901370687893778 0.1047925852249713)
(5.060194955512083 0.05710105544017199 0.08656529109913079)
(5.04952640717703 0.01476053203715027 0.03526583853082142)
(5.077365135493202 -0.01431806718832712 0.06280707976356804)
(4.890231666616559 0.3375861665641309 0.4845093132434057)
(4.985539451116271 0.09994975475448312 0.2289422247277053)
(4.984616062664828 0.007926146502586415 0.0136169392126708)
(5.060583146416352 -0.008571782198849588 0.2093474469988702)
(4.592386605168494 0.4740706489035636 -0.4722186047517187)
(5.070164306166488 0.001325416943101463 0.1575773339792486)
(5.000187299091956 0.04865532297984268 0.04821979800625258)
(4.935053512069955 0.05061170510822197 -0.0739933398471644)
(4.948644967309842 0.03741271455619923 -0.04623999790390844)
(5.050062041557466 -0.02113680580245073 0.01724328857687909)
(5.051575485469232 0.04723436026007075 0.08947431203190576)
(5.037614654104638 0.03080986496140539 0.05255954946446969)
(5.03933898904947 -0.0353902234425668 0.03715320367321461)
(5.005602403453611 -0.005065461110257552 -0.00207219330767022)
(5.00918141347547 -0.07166823166665225 0.4800201603672224)
(5.015839687022642 -0.02269372928946138 0.2095698972787941)
(4.986665813514244 0.01514729518498038 0.2495006197889844)
(4.809693047270972 -0.3313051416051624 -0.003423976568457806)
(4.989730585292848 -0.1302076810553764 0.08335392557929559)
(4.950009260267419 0.0589961465503447 -0.08857475914948153)
(5.012936872017399 -0.0641209113421003 0.1980142882431687)
(4.217467683380687 0.1703003599990826 0.03652561162622069)
(4.986620809967111 0.03262553795042007 -0.02116906429886394)
(5.038313083682534 -0.06130841320688368 0.116943227435257)
(3.845165824765802 1.059914915101981 0.8566912240170216)
(5.008425838003339 0.03319767634751182 0.04800262847253602)
(4.993797138309623 0.02414800283747426 0.03971632420697264)
(4.981258658011655 0.0376464969014102 0.008626917732230715)
(2.742569806842595 0.2917791038961983 0.08373455898020192)
(5.113740220682737 0.04735026035886423 0.08672076422873026)
(4.979538839631912 0.1771860715680134 0.02021264951294949)
(4.955503345697326 0.03554892385132016 -0.08424526582169252)
(4.993388836433474 0.01262229758882488 -0.003023068077238605)
(5.024125844827434 0.003071687899174484 0.03059262912767005)
(4.963667930665899 0.1425662788998648 0.04221885207819347)
(5.03052262744321 0.08551077912756587 -0.07590395660914773)
(5.085979732798854 0.1479008220187264 -0.1308744457891516)
(0.6400664957074051 -0.05011427264168007 -0.3521626207413715)
(3.758873721946201 0.1030540428260896 -0.1173347504491664)
(4.974745903710295 -0.01383521007891535 0.0008726825116331306)
(0.01941025014123558 -0.009573409594424813 0.0156405328362234)
(0.004416875751029913 -0.02039567060229652 0.01129743599342625)
(3.208200044952863 -0.01130243048820747 -0.1328869627401983)
(3.536251378065435 0.2028850770429374 0.02419992886054723)
(4.837215982801001 -0.1099555192120141 0.5621129065258669)
(3.692388609206107 -0.362192228256124 1.340097227389822)
(4.700360445904658 -0.03454556452320337 0.04430416565297716)
(4.942518049447388 -0.08649634083119052 -0.736743735631868)
(3.143139644863112 0.2292679243758029 0.2477989064926788)
(4.912814501155997 -0.001884028337461461 0.01028139770473669)
(5.122078196819235 -0.01131255306510396 -0.04159441940953089)
(4.990037284420757 -0.02945942192398178 0.06409313138852106)
(5.189758887367514 -0.2735825286274969 -0.1096053002664112)
(4.972852236717979 0.01003044699325013 -0.01176195484592024)
(5.042166236548262 -0.1840519957681874 -0.4408183069189677)
(4.86961104367819 0.1388765803872639 0.1316783807430991)
(4.989746540248755 -0.06286903255797831 0.02329512830759321)
(4.850425064878659 0.07451868323021221 0.09299683165536152)
(5.028070037771041 0.04290543332016809 0.0287287941391014)
(4.622564681046398 -0.1119564095491115 0.05273097000537191)
(4.562914944433428 -0.08628615620394188 0.3172857343238046)
(4.960176206848588 0.1309565261404932 -0.08688793149873703)
(5.02253537636376 0.1677152649613065 -0.07513464447900596)
(4.867819210452721 -0.05238228222852456 -0.08399230626541099)
(4.433366550311834 0.5551516328224715 -0.3110048086506966)
(4.983236149915713 0.02241394073340744 -0.05060619308680005)
(3.386091409580131 -0.06252807527104466 -0.1256802545384722)
(1.789622196544078 -0.03578087545255387 -0.1202283118476134)
(4.770089308697695 0.1112972278676539 -0.1531329420865108)
(4.983319558584403 0.07134124483548415 -0.06084959212537866)
(4.912463201005813 -0.08118816015942422 -0.238503227946274)
(3.720490006827906 0.4733295312879724 -0.4582916052255895)
(4.899156951544806 0.04093220388651943 -0.1403527138425225)
(5.054771152808893 0.005569197558101497 -0.219434492138359)
(4.979182199733681 0.03093073782719395 -0.02996773738981114)
(4.970281282463465 0.162625856042512 0.06410830909840558)
(5.147454099012392 0.02727557861434864 0.1869308698763506)
(1.700631888021474 -0.1928026423236838 0.04156736053558312)
(3.564751981933305 -0.5378202102556662 0.2503554562051384)
(2.697798659920952 -0.02812089051680554 -0.2104621271104044)
(5.062349705131889 0.1018029618984417 -0.1320592289357254)
(3.228473194984184 -0.05349004823218206 -0.05938444165418436)
(5.002033780080316 -0.01034819144886506 -0.02463466225125755)
(2.351047756751144 0.1078304909669093 -0.1876192361314576)
(2.136689633317498 -0.1363644962253294 -0.1904031393809496)
(4.98386177678769 0.05774865929536106 -0.003076560653523813)
(4.203605977953307 -0.009796057720396606 0.218423121889287)
(2.555829400046071 0.4828435911389116 0.1192795702566492)
(4.95564162975064 0.002220633407073141 -0.04579211385648778)
(4.97657543914484 0.101849941724263 -0.05222483131650152)
(4.898191833918573 0.2994828402826744 -0.1117992669661065)
(4.7715333410052 0.07819916138232688 -0.04481379510260243)
(2.581881150355579 0.3430116912274299 -0.04950543525038859)
(3.291216066965951 0.1138458615984725 0.1005404875606867)
(0.6094200661628171 0.08559810667761149 0.142570708626694)
(1.584296069017841 -0.0290753028163736 -0.09529607230412054)
(2.379344401073594 0.2002557226131972 0.2074275290914129)
(5.046983325280591 0.03150798034480577 -0.08775685816559456)
(3.573860868764906 -0.3443438226620529 0.251755452692568)
(4.920514347035567 0.4585727744136008 -0.04570714439963549)
(4.951068433706166 0.06762867394806747 -0.01494563712512844)
(5.027156867844041 0.09898277640128422 -0.09551191492752147)
(2.848373835499803 -0.2035145619263679 -0.2210063923170561)
(5.149042658466117 0.1277045474095407 0.2270140290851162)
(4.991292311468889 0.01266884404413743 0.01866640518184315)
(5.014755485488463 0.06994714988343681 0.119203467329455)
(3.452639028295641 0.09068874197233441 -0.8699899735870302)
(4.973751710720964 0.05116843047337958 -0.01129776886596784)
(4.31664396377794 -0.0559978771888197 0.3781223879922029)
(4.697729507681213 0.09058206815057551 0.133313760523702)
(4.221202061873039 0.3918931114845483 0.3812192380673953)
(4.967872192848835 0.08920504059771257 0.2868715498512786)
(4.615410658960428 0.1595843795951574 -0.1290653295852085)
(5.650627855444854 0.4630523330256092 0.1752022050193554)
(5.03963610224333 0.01795337325449001 0.06046357415285163)
(3.053217392270467 -0.04000787556794758 0.1231646301051724)
(4.891722075101746 0.01503035355297617 -0.09498252421200878)
(5.021723982385178 0.05231213326096906 0.02786514499977545)
(4.940695660805924 0.2266634195435927 -0.1202805544123859)
(4.968457548343522 0.1858948071727329 0.007875053927387916)
(4.988624110467124 0.002299795652514829 0.001524809666044642)
(4.961901419328566 -0.03604306508666278 0.0007242048919663478)
(4.91647871740784 0.1180546026714958 -0.0400656761840386)
(4.98072642474625 0.1207640211372813 -0.3640803388851062)
(3.093108173974748 -0.8221160674215828 -0.2377374303043419)
(4.190148435287163 0.1515422124233151 -0.02843552544374264)
(4.966396124088209 0.05802979717209046 0.004921426301150873)
(4.617996948351099 0.05155633275880334 -0.1904028062198289)
(4.999275020695348 -0.01925595761644268 0.04341264091811708)
(4.940419677160051 -0.0804292532983584 -0.01127565110180694)
(4.853875784126778 0.2407118076443396 0.04868531535741108)
(4.030886559261146 -0.6596729282425303 0.3331945203122358)
(5.077448771929913 -0.08365015167632313 -0.03742637179611318)
(4.976586373390715 0.07103765306826842 0.01916778887311589)
(5.044809988161963 0.006349002537054635 0.1429958548165482)
(4.542996228844379 -0.0374432062762422 0.05369375959894764)
(4.961907649818538 -0.01530437778203014 0.009446268223171843)
(5.018247471284188 0.1480014290104602 -0.1208620424359402)
(4.997654667285809 0.01040571831326274 0.004506312245294053)
(2.54287548522528 -0.1697173738380569 -0.07791763683935649)
(4.518451081012872 -0.2722774274359408 -0.4451199484933809)
(5.078759353524803 0.2006013929855383 0.3376074986531271)
(5.063259254147525 -0.01427620380470023 0.04727887150703866)
(4.909794832697735 0.1381629223729966 -0.03996914197651123)
(3.277871287364309 0.180600417427169 -0.007677453611142879)
(5.03659863236164 0.07625283634694216 -0.04062192669101041)
(5.048162186753836 0.07977619851611556 0.1097124394358135)
(4.34666525983029 0.2851186784062013 0.1366105942059485)
(4.968060500665298 0.002617503181153836 -0.0004145583721092455)
(3.986139568676541 0.2352349807440115 0.2781699694724488)
(5.075481415594814 -0.03121447606380139 0.0800562802897989)
(4.987356624988266 0.0158992983465 0.004784156685326069)
(5.178501156387646 -0.0187535432467402 -0.2075764763957841)
(4.352229761315158 -0.1202698678829329 -0.07641590806638734)
(4.987024939429697 0.07755613503118441 0.08909806595488007)
(4.331679623871121 0.1256783394850304 0.08403683165262903)
(5.055599654384181 0.02448067019633332 0.05876392017888751)
(4.997239589578185 0.04331218568438145 -0.04337705578523613)
(5.049688822704447 -0.02371240295963234 -0.04609990002574835)
(5.049013847369277 0.007478063470631992 -0.05547293788765691)
(4.99805319232674 0.01009626197574261 0.01520904679695861)
(3.589888169733048 -0.02979155017551754 -0.3196418807416044)
(4.911554267536232 0.07145951375246705 -0.2729653899175337)
(5.061052472434402 0.05837621906921034 0.03505284758429956)
(3.37217493327935 -0.2007738148572383 0.009851156441310519)
(5.033527641219719 0.1029102545973762 0.05906850119005149)
(4.505685365779661 -0.08893109572468932 -0.05350122392517768)
(4.902674935239925 0.2286051579407885 0.01775938510481786)
(4.30460293867407 0.478112611809461 0.02112873004020326)
(4.043513474666519 -0.2556609862115674 0.6821935713481702)
(4.927154998954063 0.1555365934335102 0.2742340972790791)
(3.033483947327335 0.1350255506265161 0.07683741049827598)
(4.390933172508876 -0.0714632225594521 -0.04678689397595732)
(5.070815143938669 0.1298692512930682 -0.09049831971688874)
(2.128333250655796 -0.1533744075344793 0.1718815914564973)
(4.996472041774985 0.09211775116067307 0.02981666628982133)
(5.076758839205393 0.08620316217355126 0.1482042615432221)
(4.269861633129422 0.1642279125478404 -0.0930810932223835)
(4.934617323515649 0.1770876835516771 0.03049939700498849)
(5.021548846605397 0.1336139524505241 0.03782529141068633)
(4.990517621465033 0.1689377382681121 0.1019156071189129)
(4.775494453385469 0.09093668594132716 0.2059430216241948)
(4.908661841119446 0.5925077629338766 -0.5269454202424603)
(4.465664783374876 -0.09190754485998959 -0.2234643166423847)
(4.986987491563347 -0.0450961091172856 -0.1070939186252327)
(5.029379970670996 0.1190551509945828 0.0692323220869117)
(5.008987787867585 0.006310826203613899 -0.001575295295767921)
(4.531810754021977 0.03929764681494828 -0.2942961539293104)
(4.990385450644864 0.01031618308932033 0.1881004017116065)
(1.34483040436555 -0.2724973074930141 -0.1617621430292354)
(5.075806862386093 0.08416769714819812 -0.153166840109782)
(3.11033850215072 0.1101409155293707 -0.3312748326878916)
(5.058757784699809 0.2095184664872227 0.017745691500518)
(4.993379537124736 0.009561012935259511 0.1206652547574917)
(2.87857272448031 -0.05079866145947252 -0.1266188021993157)
(2.51896780284308 -0.08947373079973427 0.0107814727171548)
(3.027903053523427 0.1426295473247143 -0.7973087734263462)
(4.284651074028501 -0.01949722894923994 -0.1914394463043169)
(4.975191605918394 -0.01821869590224743 0.04730895783488339)
(4.927668191821342 0.02006819240700111 -0.04732330543137023)
(4.993362354838418 0.1224101558477027 0.07946553031768687)
(5.013994078092555 0.06408623367469213 0.04226807987801938)
(4.930028930624985 -0.1028613610926157 -0.07136920932545664)
(4.991498618365133 0.1584681655220205 -0.01396462950617312)
(4.9869789093017 -0.008992931619637014 0.04905654026063592)
(5.019881417100282 0.07982839929545942 -0.04739679642011808)
(3.347660433034967 0.2483148993756541 -0.03582229158966767)
(5.002825466761082 -0.03521389386237598 -0.06388897858753358)
(4.871727111216441 -0.07638207583158114 0.1078709961681418)
(4.910958234490643 -0.04587311443588834 -0.06193758676221144)
(5.023546962660276 0.02403101825952138 0.1228348789067756)
(4.307027812071269 -0.2024662167181171 0.494068451951777)
(5.050736881556975 0.09995065473134195 -0.1491074817711661)
(4.613845659638084 0.01381610591374484 0.03925625425320519)
(5.026358963131065 0.05761579216839237 0.04051575081392771)
(5.034889098363011 0.1406209437950769 -0.02308853335623116)
(5.05588053981607 0.1108949958360656 0.0840598245465925)
(5.016159294740429 0.131180149584311 -0.01216335292702152)
(4.989285291180084 0.02491830726992012 0.00348515028610613)
(4.986866090289235 0.01285214349504221 0.01574008299972824)
(4.892994588332086 0.2481575363917578 -0.01978937480561447)
(4.995836045455918 0.1208356132523467 0.04896095363526056)
(4.96132101211937 0.03582035949201536 -0.06678049573965482)
(4.98482419104817 0.005215706556419023 0.002057941808961743)
(5.017069053791319 0.09734686855166844 -0.02586626952379782)
(4.085353711782161 0.301478199560405 0.288048072141422)
(4.670800158474387 0.1197419971133497 -0.1727382737528892)
(4.970454395509298 0.02456851516101991 0.02870647947376796)
(5.022928843970417 -0.002768960327823553 -0.03591551974684829)
(0.1493965739483005 2.470265286279211 4.019563099239062)
(5.01756847961989 0.07075870688521162 -0.003333808156989444)
(4.930842615896653 -0.02756032577052796 -0.01441083261425267)
(4.853931765110055 -0.05593706516147651 0.1629906410644788)
(4.962993620043023 0.034257648702406 -0.007389984745368861)
(4.453419445024157 0.2014834459526752 -0.1371003397436538)
(1.561860687846495 0.2248654897706656 -0.3014336757306293)
(4.965774425631967 0.1829151326906091 -0.0223191743745703)
(4.606967084471981 0.0998112312312681 0.09014854426254326)
(4.929526178590904 0.003774032100209746 0.006231867125926859)
(4.964221351585269 -0.009368459259672246 0.06448360025618143)
(2.543560064530494 0.1386530536628892 0.1713589917242566)
(2.532375107806076 -0.0726930811814356 0.3674877635679678)
(4.958778988190223 0.01770046222543157 -0.05383074825664037)
(1.946958091206052 0.03330361866474853 0.07427719058866138)
(4.992131827628805 -0.001973331894205084 0.02094656993883984)
(4.998487696556431 -0.03901590710978612 0.09363437373724842)
(4.944078859680896 0.2691409754466778 0.03071988139045776)
(4.99538447120679 -0.001197266852159436 0.00269438381200011)
(2.306789920659995 0.1546712211558917 -0.05034335432085488)
(4.944385132145828 0.1988151011861774 -0.01000495847993859)
(1.822674610517199 -0.1039975452010271 -0.1665816371216082)
(5.067512583272008 -0.05968025790059433 0.09485857423199008)
(4.95084581989174 0.01824701598696892 -0.04747738728143726)
(4.165987725359449 -0.0915266020437035 -0.1405983310011051)
(4.978624093303139 0.2078885305083751 0.09227090353986109)
(2.011031627645921 -0.1408616847647456 0.02559497969705023)
(4.425219920582629 0.004016022754889975 -0.01445863621432897)
(4.741631246849296 -0.04482520826371183 0.1122991353743138)
(4.770219934676238 -0.1481935296648217 -0.0297847740778504)
(4.971006118956936 0.1923583572294608 0.1083277760883061)
(4.910347771753404 0.3600490098716508 0.6608120674614396)
(4.983181934580462 0.09828788654251346 -0.0246891449867416)
(3.940525431950215 -0.03896006883003972 -0.01124615670535144)
(4.952356209429473 0.3044982494487087 0.0230168344493435)
(4.979484141680474 0.01578044001297226 -0.008155051233233993)
(4.951953199382785 0.09674800043117832 0.006190953502922103)
(4.976922053389026 -0.0373395132672712 0.2078837768698529)
(3.924109563171318 -0.1996992450371042 -1.554847912797331)
(5.014914655386183 0.01654149704777736 -0.02016825903287267)
(5.068615688888173 0.1533369735927281 0.09223625603444764)
(2.137130579866491 0.05083410326514727 0.1159903299338062)
(4.202831076218191 -0.1026925064214916 0.005622322009600987)
(4.982826604712557 0.004217911096164171 -0.0149694627564328)
(4.906524580144219 0.07094125132901004 0.2254076659948147)
(4.814526871832693 0.07688389210106837 -0.5305036136808703)
(5.012015069486123 0.04053377844282079 0.003298453224292193)
(4.372918870708641 -0.1457906856482756 -0.3233729919199664)
(4.201653077700775 -0.1899962955304561 -0.1285344807100865)
(4.373899474947097 0.4482370102745241 -0.09888187650469114)
(5.067181636799624 0.04893840268608081 -0.1126475305048995)
(5.148160683047082 0.1200386300859973 -0.3108241803376828)
(4.97497030453161 0.0726542762484154 0.04582141269739969)
(1.63865606088365 0.20017763954422 0.01021320898227546)
(2.148104459925295 0.04897030870266359 -0.1122402656302104)
(4.397866218782844 0.1037434394211217 -0.279615125465745)
(4.992295913842396 0.03901863797728139 0.03593764579573577)
(4.670788096694242 0.3789066357520912 -0.154004377894197)
(5.01092563872155 -0.005934168469543493 0.003627525411449454)
(4.106527374012496 -0.1153867743864001 -0.03130125447475587)
(4.832014332596903 0.1035492271172073 -0.1150370585274037)
(4.868557557391588 0.2160298244527653 -0.1133098623682386)
(5.021562671815169 0.0808378466377082 0.1609731264362264)
(4.695666547152672 0.3527573630509944 -0.3141539754306192)
(4.673484898084212 0.09266697912976164 -0.06788621478031671)
(4.9612567167095 0.05627631809560295 0.09221471224682021)