/*--------------------------------*- C++ -*----------------------------------*\
| =========                 |                                                 |
| \\      /  F ield         | OpenFOAM: The Open Source CFD Toolbox           |
|  \\    /   O peration     | Version:  v1906                                 |
|   \\  /    A nd           | Web:      www.OpenFOAM.com                      |
|    \\/     M anipulation  |                                                 |
\*---------------------------------------------------------------------------*/
FoamFile
{
    version     2.0;
    format      ascii;
    class       volScalarField;
    location    "1";
    object      p;
}
// * * * * * * * * * * * * * * * * * * * * * * * * * * * * * * * * * * * * * //

dimensions      [0 2 -2 0 0 0 0];


internalField   nonuniform List<scalar> 
19632
(
0.0465562225629207
0.01025599734084883
0.001289421253535971
0.003296921471708435
0.005086572083887283
0.03297390304557125
0.02926558425486175
0.05296254194081283
0.06205868575104168
0.05360730003572874
0.01454819262457905
0.03380094867066573
0.05991770517206121
0.003668448390003878
0.007992460447262581
0.02100044769056898
0.00796770280839406
0.007720085228332448
0.003516914536157864
0.05854516204512752
0.05089044272057884
0.0670085626156193
0.05255836537149996
0.00709997734415632
0.01791949890322738
0.06114435566686416
0.0437548259971885
0.006974863572926589
0.006976345535167923
0.003201685836643811
-0.004077027821507839
0.006580147227012857
0.01228172568636564
0.01385561049964565
0.004849653494109291
0.01636572621639696
0.04288005421602789
0.007078091812583227
0.05780081200517098
0.009773682494157101
0.02737809410111038
0.07053595154468928
0.03939652622763898
0.02230438087594854
0.004548435399773027
0.05492144819204138
0.01313629986284837
0.05589151704704637
0.008210359773029531
0.001465750640735212
0.0559123771446767
0.005607819616118438
0.01616024421626719
0.05098286455295673
0.02661586809727037
0.01258903989694908
0.05110002378295399
0.0003826091837678339
0.0512427663122799
0.007906377272355394
0.005615324952428158
0.003083302716651933
0.004793556187161587
0.01654757353382394
0.02297531856544291
0.002207073985667729
0.0240726992404061
0.008372726292598309
0.0120702669836049
0.04036007581566059
0.009903655073111785
0.06645741358850417
0.09707312904300855
0.05937493568133937
-0.001787903783374759
0.01595561193655349
0.006819561308991856
0.03343186654086286
0.027648282445524
0.02839544199393905
0.06608215913889148
1.551212199053822e-05
0.04915575865866442
0.01758956743233772
0.03682945113328445
0.04341648034280845
0.01224445885867069
0.0122668389230614
0.1357890620795423
0.009846651178766482
0.06274520138637558
0.06412040174390829
0.04879526118182988
0.00192703111736789
0.05566295263762762
0.05945261928233192
0.02042830543100232
0.007074103060507841
0.03192980643247832
0.01130178601186041
0.005199284092656245
0.001863148997933197
0.002979174434367891
0.004986177825145517
0.08810496829201292
0.0151833280808632
0.007994044234115651
0.05285331006303454
0.03627139990504281
0.009411004016977236
0.05007845288706694
0.04664176465239417
0.02061979188905354
0.0457263243789054
0.04242484606911125
0.06918300411914814
0.04653690177691268
0.04908987967136499
0.02954747587069382
0.0650818954379721
0.07032595046528267
0.06173936063617578
0.005111356195606292
0.04226822541908171
0.03441198650765752
0.0175186586205779
0.07411030046377015
0.008081874571796731
0.0007483981239386784
0.07190821558765313
0.08852217694398208
0.003830049968875638
0.01563313866011457
0.004552060524890084
0.001020860624284628
-0.001188391028636515
0.03632178150105524
0.006251641125293291
0.002193489855560215
0.01223564917895565
0.001473438294461899
0.07608866505741414
-0.001229838338446385
-0.0878798529336262
0.003415396062401277
0.07625389340462994
-0.002601571744266048
0.05224930772893784
0.008893576394946126
0.01905757534783676
0.008129118937782421
0.03020322530887473
0.0237360090502745
-5.87218895581263e-05
0.01753155551298151
0.04966591503488448
0.05284243659197884
0.05197271001755378
0.07704166269424867
-0.0004378158558761792
0.04041111829275758
0.03297557359286117
0.0344947836806923
0.04949019701326432
0.025450911243827
0.06493515775382735
0.001718231556556761
0.04492066592929661
-0.004506886469070826
0.06006475496209733
0.006309697614784982
0.05054162950854699
0.01500930710653766
0.008047697845896205
0.01282388359792213
0.04634677705054914
0.04188263775916545
0.001200270568837723
0.08127033655201422
0.01485580457479112
-0.002196013716460212
-0.002796312078181437
0.01045001451486781
0.06682687630934711
0.02117087399755433
-0.003157246071982498
-0.003452849520281489
0.003517002006023846
0.08935563563758306
0.003679248425406883
0.1097800323164632
0.02094707796946522
0.0106768066747811
0.006358563118086384
0.0003362381732484476
0.003963262878160042
-0.002325484538608156
0.007364014597387499
0.002645789222320329
-0.001380768459759528
0.001081421158210754
0.004177403844886147
-0.003845566938297591
0.03097741538613874
-0.005912687987471584
0.005313374075535944
0.4821185903464766
0.01779698653756177
0.0416503085108742
-0.0001411514851719198
0.03168720413882795
0.01240791298184997
-0.0009820001949455148
0.01707345912849731
0.01430292927858024
0.006859079799816707
0.007660495916404261
0.003766591492939254
0.04495558024301528
0.01868513829667387
0.005253764859441089
0.005504660413057516
0.007156497862325007
-9.633044251837024e-05
0.010074585579574
0.0008588913772218958
0.04207531748679071
0.007625298873739348
0.04502381467719779
0.007636968027398918
0.01733771705828882
-0.005385129335425067
-0.001658354509973753
0.01814502891512634
0.002910210759033228
0.01161085191892438
0.007944484820244523
0.01585181376297432
0.006904839791592884
0.001450144388678999
-0.006589679093264324
0.001658621369008425
0.5501815410366189
0.009265077715204734
0.006485509484897982
0.004213777819463342
0.01014227643726591
0.008422067312515784
0.018225522499759
0.05799032031753341
-0.000887911635908961
0.07282989450471844
0.007848578847120766
0.006689303256147239
-0.00191835310068653
0.005489713888935337
0.007674568760713413
0.01511314594209218
0.04055384170372831
0.01019935071606926
0.009021236557437922
0.08585499282735604
0.01607428967621029
0.06391955076689008
0.01779216667053387
0.03171885518814203
0.01557108256628998
0.06810014949527947
-0.002132399255059509
0.04506371523517029
0.01864673745700408
0.07136434553021095
-0.0004117979376726761
0.0250360480190665
0.08542469928138477
0.05770991654991926
-0.0009753457100575551
-0.00160764564423916
0.05681354488435428
0.06372125684415042
0.06475707813557494
0.03342623906979757
0.003364595216212869
0.009595743645890881
-0.001385634578718188
0.002275695110586634
0.03022259056485375
-0.001373089172033235
-0.004805291914189661
0.005524555091525747
0.00225616925393294
0.004999800035961326
0.05898829407481695
0.003399354361395097
0.00170034683016225
0.02743013592526336
0.000961219468644522
0.109197078963278
0.03740213354436101
-0.003906609078384364
0.02406847893316728
0.1443718497836241
0.003115675737337785
-0.001990261731551551
0.01384535623868255
0.0361107385502589
-0.003620001313038702
0.05867501442934106
0.03526499136618667
0.0268679721244161
0.05242163738494956
0.07303046090776943
0.01028767746339412
0.06261351754335084
0.01000717773908933
-0.002845518019977551
0.05699462176231914
0.03602756465886918
0.06941937615202798
0.04705733300611359
0.0271083372563579
0.04611601960776855
0.046369664819915
0.0415333975130607
0.02449900396471989
0.020991029907076
0.02417169888398714
0.003410448132269934
0.0009141003601815872
0.01776450551572294
0.001372980510568485
0.0106837428251172
0.0485037434907904
0.04889345168623641
0.003460785768322522
0.05085477875747624
0.004629082755310902
0.08369740781130774
0.003406996197595036
0.01250748836055652
0.04950637391230772
0.004263407118023484
0.01185654363931323
0.04326293013341143
0.04698503958415488
0.05967316344420596
0.000517467019260376
0.03192175951443008
0.0009494193070008212
0.00031199260357746
0.003260245788198205
0.01450164029975321
0.0007700857650603493
0.004065998898196755
0.02481392994972804
0.01055074484230805
0.0008402638406179884
0.01002127864104449
0.04523082778708919
-0.0007433372625376166
0.002951722012193044
0.00519331883419964
0.01324541229401513
0.008339880166997198
0.0002779503644962235
0.001752541195269348
0.009317360146848742
0.01791564749582195
0.01548243640381263
0.006497756663409975
0.003744824468700024
0.003417988307032254
0.003147796655468057
0.002291363760249948
0.002229470449188442
0.01005722775498426
0.00379487391173085
0.006465293702005278
0.00297169405317375
0.00191127704851558
0.03678588205578613
0.008480380201554068
0.003663108479040631
0.01530334032818529
0.004213592328454729
0.0196643230877329
0.009053316976940838
0.01851698323148033
0.122818875689749
0.05030823768842398
0.00640837078425027
-0.001670980891603339
0.02798195642824544
0.006421372307271175
0.008937184062389908
0.002308412441681189
0.01027555407558412
0.09111690612515466
0.007552016844182731
0.02529986006479678
0.005385993297875364
0.0032882025307943
0.004416484604093598
0.004452209271323344
0.003537009450723445
0.003206868636136562
0.02377761620466471
0.006046323211408395
0.01479126820719494
0.02879008342024979
0.0321809594086804
0.002761921225416423
0.004795116548307757
0.01446887466852341
0.001965480442494557
0.01603938497176709
0.01562969234796109
0.00579309875568845
0.02435807386278259
0.01271156899507479
0.001683433063611079
0.0117683179969534
0.002805431799543158
0.01601780981616757
-0.004897114589759002
0.005094334891159399
0.04911666179853463
0.01512227246664364
0.01107284442983607
0.01048660497909785
0.02853906732814821
0.01286483761549503
0.01766880086503009
0.04232255184276282
0.03223205666510554
0.03913733510203758
-0.006655775265295364
0.02301195235374835
-0.004049392052300696
0.01243112733244109
0.001649661596307521
0.006193656045427797
0.003459011648676328
0.01130792376220447
0.01147859332831117
-0.005762071391016692
0.01320310215953068
0.001753999148945294
0.006187698275339356
0.003186097433703178
0.0005248129275134855
0.009403451272105633
0.006456816655149471
0.0008682135562298081
0.01301722193410015
0.01456899625876462
0.03025427406262845
0.001895610486524315
0.0002393496574117372
0.00982836446468068
0.11692931356042
0.00820352475653853
0.006800587072165912
0.01968651962003427
0.03337857105865957
0.0004847084492628418
0.003760772567962488
0.005710608109563046
0.01259270595702641
0.031117731146867
0.01785653016897634
0.02918919920471712
0.03490547445245387
0.01347542518829305
0.01964639597324511
0.0237467300390184
0.02148136141384695
0.03342094774572619
0.002004545898788131
0.009385459307531287
0.01601344784002699
0.008894709525568983
0.02344289316705351
0.005184626512811483
0.00679740023341462
0.002376537145738297
0.003828776533920544
0.01782071754595008
0.01657097660135973
0.006855286311322898
0.008782659145937221
0.01722979100311647
0.05282537705560528
0.05119617770024974
-0.0003284505645235058
0.05203306183985437
0.004343616936150092
0.002911091513589894
0.002663515433460243
0.05113913220940148
0.114565284607086
0.004725247906588128
0.02474005018396997
0.02095373846402811
0.007564945496926294
0.001828201033380512
0.005908413889153132
0.02392773602826577
0.004161231358092256
0.02188244258392126
0.02062353163514424
0.01879821134957387
0.003410219906114683
0.009094537367551765
0.001487912791517554
0.04828722155801753
0.008919668407934532
0.02040248918585681
0.02267721376880245
0.003747024435908945
0.005698288961734356
0.003840863289495723
0.005743272314454164
0.009323573018907896
0.003394466353708325
0.001540898786341256
0.0161958297301865
-0.1059535175431098
0.01616749076395557
0.004409178190368514
0.06032710882688234
0.01210479394872654
0.01144404469447986
0.03615970823462871
0.01389146763108204
0.01672016777913075
0.01859644307288502
0.02120232082352605
0.1098506553361043
0.0222595096980483
0.03246658327413091
0.01086402797500565
0.01777872252836041
0.02896844523665978
0.005290267998730554
0.0315361817120911
0.03096956891030319
0.03893087106928241
0.03717379551606932
0.02922023981126232
0.03448126562416751
0.01731040876439773
0.01977676747384227
0.03354115796881153
0.02165745816007655
0.01358090072254479
0.00690349688582933
0.0267169116874961
0.02779568511217189
0.02811517477281838
0.02555794978420021
0.03757287840960275
0.008416384695965118
0.01262593537716379
0.01090888479267389
-0.00459498426128068
0.009827532656051803
0.008482408921321589
0.00769646227059414
0.009080715617227991
0.01038518177945569
0.01538616521921554
0.01017623286206171
0.007098622893887765
0.008910026940531125
0.003949287421859076
0.00994676521449314
0.009454598506257619
0.009558590296789422
0.01060667465474384
0.01230695576187429
-0.05158597979607048
0.003772933379444648
0.01149669307683101
0.01987741796583283
-0.0005881437731087757
0.01175961943943287
0.00482662646338452
0.01998510530160993
0.02307434725192585
0.004398076431244314
0.02139696077171823
0.002492365902906312
0.003663760508957234
0.008477676898688523
-0.009279307151349198
0.02195906938115859
0.1126515097676642
0.009006033518773784
0.009451546466388402
0.007864741379804484
0.007337960152200801
0.007065112756580147
0.008590201069331662
0.05034281026348166
0.003675162009840797
-0.0005726123963924585
0.03837775632598596
0.00582834496352975
0.06289759243899287
0.008348403475562918
0.1394026681437983
0.0673206864237887
0.007523204191408679
0.03254615183663035
0.001566865414179942
0.009955379470875148
0.01170728940832205
0.008744617108893028
0.003092852008669703
0.01579360648150748
0.001307071097178014
0.001057543283637643
0.00125714446371157
0.002383715350440435
0.04926507129190662
-0.0008592257147392483
0.02338626357759541
-0.0004933994132918882
0.01047168116515791
0.009110471052833524
0.009503635661616189
0.01146431193687607
-0.001245222238408053
-0.0006058125918399056
0.003282536121484107
0.01473094579689184
0.0706041677623076
0.08650412144201149
0.110733317727314
0.002694815003472075
-0.0009643746224473213
0.02331402857100778
-0.000966376620124451
0.01808548593258404
-0.0004004709386313221
-0.0009957646877422201
-0.0009970254592631988
-0.0002439306669832734
-0.0007549222890625024
0.03018001277344886
0.005300552866083556
0.005490992260109118
0.06322006221697832
0.05299700477289217
0.005361957454565513
0.006257289642431363
0.00317749367800623
0.006587564078106264
0.006588692699133123
0.00631258792304239
0.00597435397655056
0.006567236706389409
0.01353645452845061
0.003547652642035344
0.06351217672159792
0.00718311436965893
0.0002280276380268944
0.01629180856336575
-0.0009404477083912318
-0.002730847382670795
-0.002453717115361176
0.02466441320025356
0.007073965659482819
0.03190261254537329
0.007391413574013811
0.007788014545520334
0.007958342150983259
0.02034491294600124
0.002657025793813389
0.002957226932521694
0.007370767289608696
0.04067050114242801
-0.008829886796118182
0.01106102187632448
0.004248898552461175
0.01704400777855474
0.01015354593111168
0.01126822098172611
0.009163332547994403
0.01011130770098748
0.04424926964352058
0.007507704390248064
-0.007651353707092893
0.009828518111191113
0.009103983871195041
0.001216029400485366
0.002413405308486337
0.009379908586077233
0.009642294940646359
0.01108972948835311
0.05087367226310018
0.01215247919008678
0.01016217942515474
0.009562788301145347
0.008942603526130894
0.00887975614733692
0.03351160689991062
0.09423697191093758
0.07557191373751813
0.01677004006050931
0.02644138631910757
0.004128643825779335
0.003656671514279462
0.005607664204103104
-0.001985671495241803
0.04074490215530498
0.007531525758274504
0.04386598360301824
0.00885176158833354
0.06040243214536894
0.01939648444029255
0.002980396548093074
0.005660218886171194
0.02057754761673121
0.02955570504918
0.001386601017892338
0.03256242625145994
0.01784626844116586
0.05266695691827562
0.002679205696281663
-0.004670103786116602
0.007018663235980904
0.02439106125499767
0.002291527822465548
-0.002455948334874462
0.007806812745662888
0.008637554934457349
0.01373164314256565
0.005521874062409306
0.04252766380334316
0.0004300235658705394
0.003824805918168633
0.01188119363588767
0.01079885907999261
-0.002148144918974187
0.01112729558177484
0.009246150287903328
0.02256162922643703
0.009341319752908517
0.008020054277086486
0.004984734538938428
0.0009665492777364139
-0.007216403448259156
0.007498311720231956
0.004265156319395196
0.008702627611458047
-0.001681244118790646
0.003391512961536359
0.1066120067247057
0.007879696728218415
0.009937293317226713
0.002404890224451523
0.03528508999004482
0.008405341045066272
0.008948297812577489
0.03888815071431181
0.006557693145433531
-0.002592663293700796
0.01088708386123547
0.04465059399811163
0.0294622366651368
-0.0007767558921701796
-0.0009846025698616253
-0.001748797012793282
0.01382802444426258
0.00428604252714901
0.00287709029734581
0.003279751703679537
0.003430562290446558
0.04810325406031133
0.001972582510700247
0.001738768407190723
0.00698503472199022
0.1697682564035244
0.03174147137195571
0.04460963644462151
-0.007182269161267581
0.03994621598395209
0.0483511540760021
0.00920364187706693
0.1682660913770676
0.03642194234703514
0.052147973312321
0.04498914405164913
0.002003385869496871
0.007606695820307202
0.004766046979873996
0.04537435073931318
0.07042153940748944
0.07640171263018397
0.05144841018236422
0.09103415639453005
0.01486233798354911
0.008519451703513472
0.008086751392965741
0.01220230147506202
0.0171186355172968
0.01882884112132512
0.009665547486387916
0.01784927812724406
0.009197201209640288
0.2191008675082107
0.004930226441364934
-0.02192677132212059
0.00655185646117471
0.02461860177570123
0.007333547599744935
0.006251504328021084
0.04973146227139081
0.03579112081094175
0.006185964598632199
-0.03203499054122947
-0.01586480786183418
0.004155402448616345
0.03888622787498467
-0.02054876791787646
0.004571006840724718
-0.02551225661281909
0.1158057118767944
0.06088699604367123
0.000319169314690548
0.05872655777865941
0.08155574697241207
-0.002626999487267368
0.005161062462726696
-0.0008917350372424296
0.04023181077067908
0.009900511693329063
0.02635401847441147
0.002505890954587806
0.1359601544000852
0.024951273795454
0.06055407982615736
-0.001832105340349841
-0.002298711634337417
-0.0005428947764424258
-0.001203102121471693
-0.001582262721525411
0.1436878928801061
0.006587078474553593
0.001990774957019181
0.004918377580921567
0.007129052847383181
0.003486665659635396
0.01812775255772607
0.001972870844268215
0.009733173575020453
0.01066680431316563
0.05401485177127424
0.009467090526887663
0.09422252633552707
0.05180374967339892
0.1718044077373672
0.07371907347871934
0.01928481552279563
-0.0008949895074245495
0.0047637538159061
0.04249168762711714
0.01365413856273954
0.02631427148423795
0.01180944451967961
0.03447369046210245
0.03128741125444022
0.03454259683005715
0.02406119211782886
0.006165859237957668
0.04710837798747287
0.02787382407675413
0.03741840435502728
0.03274736198628327
0.01750701969351781
0.04142259227800269
0.009422227490501204
0.008315493283130733
0.0001714569375117875
0.03331601908563219
0.04849156611439868
-0.0006187150297109139
0.0299534860270239
0.02847564090824019
0.008039585469148349
0.08516038968773848
0.03520501804610603
0.01377550078148417
0.003942916304199372
0.007527248989715662
0.000786638889255904
0.001398679162839708
0.002640614526818979
0.002611983009582426
0.00320280793078552
0.003066497769302508
-0.01194165372543863
0.04706734933403218
0.04741397833926403
0.01644797240768146
0.08735070755897631
0.1560094140787532
0.05878231285533887
0.04399121386875311
-0.0004784827657017021
-0.0001558890256852531
0.008891181448534355
0.004395455450848599
0.04262635194788184
0.004424168224721687
0.004768174278958689
0.00829964420422509
0.008533749676105325
0.007441069679312123
0.006378249538872308
0.008596168253932626
0.005855948496406583
0.03611748571105586
0.005026963831520209
0.05446226137323353
0.1245880817380099
0.006088382366626256
0.09770373677377944
0.04927116915553874
0.01213329996253298
0.001267092839021464
0.006740591292097141
0.006251068816227051
0.00498382078630889
0.005838551301963972
0.009024572390421946
0.005691123758879742
0.005043815084258934
0.002923086983073585
0.00161680478014438
-0.005949391344225899
0.004178208604875148
0.01287294955110594
0.05907827990645689
0.004989435886000504
0.03756134140612453
0.05807255099623478
0.005186896703002984
0.03273899627651333
0.06986555236549376
0.00781904235645405
0.005189603539898431
0.002732675633507736
0.004013137882437442
0.005601445301803248
0.02337052538545009
0.006260677117420172
0.005294735500538123
0.006797516727921886
0.004422656739199746
0.006556305837637944
0.05257828111709362
0.004322247774477174
0.008848667453083018
0.06726979759206167
0.004079905799695784
0.004152980558513496
0.005727781258397867
-0.01877630418523384
0.004699967938448442
0.004069727817951761
0.003795563156842722
0.05246630580261519
0.0464787476305636
0.05293831793455681
0.05600348216338168
0.005664178651295172
0.04815074968989075
0.006149974243778898
0.05085407908660097
-0.0103053566951327
0.0570978234158679
0.04217470865720941
0.0365793909853356
-0.003567099380112779
0.04235162677424109
0.05845702383209
0.040756059038714
0.0496045917315215
4.880934249861564e-05
-0.001201530930332524
0.000574693749515369
0.003159285974697308
0.0002135594917668608
-0.002025253577475303
0.0007825300178542516
0.002389073902258596
0.01722687415813723
0.02619606143931502
0.005769742139180586
0.02968160965813502
0.03366065567065275
0.0299180955236352
0.003573262003649813
0.03853077738194199
0.005995787753481399
0.02850484738755889
0.002783011699963694
0.003249822142648327
0.03417168588878094
0.0295398472580325
0.01015697059601092
-0.0005077068152696647
-0.001429318484927467
0.07469112158503603
0.02792431114561972
0.1324603897782278
-0.009431855975899109
0.002445303030366015
0.006137361231691642
0.009282589585436762
0.01160129996963435
-0.05264833243084871
0.00499321807178597
0.02510248463580851
-0.002553254740073247
0.03374971595232523
-0.04196196810843466
0.02573502634245766
-0.003812966527629247
0.00642930394396755
0.006279200069388447
0.01531389141625389
0.01740483404061131
0.01228286151560051
0.03494650305148717
0.06227392275929698
0.04208671857571587
0.04120249211770814
0.009345128010212436
0.04908943068932103
-0.001271308877020661
0.005439066930391731
0.008762782043373314
0.007737439200882973
0.02631216951063372
0.005151076508720963
0.006551189962671608
0.01778866100225492
0.01912917329516767
0.01703563804776308
0.0182178444912662
0.01754851782191372
0.0196501777927402
0.01957377553619035
-0.005601357532316353
0.024486160438643
0.02646074744076543
0.02324984267298199
0.03430480206545124
0.03531731201635922
0.03411613637421705
0.03231669462315449
0.03156186467708892
0.04745256522284499
0.003657985087020098
0.01900987709427813
0.06313292219867225
0.003962436133892522
0.00339148683738778
0.003363430951030425
0.04602110494031348
0.08110059780691078
0.004360285988624873
0.00423476692151665
0.006798658626324514
0.008514329650752758
0.004041106113178342
0.01452943836277243
0.02102258260657644
0.02083534248676789
0.01385012106205453
0.01256291848698213
-0.00347352567566068
0.01898486921881927
0.02343383220542738
0.01321089552440817
0.01419932462651414
0.00126795389154436
0.04622885846512061
0.04958097126215466
0.04394453121231564
0.04424996754911858
0.001291328830996797
0.001692353463855277
0.01026755070236529
0.001352937527238281
0.001994139466094863
-0.008058377853664575
0.003391896843109396
0.02244477016491407
0.003051375330765654
0.0003195835378952978
-6.959287783786306e-06
0.002579044116456858
0.004286462817285788
0.002823088852196429
0.01251050723423249
0.01237428829599593
0.01247466010671404
0.03841104934325966
0.01230456675050894
0.01365249246192882
0.01364402882242819
0.01213748204055181
0.01308011794763675
0.01390642715543048
0.01234797853172578
0.002389069028845259
0.003076424267008804
0.002087169129744418
0.0007934855019817085
0.0007436449545127299
0.0009743129713487082
0.01746728805504084
0.06371066021378337
0.01819547218750575
-0.002455272064039196
0.01562183483324366
0.01593786591002462
0.01667454428505007
0.01733948661331971
0.01432131981544546
0.01475149878672976
0.01342923357857688
0.02317391459630954
0.004117387132591899
0.01600276418518024
0.06429643816051843
0.01604006390181872
0.02407297496029718
0.02070627281355652
0.01951711520293493
0.05884612358925317
0.02466812570306915
0.008212089730403152
0.01615805684134963
0.007460300286067805
0.06228372558915397
0.0343503123000914
0.02022959913621566
0.03764353726318388
0.03052508589501849
0.01683826347122926
0.03174741661204713
0.0502467538754996
0.05248638941260515
0.050963920123447
0.04951957770352817
0.05014576745611641
0.01882236528546805
0.04732202330739275
0.04426339741753033
0.00238251719310195
0.001645755356366315
0.001687953950125888
0.002087351186733298
0.002130380611248823
0.005243132013158333
0.004502870429040552
0.00267283615203828
0.01434918354767101
0.1623426156464268
0.01518897900547331
0.007978287045588811
0.0138475238539598
0.0107810091288071
0.01261710131827916
0.002635731681953241
-0.003280666417275784
0.01182596028399413
0.01217769531770585
0.01090573690371698
0.01384282038527577
0.01333782623252119
0.01019779388553628
0.01023424635380864
0.01603116593788673
0.03580382937340473
0.03488789803555989
0.002253965711113109
0.02136280385348112
0.05603221348588077
0.03811204726622672
0.04796248834908166
0.03958903773962445
0.04398125958023565
0.04812886928315836
0.0517153953413377
0.0647783263398275
0.01241801132186053
0.01387655434225067
0.01343908330985167
0.01142188800710925
0.01221384194319092
0.0162220468836913
0.01012059218454319
0.01105226480102765
0.04506796816735045
0.04476093048903392
0.0440377111710455
0.04107846458046038
0.03932905438008828
-0.001414748422919765
0.04187026200598645
0.04347006093871152
0.02522370765376979
0.02479945268529469
0.02928262345883324
0.0452591756611545
0.03993859004133415
0.036328900016594
-0.006918026553446113
0.03951005307484502
0.04010382609628966
0.03913586914048722
0.0466843550085074
0.04684626869400726
0.03718750348583623
0.04170899644977516
0.04851091277936554
-0.007938216354368834
-0.006594533205806226
-0.01116138682918658
0.01268433849582079
0.005429166794398157
0.0004563267110049415
0.005939885212439578
0.006150654939903729
0.008430631268131416
0.009665993908261766
0.01020548918694161
0.01030111413007393
0.006520914860453367
0.01461058986830089
0.00714710326218065
0.008490910072030018
0.006058281086762076
0.006828005570596083
0.005661333960566249
0.07737598229422318
0.02835880502310963
-0.0005443339050551671
0.04351760856502393
0.006684764146067294
0.1062614511262554
0.01946175834931688
0.2437436065668556
0.02851880084842459
0.02161132886238137
0.02951324464468801
0.008233794369040924
0.007418965241180451
0.01673803673637596
-0.002403623353668553
0.04656640157742676
0.003516125696037893
0.01549975132964683
0.01195543731257438
0.009989567776378855
0.009336369418665212
0.009941532464335871
0.008896627797668342
0.0100453269206632
0.03633222409535089
0.03931404042096944
0.03862343637212702
0.01490412504101797
0.01621269515544731
0.01655275870396188
0.01989619752449406
0.01951170308796212
0.02042223969845219
0.01863181339185955
0.0206473920643398
0.02133219108787443
0.01509145716166143
0.01555197571990589
0.01655128031870465
0.01500834003312839
0.01367318725179906
0.01017756101221309
0.01092710094053542
0.006235642455013936
0.005666797743478702
-0.002235131071900132
0.008819534480626277
0.008804219415506492
0.01035274200513888
0.009072522101378067
0.01000030399888729
0.01058224462914739
0.02512090959696861
0.02161308350909355
0.02287011172317262
0.005265734145663145
0.03007047034975434
0.03406513839911675
0.03498415326295497
0.03583731879561849
0.01756901423679194
0.01561055646570507
0.0177510788179857
0.01953539998377156
0.02018826664239057
0.01979597970296765
-0.0007179597197688458
0.005851473369677768
0.006786424425477344
0.008638177041610493
0.001133761633491705
0.001080234293813534
-0.0001785933689743752
0.0004101039130461268
-0.0002116317463474723
0.001082116039590236
0.02208790454587918
0.01765877337607459
0.01765353051963485
0.01742290264705777
0.01744790776316328
0.01757921500796174
0.01911285729345083
-0.09552108243142718
-0.001723946369388945
-0.0004188132569815475
0.01123468975801331
0.01538723832563027
0.01421841182996493
0.008008847589208336
0.007536539235159469
0.01874838244699133
-0.01001707121967757
0.0157047941348372
0.01597305343736106
0.01009459005121472
0.01366522564282486
0.01147908358666354
0.01320221813232583
0.01353758524532901
0.00679771905941643
0.005633376029033234
0.005801523991717638
0.007587457615661157
0.006908595636125874
0.009426541102057059
0.006744496572380451
0.005969788180029572
0.001290033468359083
0.005732183903639576
0.004522775573750433
0.006201379388108577
0.007452174797374222
0.003384536528256072
0.0126747063364965
0.009402806800214139
0.008736358158525942
1.958175201354602e-06
0.02397814574776394
-0.0003829123789864807
0.001036404640693349
0.00218091869328934
0.003414474330767631
0.003292533553932816
0.0008740440955855435
6.704997246057082e-05
0.04392514658446785
0.007032042597869333
0.006546495746321991
0.006235380489977717
0.005046975666529605
0.005707938601419645
0.00291831009562391
-0.001485732417666579
-0.00320849500510542
-0.003965222521802504
-0.002266431446280763
0.002389716070047599
-0.0005888469391745792
-0.006197352509895416
-0.01086264466887837
-0.006142749769807621
0.0068530070880982
0.008969560199893794
0.009094219443386802
0.008327112393935699
0.007685488682902175
0.007698536207650638
0.0003674325403261146
-0.001282679417168071
0.0009500580136921554
0.000513930880053065
0.02547948808293929
-0.0008700413646742918
0.0003171057992409177
0.0003399868673106406
-0.0008699036425887659
0.0004070801833664949
-0.0008566693605984544
-0.0002781637560306925
-0.002136683426357773
-0.003042326563024888
-0.006946041479778071
-0.003494061511417412
-0.004908718426891179
0.003220376964808989
0.04545714932648885
-0.006171202430712163
-0.002808529215119369