/*--------------------------------*- C++ -*----------------------------------*\
| =========                 |                                                 |
| \\      /  F ield         | OpenFOAM: The Open Source CFD Toolbox           |
|  \\    /   O peration     | Version:  v1906                                 |
|   \\  /    A nd           | Web:      www.OpenFOAM.com                      |
|    \\/     M anipulation  |                                                 |
\*---------------------------------------------------------------------------*/
FoamFile
{
    version     2.0;
    format      ascii;
    class       volVectorField;
    location    "1";
    object      U;
}
// * * * * * * * * * * * * * * * * * * * * * * * * * * * * * * * * * * * * * //

dimensions      [0 1 -1 0 0 0 0];


internalField   nonuniform List<vector> 
19632
(
(5.01252123531214 0.01938804970864041 0.00759270773952535)
(5.000099947449766 0.000428317773746993 -2.831597676354719e-05)
(5.000453806139759 -3.856950884062806e-05 -2.393174494873736e-05)
(5.000354995471392 -0.001362681863007454 0.002362525194701984)
(5.000079043987801 0.0008629332440256016 -0.000104323555553501)
(4.997983028951249 -0.003432846517673324 0.005084447833991797)
(4.998627309827105 0.01070416936212563 -0.001743511058771354)
(5.004206798394505 0.003070317593974105 0.002370940874844793)
(5.007202207044615 0.006321113170224706 0.003681565370265466)
(5.008163750291156 0.002530133041025383 0.001988136253939469)
(4.999658179716454 0.00943384497190396 -0.0001611176527558989)
(4.998634530386061 0.001712304028628787 0.002396048955558971)
(5.007847077356027 0.00242264727476532 0.002479104571526675)
(4.99975465876781 -0.0003655388709063744 -0.0002888265047881541)
(5.000116287516802 0.0009058540157979005 -1.025081892056352e-06)
(5.000261345031561 0.001197444521136853 0.0003364498527682221)
(5.000177474253282 0.001267410356161148 -9.727229805568063e-05)
(5.000240848647693 0.0009350135229543691 -0.0004984382914953115)
(5.000270259193193 0.000185101904443211 -4.33518640676327e-05)
(5.000110623025298 0.003586292257889012 -5.592888300590837e-05)
(5.004961216231911 0.004047707984010092 0.002097011012586769)
(4.999861159517956 0.003577706846840108 0.003078928604353734)
(5.010156209106219 0.0008495037955236117 0.002223493567523974)
(5.000301022995123 0.0008314539760853238 -0.0004085841608722634)
(5.000851961026523 0.0007413923002773247 -0.0001191937225644355)
(5.007490465089466 0.003835930988370255 0.004098566619385769)
(5.004064954426654 0.00635511917594934 0.001480940300936573)
(4.999788667347066 0.0007660438091877595 -0.0004740480430918331)
(5.000694874033987 0.000939552413478007 0.00136886154472854)
(5.000233334870208 0.0003073982093738871 -6.497972881539755e-05)
(5.00029216349752 -6.049767439595474e-05 -0.0001735905908196022)
(4.999637392472688 0.001370056536415942 -0.001348665997615963)
(4.999822509447209 0.0009064208462307196 -0.0005247087795124353)
(4.999374802954399 0.0009551108114198686 2.013646944021121e-05)
(5.00020858581819 0.0003013785693711237 -5.274192649352388e-05)
(5.001184844123091 -0.0004701916315408116 0.001610315985748942)
(5.000788058450527 0.002706445764831227 4.161751700886974e-06)
(4.999850587323167 0.003399547872933175 7.60166082844192e-05)
(5.004366968174476 0.003752135576806115 0.003486814893441227)
(4.999631612381248 5.429793754953354e-05 -0.0008664787088342767)
(4.999825416845591 0.0009835017667663283 -0.0003924508316137454)
(5.009028900417491 0.003807703056533199 0.004755790535994312)
(4.995874626882611 0.004305027515370106 0.002529442207872796)
(4.999847632260216 0.00108974373280712 0.0006627943578020409)
(5.000086332728352 0.0003390268102645873 -0.0003897176053772528)
(4.999257819875414 0.00408385177553638 -0.002952854164401088)
(5.00021945220756 0.00285916547563711 0.004242849591567507)
(4.990882277988193 0.0004197481425613942 0.002017007395700432)
(5.002790848021827 0.00170777332294339 -0.002121464322586693)
(5.000522265387785 0.0001111517613349492 8.443904675259378e-06)
(4.991472133253748 -0.001092169666505142 -0.005279200121965428)
(5.000602118422504 0.0002606237234183518 0.0003236828160776852)
(4.999006539499127 0.004332435747507064 0.002032312070972822)
(5.001175461052548 0.00858126473199128 -0.003501193016823857)
(4.998567946332859 0.001760791243802616 5.119146780013237e-05)
(5.00712150490891 -0.001947160953802233 0.002129412124867165)
(5.004907915829436 -8.031190349725661e-05 0.001123818423998976)
(5.00123225313357 0.0003245758706398073 0.0002482409614525543)
(4.995667984758343 -0.0088935428250551 -0.01070751637127965)
(5.00008857053947 0.0002330256210607318 -0.0001744856595469715)
(5.000346367035046 0.0003860599104610162 -0.0003281944904675603)
(5.00049696961259 0.0001502817398495024 0.0002709162493734386)
(5.000301003957634 0.0003035752862910392 -6.949697201616634e-05)
(4.999183119558007 0.0008588217351837743 0.002994462003830712)
(4.999332503900686 -0.003175264897222284 0.005174417495632187)
(5.000062768270976 -9.009225821329808e-05 0.0002659539829016641)
(5.000722695247888 0.0009745524807441227 -0.0001019573376418376)
(4.999424464743365 -5.557324763931998e-05 0.00104393354788685)
(5.000580271742434 0.0005257312354783177 0.000698503807531507)
(4.997491452156361 -0.008938086939478304 0.01300522263550066)
(5.000025879096283 0.0004192907559359233 0.0001544380203234574)
(4.990140903364741 0.002969036677718346 0.000307103131024037)
(4.984663756494363 -0.0009144294338984162 0.001361481379789401)
(5.005752312431142 0.004581183948868579 0.004670510618186236)
(5.00102333204508 0.0001385175098003012 -0.0002562952396177622)
(5.00225438794089 -9.083395416334552e-05 -0.00477781386776671)
(5.000683007568099 0.00231671577702365 -0.01434206997351223)
(4.992403020771592 0.0004457815255018191 0.0288235315608217)
(5.000081715690333 0.00159594659393266 0.0002727636553725973)
(4.99914926070285 0.002896453789131558 -0.0001456155058289282)
(4.998376420005453 0.004063370560669469 -0.007175258106186453)
(5.002921552996044 4.220926743749969e-05 -0.002811124085642681)
(5.000016334787644 0.0006484569920498562 0.003867492397424414)
(4.999489304791942 0.0002887415618694787 -0.001212406994329563)
(4.99922205811639 0.00332493342291105 6.167626838222938e-06)
(4.998078440509573 0.002739970847865653 0.0001903527138357251)
(4.999499570356136 -0.0001866992495434698 0.001836894914849352)
(5.001309110342927 -0.001849685700732382 -0.01086924969819738)
(4.993145617142966 0.009095799729619969 -0.001007920924819366)
(5.00007141168093 0.001096205091607564 -0.0004562544949053505)
(5.008344966812388 0.004063191498369081 0.01338446278332274)
(5.006711689434108 0.009815669893567013 0.008993391905775977)
(5.009118728939669 0.00274564181608533 0.003442139949506647)
(5.000215552014103 0.001529959667374264 -0.000459736202011325)
(5.004139820263094 0.002080097750165358 0.001598303158609109)
(5.005287195964405 0.003021346584987868 0.004259530308132688)
(4.997615124465599 -0.000388237835075035 -0.0001868543693531103)
(5.000110372215116 0.01142164813248289 -0.000764584539965862)
(5.00104764881924 -0.0003025853139944989 -0.004530997083063703)
(5.000278067199034 0.0008977283131326364 0.004826135884931432)
(5.000256476400216 -5.24779979010957e-05 -9.100989189563768e-05)
(5.00209922284625 0.002370843697460063 0.001495481667323003)
(5.000547537920105 0.0006516738117441274 -0.0005725833545405395)
(5.000346809637659 0.0001195911492561156 -0.0007495711924751689)
(4.99384014005079 0.005007397198890329 0.005932483677872855)
(5.000319187425027 0.002914274374560906 0.001929730060180189)
(5.000128910389936 0.0004380021378681238 4.513826563839482e-05)
(5.006493315567314 0.003631843654479848 0.007461864779224017)
(5.001821542879758 0.001172147044080275 0.001832549052724375)
(5.000175880179023 0.006440238975843916 0.000440480551332469)
(4.993267729527358 0.001727660238582426 0.000913411640747466)
(5.006763695641967 0.002289253642431059 0.0001652286564532119)
(4.999347751069545 0.002346331023070345 6.381609155783384e-05)
(5.005842329777168 0.0005546702469783863 -0.0002140434992261113)
(5.008320758708666 -0.001044760985141738 -0.001629456086440091)
(5.003145474542849 0.006809131949731427 0.01024881570379398)
(5.005586032276073 0.002482668855847714 0.0002864007316285085)
(5.006348073264619 0.001636829088896948 0.000616180290210578)
(4.997739951204368 0.005444577217145072 0.005843906906971346)
(5.003472183624782 0.007597322700559152 0.006210346231748801)
(4.988854555410921 -0.0006262440091017312 0.0008056755421877579)
(5.005736808078193 0.004437049733367671 0.00644574605417293)
(5.000114796538131 0.0002512331351894564 -8.810194642034287e-05)
(5.007326450294513 0.0004850939655588268 -0.001867817625214963)
(5.00762556194035 0.0007542855384795105 -0.006021750626566156)
(4.99954451767928 0.001694123467078199 -0.0002776532259736794)
(5.003836384507471 0.005145116029781096 0.01280020192646717)
(5.000613501694606 0.0003231400230948006 -6.563390249668243e-05)
(5.000550304016619 0.0002197918704361735 -0.0007103412349127196)
(4.99796061151373 0.004936427357857047 -0.006601495552167597)
(4.996321187279329 0.01023975842964517 -0.006043205123767172)
(5.000416533593293 0.0008985842198683453 -0.0005390062201669688)
(5.000044391264736 0.001188769935881948 -0.0003333491462072415)
(5.000444684948529 0.0008220522713516649 -0.0002240357610207163)
(5.002336705303233 0.0004472484212394338 -0.0006903690203169195)
(5.001439162248466 0.0002307205199480183 -0.0001314102665332844)
(5.006836207683512 0.000736344033265734 -0.001926332205062161)
(5.001943198400594 0.0008529253717151156 -0.001025458695408547)
(5.000488356982287 1.59794297565931e-05 -8.369399722485597e-05)
(5.001116982091554 0.00124765757832543 -0.000939980848010685)
(5.001027457256373 3.439710664068389e-05 -0.0005750718108397501)
(5.000324198087045 0.003999608584268174 0.00635648451138946)
(5.000481721649431 -2.290276477989865e-05 -1.491966206966042e-05)
(5.034282851617096 0.007682440492849903 -0.01799364301856794)
(5.000724980405579 0.001782058975443649 0.0004851725173239539)
(5.00367469321745 0.003937673960258451 0.01026702375774096)
(5.000515253653679 4.829590801823872e-05 5.049546816966845e-05)
(4.999929573623811 0.0009774615410410273 0.0009358363476441237)
(4.999460517376737 0.0005989305472429032 -0.0005800805897639494)
(5.00065063955013 0.001681435738033354 -0.0009121852355309946)
(4.999891031561126 0.004838352928906615 -0.0002683716176188056)
(5.002906957576271 0.006011167040767861 0.001248120266502064)
(4.999820622012237 0.001184821865727651 0.0005493665142329223)
(5.000313569024745 6.465783708243385e-05 -5.764825327246995e-05)
(5.017690938739516 0.03430919175446562 0.01853851933123564)
(5.005796585750425 0.003023100743630237 0.001140692802169348)
(4.992615412990231 0.009090804514862447 -0.0003705638504686419)
(5.003508555744529 0.001397344507673797 0.001765276384003994)
(5.000073693728168 0.00206024829338526 0.005726927193694916)
(5.000377554069795 -0.0002033005758693573 -0.0004313001698324188)
(5.00718088812748 -0.0003280434393765139 0.006348806833135289)
(4.995429805223536 0.000598434486702165 0.0009008550691804748)
(4.997120238431054 0.002529413218032011 0.003036611527466456)
(4.994679688975436 -0.0001636197518798864 0.0007821395749687612)
(4.99901835493946 -0.006661084972823631 -0.001558135348122078)
(5.00096975101009 0.01427577830459074 -0.01599381238922665)
(5.000429532416759 0.001431228482782885 5.374249417221357e-05)
(4.994474599561472 0.001225212928156132 0.001155073782526393)
(5.000319279177874 0.0001747315226126358 3.726423335544519e-05)
(4.991380427067922 -3.435825018816785e-05 -0.0001195020181892922)
(5.003161335195215 0.004438078055597774 -0.01714674068770277)
(4.99357364995191 0.0009008968690528377 -0.0009201866086377349)
(5.000688341988722 0.0006406404926854238 -0.001131017735347693)
(4.99951929085181 0.00263829883563009 -0.0001434960296595496)
(5.001623276993125 0.002018506922350998 -0.0008705324548508892)
(5.00002086947663 0.007146490094169834 -0.008086276417790549)
(5.000120508746815 0.005136749727723901 -0.00955092274767803)
(5.000159884469126 0.0002555893124802618 -0.0001588401110763923)
(4.988816483721774 0.0007475506308335004 -0.01131194617593767)
(5.00113695819805 0.00127279394716004 -0.001140372915579113)
(5.00041292066784 -0.001406366726986874 -7.812225415859859e-05)
(5.000411031699132 3.329510735009514e-05 2.703584078659503e-05)
(5.000198804333412 0.0004534334816639507 6.701228564277316e-05)
(4.99719941096394 0.009897179280089673 -0.004890343227974035)
(5.000931168021428 0.001174680244726388 3.283508215608745e-05)
(5.000385528634078 5.81872130160913e-05 0.0001655554111769865)
(5.000366679164573 -7.736706507132583e-06 -2.325529497106506e-05)
(5.000321942396464 -0.000220964273977329 8.625017050239148e-05)
(4.996324761351837 0.01109834850632059 -0.006342051993079982)
(5.000272931449679 0.0003538939315950233 -0.0002725214321570012)
(4.982669412516236 -0.001264313445349934 -0.00188041521958446)
(4.996894210991705 0.001211964675991287 2.389433173191167e-05)
(5.000323337645829 0.0003845844314941315 8.961358225871017e-05)
(5.000384034715263 0.0002952929107990836 -5.940245769025408e-05)
(5.00051018526699 0.0008160187092514495 -0.001814494908012076)
(5.000156231749368 0.0006189866210641595 -0.0008791582354275919)
(5.000347941570523 -0.0002808400731549845 4.687642935764441e-05)
(5.000191533200359 0.0003774861762489637 0.0002201996884816176)
(5.000428612038002 -0.001490338805210368 -0.0003277969504970412)
(5.000716838441959 8.822095357441212e-05 -0.0002042454712059332)
(5.000143981423651 -0.001012330634833169 0.0009743710549294604)
(5.000397012702835 0.0006953036704143923 -0.000516077764235352)
(5.00048739478406 -0.0005116012776346436 -0.000376791899560038)
(4.995999007413669 0.0007425857003319999 -0.00093846706242834)
(5.000548594971525 -0.003820847797772827 4.052797032934299e-05)
(4.999827837832376 0.0003673762815326011 0.0001573412244979291)
(4.968353923942147 0.04562326464519262 0.09646208389881655)
(4.997230158363241 -0.0004190871732199253 -0.000194747324392845)
(5.001367798390573 0.0009674041368105152 -0.004783806828856184)
(5.000411170830421 0.0002886388973167726 0.0001196962261277541)
(5.000124704776095 0.001480826366823867 0.0005570542060399296)
(5.003648865306169 -0.0007522318642876091 0.006633416927296303)
(5.000445794305315 0.0001446217459257379 3.025715120970014e-05)
(4.997145741400973 -0.0001362983472716811 -9.935604072415234e-05)
(4.999989774391938 0.007379149476571144 -0.002094668577889874)
(5.00007429743617 0.001376416258417521 -0.0005851171558965951)
(4.999463935629303 0.001016101429259242 -0.001039882422220521)
(5.000934442633518 0.0006978926682995036 -0.000192823326529352)
(4.993660194631779 0.00741138069471228 -0.0001796005132173646)
(4.998763961822729 0.003091764040504508 -0.009832058466260365)
(4.999954682214188 0.0003584183518501011 5.637044116847087e-05)
(5.000780823720134 9.160933114598135e-05 -0.0002737191152882391)
(5.000899891155303 0.0007307039094102253 -0.0003648060158937588)
(5.0008086011713 0.0004037877043430961 -0.0009031269457809638)
(5.000014645144441 0.0005218978247723972 -0.001965595373277276)
(5.000354313361211 0.0001888465284956769 -3.319851232579534e-05)
(5.006579036727957 0.0006290981136346137 -0.002222343408747715)
(5.000210387079002 3.344493837940835e-05 0.0002405238874820603)
(5.010048859240182 0.0001926820452598223 0.001318398144148154)
(5.000455293134981 0.001443484147010559 -0.001129892065217757)
(5.000140116522828 0.0008837428786263159 0.0001820479189471193)
(5.001535933167887 -7.24716801054908e-05 -0.0001193806784636266)
(5.000440586409594 9.554363683160995e-06 -5.889556598590352e-05)
(5.000306318411885 0.0007202737875841179 0.00017228199099703)
(5.000099590746608 0.0001475509699838412 4.579896911969041e-05)
(5.00056872413415 7.795858155701755e-05 0.0002778087941709177)
(5.000453957344773 0.0002076277290973507 -1.553309284481055e-05)
(4.999102100884563 0.002799921209863403 0.003788229934108579)
(5.000074792280024 0.00031953884586006 0.000177097175773789)
(5.000441562997722 -0.0002727159610116568 -0.000245578110689773)
(5.001798373140423 0.0001290151389116141 -7.796508658074761e-06)
(5.001082136542997 0.0005883070852448494 2.801397436409987e-05)
(4.930221926416972 0.002475496931786845 0.06561304403910742)
(5.000489693579015 0.0007946094372705697 -0.0004839085175654207)
(5.000360409893708 0.001940354406220151 -0.0003896451650308219)
(5.000331876759242 2.556934362371838e-06 1.165458304067764e-05)
(5.000600487288504 0.0009881184052088672 -0.000437389073390119)
(5.000502931484918 0.0007674077534211795 -0.0004470825736160646)
(5.000657963538561 0.001076502851402902 0.003724976205733972)
(5.000557616543523 0.001487138934988218 0.0003417870425666955)
(5.000351446814807 9.86560055905074e-05 -0.0001127146547787683)
(4.999819154363003 -0.002407020999377317 0.01636456938216553)
(5.000436870453136 0.0007023430003965724 -0.0005203872805090667)
(5.000494411048055 0.000813826807363722 -0.0006584262006461921)
(5.000287906452338 -0.003408967682430539 -0.002997868534586219)
(5.00062111125624 0.0006487917535288885 -0.000654199737667063)
(5.00035693752657 0.0007057720390259065 -0.0002356678069545511)
(4.997707489748516 -0.0006860898279465195 0.0001540010104055148)
(4.999921148131476 0.00288700044834577 0.008514033332875792)
(5.000648263055778 0.0009499912138535825 -0.0006728320811534337)
(5.000861295378975 0.001133334184244244 -0.0008132340447583507)
(5.001638686010781 0.00596979778387439 0.01086120925825582)
(5.000787249608869 0.0003186299061798296 -2.834618925941149e-05)
(5.009089901367404 0.01362421235348785 0.001985066094181368)
(4.999941887707348 0.0004589973280962099 0.0002661297337098349)
(4.999771460483307 0.00159922409207466 0.003224813958437941)
(5.000608609188072 0.0002288360430691822 8.811439179310432e-05)
(5.013246710818681 0.004967175104364893 0.001626753030339021)
(5.001452731732703 0.0002024697330596288 -0.0004921111294575909)
(5.00876364931367 0.001519611573470598 0.001295411649919591)
(5.000699985342309 0.0008069959437053554 0.0002445789641412053)
(4.99828923892477 0.006284258120983452 -0.007401683467240698)
(5.000530827598879 -0.001035042210206275 -0.000114951072705039)
(5.013203710672402 0.006549713607982417 -0.001134450152223167)
(5.000464376603396 0.004048075207328154 0.0002750849446550546)
(5.005953740812489 0.001587363209622003 0.002365715974493393)
(5.000814130205815 5.364412556582983e-05 -0.000127443897240783)
(5.000927727403588 1.045106695052702e-05 -0.0001899394407458674)
(5.00515572207134 0.002510184702584527 0.003748740433963076)
(5.003074206173594 0.003869476297376728 0.003940022395274799)
(5.004712638669423 0.008667385152724888 0.006463968527410504)
(4.99457766827783 0.0008454687195611598 0.0004108236285360944)
(5.000366073476582 5.220133682693207e-05 1.637897906762656e-05)
(5.000424437292069 0.0005180860419261453 6.67818315372311e-05)
(5.000376185403928 -7.272282890675674e-05 -9.026951918897255e-06)
(5.000167915327364 -0.0001981425862013361 -0.0001421478148498935)
(5.000250912250277 0.002190768473446013 -0.001122713223868254)
(5.00092805883436 0.0002150543136848997 -0.0001604187580818506)
(5.0014606574211 0.01363145939279125 0.01635752168678501)
(5.000362797509523 0.0003622531658508354 0.0003498848869016132)
(5.000263102974551 0.0003888256598347771 6.513045942244218e-06)
(4.999715496170302 0.0004102897106096219 0.0003919205280968696)
(5.001244983596747 0.001031786531876708 0.002210359830190316)
(5.000363679836015 0.0002495407036362022 -0.000175158369892708)
(5.000630343628822 0.001313551697507866 -0.0006354038428722753)
(4.998717891309153 -0.0002921340219211306 0.001461552768972846)
(5.000175693856983 -0.0001072816459942926 7.963005143771901e-05)
(4.985824685034656 -0.0009369437456710078 0.0007721897439940191)
(5.000995859986312 0.001062487095633866 0.0001440229374673566)
(5.000434670691939 -0.0004135083183961789 0.0003496460924942147)
(5.00046514352587 0.001992449319206641 0.005491362984733618)
(4.997345270523878 0.002100087643608339 0.004526353844739195)
(5.000010894301413 0.0007731372131218481 -0.0001376852990255972)
(5.000435500162556 1.051800152427069e-05 -4.419157876366855e-05)
(5.001038891349499 0.001356563622701719 -0.0007500881425433959)
(5.000651254093483 0.001752116339384062 0.0009336694440382373)
(5.000394688114661 0.0003160734689353066 -0.0001254645231229302)
(5.003164047971264 0.001709212773520851 -0.001252213571169231)
(4.998497752393551 0.0004042440175963633 0.004315968871677745)
(4.999681817246007 0.0008948867031490277 0.001143436584128405)
(5.004108279707297 0.003182417120826781 -0.0001009214754939224)
(5.00177956670696 0.004553906070941998 0.00695176851737166)
(5.000791207290801 0.00113391524795622 -0.0006626072369977663)
(5.00466804355687 0.004112343567127487 0.0043584657957117)
(5.000240073125956 0.004338817400424952 -0.0009140829327872876)
(5.000535371422012 -5.69107958055306e-05 9.314903253824071e-05)
(4.999768164121328 0.00387948508046928 -0.002755078351360239)
(5.007611400523878 -0.001356368680061092 -0.004314350277444594)
(4.991378575034875 0.006923672906246125 -0.005514439073088599)
(5.007900835368612 0.003777018069813943 0.002682276166189644)
(5.01950204388484 0.04690498975628469 0.008873150775765674)
(5.00620424797053 0.00391901229901988 0.003204047832187554)
(5.005876319489427 0.005038033404194728 0.002499804814315847)
(5.005241199872122 0.003338046279892262 0.001402386312228051)
(5.000952349667251 0.002148933062431131 -0.001775883041298752)
(5.000725792260641 0.001673398372935746 -0.001071347361679821)
(5.000613995574081 0.001423487106196011 -0.001469348107142267)
(5.000476185154318 0.001994767974855085 0.0002809344869184471)
(5.000637267553382 0.0002713263491839281 -0.0002357672725161711)
(5.000449056184253 0.001046309127405879 6.856088938544063e-05)
(5.00043016884069 0.0007097464470860811 5.485879912559593e-05)
(5.000608159290625 0.0002470145410935239 6.353943254350613e-05)
(4.999970481577373 0.002834939779197155 0.0005465651617164709)
(4.999670865795498 0.001792098829463824 -0.001737386299814225)
(5.000313398883256 0.0009676156724685291 8.954406939103741e-05)
(4.999911252966525 0.002297517485045657 0.0008837370324539875)
(5.000116068067602 0.0004966947302006666 -0.0001464900954432713)
(5.008367148354683 0.01519081197151028 0.007180109195907339)
(5.000231487113243 0.0004109837491818369 -0.0001605207879204809)
(4.998943901906747 0.0009584268048268352 -0.0004035416675754015)
(4.999777364492045 0.002854936061977182 0.001182857928806261)
(5.000527709401474 0.0003219755631512648 -0.0008234338599290482)
(5.001015413913581 0.003239025498240778 -0.001139482078616541)
(4.993835575839295 0.001309353238438189 -3.693439559028572e-05)
(4.999757819886322 0.003062023172938418 0.001282901212479325)
(4.9905365516141 0.002351040201186244 0.003678657505023308)
(5.00037479767161 0.0001146243192828947 5.188311506462004e-06)
(4.997727475657627 0.002420828405880702 0.008072451365027957)
(5.000342790325552 0.0004225043787933877 6.978451712309781e-05)
(5.000450155207425 0.001087763997912954 -0.0003086937134103973)
(5.000937231230015 0.0003554373666604232 -0.0002974047419329238)
(5.001612884533478 -0.001127124861805274 0.007063181088467258)
(5.000281604915163 0.0004542565536495029 5.019050511308355e-05)
(5.000147585926703 0.0006123952772594206 -0.0003667553070797364)
(5.000910034758077 0.001898059693425636 -0.001429856919223739)
(4.998653241082827 0.0003132912964759518 0.0001672348850020142)
(5.000314826590627 0.0001861583194918202 -8.56936425119544e-06)
(4.999663602628145 -0.001040426333905245 -5.003977723864863e-05)
(4.999819367324819 0.00309925730474781 -0.0002063195724074762)
(5.001368781756558 0.0009747396011401421 0.001065812439482584)
(5.000947179339206 0.0004667363563509529 -0.0003375386852276114)
(5.000018708780408 0.0002935544945665409 -3.035967726739153e-05)
(4.999772591478236 0.002787579354035917 0.0008613722224140895)
(4.999593225646564 0.0007973312477130393 -0.0007595827209894612)
(5.002041862871786 0.001057857537313515 -0.0004093311524277786)
(5.000248644140653 0.001036879412387022 8.33421182597183e-05)
(5.000307582353228 0.009254549603603645 -0.0005213192184007397)
(4.99999526969604 0.0008785943204872195 0.0001028008708540838)
(4.99915770352556 3.491303208914713e-07 0.006307803460401653)
(5.000469795781595 0.0006943710349762671 -0.0005343951652439483)
(5.000642018422998 0.0004506723562424131 -0.0005632505855293952)
(5.000199518507813 -5.789868166479175e-05 7.828970485245391e-05)
(5.00074442716275 0.0006160953507217938 -0.0006714458392856316)
(5.000741647056597 0.0002389742497530773 -0.0003451714407186058)
(5.000039857856958 -0.000248554376347485 -0.0002006734637422553)
(5.000365912910014 0.001054833369336855 -0.0005299863236855639)
(4.999869346854714 0.0006290578888638758 -4.207842111078394e-05)
(5.000329877072366 0.0006861343665500308 -0.0003096580299554189)
(5.000676990519469 0.0004670642071496425 -0.0002915276343051244)
(5.000184236934398 0.0001877569318235055 -6.888272935814255e-05)
(4.993805885708819 0.0001411839590151903 -0.0001191104553408708)
(4.999985935959963 0.0004438573138984361 2.412250057121654e-05)
(5.003432863645572 0.002751679873430942 -0.001167564309560409)
(5.000495842322309 0.001353693648703786 -0.0006781776304477912)
(5.000348185537845 0.0002026724312802922 4.435667891876803e-05)
(5.00172626377063 0.002338030313086593 -0.0008609177160274821)
(5.00203553872438 0.0008632657314226078 -0.001129963391007398)
(5.004747854182601 0.01050568713823493 0.00131306497978952)
(4.979340672768475 0.00184068979820113 0.0004650486469903581)
(5.000467695497867 0.00156089845850881 0.0005704037078233326)
(4.999581660188729 0.0003245027307083773 0.0001877949302870855)
(5.002536662825381 0.003715976770821883 -0.004060837119517005)
(5.000933114462152 0.001987500473691702 0.0003023161223913264)
(5.000273406303085 0.001142780865409198 -0.0009174373253769121)
(4.999766858506422 0.00123862119976515 0.0008798073330210361)
(5.002529816015684 0.0005208079032182889 -0.0006277208843759947)
(5.000533837264928 0.001573736732017378 -0.008933917133321654)
(4.985672849275595 0.001313350412476694 0.0002912108025414112)
(5.00007091914075 0.001782894161627845 -0.001527884253871298)
(5.00040572592281 0.002170666108371533 -0.001291130355853981)
(4.999548520250703 0.001454849078088019 -0.001788643718086014)
(4.999943398083468 0.0002814570454403068 0.0001138185790705341)
(5.000068298872645 0.0003454907023230023 -8.422616188684459e-05)
(5.000055108511589 6.129868470970046e-05 0.000331231319143348)
(5.001579391856171 0.00135336226908195 -0.0002721163174376863)
(5.000254450003969 0.0002465647949751008 -8.485568505655274e-05)
(5.003064836585277 -0.0001013069233680153 0.002491780246037473)
(4.99999808497247 0.0004160057501742152 8.704765689223404e-06)
(5.000972105461614 0.002145845915896565 -0.0008716713630188586)
(5.000351708844392 0.001982399719382938 0.0005852457326956008)
(4.995095814892824 0.0003816928783775049 -0.0008363074509773777)
(5.000771135091901 0.0006978842782009201 0.0006886033003857188)
(5.000257570150255 -6.409731725226933e-05 0.0001342137727085981)
(5.000572087305732 0.000859150266027512 6.194437470960394e-05)
(5.000799733341287 -0.0002143368567990689 0.0002530468395305065)
(5.000443511006304 0.0006725460241043583 0.0001161234505274054)
(5.000584650972384 0.0006908487592895826 0.000157744810433941)
(5.00013022210686 0.0004792222260032951 -0.0001036058974945602)
(4.997784009113902 0.003052562602201065 0.008021650259195155)
(5.001381675736798 0.000154542210856436 -0.007369914020489104)
(5.001327013502585 0.0007164103057466374 6.904494052750298e-05)
(5.000549858563647 0.0005860971387506306 -2.36969911511413e-05)
(5.000261693467726 0.00109700946786468 0.0003064794735076839)
(5.000670042794712 0.0006553632412596026 -0.0002262424729157828)
(5.003144557128213 6.372608103350095e-05 -0.0001621170685688853)
(5.000373966467881 -0.0001256301280953714 -0.0002097613621136627)
(5.001492510334541 0.001137840141379823 -0.02052674182215467)
(5.000423134010973 0.0009067520065498842 0.0001052880381019169)
(5.000514963729914 0.000548324329549331 4.0245903770489e-05)
(4.999005978915119 0.00142970546495188 0.000403397939865578)
(5.003368513837697 0.003706173643263867 0.004068335708534278)
(5.000544334345036 0.0005604494741798597 -2.821177163299832e-05)
(5.000395146391008 0.000986133229963915 -0.0006023843019329993)
(4.999895515422637 0.003551437849239273 0.000886344932502322)
(5.011280819639428 0.02128972395370769 0.002232179310516941)
(4.993549465482019 0.0002259383618425514 0.0007498534897689696)
(5.0044724021993 0.001892297344127785 0.001595177054647555)
(4.999539203305893 0.001449130151655769 0.0002280789140112763)
(5.003440179655229 0.001031127133057981 -0.001138399592306932)
(5.000553752734284 0.0007388300779820407 6.662114658133127e-05)
(5.000437263302803 0.0001196928247853724 -0.0002505336755597073)
(5.000446213391508 7.047672233753804e-05 0.0002575719066839273)
(5.000368840426795 0.0003626295982899874 -0.0001015600519740968)
(5.000396834652273 0.0004131016726140966 -0.0002143124549543592)
(5.000407322342458 0.0009110326030326699 0.0001016133234880285)
(5.00366168487806 0.0004478138396853397 -0.0004081198064986427)
(5.000662019169375 0.0008737669161761779 -0.0001165655896214145)
(5.001158809906429 4.914941283465141e-05 0.0003222458039185318)
(5.00001353862479 0.0003028968449143947 6.327286647174425e-05)
(5.000366880865073 0.001679552709703827 0.0002295031718340447)
(5.000310016955777 0.0003173887306958975 -0.0001571479505049526)
(5.000258386614822 0.0004999944293048145 6.175496122357692e-05)
(5.000478066750319 0.0001262733709856404 -3.904710855949562e-05)
(5.000775949344307 0.0002334041694154833 0.0006726083880315398)
(5.000629181400753 0.0007743637449424665 -0.0001720130773850644)
(5.000041807036406 0.005550054322440786 0.0003983698485700915)
(4.994911589533065 0.000592460096367336 -5.384365935975275e-05)
(5.000119444763719 0.0007217676370594504 -2.031136969780998e-05)
(5.000449679818634 -0.0001300259852659123 -0.0001486997902326056)
(4.998335559496259 5.041050648197002e-05 0.0004742663201685915)