/*--------------------------------*- C++ -*----------------------------------*\
| =========                 |                                                 |
| \\      /  F ield         | OpenFOAM: The Open Source CFD Toolbox           |
|  \\    /   O peration     | Version:  v1906                                 |
|   \\  /    A nd           | Web:      www.OpenFOAM.com                      |
|    \\/     M anipulation  |                                                 |
\*---------------------------------------------------------------------------*/
FoamFile
{
    version     2.0;
    format      ascii;
    class       volVectorField;
    location    "1";
    object      vorticity;
}
// * * * * * * * * * * * * * * * * * * * * * * * * * * * * * * * * * * * * * //

dimensions      [0 0 -1 0 0 0 0];


internalField   nonuniform List<vector> 
19632
(
(0.003087337548180035 0.003189867708972799 0.002924594403740869)
(2.636407678042034e-05 6.028603266976869e-05 -1.784656745902795e-05)
(-0.0001695324147091325 9.023580623369499e-05 -9.140327289196561e-05)
(0.0002244139433673525 -0.0002083584316021408 -0.0005047387349350988)
(0.0005185426500570723 -0.0006887783676392489 -0.0007495283007581014)
(-0.003463836229018599 0.001544171903750823 0.001058308645889199)
(-0.001611638620230073 -0.0003270365515912065 -0.002264506295575684)
(0.001199837588539538 0.0004642319784077633 -7.317784375159686e-05)
(0.005540703164832841 -0.0002483280542350379 -0.0007108868410703384)
(-0.0004411813337064592 -0.001425559447645228 -0.0001807787205154211)
(0.0008179055826334285 0.000691152633929941 0.0003958186978456513)
(0.0008663192968701835 -0.0001294110039243008 -0.0002986057597942144)
(0.00160023582780093 -0.0004929727458013375 0.0004786860653892941)
(-0.0006335950676583158 -0.0003374290123549496 9.976928131261612e-05)
(0.0002745186954770301 0.0002011671380569205 9.355299178960227e-05)
(-0.0001049859361936006 -5.871413861301728e-05 -3.150091060350489e-06)
(-0.0001729130541333144 -8.780807318998876e-05 -6.237184171840299e-05)
(2.944663240723773e-05 0.0001406536416098841 -4.244052073832963e-05)
(-4.628794652973182e-05 -4.265185532759336e-05 8.44657573408618e-05)
(-7.797943863988759e-05 -0.0002149126067377474 0.001016388939048005)
(-0.001393028572867989 -0.001288683141733694 0.001032190564751302)
(-0.003944261919774563 0.0007707335179717612 -0.001571889601710388)
(-0.001913735885098862 0.001161220114913068 -0.0002757990251286775)
(0.0002256738184915832 -4.51915484340781e-06 -2.154688954703958e-05)
(-0.0005457600466070481 6.342077535569683e-05 -1.291935343945861e-05)
(-0.007379797817214017 0.002621570701906357 -0.0005580420117079379)
(0.001127622486091015 -0.0001694152376334261 -0.0008121695430633089)
(-5.354427847199686e-05 0.0001895302622404429 0.001043885542595805)
(-0.003454243631346921 0.002169051378118187 0.0002876384432035945)
(-0.0001670998804051862 -0.0001688129665539602 0.0001698113903965161)
(0.0002824843091972247 -0.0001815852783662604 -9.099950624280794e-05)
(-0.0003979080517522985 -0.0009787572782550583 -6.243964889733394e-05)
(0.0003163332878913431 -0.0003674769044149684 9.273727747152989e-05)
(1.729773241433316e-05 -0.00072774913762896 -0.0003655057341003762)
(-1.990243844319892e-06 1.577046001506432e-05 -3.693103905150573e-05)
(0.009312028912446467 0.002613378435422871 -0.0002780922684574691)
(-0.0003435504667621095 -0.0003201571899183064 -0.0001005742423667395)
(0.002750453070296803 0.0003772403142857432 0.001327734722558062)
(-8.636935571250176e-05 -0.0001908547416653122 0.0001474702481125163)
(3.369396266906486e-05 -0.0001471759375221827 0.0007089022722733913)
(-7.037029388874471e-05 -0.0004035564700747094 0.0004644864055688724)
(0.002322030757369874 0.001819359182834024 0.000110781654997557)
(-0.0006776513144216566 0.0007617318438201377 -0.0006841695255668459)
(0.0001053442063014443 0.0002104694992050426 0.0004482713154839021)
(5.531224328149206e-05 -7.597116401414281e-05 -7.182204629442841e-05)
(1.974470106731995e-05 -0.0005003282390220049 0.0003175497430466401)
(-0.003705881846331142 -0.0009832174049831811 -0.002209048858312273)
(0.001772309443715724 0.0009460162861251169 -2.226847002405964e-05)
(-0.0004933094124802626 -0.004455495753942547 -0.004089099175619868)
(-0.0003005668060365778 7.035478991129643e-05 -3.321860387383246e-05)
(-0.004034854443125223 -0.004430761193184059 0.002153606536439637)
(8.338730323784399e-06 -0.0001165682294679014 3.976975589509643e-05)
(0.001794310859374998 -0.000173898990825518 -0.001992449768490858)
(-0.002403817431736313 7.702652508380543e-05 0.0006008557993111491)
(-0.0008821426212108823 -0.0004955998423909933 -0.0005002270761138327)
(0.006806881578724076 0.004745445059133004 -0.002499802954273078)
(-0.0006101957234090523 -0.0001806839439705781 0.001018734105446174)
(-0.001886874984494096 0.0001192580814004682 -0.0002520373614598073)
(-0.000360415113933893 -0.001442278597133742 0.003110933482472841)
(-0.0005843062803934758 3.264686643845803e-05 0.0003528011255262142)
(0.0003282520373710869 -0.0001117089517529994 2.589012080854818e-05)
(0.0005555928396941053 3.472611120545029e-05 -0.0004005373144524183)
(-6.219704604471456e-05 1.956258766355793e-05 -5.095762549691219e-06)
(0.0001303704823219101 0.0004234213984153537 3.078155371985503e-05)
(0.0007098113249684892 0.001116634271356227 0.001083649860995542)
(4.455802461317764e-05 -3.934673502398392e-05 0.0001050716791620464)
(0.0003627255727041928 -1.968821984987936e-05 0.0001630662463027094)
(0.0008044560504461655 0.0009552125048350433 -3.531274692346862e-05)
(-0.0003569316540454389 8.993021579572756e-05 0.0001632355439513808)
(-0.002983833199815392 0.002975013584331867 0.003871123558026555)
(-9.517463915802953e-05 2.040103490665062e-05 -2.531931255925814e-05)
(-0.0007930131138887384 -0.0008776158368707228 0.0008659035188873382)
(-0.0005021520647020539 0.0009045422209270381 2.092593624222354e-05)
(0.002856168160194774 -0.00100058682856548 -7.05225669216451e-05)
(-3.737906811534037e-05 -0.0001226597360262319 9.42650549950573e-05)
(-6.65935789931401e-05 0.001308301940424883 6.025087719098015e-05)
(-0.001078321894979092 -0.007795369421003959 -0.0003405075715120439)
(-0.003935837370326499 -0.01154927704980962 -0.001088710278114976)
(-0.0001853622704059633 0.0007365502067950044 0.000474334320391726)
(0.001256373091233789 -0.0003255486895631284 -0.00105416369660581)
(3.641618866523106e-05 0.003387956299638303 2.600539287202902e-05)
(0.0006191925259800999 -0.0009144124505629789 0.002715248799972758)
(0.0009749908478502659 0.0001390319199222954 3.04110984175647e-05)
(-0.001899847285359717 -0.0009256402940018905 0.000838106955644637)
(-0.0005766665230638171 0.0006831756838375727 0.0001539638937983623)
(0.00130645295016773 0.001093719238213646 0.001049374312082082)
(0.001051792818370487 0.0008724224240674592 -2.694635533787145e-05)
(-0.00192519034129772 0.002330734119686288 -0.0002093660941415292)
(0.000676544186873031 -0.0002575388303129702 0.005823206587789112)
(-0.0002425658587298325 6.613788234852199e-05 -5.432047626490583e-05)
(0.004728488956516046 0.00219565535621578 -0.0003333116753274066)
(-0.001847804280710758 -0.002064695786994462 0.0001767519891616876)
(-0.0002147213707719189 0.001822386023746412 -0.001677670686561203)
(-0.00346027983285962 -0.0006763807702059468 -0.004818402437995268)
(-0.0005285896796133538 0.0002461020727165707 -0.0008945750333613596)
(0.0007436545184889237 0.002055856825560145 -0.001777906306325101)
(-0.0004986940825174466 -0.0006696732687381704 0.001117123990591182)
(-0.002470848420299127 0.000313087750195001 0.001741509280037421)
(-0.002333872078120822 0.003493741762130651 0.001564062705879403)
(-0.0004695336821378558 0.0003023483421207183 0.0002098670138925577)
(-0.0005919534265110017 0.0001254964943873563 0.0001952117020951342)
(-0.0006048134220432692 0.001901371439795174 -0.001604131830561651)
(-1.278386778168922e-05 -0.0002069102921112128 -0.0002101638218384542)
(-2.697073832939171e-05 -0.0002814920364359284 0.0001799916319786138)
(-0.0003675157533915359 0.0004234182048310909 -0.0005356582976989486)
(0.0009597436197997954 0.0002541128898254219 -0.001937229092714914)
(-2.248732829364213e-06 -9.945932915797992e-06 -3.888456115429872e-05)
(-0.002523109712015363 0.000210993017563806 0.000758325165035895)
(-0.0003444653706625612 -0.0001495578359405714 0.0004209175040655104)
(0.001142321641546846 0.0003895470808027628 0.0002479399279689547)
(0.001092788939601786 0.002034052353096507 -0.00109429356297167)
(0.004646592661518259 -0.0004379375556649488 -0.001112535300591794)
(-0.001546162226205457 0.0002018392819716804 -0.0005860050480523047)
(0.001139868104581321 -0.003038338722889132 -0.0006190389779200243)
(-0.001024734061471633 -0.0002609997754310319 -0.0002594906521425186)
(-0.003990953801207991 -0.0009043009448761088 -0.0009203864729731477)
(0.001755687385239567 0.0009070199924731075 -7.336136664933815e-05)
(-0.001008998280133818 -0.0001157518148613227 0.0005023256984456487)
(-0.002846563788885292 0.001143140721972202 -0.002075231262335407)
(-0.002606360706962948 -9.903587603869854e-05 -0.0005698564260957981)
(-0.0008179518986262729 0.002454063076821789 0.0008182925211133421)
(-0.003817337844634324 4.055310756389104e-05 -0.0003076972361507411)
(-2.39765773406667e-05 -4.329508117942277e-05 5.843529804419015e-05)
(-0.003510110014357256 0.001034176538744365 0.0003885414731530049)
(0.00201456872364495 0.0023060997499268 -0.0002786064009673832)
(0.0003737828010927467 0.0001020976674521689 -0.0001806515821048048)
(0.006539119974831255 -0.001495743162236455 0.0005149494404890027)
(2.986256416111791e-05 2.297864770475622e-05 -3.884340059116336e-06)
(0.0005946846761703301 -2.619334725020817e-05 -0.000241494996351335)
(-0.0009734048264360665 0.001463647500337565 -0.001259735313523511)
(-0.0007837620194126684 -1.93691010044048e-05 0.001505730694203481)
(-0.0004097890305106918 -0.000324441549382946 -0.0002918578107806073)
(2.471166409053515e-05 -2.987325311332291e-05 -8.346452192082486e-05)
(-0.0006076324888454987 -7.011869207961647e-06 0.0003645119053280104)
(5.717712461515944e-06 1.088942077643709e-05 -0.0001731621322620502)
(0.0003294381438914506 -0.0004086199349259944 -0.0008924265411987199)
(0.0001061221951393835 -0.001902978629654274 -0.001023516767375005)
(0.0001030975031651927 -0.0003870387387578096 -8.458685349592315e-05)
(3.815244018451306e-05 -2.47370811865517e-05 2.715664243999081e-05)
(-0.0001010717175466015 1.675302955331918e-05 -6.888498905535041e-05)
(0.0009537573246094058 -0.0002427042792722986 0.0008153729050372875)
(-0.002422961643240227 -0.005960827362867399 0.004597216552220125)
(-0.000201130295546885 -4.42338270866539e-05 -6.906620725143642e-05)
(0.01730932546306006 0.04657154815084116 0.008049258190303391)
(-0.0003820550208053742 0.0007462811679210168 -0.0005784148866580923)
(0.001302851489490147 0.004774912744524303 0.001143231496838767)
(-5.474160016785524e-05 7.938201689266117e-05 1.59021280577198e-05)
(-0.0002193941512737705 0.0001697483864974999 0.00022786320950831)
(0.0002578784354519801 -0.0001379060911952937 0.0006262158927135929)
(0.0001787728102234336 -5.77183845126224e-05 -7.689779554626257e-05)
(-0.002160286260187839 0.0001231490134335464 0.0009588666799433091)
(0.001937494532785681 0.00036608140707801 -0.00429473064827118)
(-0.0002138935907461613 -0.0001076058156295776 0.0002947492625303404)
(3.094549755249073e-05 2.994461773677352e-06 6.084389273236154e-06)
(0.01803483836189875 0.001758430662215022 0.006905778675089765)
(-0.000291993709124798 0.0008512614257572766 0.001022063253958501)
(-0.004088966612699235 0.001181889012856646 -0.00032167136294599)
(0.0003930632572720394 -9.342812397647655e-05 0.0008223845462755544)
(0.003759637594738699 -0.001213165730681073 7.974569430957684e-05)
(5.704457671727094e-05 -6.679145383953588e-05 0.0004219210540817319)
(0.003451330678869532 0.002698693409030269 0.0002822780475023479)
(0.001378943961477275 5.033736582456581e-05 -0.0004936134826758855)
(0.0009089389551460066 0.0006988716623331886 -0.0006406828409575894)
(-0.002495038652211606 0.0003562982818908764 0.0002246525289043272)
(-0.002281041690138589 -0.0006395683500316458 0.0022862087700983)
(-0.0008565882802076615 0.004238170128586668 0.001392867187586383)
(0.0009552985311278182 -0.0001440930814463856 0.0003385167380093319)
(0.001985109904939944 0.0003139791134435245 -0.0005236795847555192)
(-0.0001254695951168974 -7.189980677678328e-05 8.367452421080275e-05)
(0.0007772231982550415 0.0001503958747070677 -4.556526639352677e-05)
(0.0002841852338470825 0.009658951055407965 -0.001529815611084982)
(0.003704004534102732 0.0001581678696180253 -0.0004510939496420397)
(0.0004016252613030986 -2.204157277030979e-07 0.000394924991941681)
(-9.502277001539609e-05 -2.1877101330955e-05 0.002344247247867094)
(0.0004231892969998668 0.0005632263870385684 0.001354444136914016)
(-0.003431610785832606 0.002407760769727969 0.002372084733758819)
(-0.001135627138202398 -0.001463336309965501 -0.0007301923330412548)
(0.0005991651562293715 0.0004361469145122205 0.0001828701760837292)
(0.004815341442432597 0.0001522565928781285 0.002103741573228735)
(0.0001539227037029232 -8.757777097384453e-05 0.0001660029068241334)
(0.0002151718983600292 -8.315492256723891e-05 0.0002104478269629205)
(0.0002405823453056306 -6.22464111849787e-06 -9.98620970434472e-05)
(-0.0001427870285264971 0.0001725751189745627 -5.328137401386828e-05)
(-0.0003363873834496029 0.001582978549731078 -0.001970211479255136)
(0.0002278956970067944 7.195564686347813e-06 0.0001204240697219309)
(6.360189465291224e-05 4.995106904555633e-05 2.28964498573227e-05)
(-3.335818731920026e-05 8.755790768531529e-06 -5.079853490907412e-05)
(0.0001607910931736469 2.50051362672886e-05 -0.0001169758519079755)
(-0.0005180531172221316 -0.00228178082141909 -0.0001040451349314425)
(-0.0004364990108290344 3.826877494190995e-05 -0.0001168110673116428)
(0.001405525377107674 -0.0001990026905821967 0.00268946628789462)
(0.0004086725039446761 -7.835773077639714e-05 -0.0005940357379222219)
(8.270734674045419e-06 -3.621508306496527e-05 -3.591830193013292e-05)
(-5.171715812848225e-05 6.304904832332547e-05 1.186911132290425e-05)
(0.0004640716003865246 -0.0004107592253394384 -2.413502841109963e-06)
(1.43410391833294e-05 -0.0006979259416570018 0.000186872081197139)
(0.0001505596902150075 2.56588392357428e-05 -0.0002069968038936202)
(-1.375685950803915e-05 4.17426689017664e-05 2.056989683572581e-05)
(-0.002740792147441331 7.543478396279707e-05 0.002146005503882957)
(8.359700163720237e-05 -5.774921484597749e-05 8.917304425495755e-05)
(-0.003878520883426473 2.374306848902593e-05 0.0001873627862253213)
(1.811994251097691e-05 -2.587852960083109e-05 -7.806779929569663e-05)
(-0.00181028352778172 -0.0006131340683589243 4.613699787913203e-05)
(-0.0005094441296168134 -0.0007588935487722664 0.001520029545087867)
(-0.002129569825091704 2.925182664753883e-05 0.0012245002504226)
(-4.605100214116159e-05 -2.66630869420961e-06 -7.408360538723341e-05)
(-0.02227777037413438 0.01537662727603028 -0.02329504377342873)
(0.0001128812864905814 -6.216108440997177e-05 0.0004640421400429578)
(0.01304080181045062 0.0006546576942333365 -0.001759826124747211)
(0.001549403882807381 -7.817842491107658e-05 0.0002896546999407901)
(7.501148435119529e-05 0.0001025160704869955 4.51350894494145e-05)
(-0.0003218709466542422 0.007109505481943014 -0.00100777773743402)
(0.000152741902186391 -0.000320506727028538 -0.0002910634738307872)
(-0.0001921432009011949 4.710764167568631e-05 -0.0005043899054575897)
(-0.0005274313753639221 -0.0002685312154796994 -0.001085616035234342)
(-0.0006983916109593461 0.00049360461094682 0.000728759675371461)
(-0.0008567813013754138 -0.0002634933740221966 -2.705487996527501e-06)
(0.0002558860570313972 5.834983156505222e-06 -8.491527770181454e-05)
(-0.003463397631319694 0.001050209427110925 -0.0002578535514781953)
(0.003352233610917577 0.00320909142424493 0.0008543313160793059)
(0.000577612848447773 8.153405241899781e-05 -5.957217246392727e-05)
(-0.0004333406726667456 0.0001826269052552664 -2.754825198674491e-05)
(0.0003438312888578653 -4.423014915291229e-05 -1.145973438349608e-05)
(0.00191338613099891 0.001958319252457535 0.0003258890768141442)
(0.0007374151625188512 -0.0009776192336843682 0.000295552588290891)
(1.15558178756614e-06 -6.469081561223611e-06 2.331932998723338e-06)
(0.0008335744385898307 2.287090415689392e-05 -0.0007275037800449199)
(0.001522147247206202 -0.0003987959099215116 0.0001137358938576201)
(-0.003584134182950463 -0.002302760237315006 0.002349811938811701)
(-0.0001015165935948253 -0.0001695354876115506 0.000185732241191668)
(-0.0001143733901101069 -8.056934003326896e-05 0.0002174080392169472)
(-0.0001566186140867347 3.129853881067975e-06 -0.0001332019168034112)
(6.564947162896148e-05 4.738481764448487e-05 1.212243311524665e-05)
(-4.247640889853162e-05 -2.732657793739834e-05 5.353876091087482e-05)
(-0.0005039313697349032 -0.0001765511529389461 -3.015012780376712e-05)
(0.00102227333840851 0.0003880001026434039 -0.0002055725172902697)
(-0.0003404173187501164 -0.0003157010011985029 0.0001134374358738286)
(-0.002731073844147723 -0.001762926181497869 -0.0004322845999018238)
(6.773808435793601e-06 2.254248813339545e-05 -1.724275420130045e-05)
(-0.0009581436816139132 -0.000225573733769114 3.084326478381799e-05)
(0.0001393827947116004 2.957234664638364e-05 3.732005154715537e-05)
(9.493350202214394e-06 -4.836381244765994e-05 7.872541742999643e-05)
(0.03549966194299017 0.002174287115550129 -0.005281003813846178)
(-3.644324303774961e-05 -2.390126042817438e-05 2.172575787236066e-05)
(0.0004218338289627318 0.0007462356234897335 -0.0004689955671774821)
(4.739377923105415e-06 -9.392250826252207e-06 2.553623462614732e-05)
(3.481871802637497e-05 -3.029457417072143e-05 0.0001005813435889653)
(-7.636873786961567e-05 4.632738291998697e-05 -6.773042068984458e-05)
(-0.0003404913121497228 -0.003876657885296874 0.000194757726276028)
(0.0001203186745268255 0.0001323836080591863 0.0003730919347511076)
(-0.0004051444913309226 -4.013373608770999e-05 2.468978194703045e-05)
(0.008341664016214556 0.001922346608194818 0.0002558006907800001)
(0.0002358622012172399 -7.661139078932493e-05 7.09489972543238e-05)
(-9.141196580696116e-05 9.56021377224846e-05 2.209573481558814e-05)
(-0.0007722952487405558 -0.0008921909943648727 0.0003741041795962494)
(-4.135997180306526e-05 -6.45467647601973e-05 -7.268912678103888e-05)
(0.0001262488609149667 6.976977366637585e-05 -3.073165187719817e-05)
(0.0001029345010011991 0.0001047895557863796 1.319752294843674e-05)
(-0.00472499533704941 -0.00243223534031369 -0.0001118211233706397)
(-8.983300727742591e-05 2.509825407682862e-06 -5.244991347098097e-05)
(-1.420742933094831e-05 9.093877216327691e-05 6.156725602384977e-05)
(0.004541299338419768 -0.0005255862470913003 -0.0009716140343835978)
(-5.614462134348683e-05 -6.415115891996787e-05 9.815006825502202e-05)
(-0.0001465992872678819 -0.002078648782004758 -0.004550401932311397)
(5.344547861818248e-05 -0.0001249565352118751 0.0001482267573532037)
(0.0005880977170061757 0.003779773838130848 -0.0004507750596379314)
(-0.00046291514485864 0.0004166038683641337 0.0001341832318003232)
(-0.008028198767191491 0.004691631997916786 0.00266030384113545)
(0.0001262375251345629 0.0001140825736064065 -2.561598157394233e-05)
(0.002988231702214166 -0.0003801844317322801 0.001302923278917391)
(-0.0001219856947979073 2.586613739270084e-05 -6.950373587529194e-05)
(0.003040589038610507 -0.001142455705238396 -0.001724507236388183)
(0.0004936117057389856 -0.0001465753508757918 0.0003101120894664093)
(0.01506810755647671 -0.005631686509329511 -0.003229775458034045)
(0.001140799941261681 -0.000208918191777039 0.0001204205173671972)
(0.004247077844703299 -0.000295916079050499 0.0003394195038692571)
(4.19180868031173e-05 4.810157544220299e-05 9.230867251664346e-05)
(4.348829753238633e-05 -3.468734484755192e-05 -0.0001102468979121925)
(-0.0005773052208314295 0.00128342783792619 0.0001781046522836947)
(-0.001550507478671023 0.0007023897522834285 0.0007267454686903026)
(-0.006286291013288029 0.001041399695310005 -0.0008669450073900565)
(0.0003099714351849181 -0.0001055425258374925 1.359100244687839e-05)
(7.319477208741719e-07 2.869547457320336e-06 1.191537256654131e-05)
(6.440769503305216e-05 2.832865007322955e-05 0.0001083049872132391)
(-2.259647368082419e-05 -3.384691272933788e-05 2.1853111307408e-06)
(0.0005484754969522498 -0.0002500857587769192 -0.0001135245138513578)
(6.416471442141278e-05 4.832217046847484e-05 -0.0001536790395790025)
(-1.970397553459559e-05 2.721548326151056e-05 -8.36467671020607e-06)
(-7.904317017116448e-05 -0.007490953497009228 0.006982660950838982)
(-0.000144989441651852 8.283401702983501e-05 -1.528552593232876e-05)
(-6.665400825289265e-05 6.791176126673112e-05 -0.0003809408930768905)
(0.0009911072094578735 -0.000140955112824289 0.0004825819006744002)
(0.0008773014581591261 -0.0001527927773964343 0.001131238834129824)
(0.0007396725776491303 -0.0002602465755565965 0.0001557595972248552)
(-0.004810834058411794 0.0001334743156497482 -0.002186616423706853)
(0.001421520674297937 0.0008822115073446608 0.0002341619268115836)
(9.591995945670538e-05 0.0002253524512095761 0.0001148567759785261)
(-0.001768083386897898 -0.002648179480774197 0.006646674720298998)
(4.503333226478156e-05 2.088935549820452e-05 -0.0001946603440568172)
(-0.0001803750554980809 0.0002573051501937076 -6.275624958475154e-05)
(0.0001846975384956801 0.000529838686967305 -0.0007333082363377319)
(-0.006886099476253888 -0.00233653502086506 0.008014607082635999)
(-0.0008156713314562149 -0.0001937340379987792 -0.0002454132502879784)
(3.900522107953511e-05 1.872681180232344e-05 -1.140184135865924e-05)
(-1.37310108097549e-05 -2.986658731982397e-06 -0.000153923036646082)
(-0.0001401450229318486 0.000100051413091569 -5.834269664445118e-05)
(-0.001188943761185793 -0.0002589893070319252 -0.0003593612663505749)
(0.0006572340735098374 -0.0005857413074636889 -0.0005412247639222923)
(0.0004422878983209233 0.002781620408815983 0.0007440140225400228)
(-0.000233978170739027 0.001018540706410975 -7.554653957361746e-05)
(0.0001329440664430197 -0.0001325158287835706 -0.0001408887790049547)
(8.644863131942136e-05 0.002049401003253236 -0.001607042056843777)
(-0.0002047552063648307 3.273170601844089e-05 -1.741574110301127e-05)
(0.00269645043577942 -8.66009510694073e-07 -0.0001914601395410037)
(0.0003938680885663643 -0.00050951051382894 0.0004116475337945124)
(3.602087608684474e-05 1.151202003288416e-05 4.326899563512715e-06)
(-0.0002240013970763036 0.0001325435781083825 -0.0005478029402535163)
(0.0002930614668425316 0.002955577682056904 -0.004973036867258251)
(-0.002664021031597906 0.0004312947152140947 -0.001116854492148113)
(-0.0008767106793662444 0.0008006102874831991 0.0007857181474753079)
(0.04413953568461113 0.006613690239045203 -0.01132121571519087)
(0.001135739233905524 -0.0007814467145836816 0.001236644163418054)
(-0.009710157041243308 0.001552403468707145 -0.00183044169553677)
(0.00336721774294621 -8.445655331989132e-05 0.0004314775833505245)
(-0.0003820335687506903 -8.310077414716796e-05 -7.084017358826912e-05)
(4.870720083516736e-05 0.0002785012849342594 0.000102923115927112)
(-0.0002855406855556512 0.0003756554821581383 -0.0003706147057945588)
(0.001539457880849364 -4.321809675643132e-05 -0.002482308104238155)
(-0.0007401425689207394 2.432002593390908e-05 -0.0003795330884663395)
(-7.80252022160178e-05 0.0001128712168408849 -0.0001052630928036766)
(-0.0008949551799828097 -0.0005537933312718039 -0.001433036717864372)
(-4.812270270216083e-05 2.470253747627597e-06 -4.757145831679371e-05)
(0.0002025520786276893 -0.0001003322097722063 4.950805956534541e-05)
(-0.0007185538380527264 0.0001456934064438782 0.0004978644245180635)
(0.0003231220100772647 -0.0002814170364876154 8.685250312043502e-06)
(0.0003776852703887445 -6.929602876825074e-05 0.0001350957115221763)
(-0.0002057121120948789 -3.989036370043458e-05 1.406148729061075e-05)
(2.145629951845083e-05 0.003022070169165305 -0.003667560510721576)
(0.0001515287072693679 -3.663398453897843e-05 -3.066953385247984e-05)
(-0.0001779625284794285 -3.531478606774747e-05 -0.0004884932747666169)
(-7.294344487481354e-05 0.0002399880655242786 2.532008915629753e-05)
(-0.003548548157938545 0.0001346827113541966 -0.001051414316658079)
(0.0008795266948742107 -0.0006529021768808744 -0.0006188747274590556)
(-0.000636110491457194 -0.0004073568525677255 -0.001089430004620179)
(0.0004224919856923238 -0.000132015553933165 -9.892045253494479e-05)
(-0.002057045047062901 0.0005687697786841291 -0.0003235649046110112)
(5.821848332832113e-05 2.046070173683187e-05 1.376372919475633e-05)
(0.0025207585173427 0.002619706815292994 -0.001550876516311651)
(-0.0002141090789981269 3.471840676665739e-05 3.693519596970133e-05)
(-0.0003243747295146997 4.049939627165706e-05 -0.0004144193993709668)
(4.698820549455773e-05 -2.282521135986474e-05 -2.80266362077576e-05)
(-0.0008370224794735135 0.002892060055501691 0.002159154746729102)
(-0.0002751873382381854 -3.776249747586827e-05 -4.189337121725905e-05)
(0.0001744528032929282 -0.0002011452745783851 -0.0001951611107917299)
(-0.0001113901890098775 -0.0001420538614879032 7.728222421732634e-05)
(0.0001175895251027194 6.848760482766238e-05 -0.0001627446524372126)
(-2.067671716639938e-05 5.283779660639919e-05 -2.219368963043327e-05)
(8.760582925776926e-05 0.0001537356415541505 0.001643486448565022)
(-0.0002546436526898401 -9.045481044672022e-05 -0.0001842879108530865)
(-0.000776241600369801 -0.0002935351895017365 -0.0003734403453747725)
(5.145312007263572e-05 8.232665812239673e-05 5.805102244736391e-05)
(-3.967540119985966e-06 -2.297924365751604e-05 -1.425172225360835e-05)
(4.125815051760515e-05 0.001604797696463254 -0.001497321769855024)
(0.0002932806538574554 -0.0001145064353616989 0.0001435366186752877)
(-0.000912378703570823 0.0007930232078415531 -1.174482301693151e-05)
(-0.0003087479094845955 -0.0004835673130838303 0.001680243424686799)
(0.0003452559028044396 -0.0001236901394111218 -0.0005365932173225186)
(0.0001695494084594812 -4.364539478865829e-05 -0.0001411905264707061)
(-0.001602318302962806 -0.003767098601720645 -0.0004225578328183159)
(0.0001853754590503031 -8.013914996163973e-06 8.042773553533665e-05)
(-0.0001250768870807585 0.0001004258590164643 0.0002049719844424993)
(-0.0001269933996807148 -9.368463258145544e-06 5.929129690374031e-06)
(-9.97137210442682e-05 -9.982585714296934e-05 -0.0003184843159957222)
(-0.0002223126848500187 4.833073445286473e-05 1.256948506761374e-05)
(-0.0003026899169160043 -3.002460641478262e-05 0.0001406817277411689)
(-4.755515804023416e-05 0.0001222978653738701 -3.924111722729346e-06)
(0.0003179726621430712 -0.0001058351002087115 -0.000340086728699181)
(1.802859317470419e-05 -7.194513141595512e-07 -4.913442413674845e-05)
(-0.0001345367433561545 -0.000652893755070363 6.209604076603284e-05)
(-2.50519852162162e-05 1.817997354261872e-05 2.971492577418887e-05)
(-0.0001567161992789788 -2.715611071193189e-05 -8.96725843823716e-05)
(-8.078988592361682e-05 5.905714087881262e-06 -2.213142553807938e-05)
(0.001694960859724324 -0.002681765490128298 -0.0003133813264561185)
(4.527314778654339e-05 0.0001501731623097847 -7.095572202565219e-05)
(-0.0002818046178954196 9.96679735851604e-05 -1.860171834328495e-05)
(-0.0001558785437579002 -0.0001288535568227874 -0.0001443839200315025)
(6.512936651173651e-05 0.0003176210049086416 0.0003541470463447103)
(-0.001957668115129534 0.007526585557734452 -0.004225535253849713)
(-9.663653194405281e-05 0.0002302352643811012 0.0002929118512776797)
(6.031378528735193e-05 5.765825521463477e-05 -3.901510926539445e-05)
(0.0001569719588351647 0.0005786547369506969 5.000680560080425e-05)
(0.001468560864311625 -0.0009111613500673956 -0.0002777476042331954)
(-0.0001325124444998491 -1.706070166670741e-05 -3.345297089030081e-05)
(-0.001454261483313817 -0.000226165262654158 -0.001142016588768993)
(-0.001291853485758894 0.00115711879648747 -0.0001128950484265391)
(0.0001752960903421092 -0.0003542534178992466 -0.0003180394089478974)
(-0.0004852784265751363 -0.002436319664048588 -0.001557089577721027)
(-0.00100692230745041 -0.0004013354354605631 0.000822394631343714)
(2.986698517238329e-05 -1.890304513984018e-05 0.0004511869110015393)
(0.0001947317690481807 9.770693601270585e-06 2.882100488682996e-05)
(0.0002846570304802959 -0.001269708584254769 -0.0001301856986429527)
(4.771573579069241e-05 2.234840266810036e-05 -9.545666428089229e-05)
(-1.700517654175192e-05 1.151019696375071e-06 -9.712912485246967e-06)
(0.0003836515943692639 -0.0001032596257455796 3.885373161968305e-05)
(3.881430229264982e-05 -0.001246791426506055 -0.001041314410712176)
(0.0002620725667569786 6.674944541206659e-05 -2.077132648601788e-05)
(-0.005390760714662627 0.004515842340291358 -0.0005094242471420617)
(-1.822273829557037e-05 -3.746311202450084e-05 -8.331407270800651e-05)
(1.97438956556275e-05 -0.0001716492222764485 0.0002413731905167622)
(0.000611731245564264 1.953680909135499e-05 -0.0002072706543919186)
(0.000235412943591747 -0.000503677817704225 0.0006015324799546706)
(0.0004010403245269781 0.0001597070268487448 -0.000205138881185796)
(4.50695519517777e-07 7.724163740783722e-05 8.008017098138586e-05)
(0.0002945002639432023 2.462075612917043e-05 3.533876700663339e-05)
(1.517859523791215e-05 -0.0003255779575481883 -0.0004249723823898027)
(6.814129942096328e-05 -2.535266790431173e-05 -0.0001003966596384667)
(1.051284172979009e-05 0.000237476294944004 -3.402335215652874e-05)
(1.341529299642764e-06 -1.41958980849075e-05 -3.913426941462283e-05)
(-0.004706266548802945 0.004249790139815699 -0.0007765050079952401)
(0.001225572294333438 -0.002635073276354633 7.861742331918031e-05)
(0.0004330123115680642 -0.0002255305971367255 0.0002122628995488062)
(0.0001982577262246081 -2.167957736435731e-05 8.624085741044652e-05)
(0.001449507961213104 1.314527084977306e-06 -1.758449514363374e-05)
(7.792368474701777e-05 0.0001603505601542241 -8.772419989905029e-05)
(0.0003316936170059152 -1.54037322866933e-05 -5.617806300068674e-06)