/*--------------------------------*- C++ -*----------------------------------*\
| =========                 |                                                 |
| \\      /  F ield         | OpenFOAM: The Open Source CFD Toolbox           |
|  \\    /   O peration     | Version:  v1906                                 |
|   \\  /    A nd           | Web:      www.OpenFOAM.com                      |
|    \\/     M anipulation  |                                                 |
\*---------------------------------------------------------------------------*/
FoamFile
{
    version     2.0;
    format      ascii;
    class       volScalarField;
    location    "2.2";
    object      p;
}
// * * * * * * * * * * * * * * * * * * * * * * * * * * * * * * * * * * * * * //

dimensions      [0 2 -2 0 0 0 0];


internalField   nonuniform List<scalar> 
19631
(
-0.507206605584502
40.30301021760374
1.123372954823338
0.4557082741690341
2.112283624716409
0.9826987439189576
1.265161595409821
4.689656678752841
7.233871605129723
1.590734233644328
1.314680551781532
0.4739927133361267
-0.4406383804326107
0.5848769636716451
0.4391172434262585
0.122763120606571
0.4417185714751592
0.3947406767969888
1.721907550156544
1.794107706967216
9.108273932158793
15.05967283568418
6.221039597216463
0.01633586429791666
0.443259082942636
0.5193984863561494
0.4381339769521523
11.9063647700298
0.853540955220221
0.5304111012533587
3.966713805964145
0.4191796718353119
6.788646486968121
0.4620034333708411
0.8837179877045722
0.529853939341866
0.4985448123880532
5.455498562208463
0.7372947688762573
0.5512277134316597
0.730176190122666
0.03320458135502828
1.067374428734106
0.6550282940277425
0.887493522047907
0.5029000447356466
0.1051804920572742
0.08251252286424145
1.222477570513281
0.8570744924447283
-0.6959879807359021
0.3900742660368825
0.7782802131909404
0.30060239778402
1.764998792507188
0.7290319914055879
0.66786636267941
0.5530156241234169
0.7750462692349681
0.6270592641574125
3.059259171973525
0.3992903364196289
0.3987900886831677
0.9891687385360413
0.7395440316376386
0.6390022977613918
0.3934791417399504
7.238926773463265
0.8296496386939453
2.695447335581444
0.1014854989504068
0.5212513167395509
0.8661848350915028
0.3487757311596224
0.9033631909275277
0.7916450467822131
0.8576079717716865
0.434649035806384
-0.2847776557780372
0.3528277387528347
0.07466566940553608
0.8062881716487118
1.218687217974946
0.5359680185165665
0.2572123451275375
0.4470826588764586
0.9463548141410237
0.5222136614523529
0.5847543143975765
-0.3681183846079818
0.4217205797986145
2.582782235009941
1.286212425933769
0.7689902814774224
0.2572971374974752
0.1656786865478128
1.417963157846668
1.123967234591509
0.9748958889247645
0.526157399730829
0.4517405555902023
0.05863986542511063
0.5227209826416105
-0.1580934476301149
0.5494954921022284
0.594184193770152
0.4759092501664621
0.1977464098380434
1.555357209325263
2.388049565226821
-0.04892748068445199
-0.164151305608013
1.841647124795601
0.4588110995662351
1.768227404918375
-0.07442517014524389
0.2344774662660971
0.8915293969082327
0.3806315330767749
5.722437926217759
3.794463281025908
0.4676231060132709
0.4529435120285791
1.222470110698682
36.69014020128239
0.4460110508264575
3.722874142413594
0.4687836720541477
0.4854473322966652
0.3905671926334505
3.356671392165281
0.1128077768761523
1.574616075201059
0.4823428595069312
0.4268383621739058
0.4818824829067874
0.4157972877865784
1.441402815342454
0.9591554772194985
0.3849926325948364
1.720863167148936
-80.88514435649716
1.096684811245166
0.4429373623055646
0.6333418128574081
1.12700238541903
1.148739794164436
0.4570876530895122
0.8320358252731578
0.8265468138913517
0.1072959775281771
0.3414451374753441
0.4060170241965755
0.3927233890743736
0.3584201371592502
0.4201067989473802
-0.7133308842486078
0.8095718056787019
0.9078758902667473
0.4662872033029039
-0.2056287164459082
0.5430920448129833
0.1951477188111795
4.132982470439787
0.4598674671281259
0.4302666663828301
0.426981636329286
0.4789040832054003
5.891257786179044
0.7105165893422596
-0.3173651606544081
-0.5729070665679121
-1.374996642270264
-5.492698831875733
0.2044821388436087
-0.6956376079526209
2.868013109958989
0.4931598301983079
1.351131617395715
0.0867564984882892
0.625961358425754
0.4902367878959781
1.837986868937981
1.247339519792693
0.8471233966255037
0.4509111847937121
0.6276080073830065
3.092972571453598
0.5983459792376188
1.481070883207406
0.5141729010791505
0.7369991162455443
0.1618186695064326
0.9823423596507439
0.8832715697864566
0.9792150690915623
1.934811025181389
0.6668153342720962
1.398803891217658
0.6222987752925521
-261.073327589402
1.054840840038011
0.2510536997731623
0.2912534853063125
1.948168353512951
0.1851136857098282
3.21329528258277
0.4579394180267842
-9.684230825728879
1.241306288383688
0.5507700528413576
1.890302020880768
0.4943262680562061
3.627658550808698
0.6142936947357949
0.479945962272417
0.5331003161938713
0.4160446745324283
13.36276540021844
0.9109451899380064
0.5629497256071647
0.6783645846745081
4.85513581612148
1.259770739857325
19.62031573355732
-0.2440362423892423
1.16087990720772
1.008891479693614
0.1565247344381625
0.5931785401266959
0.9548003626795842
0.7783982551114873
0.472340322615145
0.3787822502017775
-0.22046070355905
0.7128928021789748
0.7415569356325635
1.01820335332177
0.5901005509691076
1.129727873227747
7.293948038720796
1.124644601000845
-8.46178058922662
0.01137271085498267
0.7408587910904305
0.3495249950821647
1.306979514320279
0.7373021406258392
0.8757658233527882
-0.2247907588945094
-0.1367807453770169
1.753826506136185
0.3056945830859275
0.557884835882253
0.09326371405196834
0.476725401975334
0.6828704540025206
1.362176483635799
2.838050211000632
0.2715992374452736
0.9757539259232734
0.06771940638391279
0.5036991660268038
0.7027343786674677
5.282729801689283
0.5187638900925368
1.065465044780575
0.2750759320239903
0.05412626724267909
1.078110311197578
0.268647787778873
1.296752960306034
0.5972261009671614
0.1571097215294877
1.54112451699
0.9980083609691932
0.4172538838545455
0.1757608236836687
1.157871709258441
1.186945911519759
-8.209967387966813
-0.06182760782970271
0.6893886275578426
0.3737159471994689
0.1996516197161678
0.4102551298391597
-0.6672989503030278
-0.256938351125111
0.06123353230687687
0.6701767534915314
1.248498298510887
0.5190423911590435
1.048500707543213
0.4919368372914426
0.1287068140267067
0.4219825617253879
0.3884684094354544
0.6958771587053513
0.411549848276727
0.3660550288448056
0.1170754492232075
1.550002770396562
2.768652710541884
0.5629721193779235
0.3639764752862378
0.6673164033226514
-0.5860434367212943
-0.5022779559701183
1.290170030424838
0.1346023316170872
-0.2106398550456829
0.4879678431032496
0.06557614505436049
0.5450103568709718
0.5765280153889135
1.575221339223796
2.131750009608568
2.645767509933927
1.216699547766382
4.024727150341211
0.8329622619678682
0.0348636398933139
0.8619535874526257
5.413567970935687
0.2357471504281363
0.7238430107718771
1.176557703564471
-2.3183352974971
0.4508423981601157
0.4622572605915397
1.091152211682348
1.16211605712798
0.9450173569188274
1.025149372103521
1.155082201247684
0.1794866238800957
0.5064055743954251
0.7580272679057152
6.294563695773719
0.5504216126251624
0.6781575489840486
0.3241416112381973
0.5126974558942362
0.1271296632323798
1.111801496156094
0.8912846622480081
8.238907651999233
1.45791985292051
0.5415263886428974
0.276210922767848
0.4777385729933449
-5.951293080638848
1.051969569215158
-0.0844575615743219
1.082605217465211
0.1270989540329553
0.6658648706225161
0.3384989028703216
0.4010314956684587
0.4804844351189433
0.4682267016275214
0.326501111473929
0.9799471360178913
1.024810942346389
1.277988855880583
0.5691072844769212
0.3236038544638441
7.756854874871435
1.269928133022183
0.2763624197196371
14.07899076227099
22.44309835774602
0.7547815440415326
0.9218938040014454
0.6186551656533263
-0.2506534348074577
31.38633358168248
0.5773703712563081
0.4087737686234837
1.646281752194418
0.1495595438063104
0.5132033580786249
2.529260040911055
1.912316953253581
-0.3480302381592961
0.4255223642497998
-3.742626399341223
-6.87109331429355
-3.851977140103955
0.4565136456465761
0.3828449291539629
1.386410462449493
0.3959383973327241
0.3833985753736949
0.6200423766770385
0.7456563588445796
0.3193031137184126
0.3665343911660249
16.49027886369011
0.511956752766773
0.3331547770931992
0.5994130361593597
0.09890284600280612
-0.2489793538176671
0.09143273908503007
-0.4230285713064317
0.5153257467760795
0.5490109239081558
-0.06851198037906912
0.6558651521440131
-0.05616718740131222
0.4101407675099096
1.155396430138605
-0.1424733754888604
0.4634992978073492
0.4960521158524492
0.1774627285033047
0.6356573425379215
0.03243101350514099
0.3640278308365515
1.018336095718078
1.742216821934336
0.9643831064897517
-0.9190983221028551
1.167361398471681
1.076314979895693
0.395621306895604
0.06505385026556489
1.136447681997046
0.5241337541193635
1.526699637086363
-1.190662169127294
0.2308224700404272
0.5493991902707117
1.02100143681635
0.5026721869342812
3.787512543698744
0.3740406752799611
0.7264033965926574
0.5127955206857038
3.513279147022783
0.8495877457672611
1.171344312430272
0.869379761088158
3.550326732491389
-0.07856477003964363
4.142948974399254
0.2335366299815081
-0.1280244586299904
1.32909364482805
0.6217810512416391
0.5663158312082247
-0.2792840131352866
0.2153447996798747
3.528269877411387
3.886391242743809
1.589381171837581
0.3035397289060801
0.5226755630406617
3.377851720674287
1.717567626388814
6.388140909762849
-15.61071122326019
0.8669778838282239
2.667121905763103
0.5080696647507527
0.2798142512538033
-0.2945490140783709
-0.3643604651499329
1.24380011601437
0.5684711405624869
0.404644064512857
2.112652628278837
0.2680737751020564
0.8582164751419263
0.3790523686887363
0.6606972673423546
0.1564402798268666
-0.01015439449164917
0.5170526954420306
0.286550893056352
-0.6254102419970325
2.413982408405673
0.1613105385501788
0.2257499393542844
0.6276402214787424
0.5256429423843654
0.9795015243527267
1.284318648933552
1.563643806434392
0.3219199554963072
0.6591250271917501
2.823218534425207
3.152946719619647
0.2398324330123834
3.517403421229615
0.6276087893119717
-0.1321276996898744
0.8003345199016219
0.6435920533595592
0.6467525822162126
1.302133787147101
0.2339897836544043
2.663808056624812
0.7814212706498103
-1.36489636379768
1.284169110591038
2.880162605653219
1.969605601719911
3.444342805326896
0.3751031537609962
0.2823734046647697
0.452710239348209
1.369618517768716
3.509719802856152
3.35786040346191
1.054442027123161
7.471128355825773
0.6241869399926628
-0.08199566593791832
0.9624484026351534
0.2564922763890695
0.3945378257279172
0.6108021002023357
4.220077457361834
0.8118960510008484
0.4918161336498919
0.1777686887559012
1.338229040578777
3.047927348154391
4.393018038464219
4.555198175735238
4.009980696108335
4.195861611520728
0.6448020926981565
4.611568546171862
0.4164380231023093
1.042076874434356
0.5582835191562709
0.7434793594899503
0.2485850938018559
0.4328725219244409
0.7573319381643853
-0.09365822031927827
0.5413968672909698
0.02305566347701504
1.50564500121115
-0.005891320967677155
0.3877385059322918
1.481796370716419
0.5462919757601936
0.9421811443746838
0.1166730151949622
0.7381339780429297
0.4009958738488802
5.715118417404474
0.3291107535786379
0.4217843332998233
0.5488746291657111
0.3795880716167079
0.3001630476573903
0.5137925421232435
0.6083583511583504
0.2251440919445069
0.9580961014207245
0.7859142530388418
0.1619102187270141
1.329848013605882
1.080597149490412
0.6819281164788989
0.3170382826880268
0.5482059856592787
1.296023024974651
0.3998613320277624
0.8606542423719741
1.12862011001349
0.2456027657753509
6.824522223201141
0.1590300704379866
0.5953751121345535
0.8893400348776324
-0.4292141400231512
1.284686194347793
0.1469642631881357
0.5518981763105696
0.2289463773367875
0.434352281972701
0.8200333275362124
0.5779619979715922
0.3381453162677
0.5363514043474411
0.5533708152256751
0.4652385967829277
0.2479291725897636
0.2581766853986988
1.331933091043881
1.082235519671162
0.7344607099518914
1.096463875356275
0.4638667567875178
-0.4182858683810164
1.300322022647346
-0.1948221885610885
0.2870561499610453
1.010409998891755
0.5396607355123271
0.3409576719889426
0.9154822056402045
1.383970867216979
1.084522176365634
-0.5733189305266596
1.582092490606435
0.7301089655474295
0.6517743133986023
0.8954853127869113
0.5248850397423906
0.4430082665664949
0.7146253469501203
0.2421674354531238
0.2533351841751312
0.5318803710144108
0.1662146121177588
0.2284550218029787
0.5634796670535064
-0.1124644800111217
0.9367899956941075
2.14711161001171
0.4747645438353158
0.9264434892415342
1.466596160144759
0.7681049225717475
-0.02266224200254923
1.968940839921573
-0.2978848334767948
1.04800137654294
0.2745831825231843
0.4186407296675077
0.2792862218590443
0.4831640294975297
0.6407245029942158
0.9409001620687206
0.02385798432691387
0.2253245904328623
-0.4869374107672265
0.1413318966887027
-5.595023880245699
0.466785314542505
0.408140526208491
0.1699884079255546
0.6035987151881048
0.1330483367763574
0.2126139436674199
0.6359687676940193
0.09694131319620015
0.6320086970504755
0.4700531593962916
0.4221098242973842
0.3289712011105174
0.3444149934235658
0.787880343656796
1.354311051705795
2.243066206028196
0.5388142109368165
0.6509877465069518
0.70063631181232
-0.7488586217895378
0.6421461491297926
0.4628392355108499
1.482518777003494
0.2647845920583132
0.6544683907744197
0.2293716784287209
0.764036254634911
-0.8537720428087273
0.5243422505075394
-0.30039326236672
0.3584751568900199
0.5443576401398815
0.2640422051948511
0.1877232433714061
-0.1018322803540203
-0.7155325838149251
0.4411590889868287
0.4821995436234864
0.2302593566589871
0.3962214850695143
1.417188330419816
0.1108232327107621
0.3168625393148917
0.2297994292185608
0.2096906019786946
0.3974682880607295
0.3295289004292782
0.4150464580997943
-0.8257278965961187
-0.01401109193748464
-0.1238052579749089
0.3015527711624854
0.4402521528370502
0.2283939176773892
0.2536464374058119
0.5383130869469221
1.57069205069125
-0.2232273571891375
0.3318666243345774
-0.3591594299777584
0.3443780368908217
1.150568827766102
0.9516373215047597
1.040573167218769
0.07687543960055432
1.745017619114087
1.035890286910452
0.895956045068636
0.6250483118910655
0.3997087469432047
-1.395866328511776
0.124527264720545
0.7766183265237112
0.2296867037318758
-0.08683906359323233
0.4627548750102335
1.242645014775159
0.6661642796466261
0.4891053926181007
-0.1456854848477506
0.7277629900960901
0.208357832171348
0.510601304992455
1.434503935173343
0.8570296277057434
1.254103323743333
0.8366743920875515
0.129885990618405
0.9269964731624212
0.6159863884480338
-0.01462410110209954
0.4857540243225012
0.2458900640819889
0.8022686710517859
0.04367120147310391
0.3794272163287671
-0.1124233584826059
1.103053403178649
0.945531902282138
0.1693183964440671
0.8485072951190755
0.2196651458558843
0.1931442724291552
0.2755605650909044
0.4963516140331161
0.05500559818880563
0.09283270140563474
1.561356305873792
0.405261811782551
0.5278432213370611
0.5975677426833326
0.6904901927460665
0.2568075574684946
0.7096833407033929
0.3136161003471846
-0.2296288943934879
0.3007377453874177
0.4312811090851152
0.890393343531982
1.121568385794012
0.3894055045048754
0.4228122268166243
0.6524922948033096
0.5809012996273047
0.367461955261968
69.86369515592951
2.134217389531136
0.3920997256174045
-0.6320977332527057
1.313122148129007
-0.2495682362594921
1.394026547153546
-0.05548485154659743
2.969753658441911
0.3880306863271253
0.7052090000375655
-0.4060324559175081
-0.6903347433478531
-0.1746692791570212
0.7817628167637189
0.06209734725514834
0.02127904236558749
1.122575072850893
1.453398078039626
1.271616959602669
0.3541557346276698
2.269602208484207
0.6209118911199303
0.7146726811099582
1.494425292635648
0.4837806127809006
0.3953759499772329
1.514662102767796
0.3412272601558194
0.8775092757460323
1.302698079731969
0.3108828424754239
-0.1307758507326687
0.3552796576812075
0.6081715994734344
0.4595589450298552
0.5561480076056395
0.02410795170531545
0.4467858786389041
1.554919971245235
0.4444846334280964
0.9516487126869291
0.4503123617288258
-0.198729397766856
0.3949574317615153
0.2600713849509425
0.1125085691382424
0.4974703201881162
0.6472245565091684
0.4982943018855722
0.706037506535719
0.4020190089928986
0.294674091226635
1.215320297640657
0.2179458003808225
0.7728772865825307
0.3960966838785573
-0.7857536646440535
0.2633697860337004
-0.2871978770513514
0.4181183236950231
0.7053691373477299
0.3522952438369265
0.3728016781327695
1.212115622398995
1.327780795258874
0.6891405855323622
2.046564555582524
1.902991592518321
1.213084512906397
-6.165577481954822
0.5449615706260297
0.5782952743752671
0.6074878287142438
1.076943926587844
0.1889577093421668
0.6152068142211062
2.228743912808523
1.81975598524887
0.6151999039216628
0.7994294262088152
0.8201635689585585
0.8142909532483305
0.7324838912700893
3.03519438285975
0.5429121889388017
0.5572032838034413
1.20336995268767
0.5301755894184732
0.8520884831199356
1.196432022054211
0.3480999957090495
0.432440159456059
0.5814401813120477
0.6280604802175285
0.6360375505163367
0.8489955910074355
0.1785211907071566
-0.1130358759739264
0.3648397149169462
0.6454545154870406
0.1701075588672636
1.014473910610089
0.9214500613957503
0.5356717144764205
2.784767056243485
-0.1144417887473412
0.6198776860221672
0.693676113735565
0.4399374573116955
-0.07836395600341278
1.730321089552946
0.8670586338955106
7.737499119870765
0.7944308061001308
0.566117905790715
1.339428679643274
1.554213612900338
0.5389299249182792
2.345721746823674
0.9811131995294203
1.005985515777451
1.124477463655736
0.5619611671880358
-0.1066216969859483
0.4131843676409107
0.5931383653460761
0.3048489549918768
0.3010659931627809
0.5445187674303004
0.753453661820527
4.660839257946529
1.331854359336412
0.7844057988360204
1.146612220710287
0.8382317895954876
1.103140573595808
0.7567340184451692
0.4554779893898463
0.2149529320334766
0.6698099239185467
0.4561533572992655
0.5399692316127235
0.3568589670357068
0.438242444720025
0.1722764707994955
0.6857359511391135
0.5959053315737364
0.5371793959465887
0.7674487966319739
0.8336874809757021
1.473225006545644
0.008530615384180228
0.411803281985413
0.439042502184371
1.367391455009316
0.7017281567674112
0.6262343133962067
-0.3059383488867153
1.10187020511174
-0.05632662962461596
0.2917618274833719
2.215971171188762
0.4443912077091496
0.3648817126719242
0.6150929413211835
1.553841223231851
0.3708440592289573
0.5086673250448467
0.3331892212823196
-0.07263474141897697
0.9239027763699426
0.3795179636096581
0.7195403848735247
0.3861936767260674
0.6833980377414602
0.6321294345033901
0.3193678660994023
-0.5872987968121665
0.4415350623177838
0.4726723983428409
3.443842732428588
0.9159541849270403
2.987655510257034
0.4171939795982075
0.1710818734659691
-0.1051878197085246
-0.8861962848648433
2.301352440453049
-11.24762531455033
0.51260280814526
0.4782300518606806
1.202314614652976
0.659735425187985
0.4847854908353516
1.21092497800794
0.5578949236064311
0.5073736275774325
0.1588737536820704
-0.3331892771532521
-0.7427858684972078
0.06685665881006966
0.4412156604338356
-0.3847278017397279
1.017940301328838
0.3087472507089238
-0.8350076885421913
0.5775842497611826
1.200291567600787
0.5490046594577135
0.8009689039489926
0.4213513279724279
0.208092049978803
1.430381266028917
0.6419317750017282
0.06393117131461269
0.6759451945773192
0.5664002027063458
0.5785882589176783
0.3786654212079095
1.367512763854385
0.890601497065445
0.8210446128246478
0.3331337950683615
0.3585850058055292
0.9793212479547376
1.129331953831283
0.458430317133198
-0.1047728804352833
0.7023759720219279
0.8439119718018223
0.8170351226399636
1.718983012020982
0.6465158935002656
-0.2273060697265044
2.459020236072523
1.640636723714035
-0.7957685948002192
0.4101553146161978
10.43258240221286
3.152772989303619
3.65069928775664
1.414590367577306
0.6828981729759989
1.368330618000657
0.4541263244542088
0.7088398177232696
1.751373987727307
1.011715247549068
1.193850321166613
1.804120469970289
1.922343539319108
0.5257246685720384
0.8689886098688133
0.667065381130165
-0.600998588978592
-1.562009775833722
1.135246688059059
3.038636971140379
1.771480641726953
0.5606047438853751
4.462985713165657
2.468340203341352
0.4347948671607759
0.3473447936738736
1.236663908647139
0.6754415327902751
0.3217040070104296
0.6820936428606408
0.09459483857759617
0.8719767648380439
0.6563026356526723
0.478210287650217
0.9907345954034014
1.515008702063061
1.569220367356731
1.303627272328426
-3.377246906124299
0.2610230825057005
-0.1645961633855836
0.5787290888169174
-0.4376649574205804
0.2735923965213116
1.928988825647532
2.032265650182255
0.5799005793881894
0.151792879573164
0.4224409995529619
0.5904749174322133
1.055119524761059
1.222239996664893
0.8153008247951791
0.239770868025837
-0.1335965838953059
0.6461018324353277
1.262870824025878
1.726286438437434
0.8725759040567692
0.0619785751138884
0.7808526846420077
1.27689421773956
0.2868451415563789
0.3965694873152231
1.340811064500824
0.2041869904145925
1.06714094819787
0.3119367926707104
0.4244737226714592
0.8640816083631874
-0.04157511086206377
0.1058083164196984
0.3445569991327534
-4.302953255041054
0.4450087170757034
0.6094092634134863
0.5600237062620532
0.2889939850330259
1.101785923938236
0.6939355487158486
1.027427456133151
0.5300063949313604
1.633798161600827
1.093683771542332
0.7178894839132889
2.06580008041961
0.5387146406100116
0.9061878113704043
0.9253050047007305
1.217032848806234
0.3718708719333179
0.682891935760472
0.2040975912150848
0.3377576079769665
0.3517905066970898
0.7973367167358894
0.486278688030993
0.1525365880868387
-0.5811264446465557
0.4310029841131416
0.2853343795079501
0.5670939042023732
2.300505126740136
0.7624126946718526
0.5800579583700195
0.6188834072996461
-0.1971597588999672
-1.168677083641159
0.5811164912306552
0.08288010710622461
0.8277995102840561
0.4666332632968653
-1.497373441608237
0.5043447289049725
0.5302724275026905
0.2468120345602216
1.265718182413457
1.004737427666512
-0.4356948802517878
1.577405277677158
0.5253702969605065
-0.1547198528333414
1.14060457515318
1.028295361474969
0.4015839598805258
0.05561069411854077
1.507602433314621
-0.1252686123556955
-0.02329370704275966
0.4831106192321494
0.8418382976502675
0.8797138332904458
-0.0548638359041556
0.7696584605690439
-0.6255908759584673
0.7046916849548189
0.3030661003199752
0.4730830487187298
0.7012240573774574
0.4219481368169179
0.9899975908585817
0.326549263283025
-4.475012915414996
0.6051407976595872
3.017777692915176
3.536819442192699
4.194193676838006
0.2750165290649298
0.3838184771287633
1.394581970087494
1.420755586539285
0.3074748866356667
1.151995065537582
0.3009116572221314
1.182859125103894
-1.188683557416362
-0.6282123002569194
0.3351503464665629
2.210941259927417
0.6458888308127445
-0.1279950623799327
-0.2456406597417675
0.9041690005387697
0.5961770202076632
0.6429551447812083
0.4929914231311051
0.6611112802455271
0.5475997817077372
0.4741171991575908
0.5225207477471487
1.820997201859968
0.6109050278224571
0.6458261491506353
0.67857077124972
0.4146701554914283
1.579078464694315
0.01481853705676913
-0.9994289587736771
1.30567479654602
0.8807736785818254
0.6052989137495614
0.2538406345795813
0.02854090938060481
0.06032215463671656
0.4009966445129631
1.595949804695043
1.777465262212274
1.148669947696387
1.281238226718411
0.6339597138469333
1.629416819898803
0.4181623983095735
1.309069831397632
1.881978581591065
0.1500356651246029
1.63820914571452
5.836126735147278
1.411865861171595
0.4340208301461954
0.5447261632023304
1.342872235676147
0.6077997072230329
1.02939612140366
1.2377021928381
-0.5005019198785511
0.2761245647180286
-0.004396393983191696
0.8421430721523
16.65596531815092
10.50659873588986
-0.3091526812971163
1.031495845336412
1.192513913361119
1.199273536088869
1.051753552853881
-4.273172996872253
1.007177345856438
0.8854321329267575
1.058982152342783
0.78391678843956
0.423400747669419
1.757898758372342
-0.03664130287121278
1.432735032638979
0.464667766157519
0.7993494448564114
1.044421739672586
1.278848164485996
0.7391985262116442
1.419073136822073
0.6628503086801627
0.2736728766100677
-0.9394546270269611
0.00876259069738893
0.7265951298535728
0.5388606849063938
1.441127128187422
-0.1753578483794928
1.194722195591648
1.305004232576792
1.746455654724566
0.6395130174394723
0.5178071873474724
0.6690039449118286
0.5002798880933838
-0.269196233268746
1.667996104867442
-0.639913603563923
-0.1300029275947077
0.549687168399943
0.6077141817654339
-0.611175846596319
0.5522591013747182
-1.136724741094823
0.7319090165416172
0.3410187995753679
0.1065229958005271
-0.05201095888617718
-0.2496693462023036
0.6328648518367759
0.608431424069831
0.6697821871558906
0.8397163148175627
-0.598004809074744
-0.3687011593989279
1.263144168315232
0.8285834272468214
-0.117518234251037
-0.07468606155851348
-0.3442968015805277
-0.06427517572352845
2.738642258840801
0.5570735407242554
0.05513574344939171
1.496098798079873
1.717685300494718
1.058771778791552
1.192733050157129
1.205440744307238
1.25293010711144
0.9345529961484691
3.087441673231392
0.7598865092339167
0.5045252197457307
0.4645206320825566
0.7199440202945847
-3.004656781018797
1.257994842574921
1.034188403963878
-1.580394175778217
0.541182869586978
-0.1902328230475279
0.2413619272305075
-0.3191549781159428
0.2114411116549201
0.4348972809057096
0.9518366813858155
-0.004482166432356701
0.2642675891624496
1.416082863560311
1.217431195113391
1.190585896931103
1.821123378430092
1.156332138001499
1.065901059718611
0.8984244672691389
0.9612819927747963
-0.7131630788179485
1.256987311184192
0.9453658668220436
0.8708401675779555
0.6654945493300209
1.334031114001116
0.1304505409095402
1.129922758205046
0.294400619054964
0.4117306648823518
-0.9076285634714089
-0.2903570296733176
2.853846202799788
0.319569086488121
0.4033999786079712
0.4226642582362534
0.7733874948709244
-0.1273702752682597
0.6307385626492562
0.6331856622925177
1.424438263994205
0.5667840399248113
0.05946903776671127
-0.1856167433987825
0.2580914654421297
1.094353721833801
0.5409994796317095
0.5963682717582236
-0.1115905952386531
1.085849673351618
-4.987263078668092
0.08612661750758545
-2.156549982082827
0.1025010713458873
2.066430609372355
0.6479992251289139
1.582623290605414
0.3637052391677875
2.452430879358666
-0.1142037535655981
0.8386909547082253
1.716161819819129
-0.05753275424331929
0.6018931424302326
0.7537977984507076
1.263268550315203
11.8500097853217
-0.8237197000574483
1.594609468998516
0.9116520409105542
0.3819638426556174
1.967165969024767
1.358421055938158
1.888980623617838
-0.2203462278490647
0.5852295130177657
1.716227896944396
0.8377011054220913
-0.4981645324796917
0.125259732431802
0.3196007532205312
0.4107486568767993
0.8873757514513645
0.8142061395161714
1.688212795540539
1.337107555437361
0.2738316534464766
-0.06876513513071898
1.72787817724211
0.7551467516147162
0.5811750866888216
0.8491219374190925
0.9493201705305341
0.4679147858518806
0.2357524419367892
0.1694018015221008
1.320223892232533
-0.521271578786265
0.7457226232565083
0.5913998908501013
0.6969369438702174
1.599731096653715
1.155841812327215
0.2605729878286622
0.3749996527214043
1.181006778783484
27.1433747672442
0.4488849786280133
2.530872489714249
4.632914840651472
1.875494856311334
2.57087805432305
0.4198477220224133
0.3917428213149488
0.1352724014480367
0.8389991237993684
0.4698345869705177
0.7685431812926923
1.241736049980068
1.772980419907967
-6.778941353727117
1.64683249214476
1.122033007931434
0.6335235521103273
0.2996688592725953
1.783054788827416
0.5815636283468386
-0.08013771369099759
-0.0004783662556525935
0.5091956319044932
1.424709422771905
1.690843495511545
0.6850285697044651
-0.5993482953775143
0.05908211860548977
0.6504996569476428
-0.3627054193940967
-3.458679128388541
-0.1822291455045256
1.364556413703673
-0.1203301220642946
0.8657158998884241
0.0842735684753647
0.2572233403171907
0.1405406536326905
0.218918802080645
1.984395490318896
0.2345621820650879
-1.105166881373844
-0.00591340122188669
0.059189430899685
-0.03514632360142812
0.6291912119441547
1.619723959094824
1.558473436490756
1.62452444897649
0.9732911256419106
0.8543292473885536
0.3320228561787179
3.024491676619807
0.9145800137726122
0.3320726862885162
1.018623242870611
0.1591801490566991
0.8401016461192234
0.04117041801338781
0.6526909333706128
0.3775923769201915
1.061131121255717
-0.0816657685038827
0.8497925774678265
0.9464763277103895
0.8936208050493043
8.445723455913278
1.589924766622786
-0.7410347740470892
0.6453546931702194
1.260129647857523
0.4581719142733514
-0.3746152660241187
0.2829591003880385
-0.04574453796676282
0.3539910660203905
1.546885156675266
1.537383627652292
0.8092529341223295
0.9182448414214938
0.5310507251567158
1.744357540689692
1.544793585892899
1.439552511676389
1.491304192810182
0.6148104111740582
0.6113280105874499
1.532861188163187
1.421683039587338
1.148511334841026
0.7495544746811836
1.603133020790196
1.504062176529424
1.535293898661436
1.299908415616932
1.379007501945978
1.356864921699528
1.578570853968476
-1.079703615002693
0.06954932119667402
0.1856983378433026
0.6442362223130473
1.21814966879989
1.29729578614114
0.8373529166467714
1.031525373405187
-0.7229668284855159
0.6981270992776797
0.347709140062227
0.3069865081314744
0.876413430117538
0.7771760027680162
0.5557063723676473
-0.06126171339276372
-0.2514394192367607
1.179494947596398
1.725152320345395
1.197378815153068
0.1164331500916748
-6.089466314864149
0.4011192649377646
1.945805794298947
1.030228564057101
1.503883471262561
1.655097465722085
1.428553081667361
1.371754166578288
1.274260178207065
1.187638960031229
1.790480355074238
0.9631734971261661
0.9787501063910851
-0.6095720282521236
0.4742219788248396
1.67545782433386
0.7602112031702898
0.7870445441888738
0.7136855595511479
0.1268012366335836
0.5169985509923851
0.9699546192372305
1.305965772462693
1.591270949737444
0.6698880259447595
0.7429977971946405
-0.1943871541337676
0.6291110253811636
0.952014530699289