/*--------------------------------*- C++ -*----------------------------------*\
| =========                 |                                                 |
| \\      /  F ield         | OpenFOAM: The Open Source CFD Toolbox           |
|  \\    /   O peration     | Version:  v1906                                 |
|   \\  /    A nd           | Web:      www.OpenFOAM.com                      |
|    \\/     M anipulation  |                                                 |
\*---------------------------------------------------------------------------*/
FoamFile
{
    version     2.0;
    format      ascii;
    class       surfaceScalarField;
    location    "2.2";
    object      phi;
}
// * * * * * * * * * * * * * * * * * * * * * * * * * * * * * * * * * * * * * //

dimensions      [0 3 -1 0 0 0 0];
oriented        oriented;


internalField   nonuniform List<scalar> 
37503
(
-7.279260979351707
-10.70350902498777
25.49948711344216
-7.516717096794473
-38.01551959556569
29.49998192916778
0.5118882018793069
0.07403119399793426
-0.5754725798320405
0.8257288001608233
-0.3242874148054862
-0.08501711000835906
0.1055361840930238
0.002228501416007431
-0.0227475763089264
12.31572510523714
7.160150036888789
0.5999021074214876
-0.02400358634847016
-0.08539713487244552
-0.490501387666838
0.08843105851381274
-1.618392246808746
1.563963271047392
-0.03400208650323526
2.858351416419203
10.76080970011626
-13.61916111385636
-7.927395829028794
-4.878845326334821
-7.77927811565287
20.58551928035075
1.772721762526012
-3.139010528805832
1.477960137703183
-0.1116713745586016
1.436599677467454
0.1979844368119408
0.3985993344723041
-2.033183446868856
1.695964685372696
2.152681566444041
-2.721697220196457
-1.126949024868241
-0.02080658708009523
0.003065820528188491
-0.01826841894454018
0.03600918437771203
1.126296871775111
-3.552208426674877
-0.9982563539084974
3.424167920632596
-0.9050609003090018
1.949211782294045
-2.745475274233388
1.701324399553763
4.40670959839417
10.41399726660389
4.426473592398883
-0.008043055881282166
-0.1535751173726852
0.1347878644866679
0.02683030683194662
2.069669388139562
-4.637893728640621
-1.980219056693165
4.548443407695328
-0.2751543565894154
-1.576803510353307
-36.53693578587624
17.50547331665051
33.63218338970386
-6.001486514767953
11.78055437524287
-8.194988048803948
3.027597439540796
-5.500650736497732
10.66804134991874
18.82249995697279
-24.71920016999493
11.58485839633873
-0.06262744510227618
0.4615351502646239
0.04742180470189566
-0.4463295108786913
-0.4413748664703069
-2.156765063028379
3.724436808196907
1.375657949158257
-2.663841963135531
0.3831231187354661
-1.455633201999543
1.939992114751508
2.210646705368556
-2.695005608638712
-9.5507316505369
-9.96303534757536
0.2317969019302664
-0.268037353022035
-0.04923054096497362
0.08547098915237047
-2.289284093547826
0.4330403557287581
13.29806116330979
-16.19357202397871
-23.96817218985807
26.86368304030717
-0.141752756576057
0.1269400664502282
0.0682765853210778
-0.05346389668991951
81.24722538830576
31.48595286466289
-12.10118471653352
-1.536937518945179
-1.004868367511849
2.100431029165753
0.2194644400890905
-0.01573838746627986
0.2081817977661899
-0.4119078528058334
1.371574454527437
-1.120769794738061
0.4978215532674081
-2.074277855568508
2.697226104943642
20.86182790450047
4.388011808813082
-3.621837795351545
-21.62800190708357
0.04992523283082109
-0.3111622763984117
0.1198420265639008
0.1413950146775705
0.3243699080747325
-0.6039994408989388
-2.142767907977889
2.422397436136288
-0.03677685066413977
-0.2224102491666471
0.3695010040278467
-0.1103139061409989
-0.05243496795628975
-0.03385098896653766
-0.006481329082692558
0.0927672849420922
-0.4973455792048361
0.4484182214421245
0.2976943490980445
-0.2487669935163175
-0.02703667886766884
-0.3002141344646733
0.4596388322432317
-0.1323880228338891
3.59092500350566
-2.340947338620217
2.143040410569903
-3.393018075277542
-0.101571939811737
0.02425355162492181
0.01463156603157731
0.06268682086152201
-0.03873733307246222
-0.07521711483502531
0.02332858271172599
0.09062586376703323
-0.02809105461766606
0.118725588392731
-0.1385040507848396
0.04786951582687882
1.961205324034837
-0.9803086099827114
-0.245267981689497
-0.7356287336159391
-0.6609113080293791
0.1793291851456429
0.3265863966467955
0.1549957209791427
8.279991653656133
20.46693837014526
-26.51589553856354
-2.231034484185882
-1.268533309684472
-0.06855696644883108
-1.384606941137753
0.363166254371625
-0.1126436104891413
0.08594956742008267
-0.3364722123062768
0.8092615808071281
-2.1941565676653
-0.9043891018304273
-0.1929041848959667
1.512138097352167
-2.080285683591321
0.7610517667171126
-0.1501378684692429
0.2030637347521997
0.005600110836076613
-0.05852597866463642
-0.2330265908898966
0.1188778121504243
0.166872132314509
-0.05272335538358296
-0.8796546891367287
-0.5358515661697986
3.157027977856845
-0.03413850176568862
0.3256779177560183
-0.3275353945122226
0.03599597583432249
-0.004427524197049375
-0.08997440116650005
-0.01754393490855849
0.1119458583114182
-0.02291319711904142
0.05251822032580783
-0.07815871422146513
0.04855368998026025
0.007975907133842153
-0.1340392756024089
0.1180902392628717
0.007973127465887204
-0.07076222553021619
0.07005711991795729
-0.03312426774204764
0.03382937255753261
-0.2342061107035949
-0.2309225126278467
0.456135424210123
0.008993195856837916
-0.09178172150764674
0.07022241617834155
0.02432822481308063
-0.002768920780304252
-0.1068832365863103
-0.007166851813703474
0.1030006817886662
0.01104940536662612
-1.932173400952366
-1.154387336805621
0.05039331980153494
3.036167428819056
-18.88489037459159
18.16666929631263
0.7182210799880939
-0.1181869374687528
0.04150396086842582
0.06473248151206422
0.01195049348850927
17.79789824594192
-14.75892729114072
-15.1146615834997
12.07569063963542
0.07111232011159947
0.02675575786360596
-0.06491952215593284
-0.03294855801242876
-0.1524133172186604
-0.4903195502810026
0.4369565743795978
0.2057762907191188
0.1266651585684553
-0.586079143807717
0.4874732983110163
-0.02805931846150676
0.1276107267030751
-0.07056107107168177
-0.09929446331852573
0.0422448054763406
0.195191189082429
-0.2173268413200581
-0.1602917739269603
0.1824274234447531
-0.05070129682176144
0.133887588302331
0.1541191109011912
-0.237305404145812
0.7841366015908547
0.6205418553240917
-2.186040630396494
0.7813621709083456
-0.01965612183272274
0.1203097636535362
-0.04120393678849074
-0.05944970679079453
0.04529617463804913
0.009703848697553086
-0.03208920613984429
-0.02291081872309716
0.8563343963961917
0.8282200489888119
-0.04102034883475029
0.01426771485456321
0.02675263342476248
2.741850479318226
-1.540546770331616
0.8232296938228829
-2.024533405056148
0.2174628303269473
-0.08804954980386755
-0.1042131120124259
-0.02520017089168938
0.07661287442580117
-0.0148120603690364
-0.0413416609207299
-0.02045915450080191
-0.07345748193411526
0.4514503849086726
0.4002068285435186
-0.7781997362264903
0.2489924205245004
-0.1840296850265471
0.1605704784341339
-0.2255332150303233
0.1134430178345767
-0.1708281042848647
-0.2453146848238077
0.3026997687247056
0.04721623450687425
-0.09853655789563727
-0.01616845571831254
0.06748877810481238
-0.08363438809493401
-0.0115493530801089
0.0101666306108149
-0.07263731285538169
-0.0978691583262265
0.08804479925563696
0.08246167030105313
0.1866881940729997
-0.1096934603482121
0.01932927672138242
-0.0963240109785843
1.021430413882722
-0.5385115750017918
-0.5104704046754779
0.02755155998690003
0.05177240386069304
-0.2896812184518893
0.3100643614233639
-0.07215554965006776
0.2508587068457607
-0.03577918585058205
0.01860051321396798
-0.2336800362051473
-0.06832451549558534
-0.237773472711204
-0.1760280505215844
0.4821260378667613
-0.03025892113856775
-0.1937565604795003
0.4064374447810687
-0.1824219648362153
-0.11081698770018
-0.235795991586681
0.09139201131977094
0.2552209666418124
0.02413686305384266
0.1474419473389304
-0.195448527521489
0.02386971519783401
-0.09453251614690723
-0.07276763614727332
-0.2732783245575611
0.4405784756305957
-0.1990190343518882
-0.2834284592891703
0.3431823504418077
0.1392651425177928
4.792926278325957
-1.47214003844185
0.05057215502064024
-0.0496950538733431
-0.0008771020185367974
1.004503719575559
-2.221644782046643
-1.44670089629165
0.02570285588094311
-0.01976677947835741
-0.005936076993215511
-0.1936505839678292
0.03522701820491377
0.03089255154926636
0.127531012797045
0.003469510289856017
-0.06554679831774352
0.1521661891736658
-0.09008890291913997
-2.333195294969238
-0.8193046780337745
2.611404590946666
0.5410953901985212
-0.03314841294516185
-0.08807358677049421
0.1311749473075361
-0.009952948772392264
-0.4373876855440496
-1.162982547560601
-0.8706129043922468
2.470983139019425
20.90233455541361
-0.04363663665990127
-0.3325665845934692
2.923935669379787
-3.712138877136368
0.06318760957972321
-0.1007575110536394
-0.03070293788695079
0.06827283846061813
-3.06096474176871
4.871024201181286
-0.1324350204472661
-1.677624448623902
0.0960328111441569
-0.04920026023535979
-0.2175183946567847
-0.1477542449377624
0.1746626807474407
0.190609956974338
0.1907540470302277
-0.09598835713206487
-0.02721891313233588
-0.06754677788098841
-0.05620251879142717
0.2342904961195211
-0.2197410279298506
0.04165304737005667
0.1749416724281832
-0.2821762219967423
0.3084915347771655
-0.2012569874120388
0.02847124481476528
-0.01625333620800266
-0.03324917573690913
0.02103126637909253
19.40539395339933
-18.2955907746831
0.9262841567056124
27.82125450903438
-25.88918724444691
-3.359237533205376
0.2680432873876609
3.821910178126199
-0.7307159246121654
-2.040858234037694
0.3386444238604647
0.916702678663089
0.7855111316122088
-8.054522503773969
-4.225121995095341
6.52272821413606
5.756916263592607
-47.10970629850922
-31.91751542852482
78.28910941130347
0.770529390507997
1.55829582086218
1.395611602903396
17.98928374797625
-10.94901859197872
-7.040265156849082
1.202576850742932
-2.356391247487115
-0.04101614294969172
-1.699955411513662
1.154923988346402
2.33626985246614
-30.70907793132287
-1.744292493970198
2.330492822716216
30.12287761358329
0.08287465921169493
0.003028787739728986
-0.1021008771617522
0.01619742841089853
-0.1397092283979693
0.01539541236540646
0.1243138147442317
-0.08705150636745201
0.04073385969569115
0.0880050500659711
-0.04168740491628883
0.530807274443338
1.428827262246669
0.5374104857537098
-2.497045011730797
-0.6022459851457839
0.209042804715025
-1.791090316991197
3.098173457530702
1.806744744113828
0.6829059556217405
-3.20836224470297
0.718711540741011
-1.899271608694227
1.873508426423276
-3.074835258900566
3.100598455271171
-0.3997482898224748
0.1920001145889031
-1.895569649075605
1.604547109166494
-22.40265179601689
5.423278968715715
-0.0547335209130789
-0.1504448649725328
0.1131187837609293
0.09205960056099423
0.1140496226179791
-0.3428820651453749
-0.3474571070320135
0.5762895453025407
-0.5193197578406037
0.3606477289776921
0.1218428123784631
0.03682921132735329
0.453171373609526
0.2140573603118643
-0.8171525327554676
0.1499237960984789
-0.3527030948520308
0.4816775552278006
2.204218136493644
-0.1408653194141546
0.04277163954804376
0.01653349536712904
0.08156018398384228
0.005454398435872353
0.02596308442625703
-0.1131571042313865
0.08173962060228121
3.108441970326119
-1.10034175113412
-2.634469832789073
-1.135277759430262
0.525087883171748
4.732820677768365
5.611669375106393
-10.86957793183795
0.2006454974689965
-0.7439041443585201
0.3863637105629182
0.3575404331149227
0.08269956643688987
-0.2809196172895159
-0.2083149508317702
0.4065349992588342
-0.6398551937709352
0.2534939143045755
0.550530001679623
-0.1641687247611937
1.807181723569589
-25.63400939361184
1.55393559966886
2.862388661200814
21.21768513652635
-13.7316718713944
7.62948724458614
6.627272520427306
0.1558699754144845
-0.05406471858069332
-0.1265334997633362
0.02472824171079442
4.281073531050184
4.116253617777134
-27.11688765408722
18.71956051977988
1.649988452713665
-0.7604194951148661
0.2914927856179416
2.66861791942333
-1.757533848133511
4.062486574361528
-1.725695409534565
-2.953214458852637
29.04911304468681
-13.65889550231794
-15.3902175341919
-0.07597937125258031
-0.003290177561766232
0.09023162805260229
-0.01096208044225269
2.50250387245754
-3.739459558568492
2.098899783895195
-1.746657944752331
2.571693836823179
2.11932577740416
1.974641212207422
-1.591463111608163
-18.64134406502648
14.61669127254471
-14.85139521006294
4.352232537725781
-1.799866399925943
4.073540999246091
12.52336100119683
-7.653312936109963
-4.301659197027618
-0.568388876137747
-0.01366027943715507
0.07576154384574434
0.009572718208495722
-0.07167398409283227
-1.292443698563253
-0.7278757206960967
-0.468471778505514
2.488791191863014
0.3661089977762874
-0.2164266602328639
0.1078881755324524
-0.2575705152279559
0.038742883929873
-0.06099324224681255
-0.2107762339156808
-8.03618736854774
9.02986614329212
5.148089618455809
-6.141768390910443
2.565398627385565
-1.940410166262328
0.7146357502692394
-1.339624219234028
-0.5017634995820945
-9.604991236399519
-1.119293742787422
11.22604845315028
0.2205513475485915
-0.1515442176332637
-0.06900713052959702
0.08439919538917194
-0.1487862438885336
0.06438704725339618
-0.06123387435395566
0.2625785733308604
-0.07192743656473262
-0.1294172638844975
3.771793479042993
-21.15646105592275
-4.244864124934478
21.62953170948413
-0.1490156372810968
0.138412764286626
0.1682539812087836
-0.1576511111208826
2.618346828322786
-1.261956414470201
-1.793778097547968
0.1742090667799598
-0.08980987237567925
-0.1474709182073726
-0.048550872282536
0.2271903295217004
-0.03116854171082694
2.782121566219194
-3.259605349689596
-0.08491169424131628
0.5623954680347103
0.3756370223013381
-0.03934354862064022
-0.02966633055321846
-0.3066271494404286
-0.01295679427059255
0.01446586858718798
0.08756443266764234
-0.08907350844299718
-0.4328863027387693
-0.1121663390767938
0.273724663944324
0.2713279741332176
-2.29547289864807
-2.113617189157499
-1.448437877455555
5.857527967865353
-0.08763492369549114
-0.1492295221251413
0.1016478555976638
0.1352165892510263
0.04419526430969392
-0.1489023624648434
0.1047070968115922
0.06670409320410398
-0.01893444224316868
-0.08937637298310833
0.04160672045407048
-4.40179603824201
-0.1335225409714219
0.008064290972384282
-0.01947569487811232
0.1449339429868748
0.02379614935211594
0.04335473807872102
-0.06715088892608406
0.02987373016828578
0.05816293233414702
-0.1083067512940961
0.02027008733953041
5.843926253172619
-4.009733723463896
-5.296008668460882
3.461816127304703
1.941533510548401
6.060290275329726
-2.353100718353192
-5.648723071935333
10.46371400468346
-6.561018771959231
-20.54996777779968
16.64727255372458
-0.07480421765238005
0.05771230245995089
-0.07802492202029833
0.0951168352206717
-33.04838643152372
6.695864219815379
-10.18441357280077
0.7192723342618744
-0.3623410943030664
0.7044661738505069
-1.061397411720246
0.7233097610231873
0.1522220517291965
-0.7200826953577874
-0.1554491198461631
7.329967007554573
-1.01157639094312
2.24525391124243
-8.563644531655363
0.1026390444185431
-0.1194625307063959
-0.3372441412302775
0.3540676256792343
16.25322753509414
-13.16334871438319
14.89940492695315
-0.6416597632498168
0.1821995332215797
-0.0592063471877263
0.09043577789797347
-0.03122943151236685
0.06386780003609792
0.1273928788604231
-0.1674348376407823
-0.02382584233837614
0.1061425359053428
0.02914016314099587
0.02618207656315053
-0.1614647780962895
-25.70262060915568
11.27501043245639
1.293073684696492
13.13453650713138
0.316680971899539
0.4362867513400615
-0.3767967039884914
-0.376171021169546
-12.91523217575987
16.25779883685474
0.09297987248127147
-0.3761051284722198
-0.111047424881029
0.3941726775678839
-32.51472142796069
10.37402365584199
7.116052080691588
15.02464569731577
-0.1609503276971267
0.03467405566772531
0.05705864657179272
0.06921762374660517
10.19229921726428
0.03169795372532659
-0.05362613279736846
-0.01520239263340317
0.03713057065119693
0.4478561280262799
0.06017976669428312
-0.5473414215634798
0.03930552653590203
1.425485810291701
0.1455327362644364
-1.01068597699559
-0.560332575484534
0.002841790185448966
0.3787017964466676
-0.1125397832345583
0.05555595087796338
0.1888840879224909
-0.1319002577172569
-0.07196986044628824
-0.1214969481941609
0.01242998979371996
0.1810368179203608
-0.1999229035758807
0.02011025475287296
0.001785916395322328
0.1780267302357676
0.1222563552607368
-0.03315390274523806
-0.08910245408768108
0.01842098025905677
0.03920847111015577
-0.0576294524125421
9.439592644410084
-13.85430513160969
4.414712483894252
-0.06140926089559306
0.08112534687214402
0.1803538070876795
0.2131646661200001
-0.1373206612597547
-0.002359333219388957
-0.07348467435482484
-0.09378164368542216
-0.3076762532020699
0.8331841260898946
-0.4317262308250232
-0.1235835910137155
-0.3069485695710725
0.1573244984290735
0.2732076585262791
0.2068677885250632
-0.3906209009242899
-0.3712467563482562
0.5549998677115234
13.92602535552994
-25.56685726970777
-14.0617886828971
0.9125123434859096
0.3809598309072185
1.743776085466418
-3.037248262200417
19.9319860245458
-25.20607985002436
13.88276384439071
-8.608670013920632
-13.09461179585431
-16.03335198220908
10.07527472364603
19.05268906521731
0.1057547717866306
-0.03553217287934894
-0.0702226007486791
-0.02046256040184657
0.0006621811888580056
-0.07965506674538404
0.09945544339192272
-1.222654418966806
-4.786415846767428
-1.015741200995558
7.024811465765974
0.4034295724537993
0.09271199157973306
-0.5753391745832025
0.07919761000992033
-0.04937892156609079
0.1448325644904919
-0.01751194745943543
-0.07794169704151181
0.0408094494724317
-0.02488120480665272
-0.07741563905953397
-0.01918940510389168
0.04995710586262125
0.07672778989697315
-0.1074954933339928
-0.04527852406184535
0.1093113570405169
-0.06403283393351583
-0.04403167526945992
0.04507256956358416
-0.1274762322304474
-0.05393635794908334
0.1867325838316177
-0.005319995877229576
-0.05501617580443626
-0.04174618556925989
0.09676235966922341
-0.4079880513470928
-0.05678362961260639
0.3999161265762107
0.064855552186264
0.1983247788753793
0.1778649937374934
-0.3262645415233349
-0.1402283837919539
0.08808411788428942
0.0694724919450863
-0.0173282278769374
-25.55614962781836
24.28095552031896
-2.939292139409844
4.214486259263013
-0.4436116133305695
0.09581408645941349
0.2913604894865189
0.05643703402864652
-0.3802486560909317
0.1547344563864028
0.473738630437579
-0.2482244329272807
-0.1557551887740122
-0.01259972196525799
0.1118333585121649
0.05652155060908805
-0.06644075360480439
0.2770433130811898
-0.2454257631757093
0.03482320142166025
0.07037816055155316
-0.2237325172990128
0.06780193889114094
0.08555241590074719
13.11996349978258
2.139707067527249
-1.908017662990486
-13.35165290019452
0.1136264785347088
0.0207816142349645
-0.095210333393627
-0.03919776130361886
-0.08117707755943061
0.2018545925885025
-0.03424502994971523
-0.08643248724988407
0.1096162410686007
-0.1154232333698256
-0.1429792529828339
-0.045737899510434
0.04007019273506381
-0.04638618584045229
0.052053891472481
-0.08415771261960454
0.4183994495175427
-0.2897147766132644
-0.04452696177111351
-0.03649296231841387
-0.1992996863754498
0.1942159060567744
0.0415767402657285
0.09258710971727434
-0.02758179012271442
-2.240392449309744
2.175387121713782
0.1157878282637693
-0.01608926642353992
0.03764977393465378
-0.1373483372788517
-1.298807320547726
1.950315374396899
-0.3042968736166881
-0.3472111806735309
-26.52380913887326
1.204575917340671
27.71242555934496
-2.393192332132282
0.08003599178214811
-0.3133367886684931
0.3229329348184436
-0.08963214223960275
0.09588253218162708
0.01661842402677475
0.06946196720331332
-0.1819629251974225
-0.06918303811830161
-0.01080431170800755
0.0594051052905175
0.02058224339497149
-0.5153782707013437
-0.6119215607881634
0.5859501056562396
0.5413497249973035
0.05501926985498773
-0.2589263658387059
0.2042999209661918
-0.0003928281964267076
0.04789249161188218
0.02493071118894046
0.0795899596223654
-0.1524131639066298
0.0203560214418844
-0.08431594623299694
-0.01227622241865783
0.07623614637846689
-0.3733251284474282
0.3642580454302364
-0.6628173770781647
0.6718844563794696
0.2433115571984343
-0.004785964863215938
-0.6339073245674594
0.3953817247124944
-0.0581681168376204
0.1288373787237113
-0.0477508938179359
-0.02291836936986077
0.1481101907587234
0.2568137966021197
0.01577132438450947
-0.42069531328225
38.72964974706141
-24.8876396663889
-17.92618377891911
4.084173702048965
0.3440577847278879
0.1014602574816492
-0.1605634251131852
-0.2849546195165537
0.005267517595345306
0.01928354366376206
0.1981687105246471
-0.2227197740253987
-0.6563300204600746
0.1279814542898897
-0.09628513287296851
0.6246336961423866
0.08556790140110032
0.02245085829041089
0.05217875217643132
-0.1601975132626856
-0.05429398349811775
-0.05183926681685375
0.02352407585734976
0.08260917350020111
0.0486827625059183
-0.4093596758444534
1.720741284297293
-0.8343126228031261
1.263545784036781
-2.149974452070276
15.46655925161683
-10.90693160179165
-0.0408164747192422
-0.1287228456320273
0.1323863396333778
0.03715297881771858
-0.002189767925861412
-0.1248702160023953
0.02187127976348921
0.1051887031063595
-0.1222953665049094
0.1231278677110566
0.03621786767510507
-0.03705037045755663
-0.2310607047512598
0.1029625281358664
0.308245027495464
-0.1801468532912689
-0.06575576608148599
0.02297575918128036
0.01518085654271628
0.02759914919180122
0.07381585628719087
0.03171385991426687
-0.006690251360410369
-0.0988394668121879
-0.07399676936696115
0.05703856145908481
0.0976410680036829
-0.08068286154152302
0.5810613768411214
0.7509886708649893
-15.1022879981025
13.7702379677436
0.157234443262751
-0.1630508182364016
0.01614121734197922
-0.0103248439552939
-0.1541845276669956
0.04526165239976086
0.03200679666483752
0.07691607629386858
-0.1916155465355771
0.3403658422631716
0.1344485012663992
-0.2831988003139109
-0.03902681006708807
0.03551191858644039
0.003514890429391752
27.05499659147425
-27.77301179317891
-8.140534319324036
8.85854951638264
20.66814042876224
-2.020897807841787
-21.13134796896859
2.484105347571712
1.964342177372284
-2.192218038822464
0.3275522052063857
-0.09967635028195075
1.816358787174935
13.0828320533196
-8.37878917015648
-6.520401671528989
0.1350484690102725
-0.04208775344464702
-0.09296071733847804
-0.01624664881080965
0.01074337969171642
0.08358127551976796
-0.07807800698037236
0.2834540355866456
-0.1235617090976417
0.4357790087665723
-0.5956713375970484
1.823192730262
-0.1342755553816145
0.2862274059978567
1.239709557338467
-0.4684016576333265
-2.028267440206
1.256959537960365
-7.3884307581752
-0.2531291249120403
-2.383494437331138
10.02505433713843
7.5661317943108
0.8292502915897577
-8.119951611340415
-0.2754304809840785
-0.2879560093433622
0.1238119533693941
0.1134427577390798
-28.37563504042004
21.75303754964
4.791526782087313
-0.1006662072726438
-0.1464060966549186
0.2168133818930061
-0.001768328175234708
-0.01817778340224014
0.01994611104325968
0.09469459983533544
-0.04377058810588363
-0.140602148553907
0.08967813567439278
3.801049175797579
-2.62065032475635
-19.10009209549954
17.91969325585817
0.4981029473479376
0.1025760986680134
-0.6801695065265532
0.07949045776997027
0.04987804102210683
-0.03910460453427236
0.1231141507793797
0.3618843687486019
-0.03178399106510201
-0.5059764731704566
0.1758760944584788
0.08489575752391487
0.04010563747523085
-0.02113318725850363
-0.1038682088175085
-0.09197463411688044
-0.4180564717266579
0.2046291675256
0.3054019370178021
0.2704647795376597
0.01230548091098581
-0.2556562012126807
-0.02711406178220324
0.03334292464064626
-0.1954038902150991
0.0294123212892758
0.1326486407374721
-0.03799840476727952
0.4660562207598251
0.2517988403702822
-0.6798566589705606
0.2002268498334524
-0.2531219708225956
-0.2688702603671526
0.3217653780644615
-0.06588180247781061
-0.2846232536983062
0.3029179251129328
0.04758712624027586
-0.0371640342917702
-0.1405737571242932
0.1777377899311497
-16.93181346417462
15.30476815759536
-2.603413529884252
4.230458822753937
0.08345558876374701
-0.1206196236674227
0.09455305905975017
0.08437651000118271
-0.06233347621254043
-0.1165960942148432
-6.389710893297674
19.17750092439061
8.074037882100452
0.7187232411901392
0.01508741722409592
-0.4503566237718769
-0.7965238490492964
-0.316399831003723
0.6581231312895066
0.4548005437442425
-0.02714707478030818
0.1102454580446854
-0.07478735024099656
-0.008311034537901043
-1.05479609915723
-0.4053789404139829
1.352018000764252
0.1081570299968406
0.00111745601541189
-0.006930457780047201
0.03428424590856478
0.1214383160557857
0.0543004615124693
-0.2102543109899025
0.03451553214808629
0.0720993427971863
0.1327945614455663
39.85836826313623
9.550563700211672
-37.02939631986734
-12.37953563373745
0.04573314251650915
-0.08813119366391349
-0.002095580487384768
0.2872785187693136
-0.4842019736622428
-0.3364323608647848
0.03096850684733591
0.374660251824011
-0.06919640088453866
-0.2728232346155445
-0.2604346998067362
-0.1769808382621692
0.7102387682491228
-0.0341148884083624
0.08878866585380238
-0.1064050621643797
0.0517312833229937
-0.4236995852606733
0.3493344955446039
-0.028432481212233
0.1027975693845301
0.06099600547011567
0.002984720282379564
-0.0156706368102112
-0.04831009094587528
-0.6539629088728578
-0.09867475806759037
-0.1579702947266637
0.9106079621798123
0.1011782072340602
-0.006285247123110801
-0.02695263024048432
-0.06794033143478635
-0.3606975897030414
-0.1102422475551827
-0.0483799236175923
0.2588590235672394
-0.1721488113832528
-0.08671021354573248
-0.03738556163931717
0.02271832060418417
-0.118691904589584
0.1333591438227074
0.03058419004326415
-0.1074945494546607
0.09829181121193344
-0.02138145345852265
0.5389451080042752
-0.73548384007329
-0.126297875536684
0.3228366047115293
-0.06904801816731405
0.06752987513189208
-0.05093076341591493
0.05244890392814516
0.1410258919301071
0.06839529015720258
-0.0004436019846285514
-0.2089775818831773
0.5832401054299716
-0.3867966281543707
0.03501676843308342
-0.1513850813610632
0.1093094999934443
0.00705881097221524
0.04166282162992445
0.002368290213483645
0.3361894174652986
-0.3802205322068095
-0.08009830817309874
0.006800564617475502
0.004114704664362212
-12.49161569244702
-5.38241567813041
-3.086414886852729
20.96044626042602
0.4614508571652887
0.08137029982551063
0.000638013048166724
-0.5434591706460133
-0.05838378877796431
-0.1781737778139103
0.1613323319950926
0.07522523200401235
-17.68987153491191
2.848165588004769
9.018192108416528
-2.304622140154157
-24.40344150222229
-0.1306681231138698
-0.03772681602496384
0.02092401917910744
-0.04905533596797608
-0.09530711542133159
0.1855662643557764
-0.0412038150520779
-0.3011659669779253
2.179314076805745
-4.406872640786342
2.528724535093065
-5.628216352379858
15.73216994430106
-8.287594802644772
12.71366968670237
-4.089775259805111
-0.6734732999932356
-7.950421124215406
3.236085668696411
0.04254578556495001
-0.6734833179186965
0.7659239356302199
-0.1349864059489735
0.1206022106628529
11.02253726496673
-4.656017845476415
-6.487121628506132
-0.09987043578753382
0.006291388584798115
-0.07770211598068189
0.1712811600534838
-0.6436491431258375
4.053878912329169
-5.135925182667446
-7.739726959618852
3.251182795181903
-1.162848175669785
5.65139233934597
-6.559050730997897
3.852579046445078
-6.854336001755505
9.560807677439575
-0.004527933735164641
-0.1446085070480553
0.03540649089390582
0.1137299484080052
-0.03288288297915439
-0.3476776162733137
0.3662070029580097
0.01435349387870504
15.93873562325405
16.28831524042803
-12.26953592330071
-19.95751493527691
6.960344932769813
8.978390694051456
25.21861074177708
-5.486441908735697
-3.443853588441494
-0.05114289902847622
0.1604968270609176
-0.04688601774103925
-0.06246791200410116
0.1269036472077211
-0.08653122731172817
-0.0915153204864063
29.16627233425269
-40.05698787662707
3.10336581426476
7.787349731197539
-0.04271452019799611
0.04109238927689786
0.001267486504765053
0.0003546423344938078
-0.02066678961484257
0.05892081889043628
-0.03825403034281404
0.1374548315526861
-0.1787375061515825
0.3305343313180665
-0.2892516602718149
25.36479968177743
25.71854228552425
-0.09222214138209012
-0.01393061209193159
0.1233683560821226
-0.01721560416874774
-12.72072537075982
12.22429969323881
0.1255436647870919
0.02061048041932916
0.02482976609701995
-0.1709839137035088
-0.02395825796622915
0.009143435933424801
0.014814820986814
0.1568910670432969
-0.01534846222660053
-0.1676645722222198
0.02612196635341642
-4.310452951713737
4.66078540353637
4.602989103780414
-4.953321551999821
-0.01486780089326047
-0.04624942514508589
0.01618540754134096
0.0449318170586136
-0.0565224919917408
-0.03583226870221547
-0.0306496378921437
0.01578183655884396
0.01974051472195022
0.06016118611880236
0.0004344195958739287
-0.08033612157911033
0.06720940743692008
0.107036774644557
-0.01551789798506412
-0.01513174044854896
0.07214691762465159
-0.1133393676280131
-0.1031990184582241
0.1443914671730371
0.03410460066448807
-0.0149980542034963
-0.01910654729343248
0.01290873014644527
-0.07913022949554205
-0.08750713849118233
0.1537286355767317
-0.3021815773490316
0.1289327229373547
0.3129283814846855
-0.1396795331532239
-0.7281534702286067
0.07011516042490704
0.5025404484249487
0.1554978594816717
-0.1078826221797855
-0.2060183269696562
0.4222828190344794
-0.1083818737521023
0.3085462182474558
-0.03801632501801536
-0.5045885048130878
0.2340586111978722
0.07454735952928059
0.02073158186418344
-0.01986134384406199
-0.1376500076846902
0.3269995566636894
0.09510291656432389
-0.2844524694725439
0.07174448758195526
0.05990432008694368
-0.1316488084473103
0.08684141070387252
-0.1042619168657173
0.06437281730295602
-0.04695231232197816
0.8123528634409259
-0.01043217232229222
-0.4909407678278377
-1.261185528714391
-1.295951900421627
0.9313606935321144
1.625776734664951
-0.1090573971477791
0.03354019735457658
0.1105339673984297
0.07247986757983707
-0.03585688874418463
-0.136911611421585
0.1003507813825087
-0.0181374040511223
0.05469823106553582
-1.17361601091828
0.7257615104780605
0.1844570555887393