/*--------------------------------*- C++ -*----------------------------------*\
| =========                 |                                                 |
| \\      /  F ield         | OpenFOAM: The Open Source CFD Toolbox           |
|  \\    /   O peration     | Version:  v1906                                 |
|   \\  /    A nd           | Web:      www.OpenFOAM.com                      |
|    \\/     M anipulation  |                                                 |
\*---------------------------------------------------------------------------*/
FoamFile
{
    version     2.0;
    format      ascii;
    class       volVectorField;
    location    "2.2";
    object      U;
}
// * * * * * * * * * * * * * * * * * * * * * * * * * * * * * * * * * * * * * //

dimensions      [0 1 -1 0 0 0 0];


internalField   nonuniform List<vector> 
19631
(
(4.901271902916477 0.04575116756682609 -0.01120342789305832)
(24.46008375479191 8.329136372997322 2.095510218991445)
(4.569810441919333 0.2355520656511692 0.6113691758176505)
(3.271705698225589 0.009563503311487804 0.2080291271990694)
(4.947250584800966 0.01786001190984099 -0.03044523045416162)
(5.042002116609738 -0.05859809497462526 -0.04190208985362565)
(5.026600816886018 0.01981097216015087 -0.02323719494505098)
(4.457172656186682 0.5688279147658887 -1.146022307871099)
(4.861106957340173 0.1777971470163626 0.04684310586675758)
(5.037914688904945 -0.03701717292467974 -0.04631916860875863)
(4.939184381764848 0.06510727669940138 -0.07328590451223585)
(5.03212296289663 0.07292107788207181 0.008557879229697118)
(1.871728063060031 -0.08853500648999632 -0.2160302947122121)
(4.970308968051238 0.0003134964281344263 -0.02017566324635297)
(5.013112365119759 0.003205237828041538 0.02852443975897318)
(5.009537880149685 -0.01211581906156678 -0.0009064179987559416)
(4.806132419657138 -0.1994167963321878 -0.08985959451675955)
(5.018656123008762 0.007590805706329138 -0.004306215863213054)
(4.925290664668283 -0.04284520974610789 0.01589624205774535)
(9.346147462007165 4.758710200824451 0.135134708471338)
(4.773081166098568 0.09883455710995145 0.3040234211333951)
(5.406575288355259 0.3746711757663096 -0.7978597048518346)
(4.694063797982283 0.03437355348054601 0.1064161842179269)
(4.956513618157956 -0.4093345020518236 0.108207793617985)
(5.019271740975794 0.0394420064698368 -0.002706029636872497)
(5.006747034570544 0.004787234061985371 0.008691949773658737)
(5.054308764772027 0.01731149595865706 0.008101521283857738)
(8.728594940963509 1.605147842312522 -0.01592061353536302)
(3.962948927095127 -0.1750932905470415 0.1724631825410793)
(4.99617312596098 -0.06317229588837686 -0.006688372642182756)
(5.011906266609196 0.02219306198397429 0.02724715659871788)
(4.816929193989046 -0.1773977936117683 -0.07827015808137892)
(-0.4973600317759724 -11.91110281021174 -0.6439501250184497)
(5.023385265568112 0.005261808707711077 -0.004129952041519874)
(4.95587107690252 -0.05780460824468941 0.007370717544627496)
(5.02098737755653 0.06035657464992893 0.03562815273354575)
(4.991203333755611 -0.1009773405057603 0.05760592305931442)
(4.906680576022075 -0.129544801927914 0.1619225939533118)
(5.052393097383469 -0.01603822406356026 0.1003131937011399)
(5.0426798227271 -0.102228715897898 -0.1338243446739932)
(4.889605936361759 0.03511421995552588 -0.05125434303635375)
(3.871441124774281 0.03745713902196882 0.04362730934648886)
(5.055436335347688 -0.04847560853234203 -0.01095169855804052)
(3.320994124759798 0.174758058546022 -0.01546422820963184)
(4.689948625947626 -0.00139274136709639 0.2705948437264893)
(3.151099887928529 0.2028661477720006 -0.1699841517584982)
(4.502725335877106 -0.2370020128516133 -0.4695988554719108)
(4.89333208708119 0.1634195547487146 -0.6532228345474014)
(5.057859235936857 -0.03615796599029149 0.007642387820913907)
(5.012943276247491 0.03775750754035069 0.07017744071008308)
(4.835668074851403 0.02259483798799624 -0.06557820283589239)
(5.072400994140972 -0.01245966620094312 -0.05268001554144634)
(3.663282100230547 0.1017165326225855 0.1906298890037071)
(5.07908016099121 -0.110635574772092 -0.04673562470774788)
(4.961152594801828 -0.08666083758080484 0.04519760831465745)
(4.814058073206461 -0.1520788340108129 -0.1028873304462327)
(5.068123947566843 -0.06200453755898487 0.09496161981523245)
(5.023526139295104 0.02016919529274654 0.02438393138724135)
(5.072639885682968 0.0679055400605021 -0.1888176427921782)
(3.584535434226447 0.08125079674738782 0.1749887832228172)
(3.721397563019982 -0.01227344027846314 1.083673632093869)
(5.088604378908954 -0.1252811521479508 0.1825282479705511)
(4.838735756608028 -0.1801003951326889 0.04993403668705262)
(5.058967309686299 -0.07472532643441659 0.006441782555612126)
(3.604636921519529 0.3085159513586813 0.07412708411973824)
(4.962746483194342 -0.1667944217017312 -0.1973022066935117)
(5.032712518493318 0.01424536659043291 -0.01530341488084925)
(4.757511003367907 0.05462624196020503 0.05640741008625759)
(2.829339520844736 -0.03581392253306141 -0.1358192060180748)
(4.969252001716006 0.05209623592116831 -0.004165690836127881)
(3.332090990600361 0.3066953968547091 0.1964972597787569)
(5.080687764100452 -0.07880927067577331 -0.0840494328161472)
(5.094737536812344 -0.05669190804225366 0.01599440262259364)
(4.709459289426348 -0.07242649725256319 0.0169740353237754)
(5.058084284999287 0.07557956848959778 -0.1959683004203132)
(3.494652479982039 -0.1950844087282874 0.1037630776165071)
(5.04407716754159 -0.1255780866860898 -0.04158921973893509)
(4.461682493507257 -0.3531973735651828 0.2551641825329002)
(2.228199610741889 -0.009493747259635544 -0.03733891655950344)
(5.089964423023548 0.04618148014752173 -0.004313002501087902)
(1.793444630851886 -0.184050774100643 0.1174262086131854)
(4.70886740998815 0.2650334585144127 0.1738877512823855)
(4.121749560675364 0.1057456326308795 0.006148973463684546)
(2.78181621269174 0.1385999507020471 -0.0977179239157288)
(5.096034951652703 -0.02889424945542071 -0.05355644209662371)
(5.064752783167079 -0.07215352461264361 0.002628641824987417)
(5.087277886645542 -0.1268870336473502 -0.06453220752193858)
(3.129884207551472 0.256776141790169 -0.07428351975950426)
(3.365002188523992 0.002781845544504315 0.2084914517418268)
(4.204439106517423 0.1168855856202985 0.1213777740702918)
(4.957892918410006 -0.07062367166418287 -0.1092678747491989)
(4.578432416965867 0.6978657240137823 -0.4968107428886951)
(5.183865616939537 -0.1352759733504081 -0.09543113751747825)
(5.021791675553751 -0.06949823226416052 0.1103638287139047)
(5.016901572910902 -0.1494888310939361 -0.02568036818359746)
(4.997993858693278 -0.03569243540401004 -0.01996560247412786)
(3.361784197676082 -0.1028501635679327 -0.05844388269976974)
(4.996245286922073 0.1544107465801096 -0.1567133161804026)
(5.207287998011325 -0.2178762590638063 -0.1653340562572126)
(5.05885836717666 -0.0547088962646226 0.04893909023253785)
(5.009422191526794 0.004982881666975216 0.0425969021996218)
(3.146444091313531 0.1487865020224266 0.2090378017514665)
(5.004290643872498 -0.00472860416363282 0.01879734273883702)
(1.422858828349217 -0.1043062725690131 -0.02875114382018028)
(4.765326779380084 -0.3265651157648885 0.59772139097676)
(4.793632121061795 -0.2327175150586168 -0.1066271732077935)
(5.048396005153463 -0.008942777842112967 -0.002523332858468082)
(3.964013071108342 -0.05690988839272042 -0.1691227074236531)
(5.010885391377156 -0.03673601095878663 0.004634285576419593)
(4.908914513338845 -0.04985945978941062 -0.03239070415999556)
(5.02578331852789 -0.05279470911996439 -0.005050347584160649)
(4.406417478997237 -0.008274274618540725 0.1697469947251277)
(5.005145546799241 -0.04968685361307363 0.0201372694648181)
(2.571691819359823 -0.08479983341793265 -0.03632733105952143)
(2.482956256921212 0.6608424840031538 -0.2145689891120357)
(5.08111134403347 -0.2843934191916432 -0.1035825757735064)
(4.49381479493063 0.05282879424760713 -0.001647004809326271)
(5.010360264229853 0.04161775215764071 -0.1238047038729633)
(2.497937498859307 -0.2344638480222258 -0.06934844261285303)
(4.849271848443355 0.08603558631224392 0.01772914212390209)
(4.915158263422445 -0.1105542074625332 0.2027763245140151)
(5.010119498650515 -0.05929671516809411 -0.008958771878208293)
(5.015433919417435 -0.01112668344966719 -0.009862977721447999)
(4.841333289915902 -0.1757882106610043 -0.127462741635487)
(18.14152799753239 -0.3142586118147276 3.419770020604509)
(5.018972877113764 0.04080053713394539 -0.02113703680049773)
(4.238975730003463 -0.1154973416107426 0.3615598251390731)
(5.014376552391265 0.01324805267435931 0.0002767134376261727)
(5.0126867289133 0.005911041255062689 0.03103294417653821)
(5.041161107557461 0.05381950662067746 0.06585942955601705)
(5.243586091679162 -0.4151831258163943 0.5927315468544048)
(3.807398358257495 -0.1088121087204093 0.04169050640397622)
(2.811823264820386 -0.3653785922216074 0.1416938247188533)
(3.004213614659769 0.06659993449174777 0.5960777004187907)
(5.020272216768672 0.003972160952320611 -0.02829627921947397)
(5.050184453722075 0.002826241713337297 -0.003557913869976725)
(5.028610711402128 -0.1102719317567939 -0.01339589338089563)
(4.307307360940094 0.04182222612549146 0.01642496337593405)
(4.952762828528463 -0.1952728279225515 -0.08318636283841097)
(5.055616717083247 -0.002990449424651638 0.003401153623525679)
(4.773753714252377 -0.04401497161719792 -0.00140886526259998)
(24.22788885375361 17.60468258788743 6.45183441667392)
(4.998935705863284 -0.02126417589858538 -0.2690024386522787)
(5.036178382805751 0.04984253639304133 -0.01988497595389534)
(5.060031781108425 -0.03856559158377266 0.1145961538431723)
(5.015311124004711 -0.03423699085602019 -0.06622358066929934)
(5.005675477633181 -0.02729832911664985 -0.06133828937857489)
(5.005069233921267 -0.02205866685440359 0.01345293618808731)
(4.824945739907893 0.003930240482971243 -0.1116034978587844)
(4.328070333363666 -0.1467183732488356 0.05623916276853295)
(4.993072977420457 0.02176721797853112 -0.001355006783754325)
(5.106775742183363 0.04049881043997665 0.016634753451358)
(5.042071020991492 0.02943827685122586 0.0909780167651751)
(5.047006385164272 0.02404082265727497 0.008091681737882779)
(4.986202975483615 -0.002438854921672855 0.03138055923905522)
(4.99885172584113 -0.001236462400509843 -0.02192560159231679)
(3.204660734596465 0.4043387131725391 0.3864118787853804)
(5.0459758514569 -0.001020942841704456 -0.08802691689380075)
(5.059235468729419 -0.04577206941667238 -0.0939096935898229)
(5.04041335703438 -0.008421481573778512 -0.008975937451219235)
(4.952894028599854 -0.02213664591528495 -0.02171843544254306)
(4.917633741688917 0.09583723725798472 -0.02640142917409743)
(4.066815265501906 0.603193260938828 -0.8283972776725391)
(4.836290699237403 -0.4646966574334738 -0.8847435698737836)
(5.021696718962785 0.0113295409662027 0.01485162285055839)
(5.017977985693356 0.009433780645263991 0.01567333767801431)
(5.01020963092965 0.007008265910364147 0.009432085249046976)
(5.009262211230605 -0.00168671762409079 -0.00684966353496156)
(5.145291434213004 -0.2619842805543998 0.06091960800357811)
(4.040038814512772 -0.1107833992780252 -0.035590870815783)
(5.16263488455672 -0.1217122102349535 0.001824900612485576)
(4.802531714697381 -0.1324344559761547 0.06092084605122404)
(5.052678561585831 -0.2104918728550636 -0.1667461340478248)
(6.358571524489412 2.101798952533063 -1.5012750310501)
(4.859598896994024 -0.05911938355330024 -0.3691416637201589)
(4.48807627410733 0.826932645424385 0.2474674002127167)
(4.964663940574393 -0.06977278847866106 0.03381217450713867)
(3.36018396494669 -0.06028544407608835 -0.197007595063005)
(5.033074885465021 -0.007275606764752574 -0.01181232125476908)
(4.499519328853613 0.05132537828325433 -0.2609265788195906)
(5.008258231067899 -0.08212066173443552 0.1383119095806491)
(4.938845473914769 -0.03514242566206207 -0.07664090520065479)
(4.723984789341636 -0.0252974193918706 0.07689026505270491)
(5.027417679808025 -0.2017949191743316 0.91115232120388)
(3.462538747627969 -0.1866918570097137 -0.05836540556518471)
(1.94717193829156 0.06579642824321277 -0.03041299060598114)
(3.893125006957386 -0.247516857388034 -0.764889436956827)
(4.91871697724484 0.01893239636310338 -0.07540912439959375)
(4.592269479882497 0.0137171482615612 -0.02605709582651306)
(5.012360705544265 -0.02769136015188118 0.003826018060557817)
(2.475154929989843 0.02859583128624889 -0.07284400134549354)
(4.99386448081278 0.05564819245098942 0.06610187364994542)
(4.725876166746387 -0.1849530373624961 0.1672436967226542)
(5.119169152672964 0.1382494759101159 0.05611132343319862)
(3.535724533045125 0.03620097556907163 -0.05471637681417651)
(5.094978468089846 -0.2114785573439673 0.01578748616971944)
(4.999058012031278 -0.05113758849220416 0.01969246644566044)
(4.623713615097297 -0.1627759142065932 0.08598263471293525)
(2.56096268386054 0.3339752599567159 0.1046068445047232)
(4.881503053749061 -0.2912961967823122 0.4469194446632941)
(-17.75222559174236 1.505999945497738 23.40360757723138)
(4.9926783670506 0.1410061651111064 0.1778747169249539)
(2.504957783561319 0.02384134414884553 0.1322950700511963)
(4.244647631069369 -0.08617648851726761 0.1637651521018463)
(4.956953505186109 -0.006079712921865731 0.007902614643221754)
(4.986120151157277 -0.00607390940291058 0.02163849128044212)
(4.878801513629083 0.03097120371467159 0.03611154772602503)
(3.200307323214573 0.09657995835128436 0.1139471923652019)
(5.380647684421419 0.6130187238159921 -0.2024831852741926)
(5.026292367172847 -0.09944556673438498 0.09262352860074245)
(5.051578210553986 -0.02769979396414306 0.02832076113258661)
(4.916936139525955 -0.2515191862740032 -0.09657074955421344)
(5.032166116414388 -0.001518771506204824 -0.1032140674078872)
(4.898434250393214 -0.01212598800970443 0.07489282659895974)
(5.059957523913405 -0.03108376982471648 -0.005442744822252461)
(4.003048507430684 0.2204137301763528 -0.3029344990605751)
(4.892635562687141 -0.1666619827750268 0.06190041357904841)
(4.794703773578959 -0.007637857554191633 -0.1460360038816178)
(5.555310739166496 0.4524522419547846 1.18263549407918)
(4.820741106417071 -0.1296923070469756 0.1741743344826952)
(4.978584046378955 0.03462938037118003 -0.07200995996521231)
(4.865558815545787 -0.03258770864910658 -0.0712648999392876)
(5.130661350322302 0.4780914761082047 -0.04446127755913042)
(4.931083476766465 0.2216476210852686 0.2445789501471587)
(3.327676937363966 -0.3345596689819743 2.06951771832993)
(3.103591916633342 0.3611151593013508 0.1899291796762628)
(5.062286713345274 -0.04442112573751118 -0.01350103662648742)
(5.05543997307459 -0.02650646804653373 -0.07881107465726093)
(4.496961352325182 -0.177963684845886 0.03273989723904493)
(4.535698664153174 -0.05564211267036244 0.01762058307818299)
(4.600599136282858 -0.1291438718705432 0.08542365802574024)
(4.539757632005907 -0.1851846537827503 -0.02260539150309496)
(2.635263318405092 -0.1473308256482486 -0.3696366139141288)
(1.908317372229631 -0.1442574699390013 0.04152447436350364)
(4.817735482298457 -0.007924129777131623 0.06731443445978318)
(5.057810956277314 -0.05846287926535943 0.09265625339207409)
(5.032723953540687 0.01375005485746071 0.1678307267912512)
(5.091099066148415 -0.002922123231202106 -0.066685643528875)
(3.656803846733596 0.4064744757132737 -0.4449530594068435)
(5.098327802729919 -0.06529563068999866 0.009296994219328598)
(4.783914592565333 -0.03034497728077062 0.01110939418634418)
(5.102597934412055 0.1111936765205939 0.011959657764053)
(4.762447755849313 -0.440563593991879 -0.2872890770766031)
(4.960648099525765 -0.0002637523203261237 -0.00381467294766397)
(2.632340389963428 -0.2374003316672166 0.3994860038732552)
(2.345457505759753 -0.04310754771171723 0.009822158080475778)
(4.942231520454987 -0.07877152194256554 -0.07866410121379781)
(5.127224010669532 -0.06484193931762679 0.01234401341662631)
(4.196534744980277 -0.09364026300507632 -0.08511206278939326)
(4.402633453758463 1.045626660872609 1.478103715255572)
(2.359607893126219 -0.05539922023535672 0.06398696426458833)
(2.639584772074526 0.2572659047157162 -0.08505384747067334)
(5.158123823396616 -0.07256041209101217 0.1569937991901959)
(4.767485935031574 -0.09967599176371451 -0.01891191289232342)
(2.1079098501944 -0.01472762066735329 -0.1304198501606086)
(4.680488527838813 -0.1677387644685023 0.2388140017442627)
(5.045099963876087 -0.02055099601533568 0.0800717062366415)
(4.16271221239772 0.05967552210056621 -0.1622432952335749)
(5.130431621987739 0.1278742759715069 0.2420448934194608)
(3.90184836522714 -0.09361684155652743 -0.05590852587058056)
(3.782111582492671 0.1651709334363004 -0.1148913154746639)
(4.891023984328631 -0.314231522453232 0.2615094864999447)
(5.083296190383619 -0.07106120228694451 0.1315863194191658)
(5.196124361056864 0.04490490391773518 -0.1358360742221155)
(5.285763276816584 0.2130622889336841 0.3611837251533597)
(4.015224587850962 0.008907833728441292 -0.1249860582197824)
(4.315999619117997 0.07949095946443145 0.06766707202529991)
(2.747009418851631 -0.004377574518507579 0.0556590494315033)
(3.655823455689731 0.2124455162778099 0.07190971786460777)
(4.958463103056117 -0.2157739969414792 0.3746953960512718)
(3.992095249480985 -0.2330392183004472 0.003550256906069853)
(4.732918655041132 -0.03654343265964347 -0.02949595594437089)
(3.385861413872831 -0.1732614054196167 -0.08249387629575236)
(4.794552879252826 -0.06332609894255982 0.2012779045081577)
(5.17644375638732 -0.1512513190096091 0.1759711822788334)
(5.037079627196102 -0.05868257016305051 0.07809924539128696)
(3.62704668471095 -0.03587474157150206 0.06460988039335956)
(3.220669128458591 -0.00843198796749214 0.2497293318747814)
(5.057502061894363 -0.1218821285989645 0.09127202506245713)
(4.957633749869636 0.110524980197502 0.02713675914543506)
(1.736479874534891 -5.292021865024457 -2.293384501637856)
(2.609686712744122 -0.07617958958882594 -0.05346885819391221)
(5.035461023845999 -0.05233948564653414 -0.03723068995379227)
(4.974028694202848 -0.107898319995476 -0.07857423974738377)
(4.381097271955649 -0.02001911612375932 0.198338074689373)
(4.942423156539469 -0.0003407406794056385 -0.2521472742561711)
(4.945799877555189 0.003572304633111062 -0.03609754575224709)
(5.028291412040779 -0.05205544259116154 -0.07482625877296334)
(4.672088350980791 -0.05256129242871692 0.05826517643586129)
(5.057920267631534 0.007626555110374511 -0.09847633905266663)
(4.431286429730371 0.2155863300669854 0.0630335844776001)
(4.511414970453527 0.1201031553316511 0.188704280441444)
(4.993930503977114 0.06772617473218508 0.05177256027806833)
(5.024107216382183 0.01496465244500442 0.01328080389335014)
(4.988167293013212 -0.002668987977463743 -0.004173093255071352)
(5.174627744182981 0.08092077516640928 0.6101074573969715)
(4.678860580109641 -0.03868991001572153 0.01276036000004543)
(3.936891805620118 -0.04647673084360818 -0.3276576026074267)
(4.505889547331375 0.09139134561662686 -0.02739269022034708)
(2.530389038746882 -0.2777725077406434 0.2200228223313708)
(3.759753408646897 -0.1666331513882974 0.05304158462757415)
(4.868867944669358 0.4044580262568989 0.1303803599933349)
(4.887542892986477 0.03378988510606576 -0.007953616317747828)
(4.748742690342137 -0.3693567443714452 0.04623714990677318)
(4.343247633125164 -0.1678533458884887 -0.1230137818432884)
(5.034557376279494 -0.00135868049613314 0.06195705328686343)
(1.929608193685529 0.02916077973056344 0.1872963060109263)
(4.871025172539202 -0.009254632679023364 -0.07686428406731145)
(4.775211990177014 -0.01423857779033653 -0.1585129816816649)
(5.025986384895367 -0.05618427006741333 -0.02707980220657612)
(5.009715820096601 0.01615869144696654 -0.02191626492006464)
(2.522156147708464 -0.1819894130314282 0.1429999170793451)
(4.406450036495053 -0.313908444945926 1.399786812141637)
(5.064426484225084 -0.02641591003228637 0.01830970193208633)
(5.031802237196698 0.01112864293857222 0.02990831049983235)
(4.933725440466744 -0.07310292522042924 0.003271921806306023)
(4.956365077107867 0.01123634893365861 -0.004603701507682125)
(4.954163463416335 0.01723871039815107 -0.05232162049335954)
(3.677193734168034 -0.0765838735098632 -0.05268530445204831)
(4.956637272305159 0.0002434591929862717 0.07729949963549498)
(4.731643170941648 -0.06174183606789029 -0.1038782842226662)
(1.130957022368884 -0.1388851015719398 -0.004286454678362615)
(4.845293838262963 -0.137564074429487 -0.08985000409838818)
(4.334473716737076 0.2214450421559457 -0.1089807730560576)
(3.574050581602759 -0.09247164580237054 -0.03710415032258828)
(3.601309780033409 -0.1533773080575483 0.1173100466739932)
(5.045360871698477 -0.1651134174328724 0.04262040677410423)
(2.602661827016107 -1.443944747192086 -0.4553604395332012)
(5.086281401210174 -0.07466270971848489 -0.04483292408194778)
(4.933825977353855 -0.1892388999424494 -0.1627251652415793)
(4.98462368132496 0.04596256688050133 0.1700876890566417)
(4.961953777712222 -0.03871867398512997 -0.06605358762670241)
(5.003760396167892 0.04839419064004751 0.09897949714519742)
(4.991044266891938 0.08192279180898565 0.1219068415858771)
(3.916968609467798 -0.1575898882461984 0.05500681480653993)
(4.974390925555918 -0.003185932213590578 -0.08838487520342651)
(3.471986517105595 0.09789110159704964 -0.05390093561568472)
(3.941005114169069 -0.4347379738136 -0.3577500781860787)
(4.730307271450474 0.06944660290300944 -0.04662769699853793)
(5.061363166113266 -0.02534266619690947 0.04279690885233584)
(5.019352944723328 0.004468082138766351 0.03792055453515836)
(4.47917256549716 0.1153096947794823 0.07664066882345867)
(5.043252487688536 -0.02301159852722561 -0.009399960147937425)
(2.429848316790738 -0.2139760516520648 -0.09425816497471619)
(4.653678834366587 0.1435775847524412 -0.1623727200595898)
(4.036962363609237 0.1936713697242384 -0.05656284887966573)
(4.949360663134212 -0.0199348408900774 0.2969429684941079)
(4.956160688847564 0.1219326240020504 0.3582026694656928)
(5.059963886908371 -0.06515201534007758 0.04746662393738312)
(4.95940247317886 0.1517324240100081 -0.1459471431867455)
(5.061008790124985 -0.1103150543851331 0.00898830273946765)
(3.042043764307997 1.584856870835518 -0.7006629260378937)
(2.925530691438435 0.09056362814104338 0.1400624592205)
(3.248226868114047 0.05109814486181365 -0.2478383337817368)
(5.105721804803356 -0.07803571958021555 0.007775630171509175)
(3.554122674756444 -0.2418242985029156 -0.003458806966866722)
(5.044563968921923 -0.03628146803571205 0.1056401483116396)
(4.200022181858545 -0.08095813883017143 0.07593429360713509)
(5.121267990997723 -0.1228190843473912 0.1381179067730577)
(4.673288398326924 -0.07429724146760673 -0.06340426518970813)
(5.083592803609561 -0.05190035582137219 0.006689578830577834)
(2.555735563409828 -0.386679823176945 0.3322940056937237)
(5.017324420650429 0.1254602593133483 -0.2086140199882237)
(4.960305345619943 0.171265952296911 0.1867639420441991)
(4.901186636599903 0.2902668018537722 -0.04692091095834729)
(5.051107149551517 -0.01651528620338656 0.04488866033326667)
(3.019150485296864 -0.1943071955417577 -0.001425378661977413)
(3.92848016955887 0.7654379562409944 -0.5022624882287143)
(5.044834039247691 -0.04392938850592116 0.00203505606059958)
(4.57947637135462 0.1270842973400239 -0.01443152616608135)
(4.865415440321396 1.195442678077449 0.5141710112147245)
(4.175212257172227 0.5988097312924479 0.07185841229793194)
(4.957979365974841 0.02878069325737343 -0.02255125440108153)
(5.01341285003124 0.01180633303688846 0.1293558298344472)
(5.088039524458996 -0.05913264490439106 0.09757382765610739)
(4.981801718949654 -0.004202415093805841 0.008011988192631613)
(7.398765187050151 3.994925126909997 1.208046009675425)
(5.007694823600381 0.01819418921580581 0.01798032975294101)
(5.054312366798742 -0.03656548942756694 0.02636315883501656)
(5.026598793002591 -0.004699412399707355 -0.006871158002531033)
(3.321391271841152 0.04133181540431884 -0.04540949830858057)
(5.002017606713895 0.01719758230595507 0.01101244490256228)
(4.995833162352731 -0.02668967464151076 0.05526583505052508)
(4.989720603675614 -0.02627997543752814 0.03351729960799672)
(4.401299486063762 -0.02626805891229367 0.2903213748846102)
(5.096898027906317 -0.133832248379392 0.01620562057873863)
(4.842732951153094 -0.04402785215713348 0.0628864981517038)
(4.736448663448543 0.2222364311682041 0.246766511086276)
(4.920375775148631 -0.02086566646442093 0.3314281092687607)
(4.413850535969544 0.1353389306287227 -0.04514793826561203)
(4.517969268212325 0.1535497339438795 0.05572489743568685)
(4.959197473662346 -0.1379694935587674 0.09649676486743891)
(1.888530361026835 -0.08551520562051951 -0.08395119736624429)
(2.118463855313292 -0.2047068126102101 -0.1841411192859002)
(5.065301424470545 -0.04926119987639765 0.1213187207943787)
(4.989404553698527 -0.01277369341583945 0.01003775448529276)
(4.952645332872697 0.02537254266695987 0.01420446794042233)
(4.49755306095911 -0.1214242429862601 0.03752929625926633)
(3.741928829093082 0.7402339814308212 3.434887409468734)
(5.049709516612814 -0.07780726715137033 0.1126237622453763)
(1.54398155457529 0.06658553485993038 -0.129387772465845)
(4.750192367168141 0.02579039897451844 -0.1768073160576902)
(5.146137551988903 -0.2303379041117499 0.1414713803479508)
(2.317480877774651 -0.08374155320969054 0.1249893041026471)
(3.739999756030036 0.1442934388819815 -0.3021441238176207)
(1.459927722628684 -0.06284605900326454 -0.2304433134838464)
(3.883847024438585 -0.08964876762997871 0.04168446178517482)
(4.554923086759766 -0.1340661824659445 -0.1049589763525894)
(2.124768510326743 0.11973114260058 -0.2113930721514505)
(5.006166965088748 -0.09699752513851574 -0.2994082470509886)
(1.409185846399633 0.1482182239379666 -0.1837328412599444)
(4.299123690159941 -0.1986318684796512 0.4486482604254398)
(4.968343309330138 0.05880493383333697 0.06368978925919443)
(4.983163444291291 -0.02566430573167162 0.1894854530318277)
(5.074996459880226 -0.07308021829260625 0.01278505107238892)
(5.064450598967072 -0.07235714266616103 0.09142680214315203)
(4.002063009912347 -0.18749790526454 -0.2661238273716233)
(5.061288180671076 -0.01358279156813846 0.09416538718882964)
(3.772228982466883 0.01760977217321475 0.5004703395235525)
(3.980087038577045 -0.09805141662408248 -0.05644052972958642)
(5.113693253131587 0.2849068535325316 0.1882254129995639)
(5.008047695527474 -0.02680890607586127 0.006051269687978978)
(4.946913421881446 0.1925241397027813 -0.07726644136551689)
(4.614799299479765 -0.1170038650109843 0.4533113400518587)
(4.957623226589581 0.1809911967899807 0.0991125753741101)
(5.04611590946603 -0.07923257438878442 -0.07996754261128501)
(5.092653242321716 -0.06067538698776151 0.07514436897019361)
(4.782620539979733 -0.2272440702774813 0.0570658156087963)
(5.019367529415041 0.0313184207230665 -0.007254814608462792)
(5.041168469333926 -0.03422937852111456 0.05841590802271958)
(4.920170297563592 -0.08855841927689434 0.08619051842976692)
(3.472666804951945 -0.05762056345644356 -0.1220024162389383)
(3.611137393496957 -0.04448812568492596 -0.04996631820898938)
(4.984931368453188 -0.006101565974744366 -0.0413387906217567)
(4.99442865111336 -0.1120325773696976 -0.1910685825782495)
(1.915655947400208 0.3673462028357874 -0.2578923143698533)
(4.958339440235988 0.01538292083363368 0.04521871021605283)
(2.721097742095496 0.4029771855759684 0.2087907596943003)
(3.422746304188147 0.2407100170917482 0.05750024309417278)
(3.094264189652558 -0.1645624776410227 -0.1031936738112554)
(4.986769145699882 0.02697703469816751 0.03707640113711528)
(5.03469633749302 -0.1325119225804666 -0.180098026079876)
(4.729469679167591 0.1465782997807076 -0.2618991079769366)
(5.04490931512027 -0.1414524063111228 0.135946955396675)
(4.949952485515397 0.03035134707702525 0.002111523400375576)
(2.409261814915855 0.1419904393315821 0.1636445347546939)
(4.903069907391329 0.03484249474207107 0.02527164274648228)
(2.159592131993791 0.06503842307004047 -0.2012405015820361)
(1.860863700513174 0.1089544046251025 -0.212872870967912)
(5.04119574457701 0.01015954980364917 0.002951271390438439)
(5.030877603234004 -0.0900492889986366 0.1364219975683023)
(4.827491528683336 0.06470300621222988 0.07058948595796984)
(1.939565999624688 -0.1940319822982027 -0.08794464911994396)
(2.872083484213575 -0.2554642089727608 0.8892924630357163)
(4.917878577701194 0.002806981377319334 0.01018652001949844)
(4.935001687973855 0.007163988314478369 0.009972700569197438)
(5.007594799834672 -0.02103717729947325 -0.01145992110441405)
(4.982244022884556 -0.09399542865537398 0.04788085840441623)
(5.063333673802603 -0.0149386742379067 0.1305336839470078)
(5.583895092967798 -0.5488822464521429 0.9410650084857476)
(4.635683342220141 -0.004056917777794931 0.143603068681363)
(4.614908937070338 0.005627529599019174 0.2985809988236139)
(5.876870161931889 0.7420863116655513 1.606699151939579)
(4.996380089647452 -0.0407927830764785 -0.02444207424342986)
(5.75671712456633 1.246997175695701 -0.718942307577666)
(5.054328502581405 -0.03528927596456184 -0.01825036433598077)
(4.279404679106992 0.0778590522986715 -0.160522241793466)
(4.157874599121375 -0.3734364601046727 0.03265020259385776)
(4.825905848969827 -0.03723870482931006 -0.0351407112854573)
(3.381575829801357 0.08966520687104229 0.03132126240701592)
(3.672570433138575 0.2086504300518322 0.3119145066688599)
(4.822225201831593 -0.04392120884443611 -0.2885057340182969)
(4.988714320586462 -0.03700301237537939 0.04563047916625314)
(4.982637355758635 0.001645508824646259 -0.005324554664069335)
(2.949676485163198 0.2282450683876456 -0.0639469683766211)
(5.067131172575301 -0.08183646779838222 0.06976943393367739)
(5.061994208966953 -0.05070923610416444 -0.05653206129717307)
(3.7383131352981 -0.0841128651786556 -0.03438177487566547)
(2.780458333446144 0.217228865272077 -0.04178358306946791)
(4.585320209196412 0.01112430869456283 -0.1863614620120394)
(4.425966929000711 -0.2814516706729338 -0.1724992045832761)
(4.257651531868543 0.2436412620724913 -0.1079278348740931)
(4.976943706149306 0.004903817618042063 0.03117886337132266)
(4.627101418634736 0.2299777155927231 0.01899616108315429)