/*--------------------------------*- C++ -*----------------------------------*\
| =========                 |                                                 |
| \\      /  F ield         | OpenFOAM: The Open Source CFD Toolbox           |
|  \\    /   O peration     | Version:  v1906                                 |
|   \\  /    A nd           | Web:      www.OpenFOAM.com                      |
|    \\/     M anipulation  |                                                 |
\*---------------------------------------------------------------------------*/
FoamFile
{
    version     2.0;
    format      ascii;
    class       volVectorField;
    location    "2.2";
    object      U;
}
// * * * * * * * * * * * * * * * * * * * * * * * * * * * * * * * * * * * * * //

dimensions      [0 1 -1 0 0 0 0];


internalField   nonuniform List<vector> 
19632
(
(4.992120265933434 0.03378739602379788 0.007181268415654002)
(4.995336763809391 0.004098990987575424 -0.003241580058034983)
(4.995172128702151 -0.0006578160095753418 -0.007413479678640629)
(4.997806714118844 0.003312866609416091 -0.0002856060640710577)
(4.996782807328838 0.006964239590941208 -0.0002650400417752588)
(4.990692080599768 -0.003779146539746845 0.01195857147772389)
(4.992372198653328 0.01918675234863962 -0.005639588304751193)
(4.982298577706111 0.01383833529730898 -0.004570677007759294)
(4.981491068513216 0.01681450832775655 0.01063548702467595)
(4.984346763324022 0.02788832992617648 0.009089884571724091)
(4.998280364562906 0.1446838443493219 0.00705372049796493)
(4.989338645132005 0.003025062775567583 0.01125234141535475)
(4.986589527544074 0.02067594837595495 0.01171098018225932)
(4.994243572783491 -0.002568641233437874 -0.002198273520481501)
(4.994533924406868 0.005825129174513046 -0.002992467194317404)
(4.994254564687402 0.007155674517227414 0.003444980484485814)
(4.997424894873891 0.005267613629053975 -0.002768634758557959)
(4.994796704987638 0.004624369273596873 -0.001600905530890575)
(4.997122006228411 0.001712856265345212 0.0002921604382917973)
(4.988291330796469 0.005507600386349876 0.0003231966940913771)
(4.979090831300974 0.01625105988707527 0.004500606750041736)
(4.978964083326603 0.0139491109711241 0.01012328787373321)
(4.992724233677582 0.01746725849444372 0.0122524320163408)
(4.996215569958032 0.003957730538390285 -0.003548867501759034)
(4.993570678693977 0.006663500038250431 0.002322897148624318)
(4.986875132462278 0.014720733043285 0.009600385886181936)
(4.980272583468417 0.02176963592147718 0.005063239157985839)
(4.996122965111302 0.004479350401606452 0.0003767233074412659)
(4.998968164813015 0.002910756929018792 0.02224494046676824)
(4.998917512379076 0.003191852677305378 0.0001941212019849021)
(4.994138416496103 0.005160510189333205 -0.002874698442943707)
(4.994972127045975 0.006285815316324716 -0.005755034652696642)
(4.994583279997091 0.004853945457775894 -0.003044318150036777)
(4.991133959564554 0.004344400911770015 -0.002616330044969257)
(4.997231129126881 0.004334301247459914 -8.447069493299565e-05)
(4.997912233027413 0.003411238856896336 0.01241455407037979)
(4.986314894082342 0.003945812701554498 0.005427936608991538)
(4.992166738903745 0.06870286831961421 0.003300837970534338)
(4.983679454595626 0.01469547259185714 0.007883304669444102)
(4.994807339976426 0.01022273821733066 -0.0004504032793551714)
(4.995065143312641 0.00365971426691574 -0.001777452372791409)
(4.984606314917563 0.01908373232655025 0.02129589199456735)
(4.988910402689619 0.01469441104023354 0.0165015724746586)
(4.99662583216627 0.004658164949549909 0.003937216131808008)
(4.997870899729654 0.001896472618889968 -0.002760721789914405)
(4.983317508258163 0.01685639570021946 -0.001540606920732298)
(5.002628700299161 0.008907055116820004 0.02657185689224629)
(4.970514915775289 -0.0001859585167564797 0.01974117331733496)
(5.006459289903917 0.007438328613362082 -0.01058672823083512)
(4.99814480864944 0.001828313342401139 -0.007465446655923435)
(4.963508799065644 -0.01680638696305276 -0.01846218075389459)
(4.963835672301308 0.05299311177252269 0.1892356168106603)
(4.996285040358696 0.02115192278524859 0.01636092720983444)
(4.981333920513507 0.01651614290740411 -0.001933069355881529)
(4.982452863031411 0.004893353228443067 -0.006538907248175727)
(4.986872204302097 0.003952849696534108 -0.002192151208628645)
(4.977452548533691 0.02036093421556729 0.02586362114203279)
(4.994856002368413 -0.02728215152824539 0.01040080826495543)
(4.990825389874746 -0.02932088254776516 -0.03416332565696613)
(4.99821014853059 0.01038883423186141 -0.0001168646043699408)
(5.000238927074983 0.00344622108622466 -0.001402041695814236)
(5.009487005109774 0.02473036773323233 -0.007266320756262542)
(4.995836756065895 0.004962498533059267 -0.001732743687105863)
(4.994502095698144 0.00416750439440829 0.01894795469368583)
(4.986952063057809 -0.008894425797242622 0.01654474219990047)
(4.999023733882981 0.001559472806179413 0.0006798090941128353)
(4.999381537863407 0.0001124360571768461 -0.0001462684143939677)
(4.996990168579727 -0.003103677892269143 0.01117283138457716)
(4.992987963035225 0.02940873665646937 0.01198499572169323)
(4.998033734704338 -0.01419999167532806 0.03532421059360767)
(4.996737243092957 0.003197917230613051 0.00156205413487878)
(4.960266072320988 0.01091855452304511 0.00250356370397059)
(4.892294693735737 0.001413682720997013 0.007997431593090165)
(4.984879363166101 0.0175542043938431 0.01278464715970489)
(4.993428989563669 0.006890397197562686 -0.01464693838261535)
(4.987987131662364 -0.00133911911560197 -0.03897556168496238)
(4.990777547952514 0.008059977642170748 -0.1050108876385485)
(5.02555484773755 0.008564478709396852 -0.09700999907818081)
(4.99476721161251 0.001819019267514921 0.00337935374845022)
(4.992778586302348 0.006395623130329083 0.01773640507607213)
(4.973714983212808 0.003881655800261988 -0.005938775080542716)
(5.014119442619381 0.0006683347761466108 -0.008722174319513972)
(4.983202260760586 0.00675845888877724 0.011389696136954)
(4.99450719654615 -0.006134724475665251 -0.004916164135480823)
(4.985256437072383 0.01193740026730724 0.009970661927255113)
(4.978668790288852 0.008150124971260823 0.01091965597829784)
(4.996032564530067 -0.005566302094065916 0.008648359266541103)
(4.991273960693384 -0.01377080495107698 -0.2791218310270084)
(4.977459471142112 0.001503883127592203 -0.01422495817562338)
(4.994888212478295 0.005672306905557906 -0.006285562932099234)
(4.988851691170117 0.0235586347604178 0.01092423851568176)
(4.987875470466607 0.02061595195150229 0.007822277926999069)
(4.986661418602474 0.01191762152275014 0.0108564806336396)
(4.995826057245485 0.008717692144416946 -0.004871383414302777)
(4.981250933884495 0.01417217475180531 0.01568008615003854)
(4.981231159077161 0.01362473345846688 0.01235694862060982)
(4.9839023089646 -0.001964915422034094 -0.0009784447851972598)
(4.999375302330831 0.07208828293546592 -0.001348895423238624)
(4.982501919689808 0.01987455476836624 -0.01816729206311772)
(4.99555509838455 0.01198116492010957 0.07850036947958204)
(5.002254341459303 0.004849944128868727 -0.0001620851946025718)
(5.0052702436112 0.01027339347182456 0.009111141537193479)
(5.000715763765937 0.001943999360946636 -0.004577952717817492)
(4.999805926987871 0.001496767238743918 -0.004066665228802936)
(4.973328361349308 -0.01713800965189514 0.03668451383342113)
(5.00588907848377 0.01625203794511471 0.01977525085461576)
(4.996816079993018 0.003330369300013316 0.001261058420699946)
(4.986016825080053 0.01214054475923389 0.002138949703942187)
(4.995373229603911 0.007480517420471984 0.005481501852690294)
(4.998131375774926 0.08564325746993393 0.003765979954122068)
(4.963126764295009 0.01095714072635648 2.08490158444304e-05)
(4.98057053627197 0.0220038369625722 -0.002631912187290951)
(4.997729947238249 0.009132171403504592 0.00129653841527808)
(4.985553563246021 0.008659688740876919 -0.00108622221924768)
(4.980755513622602 0.004803053797926594 -0.005298821468235074)
(4.990361933828819 0.01689910926130062 0.007533955678710656)
(4.986686189519433 0.009666449829803555 0.009494720105409337)
(4.98408173935463 0.01488335608899436 0.006981436804581724)
(4.991622978512948 0.01777276824383249 0.01963549710215649)
(4.984009555244057 0.01904583360036044 0.01669800474754976)
(4.947130445696159 -0.003420664450486824 0.001532676305044968)
(4.986322093231244 0.01741611084770633 0.01200605044255723)
(4.99715344683336 0.003710761665086255 -0.001299788620819866)
(4.986604399525376 0.009861750532742948 0.002987974497483681)
(4.983995288371554 0.004150045436142126 0.01338842800041179)
(4.99335199414372 0.007499130931390653 -0.003577703298566481)
(4.989106857309453 0.01879749451649556 0.01826970225417869)
(4.996519419653759 0.007698154730089243 0.001143086813417513)
(4.995442975700953 -0.009478669572876275 -0.01310455912828166)
(4.976787254129341 -0.00276334301736301 -0.008660043493515086)
(4.977994205552442 0.01632513361874161 -0.01217701886591153)
(4.99651132185904 0.008802953638277679 -0.01973503885657612)
(4.994508777163071 0.007408332826050384 0.0001843895140001231)
(4.981936908344032 0.08869945478742111 -0.01135457325098068)
(4.97924690321002 0.01085606755758516 -0.005571914384103301)
(5.004436043403867 0.002121669986651145 -0.001114162975671491)
(4.973063606339325 0.03656596201234157 0.002129671206709922)
(4.983773671965844 0.007055171973270792 -0.009200541187523375)
(4.996901268698037 0.005063211647068299 0.002083139998242809)
(4.989443662404236 0.006015347211488338 -0.006549008085721169)
(5.002242426790065 -0.001056721727150241 -0.004639384543580764)
(4.97920301485881 0.02605817812973645 -0.00203656851490039)
(4.98966794444476 0.005136674279633917 0.0001625139351915285)
(5.047044867696799 0.04821390794238208 -0.07283258499360262)
(5.003919502671461 0.01274360373104829 0.009159738537026146)
(4.987616302118061 0.01518320308771097 0.007431119026810811)
(4.998764409070536 0.007462496232012722 0.01146397288595186)
(4.986256687596208 0.002727026689946353 0.007524719101661754)
(4.994741622688402 0.00179522727659874 -0.002625542651555836)
(4.991224594484885 0.006320003273878352 -0.00521559829176286)
(4.997779121308318 0.06499958030650285 -0.002264231527298465)
(4.989327788143783 -0.00160190379020247 -0.001996611224924978)
(4.99104968404894 0.00336171217934892 0.002833214001463464)
(4.998061168400553 0.004150888512242145 -0.001681687547824422)
(4.99827026698065 0.04307504136132836 0.01965747589637387)
(4.983778547532536 0.01891244885668054 0.008099580032849512)
(4.909085777980395 0.1106532069662038 -0.007145533521426936)
(4.9745350504223 -0.00103030847763187 0.004262791590734301)
(4.978064005654135 0.0165035573612681 0.002890600374272594)
(4.997119423692956 0.07225255143694362 -0.01696254662126041)
(4.979585592558783 0.01500931786427752 0.008332568642517283)
(4.971342800332817 0.0009835541670767832 0.005670807199907232)
(4.990291766139767 0.01085445246854564 0.01874646731569071)
(4.969208162408424 -0.004028444979888188 0.00163476598093242)
(4.993919185360147 -0.03173683571928759 0.001974682106440937)
(4.977913629627509 0.03907070121583089 -0.009629386361831272)
(5.002721003556776 0.03438695186474369 -0.002111231112397334)
(4.970589760368022 0.008719210119634878 0.004646371213587339)
(5.002560715080145 0.002305706356235561 5.421905043195959e-05)
(4.928625138549807 -0.0009296752486938082 0.0005918357697038471)
(5.002682865657994 0.02681582870589688 -0.22302863968153)
(4.964838160527268 0.003800668900934556 -0.004573787494981232)
(4.98884691487426 0.002903075920847601 -0.01211044562276617)
(4.99215059582044 0.04418814227134839 6.901052185028379e-05)
(4.992156558067419 0.002424619538838637 -0.01002754452551772)
(4.981383446716595 0.02728803693549 -0.009369772354147654)
(4.985498439683286 0.01305122776921918 -0.007411621025897457)
(4.998061770965225 0.003812946886220134 0.003453114774771457)
(4.893550791860153 0.005425455237133386 -0.1077822146559808)
(4.9859314815353 0.007174131349549739 -0.009736943815774876)
(4.996353447950304 0.04424557151792735 0.003509852833512911)
(4.998352385696467 0.003614623209715526 0.001159305157955006)
(4.994893239801885 0.003901336483754595 0.004576549856459672)
(4.984250150198262 0.01646278117149009 -0.006762402927128291)
(4.988351640184951 0.01008528471165964 0.001354562485001225)
(4.998488291430122 0.006578100515934992 -0.00225678470705027)
(4.996794448750536 0.00343733046103277 -0.001580625637582001)
(5.012316410094819 0.0002144519378420953 0.00910147733321078)
(4.976231922866326 0.01564982593191556 -0.008471306821601811)
(4.997817461224998 -0.01179181926083298 0.009875136830695403)
(4.963513142674313 -0.01943734728717227 0.009904194344360058)
(4.978249085228546 0.005841565353468079 0.001335891433452001)
(4.995350151027302 0.007451752617916002 0.004195060570936258)
(4.996975941526832 0.005892810939680308 0.001471946007206619)
(4.997311564542344 0.003674071568566086 -0.01826979180801053)
(4.989994186296158 0.007282812168174888 -0.01050992886487892)
(5.000070414916438 0.01496843547117038 -0.002825182879583928)
(4.998416858326707 0.004359702174759604 0.001894818386531385)
(4.998746293205749 0.04328934834574358 -0.009696678299120904)
(4.996786468836017 0.008045581789531775 -0.00487520330253841)
(4.996265729780123 -0.01035467455233909 0.01562757132764546)
(4.995030480150833 0.004863309089093697 -0.005581102517010565)
(4.989796705348593 0.0222485965243127 -0.0004870636870783314)
(4.96281485052655 0.000999278502379048 -0.0128919419558021)
(4.991498612593011 0.192484592383175 0.02344198031984206)
(4.996510555956034 0.004426442031647015 0.002458195124160277)
(4.990982171288792 1.192482080953424 0.5807591186239702)
(4.959925748493916 -0.002803342576360438 -0.003130427043435378)
(5.000688997847346 -0.00686294402640228 -0.0350092250998344)
(4.996154707159247 0.1262042302827653 -0.001522994887170394)
(4.989597152144746 0.004718047016869056 0.005028174886767465)
(5.035557477052769 -0.00542989634362525 0.04529876086820928)
(4.998996643162423 0.007541767398353797 -0.003649049807452026)
(4.966332837445302 0.002463325609294152 -0.001562580804326155)
(5.000536388363893 0.03214339418945447 -0.007389021125879898)
(4.995790982369711 0.01387850864583484 3.613253304364957e-05)
(4.99212575208478 -7.673431904310795e-05 -0.008550011941571276)
(4.990991832199644 0.004305082755131263 -0.003680463231826639)
(4.929577520291536 0.08176233010901149 -0.003343517835688924)
(4.974430235257705 0.0449341997334057 -0.1725546150265049)
(4.994741961132261 0.002790197264378662 -0.00196594202994241)
(5.001382683368889 -0.01431357843035093 0.01374370068359947)
(4.989990155523725 0.004563177911235507 -0.007220597322041862)
(5.004422952364155 -0.002174628465081818 0.001655244074422715)
(4.99686488515657 0.003529664462028549 -0.01683270258124623)
(4.997868569740507 0.003533703190415076 -0.003107390462364042)
(4.971295366595911 0.01395271817376289 0.005551992896852492)
(4.996072799274913 -0.003722462665063973 -0.007119524012863731)
(4.988578964428442 -0.03355896177922699 0.01218131437706527)
(4.995813802225082 0.005323069147190653 -0.009106201109687913)
(4.993968150808204 0.005122708874276085 0.001294945460958668)
(4.983694867917389 0.0104433821394129 -0.008937185821481159)
(4.998189652583171 0.007366943859595097 -0.00195386086341914)
(4.994248606286852 0.004725138099770178 0.003129262756867213)
(4.996831685397283 0.008566027562492399 0.003976202939371588)
(5.006777691983002 -0.004194948614662958 0.003682943131503694)
(5.011854229050376 0.05023032222096313 0.2241476354771457)
(4.982639344073297 0.03036789548975452 0.05071730660190587)
(4.998219444035791 0.004355812121506053 0.003222394233702667)
(5.000010331354588 -0.05217796218938361 -0.0375792355224735)
(4.983954305374054 0.01298878682819252 -0.006813946145501162)
(4.989005223180541 0.008877598397687493 -0.00600269567548662)
(4.459983375687317 0.06886577573813964 0.5082583102903189)
(4.99561544442027 0.006550650449976998 -0.003981643529841844)
(5.00361116987053 0.02819227896187762 -0.003610799085248539)
(5.000480278377732 0.01019200677712146 0.003151282641950672)
(4.993222133916476 0.007613954925017992 -0.003207022582888844)
(4.993523800643344 0.00515394057326489 -0.005147190300303511)
(4.985739652900228 0.01264030742540249 0.1051970252703457)
(4.97867853079712 0.004754337147068475 0.008933546870181082)
(5.002495922026599 -0.02634155944513473 0.02269002054641101)
(4.98265013541272 -0.05933668348691241 0.2815899786087599)
(4.994867228892036 0.004674121452336655 -0.00590508476348799)
(4.996498821666466 0.005556374703412528 -0.005192552110505654)
(4.995195042246399 0.1700196752503805 0.1337780923392259)
(4.994062567696671 0.005933106494345025 -0.002265935910290891)
(4.991780212173658 0.005781047980006461 -0.005697182630370483)
(4.980170221424742 -0.002279442986894152 0.0009219680666353578)
(4.990714455044318 0.01588071474075529 0.09764817444334421)
(4.991434408015226 0.006792906579866285 -0.004961728454312165)
(4.99423159742442 0.005895994810563588 -0.003150854789783681)
(4.984669780891642 0.01712609712904528 -0.001062359041779827)
(4.994352046955125 0.01258693096494173 0.005703818648929051)
(4.971400100744551 0.003748593149946599 0.004789590729694372)
(4.995326264882076 0.001502819597278186 0.004126886535507052)
(5.023542915506465 0.001054398885382806 0.002897796217611344)
(5.00815507160925 0.05094809266839197 -0.05590014674291644)
(4.988329728773539 0.01051611867996186 0.006357424112548513)
(4.996529932199277 0.009544685243835806 -0.01404513129719676)
(4.989172411062805 0.01063278348958746 0.006786569890780681)
(4.995161886247242 0.008160567683630509 0.0026948455747997)
(4.980521275671904 -0.003966605565941654 -0.003807125138610627)
(4.999095222866223 0.008133434133243262 0.00303201119567032)
(4.987483536041727 0.01020529275326249 0.003200350761415656)
(4.970483532669079 0.02441238914978887 0.0167358546565727)
(4.981969863948659 0.01246098853352853 0.008446751623806632)
(4.995155018522852 0.00647320900743186 -0.006426083470232559)
(4.991810865342293 0.009203720834495482 -0.007270659780715821)
(4.980747329128139 0.0109369143867422 0.01024877667648342)
(4.981170947324556 0.02142845773212921 0.008074829220243086)
(4.98487938124816 0.009820816275409219 0.02173978568853145)
(4.951802243785144 0.003502537272287171 0.004914190895781926)
(4.996226480809844 0.00631899390531353 0.003718171737601424)
(4.996847353740383 0.004675528893495999 0.001700407774727155)
(4.996496972040203 0.005567694110978873 -0.002340081887932712)
(4.982045727270714 -0.0623071087646195 0.0004824591800109598)
(4.987554878315048 0.007378868835981223 -0.005697743790657614)
(4.993680694919944 0.005606114288315265 -0.004329026550375379)
(4.996571116535238 0.1230447883762009 0.1237542793071734)
(4.999133155506202 0.008577043971232533 0.008559864551965767)
(5.005245392397674 -0.04126958772117515 0.00161159072322783)
(4.997991575613447 -0.008296380249300636 0.002934840743910214)
(4.980237825097692 0.01141949823380607 0.01756346551789121)
(5.000880090550802 0.006047640588694438 0.001741227968062934)
(4.997158750669406 0.0139904980351807 -0.002792479414878038)
(4.992231232668521 -0.002683112757650185 0.0111688963785895)
(4.999097352909013 0.001301020635156518 0.002405521061409332)
(4.921115356169316 -0.03451672351531371 -0.007695884170840963)
(4.982664114158442 0.005600251805175358 0.005743126089022623)
(4.998554288611536 -0.001919166820117521 -0.007345972469967981)
(4.991727813940936 0.008789970064192 0.1688170862052081)
(4.969071443432927 -0.03245385026902537 0.04549056264336624)
(4.999093080039708 0.002505490782806758 -0.001642459980293588)
(4.998353902141426 0.004961106965835861 -0.000313987740987656)
(4.990460372625984 0.006872328293074147 -0.003431281670414142)
(4.987905845137599 0.007800727117175453 0.004797756784346582)
(4.991620083903226 -7.866272307999726e-05 -0.003261103917540161)
(4.985143894369633 0.0220651584126929 0.001608505807396421)
(4.99651426110939 -0.02179487797137735 0.04250799610203737)
(4.989945744504852 0.002503366617322921 0.006695464052213042)
(4.976910225555485 0.002648165507428389 0.001652129277640552)
(4.981156381756382 0.02995846053356023 0.01676484193117673)
(4.992924322878681 0.006894441296304421 -0.005863481585430283)
(4.98537263722714 0.001013922812563577 0.001025930309859812)
(5.001405950685646 0.06236737789477238 -0.01511195640035523)
(4.995923818775999 0.006472177847439979 -0.005418079017984888)
(4.980691772193179 0.06403753602767105 -0.1350951119948761)
(4.984674082372487 0.01027237801971266 0.01291693447284854)
(4.977817794863615 9.515949052267806e-05 0.01148568097539515)
(4.987615886949875 0.0117581119742472 0.01666456583226221)
(4.995613732204955 0.07317707923943699 0.008402133754313494)
(4.979524105774439 0.009337262416966863 0.004402531835230743)
(4.990060156555314 0.008748341887504561 0.00380259890408249)
(4.98931879765514 0.006248039547822922 8.13003391183343e-05)
(4.994605720236137 0.005508900218983633 -0.007049014636553199)
(4.990395139127377 0.004306737167414803 -0.007687976385218313)
(4.990712986717286 -0.002222403004781764 -0.01083824729405666)
(5.00597288229883 0.01504313647810101 0.003486163418075733)
(5.000098497314659 -0.007708217418800139 -0.07713377683640471)
(4.994090377250214 0.003264064528996346 0.005068619588916099)
(5.000026909531658 0.01722695205681184 0.001854489759037062)
(4.996678153468625 0.00765362004151417 0.002811600263270411)
(4.989538739941384 0.003953938887436086 0.004145660129714906)
(4.987323558824312 0.00456741326092667 -0.003099869696873068)
(5.001438436433717 0.01160186155393007 -0.001196070456719596)
(4.986846048217776 0.006673127202572978 0.001137082619672789)
(4.997484843999398 0.00346284475233683 -0.003415013322120749)
(4.992418182999161 -0.02008753802460491 0.008028825933649985)
(4.996969144877617 0.002750680841755076 -0.001951389468970846)
(4.98948135153843 0.0008136298179191874 0.002248614126684749)
(4.986733213725646 0.007325001300619718 0.006631739279950005)
(4.999955937014122 0.00847049314529002 -0.005687960457431801)
(5.00121516049992 0.01409874468992973 -0.00608667039837137)
(4.97719338558361 -0.007905800520374894 -0.002544805940775065)
(4.990750171243541 0.0118501451359587 0.008213501251242063)
(4.959653362578658 0.00579858854428887 0.01019553402911271)
(4.997320600023659 0.01098411557047246 -0.003564300847037084)
(4.993124044565024 0.0133226304515103 0.04205801263703828)
(4.976645108376583 0.1003896597715921 0.05397260928182453)
(5.005001865425223 0.03288329424535374 -0.007118852804388434)
(4.992548634291995 0.007849313259035533 -0.005496613834057775)
(5.008141279520845 -0.005877491112194415 0.03097691311029161)
(4.999810638324553 0.004120280790579007 -0.002604661519370999)
(4.998326664447885 0.004409972075974045 -0.002487442092410624)
(4.992611747794674 0.004450260584917154 -0.005612959813215596)
(4.991178974285088 0.002322189439143414 0.0009182134449256116)
(4.997791409861773 0.004546391956224482 -0.002178457886743196)
(4.994149512367247 -0.01342206652413696 -0.0009837045585607781)
(4.992803834508764 0.008003489884463691 0.001312674883534554)
(5.002781863081151 0.008128668317941236 0.005770405586879266)
(4.994071385610214 0.006210777528957418 -0.003523654923321336)
(4.997309572515503 0.004216380039093192 0.001145895462442395)
(4.994304634953613 0.01416591845856091 0.005778796386399676)
(4.990264470751546 -0.0003512223149163597 -0.004038013791207672)
(5.002751699515748 0.003273068219285699 0.001826212874782261)
(4.975830911269085 0.1185788449432545 -0.01787662144762834)
(4.996235829806648 0.06495963578126114 -0.003018119717436831)
(4.994701543249636 0.003598575274166392 0.002541097127435662)
(4.988257871240279 -0.002901350495912632 0.08089406269339575)
(4.994215466254087 0.004934287804701384 -0.004531164931146134)
(4.994903280099583 0.005446732128435937 -0.005191255855623928)
(4.997256674276736 0.003819152179104553 -0.0002353135886403506)
(4.992809453582941 0.00511617968134739 -0.005809581999371103)
(4.997884838899814 0.001962756046229506 -0.004320751869893822)
(4.983034687736874 -0.02047963232546013 -0.01207708779729882)
(4.992898674586733 0.005696126503959917 -0.006282417402935018)
(4.996373146376364 0.003330726193225806 0.0008383286348555744)
(4.994850010092624 0.004851594855391364 -0.004583019880920229)
(4.99722550521917 0.00433854486105631 -0.007309811682484181)
(4.999268090701378 0.005643986544151517 -0.002473000834684236)
(4.939433056323326 2.429861903739366e-05 0.0009509869755488537)
(4.996906070953909 0.003321820213502985 0.0001910972213402506)
(5.007740881895454 0.01249282272442992 -0.03577127283210195)
(4.992909886672245 0.005711034519684437 -0.003869812035930232)
(4.995196224460741 0.01011852214758667 -0.0168731070087505)
(4.991804978122674 0.01503549306060291 -0.006377723120549494)
(4.991779218465624 0.01092214706860634 -0.001756374101334125)
(4.99997950212811 0.02625662323222504 0.01345015445704207)
(4.852044795179407 0.005449844772411968 -0.000176823103590023)
(4.985538934359261 0.005687654944314875 0.007680971282209467)
(4.994490313797568 0.00471734832550247 -0.0008761924844991586)
(4.996636399738574 0.006176027850058607 -0.0104246373711059)
(4.992273247275542 0.01136942084673494 0.001338674718980552)
(4.997923072722793 0.0184829611515221 -0.014085529630181)
(4.99704722524084 0.002118546470267295 0.003459312044106912)
(4.98442427836426 0.0157223921418619 -0.02134352339130986)
(4.999080466777224 0.002359324018410735 -0.01599033028732071)
(4.909370803009047 0.005428684489359075 0.002883985935184469)
(4.996351346505059 0.006750308188132989 -0.006520622584407764)
(4.986173572243138 0.005905168104155197 -0.00427706388273841)
(4.992712585082123 0.01109147782214267 -0.009757347493510244)
(4.996415504968125 0.004529661336757316 0.002840924314222792)
(4.997083739511599 0.003588953551675133 -0.001537462802561497)
(4.992823181087093 0.0007538871852637137 0.008137439710624346)
(5.002916065171092 0.009244083350930325 -0.002105682799031745)
(4.998125683492133 0.002458555047051435 -0.004074124409913338)
(4.987915383179049 -0.01842689444083111 0.01239552135912972)
(4.996937387959354 0.003021766272253365 0.0001159243732837258)
(4.99205184260657 0.004215886653221037 -0.003490003352936746)
(4.993965233114231 0.004858665284893902 0.005345807999558366)
(4.943781854127358 0.001010898825187768 -0.005854254217573952)
(5.00046072730984 0.002742119632471421 0.003091747435420491)
(4.997153810307478 0.0003088426170452797 0.001280341417590269)
(4.995825908779625 0.00651044151895547 0.00112511044051331)
(5.001630465964954 0.0003809945200522239 0.0009031395987550285)
(4.993329346232625 0.006998243305952263 0.002985578568343732)
(4.992766183470263 0.01163830087917382 0.004569863406167519)
(4.997024127353655 0.002925580941218743 -0.001668754980789204)
(4.999004124017323 0.02933180585567986 0.06336303257908012)
(5.011282331883309 0.008982105181679469 -0.02022541726804708)
(5.001541952338235 0.004272586702629672 -0.001983743202367359)
(4.996525962847863 0.01164450378385347 0.00219607429668686)
(4.996969134034003 0.111200183936833 0.02488813806528884)
(4.989415083107747 0.005319518021218489 0.002805617743906147)
(4.983039064107598 0.01063482501883785 -0.00590162188148172)
(5.011628095747052 -0.006711348402363199 -0.0009252305490147497)
(5.000681056029837 0.01635074575986066 -0.2591181402188631)
(4.993813740434367 0.009270155120272967 0.001630771119137779)
(4.995583710069617 0.006539414345019667 -0.001267791085395067)
(4.996242642463393 0.001781437482576889 -0.008800745785886015)
(4.984853669435398 -0.005412591589237548 0.01817008363689267)
(4.993471513950106 0.006624820485553157 0.002720076358505377)
(4.999189566734457 0.001945279290039973 0.001288642750653042)
(4.991774638976216 0.005983082505943158 0.004422454256951308)
(4.990390380647749 0.03047536623017768 -0.002172833386251838)
(4.924118472881245 -0.0001129704402623379 0.005900483071656909)
(5.016444571788248 0.005431475857124579 0.009497197517518007)
(4.996416183045097 0.0009747365469963404 0.003027530864230206)
(4.984069559092807 0.01894149511690179 -0.002884562174128379)
(4.992823174001693 0.008120799176153388 0.001772141674237036)
(4.995553075593751 0.00809671703684771 0.002096313338791969)
(4.985511185723214 0.006615830289799028 0.01322092948210147)
(4.996792821747079 0.004187991467583842 -0.003651892123565706)
(4.994504844455543 0.00632111715948848 -0.0007502299682309061)
(4.995086429470184 0.005953420427579178 -0.000201359547026155)
(4.990027901858237 0.006661068946942099 -0.002276301637824565)
(4.995262369881936 0.005684775217513191 0.002066821866084609)
(5.001956874758963 0.003087261841585749 0.005119704038461291)
(4.997359442481214 0.001949654891436896 0.0006384204675831505)
(4.996841126432414 0.09514264902752675 0.006096631203470778)
(4.996678285903267 0.004217645077604861 -0.001653968437899715)
(4.995156568535561 0.006145064373865695 0.0007620945947832987)
(4.998654017919091 0.003494416973142774 0.007291485110759793)
(5.031094597091295 0.01303055079762157 -0.002110311050654657)
(4.991002528772843 0.01102218389037548 0.001384404511085513)
(4.996769104528959 0.07851712910619491 0.006102854181211772)
(4.966383031415406 0.002090027762386541 -0.0005656768606426513)
(4.997093547385229 0.004432909008804857 -0.002740714726549607)
(4.999766654102325 0.002503457019967739 -0.004024223839801116)
(4.978070142528349 0.006188031059506564 0.002906941672406765)
(4.970000393696312 0.02259624474474572 -0.02844673916893354)
(4.994298552672065 0.006676666799383259 -0.004438699474442556)
(4.994248948170394 0.009618307008833347 0.004780822836395309)
(4.9926869245409 0.003785926306497948 0.002116727714201518)
(4.99311831935803 0.005380519712924793 0.001302136773248764)
(5.000802557475768 -0.0006010862451716177 -0.003700170898490469)
(4.997312240080063 0.004767437229280755 -0.003039901954137772)
(4.992651241983213 0.007490725765901964 0.0005877290709480109)
(4.996219387369435 0.005875992109452176 0.002358738229890064)
(4.9908276114758 0.006069464840399213 0.006976765559488707)
(4.994050320038169 0.00469533601726926 -0.001639298485555396)
(4.98871818750859 0.00603286007623652 0.007463002809014877)