/*--------------------------------*- C++ -*----------------------------------*\
| =========                 |                                                 |
| \\      /  F ield         | OpenFOAM: The Open Source CFD Toolbox           |
|  \\    /   O peration     | Version:  v1906                                 |
|   \\  /    A nd           | Web:      www.OpenFOAM.com                      |
|    \\/     M anipulation  |                                                 |
\*---------------------------------------------------------------------------*/
FoamFile
{
    version     2.0;
    format      ascii;
    class       volScalarField;
    location    "0.7";
    object      p;
}
// * * * * * * * * * * * * * * * * * * * * * * * * * * * * * * * * * * * * * //

dimensions      [0 2 -2 0 0 0 0];


internalField   nonuniform List<scalar> 
19632
(
0.01575659929554993
0.002702038794686744
-0.003904030994552277
0.005425208579435748
0.001653757947605039
0.01083213775939315
0.01225980743581475
0.01606516633849501
0.01405870133137008
0.004004707720718566
0.01648145337335612
0.01306092049616701
0.01177676953309242
0.00311379996479387
0.002118158388986891
0.00579707851358316
0.002280265645193112
0.001686579653265546
5.743954530111487e-05
0.02956905454281765
0.01074829046542934
0.04028142442628998
-0.00826489658578506
0.00146243308818578
0.001462504322383368
0.01141185337550476
0.01105547744363882
0.001457973068673513
0.002542160136622406
0.0009097151506518744
-0.005011425189961468
0.0004899963804037192
0.002646732802725263
0.003631404881579154
0.0002652026061931676
0.005072419411513062
0.02097638839278893
0.005704347551387685
0.01873273498481153
0.004844650600373401
0.009062185419297085
0.01591522673914994
0.02273918981292126
0.007059592771986011
0.001435686086007867
0.02578320790138872
0.008383096523364069
0.03631176911893348
-0.001227699225088956
-0.003766936334016571
0.05022427596678943
-0.0017186760506898
0.007474633728209439
0.02388435034217526
0.007022743477064658
0.001297613070500079
0.009893312817860841
-0.004979333713958217
0.02376252218351515
0.004948150395541485
0.001766307465494416
-0.00115811549435003
-0.0009068593232558925
0.008233658366775263
0.009069258590990472
0.002220320020101819
0.007923130809390028
0.00457374986273265
-0.0004368094001298806
0.007684142299078843
0.002116899204518072
0.04207972441839286
0.06142515270349998
0.01480528783721497
-0.00777440710875954
-0.002249202212349474
0.004654703218102478
0.03754262579590103
0.009674407850043882
0.008880451430054032
0.03786397683044239
-0.008367569778344431
0.02800851512046038
0.005029755368347762
0.01439227757107553
0.01625971122094573
0.006328305151882348
0.01003899082969782
0.06415780383297795
0.003122014452044109
0.00895160957769171
0.01735789265458981
0.003552625764964147
0.002722056473869934
0.01544983690354429
0.02001990715393038
0.01265564615414305
0.006648153396493005
0.02129249322874779
0.003872212437014747
0.0008786762740822945
-0.003393577235696147
0.0003985881024906011
0.001143052415143269
0.05315975234803615
0.008745540307477321
0.001823243448291413
0.008889579275554074
0.02522348915730493
0.006237984120364746
0.03205697569606973
0.001787423042763819
0.006044334145773706
0.004072263897883112
-0.004798632877805162
0.03070525501911768
0.006257146703901523
0.006497019871951346
0.01353135354384857
0.02585286075331088
0.04525349810568472
0.02034529821251186
0.001019132742898619
-0.004782591641455104
-0.01142567269001096
0.004963227976089041
0.03221003779766767
-0.00267942783788983
-0.002129760441312703
0.03471348089551476
0.05032788493524466
-0.0004980644389178053
0.004243831810164278
0.0001425382332682063
-0.00885726545995349
-0.003206364972164419
-0.003677588662164977
-0.004107457847126642
-0.004919194627127969
0.001335341323432214
-0.001818437481498225
0.03824765454451473
-0.003799076334540774
-0.1009847004889941
0.002881540725431248
0.03154587991480284
-0.003110669363448081
0.02710654010737198
0.002034458418779107
0.005531248580353384
0.004839600479767486
0.0121682953112881
0.006867462853258568
-0.001743076217470606
-0.006047446417678197
0.008624873017785412
0.0344957915409751
0.01528905044695477
0.04158559331244551
-0.001393339183175392
-0.00419366687977302
0.02058699032471708
0.01765745831743206
0.02929606341441991
0.01075774773439334
0.03409119479012603
0.0007020673670161984
0.02618406181272927
-0.005195588412503242
0.03757860888652077
0.01260562637440775
0.02933316921401543
0.005559732528920857
0.006212587444904465
0.005104768530854674
0.03033778253339559
0.02474877999257965
-0.00019589175168795
0.05173634037964728
0.002910540854892645
-0.003544546743139242
-0.004531790887655165
0.001340333391492508
0.03788437601020844
0.001808671002919353
-0.00375009205637164
-0.004707018599725248
-0.0003683997434130686
0.04963124004578306
-0.002128745130926116
0.08015613631123543
0.01414177187782887
0.000214569311910516
-0.00161476812016307
-0.002092201596627638
-0.001052392159278536
-0.003453767817428269
0.001083588440661703
0.0005095586259299839
-0.005634651814449866
0.0005107046572153016
-0.0009123624841428972
-0.006850525364378846
0.02108885181246908
-0.005693457073262975
0.001850941810175446
0.2739412134149635
0.01343092615004623
0.01643781726768475
0.001502750359773643
0.01290480080036342
0.002101413295733203
-0.002404763505207453
0.01283697796726828
0.008151828410337835
0.003432197770046017
0.001591345447266852
-0.002553383905019026
0.03043517342487501
0.01908748587993895
0.001446475884098098
-0.00398102672256099
-0.00133041075786593
0.002647027456224079
0.005303405186330624
-0.001331759720383785
0.004102508928614836
0.003907508420985431
-0.008871966984406251
0.003035761827045721
0.004773425096298028
-0.01212622060347741
-0.005192734606454336
0.003730660541026368
-0.0009989837189269787
0.002791254743055325
-0.001607467082234165
0.007414595644922986
0.001466354220478349
-0.001913844905202406
-0.01439677706931632
-0.005803251931514532
0.3129545506046023
0.001004700436080438
0.003079169297621078
-0.002738333306698371
0.001473128911775524
0.0008008217694553015
0.0112269173902677
0.02234567985947602
-0.002993112950915815
0.01985266971562016
0.0006675846835630496
0.0003205467495989171
-0.006795070031117947
-0.0002680164922935432
0.0007250818779629708
0.01093229199488748
0.01778182512219951
0.0007729838021073276
-0.000926592208645724
0.04212836684268358
-0.00347814584472659
0.01663481901109744
0.004796430000251845
0.02000001889379566
-0.001357509317341995
0.003175528734864922
-0.008730513732098783
-0.004674220956121368
0.001522967549759208
0.02868708755794129
-0.004989043169764546
0.005587416261980191
0.03210879830118786
0.01446257979683533
-0.005976083218729155
-0.007334217374702689
0.01749714682026132
0.02467081613120414
0.02678020892607855
0.02471088971532995
-0.003626680179682867
0.0003089764407249188
-0.002300880463518777
-0.001416714613171174
0.01148659166871923
-0.006135088668261394
-0.001725034830543462
-0.000600687874845236
-0.001945413943136444
0.002747504444231697
0.02693808957963036
-0.00117313694988297
0.002257567418348904
0.01411784667936698
0.001861540885333549
0.06572781975145428
0.007543185310376331
-0.00447265229271084
0.01002640714485048
0.05446753466252519
0.004177700867890693
-0.004347344779413636
0.001388943127978235
0.01315842977264361
-0.004576978259621878
0.01248582801171685
0.01563067768678841
0.008308987161001723
0.01334103703108078
0.03941353874705619
1.624859802294045e-05
0.02129437998778851
0.005449481851254774
-0.006095057982751119
0.01465407070695252
-0.01241896215905212
0.04247678885628211
0.00285252061567355
0.0114829956553923
0.00614274609021469
0.003441518063525223
0.003798671906711856
0.01113068564619466
0.0100499806892223
0.01241138985323889
0.0004642942098531381
-0.001609407437333979
0.004026954204128814
-0.0007631088663055906
-0.003239751175086097
0.02545313832082964
0.02085420518300652
0.0004064105341962852
0.02681058715024912
0.002329080959542015
0.03898775780941403
0.0008616655523919643
0.003443731922910336
0.02658875627033329
0.002436918752450708
0.0009496294028901146
0.02639992515483739
0.02487180304191495
0.03575281302789768
-0.002967677062070541
0.0129138447266298
-0.001266950960507382
-0.002993730701491556
-0.004985167905882519
0.001687700218039908
0.0008202483608360113
0.001849422975479603
0.01095385117078148
0.005144098746619848
-0.001487416179296494
0.001893775408409617
0.02200749107981752
-0.002695324931789907
-0.004466650361365977
0.001660074363301297
0.003864692960972132
0.003404824689810007
-0.001281705232340203
0.001168515674874136
0.007463844879134691
0.005350293678756969
0.01124022194214145
0.001228096912473481
-0.001255556474979872
0.0005271952150374879
-0.001276720468182335
-0.001005110475967253
-0.0007705492330297686
0.002035951731929472
0.003759708559683972
0.0009120356740915083
0.0001346364923343524
8.822550075093996e-05
0.02817975418771711
0.002022406369431834
0.0005816864553976293
0.003164592748236708
-0.002704808915133697
0.0004219134548542959
-0.005532536813517785
0.004200529755445008
0.08548070667679386
0.0237950615342038
0.002792884963483206
-0.003846536404761706
0.007258810310085616
0.002888034895151595
0.002459725715694357
-0.007437696913364276
0.004783908209952671
0.06224674882418791
0.002928373503176096
0.0105188712715681
0.001162520742557051
0.001700074053351901
0.001245953225731156
-6.182098943852672e-05
-0.001256250180633731
-0.0001634580480680256
0.005250666444396384
0.002058126716659314
0.01089965613897825
0.009918761908946992
0.02151618719901488
0.0008858717253355855
0.001165727677521732
0.002140226856955617
0.0001785253826381602
0.001933907052371117
0.001142684837038823
0.001250669800336861
0.02434045212683516
0.01003906572098887
0.001119220632093733
0.0001075866980763453
-0.001651063941941301
0.0003945770730636399
-0.01722855395117111
0.001969728457802102
0.03104208511252269
0.001787809107221869
-0.0001419728984849177
0.004177087200308807
0.01680856595668283
0.0003555483699857959
0.005833385509588241
0.01780517997054485
-0.01007069238541663
0.0249522498098047
-0.009141583327844052
0.007089872120318746
-0.01750476088160395
0.0006590785909375829
-0.003867724492144621
-0.003534112722916207
-0.0006381869532071091
0.0006827239548133213
0.001118344896148546
-0.01855905586670462
0.0005573389843780242
0.001874553399320288
0.001622447529591023
0.0006775648144367441
-0.001196620362567735
0.000862629392343102
-0.003967057333708631
-0.002518092909283845
6.979098810402935e-05
0.01079211561126726
0.01952482492628116
0.001514343538840856
-0.001181172087631528
0.007114505703206094
0.05857572034181422
0.001760988618203399
-0.004030405972742389
0.005006442889678179
0.01334081138253814
0.001402072993739729
-0.0003973935200258512
-0.003613590217666785
0.003133067725664288
0.009955221241627192
0.00549322662761157
0.01020138327309387
0.01073527306716868
0.0004397573710793768
0.00703918539663379
0.009647581776666348
0.007312454250126625
0.01137207209354094
0.002843762927715477
0.006583941265197481
0.004213862021714062
0.002309830137529568
0.01016044158385752
0.002192344108601565
0.00114264809244667
0.003051617187859265
-0.004154452489296179
0.0006850162291373175
-0.002126864978240364
-0.004846554553323286
0.004732460842483061
0.004459535211023733
0.01990584107917135
0.01841246571505505
-0.003301246823468362
0.01783535916209895
-0.002148887003365055
-0.00632456364464775
-0.00684403841122336
0.01821721897511182
0.08595560390772136
0.0009850108410180871
0.007619849778059331
0.005835149365768879
-0.004565610062825996
-0.02170858434162703
0.002247851897224575
0.007020190965403796
-0.006744895204975549
0.005947806364035569
0.005636364863111643
0.005306053041677518
-0.002988647452147275
0.001350296863482638
-0.001103668954833556
0.02453505544718696
-0.0004592775464416967
0.006126742323447129
0.006439472171340515
-0.006474234176770077
-0.005615056851932245
-0.006739124553375308
-0.003014508049523159
-0.002185204229602622
-0.003017576207066957
-0.00545629751698154
-0.003475946545103603
-0.1305541287689483
0.003967705775848008
0.0004366380645895449
0.03597280578609347
0.004341143583576948
0.003872696700733372
0.01525038954886424
-0.01702053416883516
0.01075781098197589
0.003230662813857162
0.002695949026250552
0.0620789980259847
0.001563267551583422
0.0127599829737691
0.002030764751091427
0.00740519395575142
0.002285871248306306
-0.001956849552658448
0.01217884384322825
0.01171313419424266
0.02115202604530674
0.02006776902223066
0.01057202862290783
0.01403603811533638
0.004145426929513666
0.004698675221605824
0.01261318613171695
0.006124130053766241
0.002731051267684872
7.048486090136031e-06
0.01189364036267972
0.01090631044135216
0.009515127181673166
0.009948384081543879
0.01880063266494759
0.0001044753477072206
0.001321566912712052
0.005939351735216314
-0.007011609298422445
0.0006941026897419411
-0.0005216144976864426
-0.0005198519882213502
-0.0004580121834802094
0.0002229172908272884
0.003679109403960591
-0.0004715208802379856
0.0001769341858164736
-0.006219596384317062
-0.001281607925809523
-0.00400021025628953
-0.003345227937673236
-0.003809900840821781
-0.005411200540079143
0.0006189270548846051
-0.05820314499230068
-0.002311383060930707
-0.003138455960501448
0.003682155937828007
-0.003035770562622545
-0.006361074454890468
-0.004861341005983532
0.002636392121901877
0.003671313188028402
-0.005149698531703975
0.003107749033566504
-0.005480204748012398
-0.005470471536791582
-0.0009498220314388108
-0.02027880614597906
0.003466706086242254
0.07079516361304672
-0.0005939279685663599
-0.000576280686463503
-0.0008957843735055882
-0.001682609106836495
-0.001479531623730768
-0.000776288677186279
0.02289712695604826
-0.001173996415878811
-0.001869532839319788
0.01658567972586426
0.002246859580813014
0.03832712166846588
0.001746990809485351
0.05031495499902325
0.03451811134699299
0.001235658203813348
0.01456959144238059
-0.00450105282648663
0.000556924142722755
-0.01994262549509924
0.001357801656190659
-0.0121623096882455
-0.005807372500971304
-0.005137377089863499
-0.005433423017404383
-0.006009821110475612
-0.005226993422369553
0.02569353473994289
-0.003249063478446423
-0.0231182204856653
-0.006445893593146086
0.001364673270449942
0.001100831655223311
0.001931362462042739
0.002128027949611301
-0.007925632962796938
-0.005392675954554431
-0.002577677408031853
-0.02048143409114559
0.04629553797991744
0.0739168025453299
0.06216760099390967
-0.002779053010285829
-0.006188319914349945
-0.03396334358012163
-0.006513853721009305
0.004910149588864618
-0.006182120941864097
-0.005812274166019778
-0.006052404612679469
-0.006503510554976518
-0.006770372858012003
0.002150995791047388
8.788350738954844e-06
0.0001780526707490621
0.02156137962952413
0.02065715806803395
-0.0003939774698065872
3.969610537426373e-05
-0.002283417460131222
0.001210581872780339
0.001085102583296296
0.001093063202429728
0.0009653931882936589
0.0008570711627342817
0.01005871470657788
-0.001275674656585777
0.0160695489390601
0.0009481887932986438
-0.005358716272370333
0.005900212803886854
-0.007403024674155175
-0.006602569501084461
-0.006578677634771647
-0.001110850925244308
0.001449157024798909
0.001624918592477169
0.0007817840924804686
0.001297339172940166
0.001364063216096214
0.006323437100754463
-0.003304087851407571
0.0007327227742571806
0.001021816112637603
0.01100728894118254
-0.02226961489100087
0.002743964190955355
-0.0006688747522136569
0.01142759716288348
-0.0004877435772408957
-0.0001066632793370279
0.002319933035934139
0.002581158127418704
0.008802466206750403
0.001847257039046444
-0.007207058728671109
0.002409228212229686
0.000386598112488845
-0.003135661893665415
-0.008760803623071235
0.0004563428349826467
5.092488698536902e-05
-0.001200538020362129
0.02338944750658432
0.004942462797979546
0.001069250586220166
-0.0002906743378985212
0.0002475139579740886
0.0004018344068901943
-0.002371414357509574
0.05493958851624287
0.03571654660346704
0.004426594717893796
0.0085369393029739
-0.001530482613254092
-0.0002233318963115486
-0.0005565432352264779
-0.000800773581339958
0.01765262192066061
0.00443827324206183
0.02527352816795481
0.002544319720360836
0.02782145855582948
0.003573446607059271
-0.001497386824977664
-0.02418956988087335
0.004016521495441996
0.01123329985481882
-0.003291087841694881
0.003793977383017066
0.002963638734747983
0.0312927294343094
-0.001588158688545547
-0.007960756919246904
-0.003290021499216763
0.007904941651830982
-0.004759617425658688
-0.003488656136287581
-0.003263892216539411
0.002993529675385717
0.003862300061267146
0.001238497275215222
0.01903174520414328
-0.01363133290695734
0.0003790837923069128
-0.0003715969490001852
-0.001176676851631159
-0.00611155045898436
0.003003034455931547
0.0007073951333581743
0.003643525902545426
0.01027539730105638
0.001212333264322492
0.001978935530277481
-0.001279598037591697
-0.01282489755820779
-0.005121409309989035
-0.001502080945636234
0.001326340831835719
-0.007907207536651143
-0.002288303759524467
0.06786451351451031
0.001383263176847551
0.001907299988822692
-0.001958360036944617
0.01372800811694046
0.001120865289902916
0.001647880944791453
0.02221306268211254
0.001254897957125579
-0.007420408064624972
-0.005561497027916477
0.02183035632254535
0.01161921065322266
-0.004402435089954942
-0.004325265660345254
-0.004656349453555344
0.003516463739845255
0.0004933381289214656
0.0009432280011294218
0.0004845065637912831
0.0005437053800813219
0.008639604723091748
0.0005456133434181571
-0.0004218608143712214
-0.0199226030048347
0.1047443050795479
0.01535049826958102
0.02366378558621859
-0.007012788228226246
0.01917087562864466
0.01916777445513139
-0.003096952796555286
0.09346966531795342
0.008915638413193282
0.01674258455830931
0.02663419591972206
0.002421237040373071
0.002280905110007132
-0.005653358887962266
0.02765616339135463
0.0293077977750266
0.04196124797729392
0.02767745844210398
0.06832771766978951
0.004665561906244684
0.0009183170420526415
0.0001054019034752097
0.009116626195906852
0.005141786762497725
0.006110206230861039
0.002588357152333483
0.004871979853116048
0.003095727018770041
0.002566496994932185
0.001284084898663257
-0.04215358778580006
0.003357217206939158
-0.01719936995679168
0.001282249084227046
0.001742113309055246
0.02330306689926274
0.01424329993959901
0.005537774639543576
-0.01503294166602215
-0.001743772241367975
0.004366245786417692
-0.01750758727799892
-0.04349136538733023
0.0003465295710341027
-0.03921509510346665
0.07179702680326133
0.04060184468203294
-0.001767471504047312
0.03086733853227052
0.05343929615482565
-0.006084529074587945
0.0008264498903152226
-0.02075360769333374
0.01037310440673142
0.01057003042954133
0.009385844362574685
0.004046497425516711
0.08968896863276569
-0.01925447105820287
0.02381129940199351
-0.003700569736579281
-0.003244619930389396
-0.005699758560136832
-0.002733714061704632
-0.00274586422534529
0.09560298597504746
0.004595224523191394
-0.0007157926842540708
0.001756193662039772
0.00356373427706263
0.00188620459243519
0.006983529702939176
-0.006228447852142709
0.002477903636537525
0.002632256120479009
0.02842298007248716
-5.518526503371946e-06
0.05431535321667974
0.03296779092444271
0.08028658897823171
0.0498562301703921
0.01070966069345902
-0.02029773866778341
-0.008952127226370728
0.01386409252720546
0.003255435516369428
0.003853689770511698
0.001959808768753968
0.01303358304605807
0.01226577563621397
0.01184172951115636
0.01001662250793398
-0.001547574720284923
0.02483832062550597
0.01707809914745973
0.02486985534373261
0.0203503410364454
0.009688394932852874
0.007125765880531517
-0.0009883400831208768
0.003504714980141682
-0.02478931812478997
0.02225788574116287
0.02483512002724058
-0.001134903612186677
0.01092541142826052
0.01049481253280304
0.004550687762758613
0.06741994704054363
0.01275908915779115
0.01045996071864052
0.001886356379485385
0.004397820719011086
0.003013255303326705
0.002935492967884794
-0.0005239229794032595
-0.0004885242201746313
-0.0003354033144999968
-0.0002510582332160326
-0.02647964953638862
0.009156247336145633
-0.009421281447616992
0.005554468799491936
0.05797250215985158
0.0978995623370118
0.03013766069796834
0.02355513538581015
-0.005136996655489075
-0.04950938928493705
-0.003545506781013749
0.0001949621161873728
0.01846663279343888
-0.002211587091822068
-0.002112010032212044
-0.01058306854219727
-0.00134893415457702
-0.001590401090512556
-0.001717398967335012
-0.01134269306190386
-0.002027932325095645
-0.02787803611419627
3.96872460866016e-05
0.02218220830363058
0.07044236185355271
0.005406441155790214
0.01608765311323649
0.02593570481028158
0.009661933700931527
-0.0001522683551895275
0.001435342986313064
0.001236786060037307
0.00125164260099271
0.001298293631367928
0.001925360409703498
0.001315321358537765
0.001299228669958019
0.0006691434311114554
0.0005053750415951715
-0.004808901557478252
0.001555510917235675
0.004393163341725212
0.02885013169888983
0.001554292590336094
0.001267430148912053
0.02235771715629475
0.001918739118207389
0.02895124796640473
0.02158378834528881
0.002744168744610338
0.002061747625304948
0.000725494401569271
0.001212084737847606
0.0009610588380675868
-0.0314269807158917
0.001116552801360283
0.001199002857240299
0.001072039514635576
0.001351910787630657
0.00104895811772566
0.02497482560335813
0.0001316074682486999
-0.01217412106172997
0.0421547717086502
-0.001262076344339561
-0.002021903425250929
-0.0003292331063293201
-0.03258823369691423
0.001434980574433496
-0.001540695157119404
-0.001268642341252723
0.02544117075196912
0.02164749677409598
-0.008459920045048164
0.02788936150989063
0.0008986623724985847
0.02148774857909959
0.0009261214915472034
0.02234473547818384
-0.01832111474494424
0.03025116618260922
0.01789263575361959
0.01360468606077913
-0.0004300205898674782
0.01691266397195659
0.03073617342767948
0.02728865516278409
0.02809459650904167
-0.000993165275493713
-0.0003937321655557141
-0.0009001482545036925
0.003173960379672785
-0.001226702835431764
-0.01905909936754516
-0.001037524828976445
-0.001279723525338244
0.002925898440397033
0.008467002619905607
0.0006057630091894424
0.01206837631034174
0.01569098114167093
0.01295309387688371
0.001743348771977005
0.01522151230687538
0.005119792784739655
0.01038205998468865
0.001655556729669905
-0.008867069443758532
0.00221455589620318
0.0005737296180157741
-0.002658892761717247
-0.005302724268157991
-0.0160697807835911
0.02377654246687477
0.004682566824198429
0.0771187729097762
-0.02489750118023648
-0.01079616796002255
-0.02634698377249627
-0.003100134150013447
0.003302100819780167
-0.06579631026462207
-0.004969463427924275
0.008730212700521935
-0.01939816559839327
-0.02010632579800656
0.01318247722171302
0.002902499494128647
-0.005058801953196219
0.0008381818603982262
0.002334522214162067
-0.006257718417242817
-0.004280906606401995
-0.005971020032783668
-3.429955691163913e-05
0.03202411374189836
-0.001763226446080642
-0.001333817820612641
-0.02815429664910231
0.01351353492772272
-0.003518079284330105
0.0007595653024279876
0.004941546025109431
0.0005074794944319702
-7.281245370021468e-05
0.0001508774577165479
-0.002752751990108061
-0.002949973215540854
-0.002121264696125312
-0.003706846258934467
-0.002785657184519515
-0.004331330183827268
-0.001751373929699399
-0.002556438290544628
-0.03426816981685414
0.005851072482911791
0.009468281767074944
0.006689449088868853
0.002362443032429353
0.01155326147096294
0.01090203996057131
0.007613919033026756
0.008302264601233995
0.02575582791979287
0.0003597356640119803
-0.006958411362349472
0.03366617788261893
0.00152462834212203
0.001904076548417452
0.001908661341923991
0.03670654118706177
0.02838709770403934
0.00161947422422598
-0.01076212994421742
-0.009396492950255656
-0.00791513893247024
0.001687222996951419
0.003094625415105369
0.006654295163672447
0.006510362109249502
0.004459892384148181
0.003336602340302036
-0.01031497037446887
0.006194217314046719
0.004239750303678178
-0.001944367255709446
-0.001409057990095714
-0.001378326828585237
0.01180609395497578
0.01515331476462083
0.01192843032967436
0.01470122515146642
-0.001458554933897046
-0.001029890814316053
-0.004236152841302484
-0.007732396823983346
-0.0009325013862063798
-0.01941292286392289
-0.004165425244347814
0.004452543917886558
-0.001442317828332516
-0.007711861648468936
-0.007524153352399593
-0.002815597649837964
-0.002120466031235729
-0.002726059457677772
0.0006578138635085737
0.0008727270896535943
0.001910012141925902
0.00505002164494216
0.001912049972823794
0.001142563851806621
0.001029444356877685
0.0003351334135732139
0.003304265276962651
0.003590303259739041
0.002733334371877168
-0.003791370802748826
-0.004104169309020021
-0.003729344764425804
-0.005282539168502145
-0.004923025339502759
-0.005200613897122984
-0.001136187835837289
0.03863214864733508
-0.001086449781115407
-0.009985200156488223
-0.00336730716559753
-0.00231122031941604
-0.001717062645948345
-0.001957722149798626
-0.00226168843351048
-0.002750644916323439
-0.00412077316241318
0.0007174913828817289
0.0006215176028244445
-0.001479003601869968
0.03747336216526725
-0.001237353970115944
0.002538907456145959
0.002739414016447347
0.00219758319417441
0.0328011869404974
0.00615812770760199
-2.930183094300807e-06
-0.003204887535057691
8.021808255644215e-05
0.03452762804480768
0.02179211216952546
0.003680466776847931
0.02162578854326285
0.01095230053203298
0.001864414347168265
0.0123166940494947
0.02592786531525275
0.02631879401083115
0.02591671795228968
0.0250542263092024
0.02544378755545693
0.002782323424849728
0.02344391375905189
0.02028647559411031
-0.007056738392085563
-0.004898570531044766
-0.004779386766657628
-0.005505950428116515
-0.005670757449848931
-0.003756979868617781
-0.004386291132244351
-0.007082437442109422
-0.0001098496818875644
0.07469903425553695
0.004074973007861925
0.004706377836123547
0.003149657669608059
-0.001155069059476854
-0.0005976511693166516
0.001182981468857311
-0.004155683118592395
0.007384260157204477
-0.0005172118135276025
-0.001350258582204004
0.001320602482935619
0.0006087989733959074
-0.001268517356611826
-0.001589732732268538
-0.03439054727538861
0.0155643526536594
0.01403659461697266
0.0004995425319567787
0.004060126409703723
0.01073193719998252
0.007851453292231587
0.01122930118226983
0.008215973497407289
0.009066985959995026
0.01127820652048986
0.01288566373923478
0.018835401158821
-0.002919148950600704
-0.002175733038048658
-0.001091615108187326
-0.001785891348348518
-0.001775657569981083
-0.005246119788438321
-0.003070269929811321
-0.002350458019582779
0.02277840022620062
0.02401776622751457
0.0240594569415438
0.01989880112855355
0.01772683181316463
-0.007208591361358465
0.01923356448836766
0.02028093436566823
0.005132381431436067
0.005632199180200519
0.00883905224987247
0.01969125887384046
0.01624167630585237
0.01464815699084257
-0.01206314768206007
0.01659671154324982
0.01753035742112079
0.0169128065664742
0.02145724899982606
0.02232725259842454
0.01673127587887888
0.01949822082751916
0.0248973873796781
-0.0150158120871921
-0.0144816956307089
-0.01765202203100287
0.0005112708674856546
-0.004765557243232138
-0.00722760671707117
-0.005575213721038237
-0.005584521308817497
-0.008322553443297725
-0.005674469372922225
-0.006046240983085313
-0.00579805143607189
-0.004775378157782341
-0.02363036834089096
0.0005476519370566518
0.001358107153739151
0.0006430126670004504
0.0003804081481365228
4.810082470976895e-05
0.02595737574601608
0.002369022540372386
-0.003724682373505553
0.01374920063124839
0.001141643396623805
0.05143987978284194
-0.003681069061238912
0.1077718312015409
-0.005713950219754764
-0.003296501763691282
0.001941772956527669
0.0009640899347693628
-0.002898729721951549
-0.0003258185036794227
-0.00865640291162742
0.01879026135924192
-0.00205499742492313
0.0008706269249144952
-0.00185469362872966
0.001759754648281765
-0.0006390652066598876
-0.003102081587822756
-0.003556073458460352
-0.003016871958316368
0.0115981107152287
0.01381399679235617
0.01355114697994249
0.003255065743922754
0.003765808468780889
0.004079333705632511
0.00595740437394699
0.005658828631050456
0.005746851179072841
0.005076839880257124
0.006211176864940872
0.006446527251481749
0.002722103701601753
0.002606387574195095
0.003543782418661543
0.002898130134055559
0.002274854605464847
0.002547533904282359
0.002431218161675002
0.001346847742435864
0.001441657849462961
-0.02579977252510808
0.001793227163314912
0.001701660537268251
0.002187606685509842
0.0004007149813846756
2.027522287440201e-05
0.0006418019006113333
0.008649209136741364
0.006860829364669505
0.007462584699559349
0.001337995959204695
0.01000720887091143
0.01371819655471945
0.01432252187833375
0.01503333706335851
0.003567260755708393
0.003541274052438243
0.004301234518338825
0.00488250840028456
0.005624357895578549
0.004827823517687857
-0.004280423834153117
-0.003228178568341376
-0.002703566419660712
-0.0008525483606433094
-0.007442707964184645
-0.007098253301473659
-0.007621851494242677
-0.005137363060376541
-0.008147277196980799
-0.02605798210824461
0.007140581612380084
0.003877003111810614
0.004106832844824911
0.004209624451373849
0.004466837101440991
0.00411630391676648
0.004601802222647082
-0.09351564265078459
-0.003782138047178937
-0.004667717276897946
-0.0001446412608469313
-0.0004537713643319892
-0.0006146537949314615
-0.008508973782774071
-0.001077400831134213
0.0008448682331079892
-0.03538380697221855
0.001711639775291159
0.002289493214703189
-0.001312654598601313
0.001062777085117653
0.001265571212023181
0.001469666227240796
0.001980929026517388
-0.003973779940498471
-0.003600556623606524
-0.003930846054452948
-0.003610621541933227
-0.004313907103712031
-0.002544353107749252
-0.004218687515192342
-0.003636382441064279
-0.004131259519010885
-0.004248396654684435
-0.005419667751759077
-0.007755172195758931
-0.007187862233895796
-0.006164472360430617
-0.01884531771129996
0.001678180091425785
0.0007643538427961018
-0.007204032500020861
-0.01108900025332286
-0.007607450615454993
-0.007594045916626109
-0.005951213306777785
-0.005905452920493094
-0.006541048431421304
-0.005455627593920524
-0.007749705883403971
0.02544729941371199
-0.003407544613810535
-0.003892445068460691