/*--------------------------------*- C++ -*----------------------------------*\
| =========                 |                                                 |
| \\      /  F ield         | OpenFOAM: The Open Source CFD Toolbox           |
|  \\    /   O peration     | Version:  v1906                                 |
|   \\  /    A nd           | Web:      www.OpenFOAM.com                      |
|    \\/     M anipulation  |                                                 |
\*---------------------------------------------------------------------------*/
FoamFile
{
    version     2.0;
    format      ascii;
    class       surfaceScalarField;
    location    "0.7";
    object      phi;
}
// * * * * * * * * * * * * * * * * * * * * * * * * * * * * * * * * * * * * * //

dimensions      [0 3 -1 0 0 0 0];
oriented        oriented;


internalField   nonuniform List<scalar> 
37380
(
-0.3774968190047306
1.00281214908959
-2.773764289750017
2.148448959661048
-5.162338888853424
0.8045193231566793
52.37109783856223
-48.0132782728648
-18.28130546386287
21.92141423677512
-22.79625103533585
19.15614226241668
16.79679293605322
18.26244975926916
-18.54245142972493
-16.51679126559761
-5.078585198569723
16.72736219043693
2.82276564609218
-14.47154263796033
9.394227959064592
28.0525742673045
-20.95350297463124
-16.49329925174144
-10.19130763183156
-24.85805636626738
44.44359195716213
6.968464889383875
-2.977022891295102
7.608263361683132
-11.59970535976171
9.649026594885052
0.4366851489721605
-7.435382673705591
-2.650329070156801
-8.913181169278085
7.61303407973011
-3.178402937299079
4.478550026875118
-7.540049893485647
-7.298395491475269
14.83781530120776
44.35405489631982
-10.6374799549999
-22.34177156595214
-11.37480337536973
0.836985072776631
4.852401870529873
6.943137789093177
-24.12873814067175
12.33319848104834
-14.94172069390795
23.74745151445267
-3.415673439746028
-5.390057380795941
-1.497385492897322
-0.9637718310749264
20.45570477427609
-17.9945474503304
4.407715105470584
-0.01699014742703802
-19.33244565195134
21.12579547142794
13.41293029933615
-10.79127425631221
-14.16004409021027
-9.921512464597013
-1.581531709771295
25.66308826457513
-17.95018744410781
2.313305205573836
0.3177031357475075
15.31917910280124
-0.07936839991588931
13.59389654819743
-6.546063258885643
7.276053848687611
2.770719663180973
2.51867441110416
-12.56544792289679
13.58837911545379
-1.526796510141737
8.276075527523799
16.64760725516028
-3.797887311260381
-8.329625124624437
15.13545338355345
11.09932387239707
-17.90515213129258
-6.220326694100402
-2.198691695397536
8.855703538486424
-9.729928400961619
5.606495188377928
-6.403033905601492
10.5264671182346
-3.233478407925339
-15.90502596146229
0.783077607861753
18.35542676153008
-5.093025998704719
-16.72902011299492
6.42737135639065
15.39467475530756
13.99468694650509
19.53502639749678
-0.9039541792273476
-32.62575916477421
-10.15215840929277
7.738566680999398
3.934787352019212
-1.521195623726885
20.81366778079124
0.376896985879939
-24.42404317459635
-17.58878445123067
-25.34523909938046
19.08110178957543
23.85292176102277
-14.33493459809408
15.4245047470236
19.72409763185937
8.562355460130323
-8.748393768295037
12.97365831521191
-12.78762000704995
-8.055009174530882
10.6053165003708
-12.91448357090472
10.36417624506257
-23.75601669601841
7.421350670860304
-9.021925133076669
25.35659115818043
9.289665666873567
8.778150380699749
-18.06799121260049
4.580105382752385
2.629270379967839
-10.18639865400115
9.073909992187577
-7.309746331371367
7.52550200605693
-27.40582356642251
1.955549870049209
24.24292272949344
1.207350966885817
1.461980194195403
1.294634303073324
16.3845955736206
-12.8018562205832
-3.131749038478488
-0.4509903145598682
9.112589664849192
-23.36566351294067
14.85835093789744
-0.6052770898059407
9.210692385597362
-11.83673699658485
28.13137138904587
-25.5053267780604
19.29858156735083
-8.685274030228237
-8.236000840577136
-2.37730669656061
18.88899056306666
-18.96389453009305
-0.8232904102674946
0.898194377283246
4.820398259123557
6.974716206644044
8.365715968479957
9.44467814485188
-16.68493414157457
-1.054424546053593
8.294680542769859
-1.892022556212884
29.90191950469392
-2.918848706677055
-25.09104824180811
-15.57357052301366
-9.504136637871204
10.24744318134389
14.83026397953865
-0.1407996908684122
-12.27729254153694
12.41814059591256
27.86007225050431
3.222053003859306
-10.759616340442
-20.32250891392217
12.31671398182135
-6.315386863104682
-4.656437116073596
-1.344890002646503
37.09421796367387
-25.55230514156925
-34.52629205163731
22.98437922952144
0.1536373361469855
-28.53766052697279
-1.046227346864051
29.43025053768249
-16.1202122785259
13.55773896923883
6.851338875857176
-4.288865566549724
13.93622424933083
0.3527509417722349
-17.24117091204743
2.952195720926657
-22.19851642765732
15.41634436342005
9.94091870560772
-3.158746641376025
22.83278612931799
-22.06648537824993
-15.38011954591267
14.61381879484318
0.3899792715105443
6.646532530170362
-23.83849521664204
16.80198341495906
6.200089122088328
-8.321642914446057
-16.82262750928032
18.94418130163663
-22.64067651271353
2.170162076491823
20.07322155088981
0.3972928853358821
-6.761477655582268
-11.49187258543619
25.64275642260161
-7.38940618158407
-28.98258035088146
-17.00445809590442
16.95429709987094
29.03274134690895
-21.77889729995938
7.072744347456815
0.5970623672025026
14.10909058529898
13.88174780477192
-21.00441212396352
-20.28315924721922
-11.08742502006126
16.29829199571574
-9.213766015270838
4.00289903961583
13.58121310315325
-18.67618525457146
14.90794451778108
-9.812972366369133
-21.86612167043799
30.74258222349684
-24.93282304380906
16.05636249074147
23.17819517612892
7.010939152781692
-27.70212461388838
-2.487009715021988
-16.79276192019815
-3.71701688306714
12.22060480529147
8.289173997970963
-1.323797826435257
5.208645423072928
6.172066232385821
-7.812287543725007
-0.09949864114658348
13.08225668487706
-27.28213136571534
14.29937332197133
6.980812662939473
-16.31587042224663
18.82625936750447
-17.14891186225049
26.87976835907113
-9.730965520797929
-11.30997021486678
-10.43339429635518
21.74240474883705
24.59324270641664
-10.46887431982711
-0.2426205818157072
13.54439711338407
11.34012211656437
2.624088817765172
-27.50860804771749
-20.9310733400482
8.147055307181194
6.576842741155942
6.207175291655472
4.421947394068415
4.843490890834164
14.41438143179979
-23.67981971669987
-7.851224649224481
-12.41568506788327
2.353469380357219
17.91344033671702
10.46129109353232
0.784222082904888
-15.84763297729655
4.602119800863158
-33.11972121269755
-1.718186098296386
8.335990173080695
26.50191713794179
-24.37637305402914
3.870450245437592
-12.61379840410075
-16.20802114730032
-1.05413592830227
30.44328404950773
-13.1811269739064
-15.44354698562826
15.93785476112066
-0.4946923461708647
-4.150667347751374
-12.64373848839036
18.44758078445562
15.51941834630124
-3.139732807860422
-1.415956207242933
-10.9637293311899
-6.605517236138942
5.868805734963063
-0.9698405061062755
-4.920283421761961
-0.7153933082571833
5.888575934743454
-0.2112753335467354
-14.55749194490646
15.03548459666753
-12.69935057664764
12.22135792488517
-0.8078363591233235
-7.704112557723698
6.231511804942857
-11.03762409868496
-19.34517753857092
-3.463531261607254
6.600687652877537
-14.25409492032061
-0.3036048144326581
-3.36784241599366
7.943895644649093
13.09934114378516
-17.67539437241503
-0.4336334943844997
18.54386223244533
-18.11031068843887
18.95399769302466
13.24597613523203
-21.82610087050775
-10.373872957751
-38.06971237970345
0.0706025041625314
20.92900625674465
17.07010361879368
4.403551369313377
-30.71957568233239
-1.866870726917353
28.18289503993339
29.21035096584067
-25.17441750692856
0.3676179103996485
-0.09483140541351461
-14.36886752821685
-10.7496655800116
25.21336451361661
-13.3893897000739
-2.601078369165536
18.28365703264447
-2.29318896340541
-26.79511726821695
23.42841054332351
-30.65485753667577
34.02156426156333
11.85782794710587
-5.765130114631071
21.20720569896448
-18.59022952065039
-7.693785753229952
-7.459790156594287
15.15334620328654
11.24279154674324
-13.51389710187897
13.95340572263893
-11.68230016750604
-20.18128397621557
11.56399389214703
5.855555790045128
2.761734294040607
-4.960235176111011
20.56328005261132
3.256716455102517
-18.85976133159877
-17.00677662466278
12.5452742250437
-5.140564202677509
9.602066602327675
-9.91123982802125
0.7863281618441358
-3.09945148301635
1.038341226361342
0.998509674557932
-7.255835242557404
5.218984341637246
2.467790853115883
-5.91682850852289
-13.23494309621674
-17.67348559306714
29.32004303132145
-10.17323112402636
-1.473326314233187
7.062048368489656
1.201439785492876
-7.225146927609997
-19.52627747930684
-12.22153662715727
16.89822166219522
14.84959244426511
-1.720079681343179
8.156831680391885
17.77544513517206
-37.31405199133814
11.381775175773
4.979584885411739
-3.326830821251074
-9.169747240054342
0.30448976872307
6.808211107606122
15.0630955551214
-14.13605920900455
-7.735247453718113
1.565146026949457
-7.556089911014487
-15.79919652247356
6.971445244915893
15.4567816975127
-6.629030419962714
23.13616263192122
2.757931821339854
-18.85750678113685
-7.036587672126481
-6.831653147260381
-0.5747613795377345
-13.52465881328314
10.77380405421007
0.7893421674531121
-5.741985356268859
-5.821160865381698
19.00392288906876
-18.38942766215228
23.11509763561174
-23.72959286252955
-6.078360693911621
-12.15750527688111
1.551269347346225
16.68459662343642
-0.2502918637798957
-13.09451957717498
13.34480639362654
17.28726036539437
12.66192915384296
-6.990709947565185
-22.95847957161149
13.11931214411483
-1.798743026286917
21.67691779888777
-32.99748691671869
-14.51065525393559
4.264685297347822
-18.36149596662037
14.1214020603241
-0.02459139098598829
-24.70622222602224
-11.80993979516747
-3.022483783766833
16.6654744111456
-12.84613018953985
-0.7968604378208275
20.6711991263623
-16.43645225529021
8.884565273040508
-9.059224558267456
9.13259191451305
-32.44318179741348
16.83866729464224
10.60674495480484
4.99776954796569
1.724202005944854
-2.554200625971826
0.3459327714140868
0.4840658486145766
17.56308444508222
-10.62406298862762
-24.69990303288063
17.76088157642555
-6.414689751323519
9.626172870946132
-17.67284310667839
19.61148295253195
-11.56481271680016
-8.707887806418267
7.687464393570657
-27.69924869218702
28.71967210505262
-7.715125873718169
23.54330833129627
-2.679982190123181
-13.14820026745944
-9.710278759874502
5.747701283015385
-24.25564743624044
28.21822491311278
17.96117375014035
-9.183172888545615
-21.11898664410388
22.2302540273963
-18.32418400367366
6.242484450307446
-25.72836207207808
26.0926903510201
-6.606812729245666
6.519885192685773
-29.95127357981651
7.881107027754467
15.55028135937665
-0.4563384523450137
-0.3863854638756977
0.9206830005339559
-0.07795908424940809
-12.13235527597949
5.74875105560868
7.950257164700373
7.833618911811835
25.31055135238649
14.21701592650759
-19.64369600006489
-19.88387127883768
-2.106736012558255
1.367243597473709
-8.319732143173383
20.27946006344816
-0.2742728798537486
-20.00515330115733
9.231082775034031
18.00786798374752
-12.97263679563183
-14.16309277910319
9.127861590983775
-16.56031848533308
-2.20675239107488
24.42418795265116
-5.657117076245331
-8.659969796227987
12.22744761007664
-20.12779629918367
-23.44908176728484
30.49294425720789
-2.767483008319128
-4.276379481600496
-2.668124660281499
-5.046992056588425
-1.646180255109556
9.361296971979863
-1.312097624157387
26.73564381536931
-25.42355885883887
-10.65630566363135
-29.74338817385968
16.95061207020438
-10.1348862854201
-4.88386735113319
-6.271201554598949
13.8216642012332
10.37629526293381
-20.82811711416918
10.45149779594004
-8.876497617681942
20.49140942784036
0.6201135632902589
32.51110967575517
-15.57764119645185
-17.55358204259612
-9.764072085787268
19.87788832560749
-10.11399082225776
-13.13577728659058
28.20288327523232
-3.627087358993102
-10.07748589425468
11.03644859297311
14.93117348678655
-9.898982375707666
-2.377929352423082
-2.65426175868033
-6.420799099373346
-14.34122778155738
21.6707121819219
-0.9086853009914837
9.379241097305261
9.184899536556697
-5.751752529223006
28.96240855076534
6.008475860829919
-29.21913188233884
-24.53444952399124
0.1385209427127419
24.39599661593242
20.10873497297947
0.7467683663221552
-1.53596821686589
-19.31953512243669
25.52174214391642
-16.9980121023542
7.126657584284632
-15.65038762585537
-4.097787297810095
13.52427000183438
-4.424867618502924
-5.001615085518794
16.71536766543094
5.944659262845894
-10.34192993879304
-12.31809698947684
-4.119046297024688
6.516591059281411
15.12089917684391
-17.51844393910135
12.44106997959224
-10.80047081566926
22.36701302462598
-24.00761218854947
0.02482804967495597
-0.03282508629143548
15.52519138118688
-15.51719434457253
3.172756901287406
5.921583891707964
1.679463261216179
-0.0154892771047403
-20.10473698259512
20.10243132038865
0.0177949393107872
21.6776258681281
12.89019876325409
-22.75437065623041
-11.81345397515955
-8.418309264344494
-7.637741683693799
-2.01322269435948
18.06927364239732
-6.438983460649326
25.17498970908043
-15.68076789710232
-3.0552383513375
-11.31684889325306
30.63923973885955
-11.40212499072806
-7.920265854887513
16.20314024590568
-15.22319683988961
0.729351875720184
-1.709295281744125
-1.920579398825184
-1.296034918861635
19.41975456358727
15.93717387876011
-22.13256747196265
-13.08783364926667
19.28322724246953
19.12237932839072
7.09794876661185
-23.69761861077891
-2.522709484228233
2.963976185203816
-20.02279544462017
17.0588046373642
14.30479651294817
-16.59818770258343
10.65032221720564
-8.356931027579842
22.3585218115089
-0.6312919618761955
-22.31237709663483
0.5851472470015167
-19.05329221048503
19.92799612783136
-2.795283316177942
1.584527711560514
-17.9376375174173
15.86867483436021
0.4844349714998451
16.73050689837742
9.197351271343916
-8.932262433402766
-13.09968674825407
13.16131370664163
-0.06142004360686125
-18.6665578374907
5.594954330055585
15.04198071991008
-1.970377212475581
18.91495567019644
-8.674757809405163
-10.24791923393555
-9.66214110727555
12.84292002540871
10.36086002946472
-27.58058395624369
-3.252164247938478
2.759599303218392
28.07314890094263
0.02233701381558733
-18.50884524185242
18.48647076553807
15.00380355926982
-26.440729375678
16.83036970946981
-5.393443893063285
5.765496104869834
-5.467168948534841
-15.20386823107434
14.90554107473309
20.10102285628479
15.08509039516516
-14.90665318800283
5.776591608443439
1.724126827331593
8.698470452971124
-24.8831013536385
35.73497303624902
-2.815048399522952
-8.036823283097174
-14.62088270947656
35.71690803749226
-32.57759784360418
11.48157251558769
1.18732769015009
-21.71042595871462
2.99931953619628
17.52377873236675
-13.56885416941963
-9.101288327655256
30.79645013574429
-8.126307638664986
8.740580326892916
8.052302832199663
9.225853673572574
8.262930676745883
-17.48943008427137
-1.433676532288036
-27.39083498734469
29.4369886062503
-0.6124770866185474
21.78214466817557
-0.141724569437313
-21.64036003441326
-20.02632329928994
14.20351766791235
6.508140041605942
-0.6853344101990243
21.05925658922404
-20.35124603444741
-11.68622379801859
10.9782132432419
-17.93444499559551
-15.30797962798956
20.12560238639485
13.11682223718991
-13.92218934740569
8.625415556854238
-14.84186616524226
20.1386399557939
9.971083907730147
-21.72000486765197
7.76451256819877
10.31790518651357
-12.23562067176206
-5.84679708295179
2.407222570376073
7.854325723801088
-25.61039729893974
4.947976029860664
1.181059096592062
19.48136217249663
3.841648196797785
-19.31446792032077
-5.636503211673828
21.10932293520032
-12.6212810162593
13.23859698653314
-15.15178037209133
14.53446440181136
12.27703517700325
-12.13354777590003
8.662409262949517
-8.805896664060974
-14.82645831954343
-5.607529455996378
6.249618460430802
14.18436931510301
-11.6963080122859
7.383364786542092
27.44910585766328
-1.670431167590877
-24.76479423252196
2.476917468965572
23.95830793114223
-15.50256603401757
-0.02066280852616065
15.52326228673862
-1.474528017269487
13.47284671239207
-11.99845543636951
-26.44455277903968
22.41673189267957
-1.091144016845909
5.11896490320466
-17.16246273914056
0.4910251386769465
17.42499830000578
-0.7535606995471127
-20.98633501701791
0.06969897751507706
10.77641634130262
29.24680475140736
12.45372333533097
-25.61545306881693
-16.08507501793078
10.21478169953726
9.104337746478755
-15.734398513389
-18.36914700831726
10.79449208864524
23.3090534330576
13.44885061346567
-15.94426975280554
10.25993170753685
28.09862910367878
-22.28080779172493
-20.22506474359264
14.40724343163764
-17.59216695819293
-10.16161545841203
14.3578281521513
13.39595426446537
9.505829206768851
-22.24305934348313
-2.997168376680589
-10.31477588578427
-6.430177470856191
16.7446981580619
-12.74782835785008
14.96839725318838
15.61409440722785
-17.83466330255743
0.385728138671294
-0.2391694354438376
18.69079839935681
-18.83735710258543
-18.84877569489214
0.1289233566000251
18.71940051445806
-1.309768540625853
-14.93323855729909
25.74883630468734
18.74032079784807
-7.34579725418067
-12.70429208430261
-14.93026234671002
11.47862387874621
30.28125542619083
-23.01955850710386
-18.35523864414424
-8.587475177308372
12.00947526415032
-8.745460067916298
1.838100797271412
-7.07216455345926
13.97952382410381
-21.37182858850233
10.77083851978309
10.60055458815624
18.55553497984819
-5.853465291544072
8.057164023141002
-20.75923371144657
7.515403626008938
34.54031343985044
-3.031839823573216
-39.02387724226332
-1.011243889452249
-3.432698364592613
16.89972651386244
0.8523100766594421
-14.31933822593206
6.129180462694074
-2.433152126971386
15.89021915986035
-19.58624749557545
-15.78547453439696
32.08118128126805
-2.153604338057285
-14.14210240881416
0.6331210476220166
-0.8613216114380494
31.20793502394099
-30.97973446014273
9.62064059665876
-0.5456812396071888
11.36291433538644
1.715005107139061
1.752047348451393
-14.82996679098102
-3.949135014027257
3.271589245527225
6.5661217032503
-15.61489536410154
18.68250118570943
-1.358760600500319
-1.708845221128441
-20.64645370788039
22.51166670263312
-5.734445381190557
18.53720855232417
-19.54253697472806
6.739773803590499
-1.446088323408666
7.117593906073465
0.6486957424163309
31.25676316531617
-3.276292379583862
-28.62916652818227
-12.3152121067942
1.019841903565827
13.61751013994158
-1.123470200116398
15.2430048977978
-27.73704483764126
-25.19288999851604
10.81559074355124
1.963270267496748
12.41402898744617
-6.891536660983499
-0.2748321335030924
-8.710126735002651
-9.747310205247301
3.86243144963807
19.8280517633162
-4.289478742791101
-29.54163532554653
-10.95698262637278
10.85820331151405
-0.2465746845098555
-17.17321882668404
38.87808688471917
-21.45829337353123
-33.27084781586443
17.80675275144909
-1.965677945211671
17.4297730096279
-0.06449345334642566
-20.2564373876631
0.05725781047368581
20.26367303053498
12.85425401116787
-34.8952420860647
12.76600622720381
9.274981847684856
-17.6261883152403
6.050808456654216
-15.28163872255681
15.28173862286665
11.45122746980164
21.97963108765839
-25.95108805586697
-7.479770501596435
0.08713448196041126
-22.61231890115875
-0.07610983632602271
22.60129425552142
-9.74329203613274
25.23596769892553
-26.1411675469596
10.64849188416609
2.876168560147624
-15.38293626770589
4.664950981275708
7.841816726271755
1.452653271748322
31.16229992362814
-21.16372572557688
11.99398082256023
-11.29046374297537
-6.573501205708357
5.869984126122376
-5.705900316518304
-4.048949303090847
24.56512165414684
-14.81027203453735
-35.54528668170069
5.729932917316372
2.528344316612772
27.28700944776994
9.38685410964286
19.34476657779604
-9.319400049811817
21.98321177140445
17.99585846176992
-25.6866510704655
-14.29241916270192
15.17240993990777
-15.49408915268322
-5.240321130504713
5.562000343279968
-11.51304561044074
21.3778434885954
-9.864988888753469
28.22939095500076
-23.06864352518109
-21.7651709048649
16.60442347499155
4.906898427300596
-18.99731643384422
12.44502462548258
1.645393381060319
-1.033746243666416
24.01043391206845
4.121584916265481
-27.09827258466844
2.136291406529244
39.72235440578194
-14.96765608426858
-26.89098972800655
-0.2664041911165866
3.018730160926638
29.06789531036091
-31.8202212801995
6.598942565869038
2.752495181211474
-14.70542860649462
5.353990859413603
-4.893543837603878
15.25879305853387
-2.1970794816222
-8.168169739359126
-15.97794532795042
-9.646537238929145
3.318578498927649
22.30590406795367
4.744407595735316
-19.72057206463746
-5.448079151286606
20.42424362018915
6.922625720020581
14.09906006580298
1.080318944683329
5.344168757995292
-8.531223715226076
8.681366375036857
10.87179753944229
-0.6719256378066572
-18.88123827667863
-0.5346517778345824
5.44967104858818
-6.635098952094763
10.51094086178692
2.937774498864218
24.48452370275253
-16.05211797777306
-12.48600412306603
4.053598398088032
0.7781341298475728
-0.7993363282987341
-23.50998160815218
23.53118380659209
-2.666324046915956
11.11628063475912
-13.13341343412613
4.683456846270531
-10.26842117658871
34.55780799002476
-2.611760945313355
3.97265315438235
7.673899459181352
0.07466813726210879
-0.08308567260919766
0.5814855178097451
-0.5730679824286148
11.64972119406152
3.672842147714341
2.836314843673085
11.1905294765427
-0.1632541249626676
-1.425208749256317
19.38433584446269
4.866015598883214
0.3126439011973202
-24.5629953445015
2.841543800799647
-7.43512679664741
33.15887677914051
-28.56529378326333
-4.909589345679713
-17.14714188627262
1.085336024077199
2.720479789651771
13.34132607253967
17.03627912133013
-0.8917758103463479
-16.14446033740026
3.541042643139503
-17.68097518763963
20.90869613324852
-6.768763588763363
-14.88021517129561
17.2006207792648
16.58787824822223
-18.90828385619663
-41.74741014424662
-10.32934128002995
24.44577194976278
27.63097947450576
16.50078263981982
4.592274330397284
-20.72800059206907
-0.3650563781804573
-37.29178415924245
27.87433648510653
9.627822280190925
-0.210374605988574
20.14183969199932
-4.183651061788621
-25.04353790736976
9.085349277157553
16.98601276305831
18.8833785297122
-19.36860865301457
-12.05916409321139
4.932341796343725
-11.36651919980385
18.49334149666991
4.307532971768
-3.662287720881538
-1.73514626239059
1.08990101157793
-34.26298336176067
37.49427093163902
1.373839617392365
-4.605127187269799
28.97355688573668
-21.62833539803363
17.2933737614886
-24.63859524919506
-15.24655954534469
7.560793092347406
24.67177921602493
9.963172015542003
-16.27571164242352
13.52964253284508
-7.217102905964625
3.413303847007061
-27.07752959317422
16.826409050401
6.837816695772314
4.77013838959474
-3.690883189941099
-14.04113765074335
12.96188245109298
-12.27019314040369
1.615907925451426
18.94726900175248
-2.683542277887055
-24.08323439093671
7.819507667071863
-6.932542052067727
-20.23031633592396
0.06566641500181621
27.09719197298807
7.334180365785553
20.67364683428356
-9.060558198322045
-14.32510624941757
1.902426356557633
12.42272975290312
17.58669379119729
-18.51734368956776
7.40577418015015
-6.475124281782996
-24.03235443465021
15.73953056409565
13.30139866002479
-5.008574789469009
-3.670932299616472
3.063760088119667
-19.25166209032032
19.85883430181269
0.6908170810795639
-12.16212283751089
6.598543405889728
4.872762350539983
-15.66821535198847
6.515443469025545
10.52694127275807
-1.374169389795105
-14.47566213440563
23.87369698107011
9.98630099780595
-10.09161710540847
28.05023295283306
-9.524227241877817
-8.434388605547579
-5.269942669721324
4.025503926857104
24.46187634828978
-23.21743760543157
-32.09395825230099
8.291986221131449
20.65879525360583
3.143176777563278
-24.34794112568548
0.1397471084961123
-10.16518876741689
34.37338278459445
27.55320890269008
14.94100492767009
-14.46510596919396
-28.02910786117215
-1.567191413612974
-7.68542621812649
21.56902501719174
-12.3164073854484
-9.506457264556731
31.50830145170193
-21.39027849103062
-0.6115656961155562
11.73933247476745
15.50712261896736
0.05430305755452394
-27.30075815129851
1.663786718762924
-23.41386745997085
-1.576415199126028
23.32649594033322
16.16677530283021
-13.27848565231703
-18.79331561197419
-0.4444024862307062
14.26673548392068
-13.82237538061008
-22.15177772765569
11.00278571815074
11.14880262422678
12.12405789701384
-22.62960156560839
-7.731979984602703
18.23752365318722
-16.71817118360615
13.86739258662578
2.850484317573141
-9.076539029270007
12.43052130340275
18.07716376081692
-21.43114603496141
-15.9934086475405
-2.810756335365525
17.50813006403581
0.7997533863320766
11.92218363015063
-24.30711571588664
11.58517869940162
-17.64590454026353
12.74064815005641
-11.08815225734142
-2.989408443689282
1.248554103686632
-18.42693478721777
20.16778912721262
5.783636580633627
11.8457939772796
12.99701085518398
-30.62644141310306
18.75140778290007
-2.132305418657136
-8.172133837110612
-8.446968527123925
7.499367034572405
-2.471121870793976
-21.39141773903031
16.36317257525165
8.913683289109647
-28.6823080319711
10.69208571358331
-4.792049504077019
-13.03988354913372
-2.723159284976472
20.55509233817361
-8.002090447801255
19.09269896818268
1.887115303644253
-12.97772382402836
3.019499823601135
13.853225513653
2.048323121954389
3.932301110448709
-23.35634398748737
15.16085625336172
4.263186623674471
18.79769519323814
-15.08711561362247
1.553542919965989
-5.26412249958136
-14.46482555591169
1.144243789187799
-2.054352820753797
15.37493458752715
17.39906611348702
5.841044127475883
-19.06227595733006
-4.17783428363593
2.646292418114752
5.132051866063027
14.46846452283428
-22.24680880700714
20.66797018995231
0.1877385165857023
-25.46379663843021
4.608087931973675
29.35400748648514
-18.75189383264815
17.99240376130889
-28.5945174151328
4.611505754688618
11.39894035442142
1.777765875266229
-30.02501398431922
-3.234133006975114
20.46024453273763
12.79890245854272
-4.143135687286557
0.3543219410359938
19.2405188419255
-15.4517050956758
6.918237377707684
9.387422204381162
4.811302192153133
-21.11696177424429
12.15040462270087
-7.087258799377414
-18.0772051850177
13.01405936168733
-18.49467760802488
10.04266292140426
16.1280281820413
-7.676013495422009
-18.56971833983466
19.88267208610185
9.09478636436033
-10.40774011062582
-7.961126307661663
25.57054361221796
-0.4015961627071114
-17.20782114184388
-21.07262377620171
-3.37088492154293
22.78521136207987
1.658297335661108
-2.332284486379195
19.3076758170104
2.826580137635926
-22.38985389767495
-6.827715447736439
3.607172046483881
-26.9265192665539
26.25647448697869
-13.8056173548163
0.8971568603307839
-41.85672909784346
6.877597741569448
-18.67184472443062
34.57822146931036
-22.78397448645057
17.70874569279184
-41.64934050104728
-13.70034434215299
37.64093915040608
26.44235974667443
-3.630621150781359
-22.3991877583135
-0.4125508375815999
4.327113231943881
-1.433306488619108
27.70257937680325
-30.59638612013058
24.21551613124227
-26.40138695370146
-1.142502674836386
3.328373497295013
15.54607386053919
-12.51225308959322
-24.42036539822212
21.38654462724134
-5.595519658124265
-12.91561143300002
14.29759702737082
4.213534063753429
33.38598922334366
-16.98807542099904
-19.77308524182945
3.375171439513318
-11.47091868882882
1.621349540661076
12.46517841691212
-2.615609268734955
8.005115533056287
9.723829817123729
0.07177982716026961
-6.279251295811776
-9.834789810042952
30.85881306654935
-14.74477196069614
9.918501491564536
-20.30843377340976
9.020019073138087
1.36991320870767
-19.44766729960608
25.25457268957242
3.442720345718134
-9.249625735679556
14.29320769209917
20.46791385639983
0.8242398056940714
-35.5853613541918
-27.20671229160612
-8.571263727419483
-11.61595180596842
47.39392782497079
37.76303478376561
-11.31545480031575
2.566892921448332
-29.01447290490731
15.63105293740165
-36.03071784171021
-8.401273407500119
28.80093831180428
21.48461387841732
-12.39402770493877
5.976310826295199
-15.06689699977778
-20.32841010134138
0.1163489974151282
-3.001477315491736
23.21353841941389
-21.24958901549194
0.08285404124581387
7.469303326615663
13.69743164762762
-10.94726727441587
-20.11119389401655
18.79197168773824
12.26648948068039
14.02337956333191
0.2318312460532704
-14.25515471487806
-14.45074207981313
18.78541095065325
33.42836591292841
-18.06308926559881
26.02738189734638
19.38088031353568
-27.34517294540323
18.90379024747418
-0.2272588728754726
0.2774663184253595
-10.6354615100318
-9.693847256343931
2.44820575663738
-23.02880901220382
-6.626109036047168
-21.15697572403065
10.51984667363531
-0.3101382240261059
3.463811834542517
14.96067193607426
-17.23715608046969
36.99918602771417
-16.9602821791371
-15.09710084109731
-4.941803007518544
-4.206523962353386
10.89696225974652
-26.80163219141804
14.21436227371838
3.807122628440974
1.698146987010772
-19.71963188917776
1.287268224889952
8.793085277691347
10.57854474943754
-20.65889825199431
2.260533239322164
-3.672650612476143
0.5432028636735758
0.8689145094767177
6.403803864744146
13.00607687516288
-1.270505990389966
8.746057601111646
7.967775566714664
-0.3292375942056677
-3.648571239547439
-6.719989426573937
20.16639327213138
-9.797832606002823
-42.69210177694854
9.546226605912208
15.08278590537022
1.653027330032928
-19.68738205466104
0.9301522984629906
17.10420242614376
-10.83557015480571
20.94489385078209
2.361060215461839
-12.47038391142908
27.01089548999588
11.54476966209202
11.16077716555773
-49.71644231765856
11.3401307714475
5.469696420319856
-15.80987422812384
-0.9999529636429175
-23.53256846507163
-5.929645015263458
1.334248386904264
28.12796509342385
1.215872004499898
0.5865065554952797
-25.33494702507283
-15.29762126644449
-5.593795379262274
-8.041899723979647
15.43181526510087
-15.93610989019631
2.157321955102577
16.23573071677746
2.758794580812312
0.8613089739994696
-19.85583427158721
38.53926282263505
-20.81242779108227
3.583660542362801
-21.3104955739164
20.43345941443678
-27.22415476079921
6.790680800930339
-9.10090350883563
29.6851560969156
-1.45540250707785
-19.12885008100299
-17.34837317120136
-5.428730410009283
14.93710493044158
7.839998650766274
6.842527834623649
-6.660345096908562
-2.535910670828846
18.29215386737584