/*--------------------------------*- C++ -*----------------------------------*\
| =========                 |                                                 |
| \\      /  F ield         | OpenFOAM: The Open Source CFD Toolbox           |
|  \\    /   O peration     | Version:  v1906                                 |
|   \\  /    A nd           | Web:      www.OpenFOAM.com                      |
|    \\/     M anipulation  |                                                 |
\*---------------------------------------------------------------------------*/
FoamFile
{
    version     2.0;
    format      ascii;
    class       volVectorField;
    location    "0.7";
    object      vorticity;
}
// * * * * * * * * * * * * * * * * * * * * * * * * * * * * * * * * * * * * * //

dimensions      [0 0 -1 0 0 0 0];


internalField   nonuniform List<vector> 
19632
(
(0.005930030084090142 0.003834206290893462 -0.001888561294774527)
(4.85688569334271e-05 1.561095420202198e-05 6.583703859078869e-05)
(9.941669831250482e-06 6.560756540652665e-05 -0.000116420442601664)
(-5.694752970998118e-05 0.000808774835944306 0.0001667487287315388)
(0.0003225699911634113 -0.0003262152949219432 -0.000452654227216726)
(-0.001766630188939687 0.002028799362241571 0.0009949419245157951)
(-5.917036508401867e-05 -0.000523337555758567 -0.002362331946098529)
(0.001335405482518276 0.0001145781742702343 0.000416132544972549)
(0.0006143389003977805 -0.0007976130108759965 8.393652307291479e-05)
(0.0002325139363097347 -0.0007996224942759549 3.087252058951403e-05)
(0.0005693737092223613 0.0002983166558848762 -0.0008372204578314263)
(0.0003164481866904339 0.0009751307061766015 -1.912539252454327e-05)
(-0.0006840933334674199 0.0003920840535113203 -0.0003147096232814278)
(-0.0005958952838057249 -0.000308400106887876 0.0002818687398715773)
(0.0001416345986961821 0.0001801335749240668 7.824502993617848e-05)
(-2.56747478388095e-05 2.094026530897544e-05 -8.000598865104901e-05)
(8.853100784431553e-06 8.038322239004265e-06 -3.160797679680925e-05)
(-1.015367495005216e-05 -2.188614534501293e-05 -4.340971409146989e-05)
(-1.636418993882889e-05 -3.931009649090497e-05 5.046697200266737e-05)
(-0.0001930975886324951 -9.699562532618343e-05 0.0002298652700496546)
(0.0005510709449691937 3.595705025511559e-05 -0.0007198841605263468)
(-0.002506183056428559 -0.0008523010886531885 0.0008319817877519733)
(-0.0002306335040009294 -0.0004091928914438976 0.0007599558433061347)
(0.0001350786893553528 -7.096384339888052e-05 -2.255100882493359e-05)
(-0.0005358897718626051 5.002536341474731e-05 0.0001108354038041888)
(-0.003411588146944939 -0.001561492136333798 0.0002505967964360591)
(0.001156036355163904 -0.0002986947877593015 -0.0004189370933461303)
(0.0002781831415167349 4.134357318499799e-05 0.0007988276371230406)
(-0.002340610113725613 0.001696715506541256 0.0002267798228621997)
(-6.696229600053859e-05 -0.0001013481897352601 2.110417305221105e-05)
(2.757748599296107e-05 -1.072690892560027e-05 -4.755287717947991e-05)
(-0.000434347516047569 -0.0005198411685671942 -4.227251052969932e-05)
(0.0001749754939700752 -0.0001865956779994806 6.975060515119189e-05)
(3.949501586733013e-05 -0.0001834958559242659 -6.838519188250259e-05)
(-3.294611035682691e-05 2.402912090043031e-06 -1.97518243407024e-05)
(0.006643419111873879 0.0023803431571939 -0.0002749222595662381)
(-9.119118792669686e-05 -0.0004813998935557835 -0.0002315672502084396)
(0.001847496532725154 2.440783700146675e-05 0.001310560282995849)
(-0.0002218895471953808 0.0001507189933435069 -0.0002646940330964099)
(0.0005705100551475041 -0.0001821250711298515 0.0003399322837832949)
(2.011569803399334e-05 -0.0001044012735729929 0.0001639216631633984)
(0.000257084233134057 -0.0004917059370491699 0.0009536033249036662)
(-0.0005622072597583375 0.001119328694629696 -0.001109210452771454)
(0.0001132105309918166 -2.231800241127148e-05 4.711658176743882e-05)
(3.11993845480844e-05 -4.681716674491453e-05 -4.678178421056307e-05)
(-0.0003213537441746221 -0.0003803356278758423 -0.0001684500212453451)
(-0.003924574405937742 -0.0007774230746282745 -0.002512425633983245)
(0.0009705901489893869 0.0007204840102832434 0.000376359055218494)
(-0.00101842782968605 -0.002201968490961779 -0.002606919586371882)
(-0.0002029919145243104 7.146463742358828e-05 -4.166163895284866e-05)
(-0.001837923251532723 -0.002568545483530058 0.00141756135377997)
(0.0002237708969472802 -0.000159543580712249 7.934051123176143e-05)
(0.0008998509557132045 -0.0001931033923150023 -0.001599328905567829)
(-0.001730577555536192 0.0001730932075155756 -0.0006842815864624261)
(-0.0002285907511587533 -0.0001232950328540011 -1.8551579072229e-05)
(0.004559537238275508 0.003036146738677369 0.0002556685374346386)
(-0.0008276800440894357 0.0001565334764060732 -2.662483404355774e-05)
(-0.0006228011581596871 0.0002357891576747559 -6.092677894753667e-05)
(-9.020709370031869e-05 -0.002867524287140174 0.003681970868752943)
(-0.0005287857251012331 -1.825506511365237e-05 0.0008233796748178632)
(8.993662479077816e-05 -0.0001176924832338995 3.264446737778558e-05)
(0.0003004168804053683 2.564867902403122e-05 -0.0002979362838016698)
(-6.160843781981176e-05 6.410136549807351e-05 3.098490928873883e-05)
(3.191861171171928e-05 0.0006213670095891822 2.831733656421565e-06)
(0.000280674530353459 0.0003893450699190206 0.0007107930273697978)
(1.692619288212333e-05 -1.773054043617577e-05 6.942160807527434e-05)
(0.0001513522588173799 -0.0001309848442823652 0.0001132157872025629)
(0.0003660941417702565 0.0007264345383294362 3.317229721127991e-05)
(-6.869188664145785e-05 0.0001950415650710219 0.0001222705092991354)
(-0.001522702413797055 0.003431446614712961 0.003315365510505357)
(-9.237977278062566e-05 1.949911184517122e-06 -2.177877782894318e-05)
(-0.0006916079662629946 -0.000853777559726603 0.0002376664142667035)
(0.0001509128132393663 0.001270252794749134 -5.514107109830008e-05)
(0.00170454862736504 -0.000210550576243343 -0.0001277335836726198)
(-5.013469253719882e-05 -0.0001105396014487148 5.15371584732688e-05)
(0.000374394480802318 0.0001647390693499992 0.0006615818471092307)
(8.431285181443839e-05 -0.001311411830209419 0.0001836869089077018)
(-0.0083905877136819 -0.009373278155847712 -7.472625836312528e-05)
(0.000319540374191787 0.0002311795041367835 0.0001964875628278973)
(0.0007051862647775912 0.0004732733047936686 -0.0007964322774889958)
(-0.000331314604299916 0.0009551939299058411 0.0005641257992826314)
(0.000485270353841379 1.273120748254675e-05 0.001155452595513116)
(0.0004923391171555079 -0.000409213294663611 8.024678626664521e-05)
(-0.001082584712327325 -0.0003133989063265076 0.0003563757326594161)
(-0.0001034297391666196 0.0001627273373422807 -0.0002445586798650769)
(0.0002206986416775909 0.0004567615812792029 0.0003280220063469911)
(0.0006406516785132527 0.0008898208153350935 4.925820145499081e-05)
(-0.001642472469037249 0.001239089787270817 -0.0001665596111449667)
(0.0008720022552408236 0.001692127990958331 -0.0004649948691152908)
(-0.00032091520055542 0.0002824464745305716 2.284074082452722e-05)
(0.004056247867553685 0.005947763725541949 -0.002281309975249959)
(0.004403553110473046 0.000772062721084692 -0.0007021681817646127)
(0.001461025889131051 0.000949728076667518 0.0008181870466194639)
(-0.001372298255808355 -0.0003846107061534855 -0.002052020177460976)
(-4.30239502592722e-05 6.676306671280451e-05 -0.0005793379208663762)
(0.0003975825088504286 0.0001581471173195564 0.0006395581618739289)
(-0.0002412665670606907 -0.0001913111666019256 0.001047746029256945)
(-0.00120924572971325 0.0002073059965356897 0.000494600318256328)
(-0.003183681186389249 -0.0001885803403381483 0.001826474739463924)
(-0.0004555451802470987 0.0003940315292289576 1.961625622822817e-05)
(-0.000156674225139519 9.38447548707293e-06 0.00016071213659141)
(-0.000275866544744506 0.001056244711705762 -0.001240941614735117)
(-3.324990046765516e-06 -5.265988213672765e-05 -0.0001317039504168467)
(-0.0001166702500879463 -0.0001231646510709575 4.170472577289662e-05)
(0.0002240962548654092 0.0002565760332278852 -0.0009897083287166084)
(0.0005739052782014879 0.0001706293726189085 -0.001121910149572016)
(5.852818112816465e-06 -2.108128736973369e-05 -3.754626930357276e-05)
(0.0004252286885564351 -0.0001800110407440424 0.000367500151750551)
(-0.0002221372498246758 -2.434283369145263e-05 0.0004319434997264487)
(0.00158290852042064 0.00033241716117961 6.742099759915942e-06)
(0.0004202558673030542 0.001421207119101223 -0.0005192165341903833)
(0.0007394615709801632 0.0006780460649836234 -0.0008854231884423814)
(-0.0005243250272726108 -2.015167663736267e-05 -8.418238047440433e-05)
(0.0007413622261800358 -0.0001609805451666986 0.0001483097679577166)
(-0.0009874650289977281 4.424937579445253e-05 0.0002847291048701766)
(-0.002401742337681682 8.067114216059047e-05 0.001414212755857234)
(0.001324016679982184 -5.594758195629325e-05 -0.000382355857901538)
(-0.000974720484006408 -6.283490394782827e-05 0.00047776431717441)
(-0.001729405929424404 0.001839892594893359 -0.002208218089102949)
(-0.001873873186850221 0.0001293807749439006 -0.000676725155974324)
(-0.0005063103237310845 0.001856102360923253 0.0006724458282824343)
(-0.004291037330230156 0.0008476453495384282 6.529212670704112e-05)
(-1.609284264941392e-05 -2.885662744005579e-05 4.85880314563271e-05)
(-0.0006110014316604436 0.0004009833266862977 0.0003415820679751687)
(0.0003108968681633523 -0.0003499418638358434 -0.0001706068194309549)
(9.816584693676618e-05 0.0001496538185784223 -5.874263591937062e-05)
(0.00328156594105758 -0.0002446683118754432 0.0009423540266869706)
(2.379544675711752e-06 4.084516847900639e-05 -1.80460623362962e-05)
(0.0001814403447884459 -1.358346700435783e-05 -0.0001465657493438007)
(-0.001337670473584943 0.0002445916503277625 0.0004581148622599738)
(-0.0002827276224996086 0.0004476211492809764 0.0002250364776906686)
(-0.0006759917295772089 -0.0002887815707395023 -0.001159221084060079)
(5.622047967842404e-05 -9.476993704103362e-05 1.922564893199771e-05)
(-0.0006198946746822534 -6.187946548486826e-05 0.0004797953493717612)
(-3.388775704024837e-05 7.560970289624105e-05 -0.0001431051345999705)
(4.196641057542148e-05 -0.0003197651723458794 -0.0004352119516102981)
(-0.0008735557324254204 -0.0001985711588741193 -0.0002497041289343525)
(-4.752836056887574e-05 -0.0004314337025588341 -0.0001154669830808502)
(2.250504523115675e-06 1.366601566752983e-05 -1.213954335662931e-05)
(7.229853404429463e-05 1.83430048170425e-05 -0.0001300358756401096)
(0.0003843937406340523 -0.0001624062003550264 0.0002687765652203623)
(-0.002194358624941743 0.006421877261777269 -0.006660661405079035)
(-1.435662821114279e-05 2.527089996114887e-06 -2.073597101846331e-05)
(0.01676499923634645 -0.0150273540682265 0.008899401562735349)
(-0.00027135186410552 0.0005090786710693111 4.912281587170283e-05)
(0.003618329069207856 0.001306647366070387 0.001739543731394616)
(8.07285710879474e-05 -0.0001613718063836648 5.663149833674493e-06)
(-4.444657785777541e-06 -7.374988233044029e-05 0.0001121893097521415)
(0.0001277636469446969 -0.000176051902712693 0.0004068808394255464)
(9.577736378148171e-05 -3.964255364751505e-06 -5.288756928587125e-05)
(-0.00157421962660077 -7.407463822854725e-05 0.0003732709648970008)
(0.001116408237724431 0.0003298864062071576 -0.00204709950759533)
(-8.489452696977759e-05 -6.612987803381646e-05 0.0001225512820854866)
(2.003931336857429e-05 1.460130247726253e-05 1.733211231725485e-06)
(0.007096495402832916 -0.007342806272763258 0.0019226797754974)
(-0.0002487567205302189 7.062634909218968e-05 -8.242442998558958e-05)
(-0.002943355334542544 0.0008950698337046503 -0.0001920968893023099)
(0.0001232166857710117 -0.0001767531336031738 7.578003471375116e-05)
(0.002793448459789722 -0.0009899058677116661 0.002507195204428193)
(-9.116110438496972e-05 -1.418474510873106e-05 0.0002251238982067179)
(0.0009977239475668046 0.001846598240486857 -5.787084741225616e-05)
(0.0008991370824937195 7.567606744276865e-05 -0.0004195530885721573)
(0.0005561036005915468 0.0002156562562799443 -0.0003971743011896766)
(-0.001346909579239207 0.0001927522519871579 0.0002433300191848363)
(-0.001116814564684408 -0.0006535267710934577 0.002369247372406813)
(0.001012144196619223 -0.0031385816305852 -0.00236757011333564)
(8.895656052709732e-05 -2.486157232605785e-05 -0.0005314385640617969)
(0.001132567635052495 0.0001812035941767225 -0.0002953790333342298)
(-8.115509701528206e-05 -4.250336172997885e-05 -2.009120141860767e-06)
(0.000163882350672269 0.0001961060431392247 1.217628298131495e-05)
(0.002853826950397634 0.004382534366589499 -0.0007275324867528786)
(0.002254015024038529 9.765307016551089e-05 -0.0002845539525272747)
(0.0004373629967251682 3.13310801356752e-05 0.0003406968409876111)
(5.971520088469105e-06 -8.653163319728225e-05 0.002304079721421104)
(0.0004196186207925941 -3.118320907624859e-05 2.645679601102322e-05)
(5.387584060493646e-05 0.002995795998880892 0.001535788854666154)
(-0.001678446408175407 -0.001262185969784042 -0.0008318220420135923)
(0.0004488281786732726 -0.00047624002011749 0.0001736049311569952)
(0.00340480375790548 0.0002021430104417405 0.001515873702733398)
(0.0002057548523492393 0.000132763063604313 5.449255826263767e-05)
(7.61312585845924e-05 -6.571606144398819e-06 0.0001986533027183096)
(-0.0001034703639180891 1.40698542083109e-05 4.172636180235645e-05)
(-9.526802064748429e-05 8.515381993292988e-05 -4.314583247712054e-05)
(0.0006228203677004019 -0.001736576318776082 0.0002747475481360004)
(0.000176315600461266 -2.484411772603699e-05 0.0001808394861388945)
(-6.521649119395589e-05 7.154773521291648e-05 -3.811943680633843e-05)
(-4.73882386594987e-05 -9.234124565518469e-05 -1.429287485388293e-05)
(3.19887567250315e-05 3.243774112998968e-05 -0.0001015273613786068)
(-0.001438224417195785 -0.001016372280577749 -0.001676484599870172)
(-0.0001184022425117734 5.178988501408749e-05 -5.058118779594406e-05)
(0.0004895760237310777 -0.0004909013392635634 0.002065027360543471)
(0.0002131525536219756 -0.0001183864146362252 -0.000933528290662214)
(-1.688670309835024e-05 -6.596288706367789e-05 2.168016488499763e-05)
(-1.255397393328625e-05 4.785287326721522e-05 -5.982576210344646e-06)
(0.0001760701198555811 -0.0001665320128022019 -8.709314512490781e-06)
(6.448018061761156e-05 -0.0003756625693659763 9.617202748504577e-05)
(0.0001299755703205962 6.60543300387703e-06 -0.00024364815019744)
(-2.495619887797808e-05 7.898390949107036e-05 1.408917043185704e-05)
(-0.002312019557514792 7.753458214045328e-05 0.001963802171095633)
(8.784190969626118e-05 -7.531983224161255e-05 4.991828605818756e-05)
(-0.001357785788281166 -0.0001085464390647501 3.562263899755124e-05)
(6.087020792561258e-05 -2.644652531994744e-05 -3.369391492453001e-05)
(-0.0006806287467121 -9.950393797127191e-05 -2.736084651382515e-05)
(-7.118857489522054e-05 -0.0006855260836730009 0.001058964976917188)
(-0.001531974194552439 5.539092733860769e-05 0.0008990134950002439)
(-5.655054760935132e-06 -3.317074001313624e-05 -3.143081328789938e-05)
(-0.01638407067018854 0.009048415130236695 -0.01128680451080696)
(1.112426285018266e-05 -0.0002836571795324272 0.0005392929107667128)
(0.007514082093113452 1.549266645747664e-05 -0.001100191115556798)
(0.001666218924737104 -0.0002167266445420453 0.00048843966893757)
(4.370023709458516e-05 -8.187909900886273e-05 6.948116577885639e-07)
(-0.0003435613331165337 0.005486361222349334 -0.0006344639452518167)
(0.0001741497684823133 -8.709418613622071e-05 -0.0004518315340772299)
(-0.0001029392415970885 8.713312839297581e-06 -0.0005598276304238668)
(-0.0005637858577465334 -0.0003852835394098286 -0.001498483851139954)
(0.0002462984767146108 -0.0002081196280873169 0.0002660149902527337)
(-0.000332607199468576 -5.392610657905213e-05 -0.0002201328018638574)
(7.591530235671873e-05 -5.759583483664951e-05 -0.000108421734333229)
(-0.002436849343863164 0.0008113236620437675 -0.0001685020553825441)
(0.004194595177181178 0.002328571203515461 0.0004992638582012606)
(0.0003511081307636928 6.255158758470921e-05 -8.407481966135787e-06)
(-0.000701723982800487 0.0002839497408472536 -5.114664783824101e-05)
(9.255454319166574e-05 -5.751089611375817e-05 6.047316298353121e-05)
(-0.0002909645591700398 -0.0001131136475689518 0.0003256664660524426)
(0.0004498541409321579 -0.0006488339667379674 0.0003073776369243791)
(-9.108966364574542e-06 -7.182880481415164e-06 1.249252717476435e-05)
(0.0003955303648646136 -0.0002414777748879848 -0.0006436587722159137)
(0.001146816461033574 -0.00028999266189704 4.701172645592455e-05)
(-0.003129273501013387 -0.001620571467934299 0.0005853855777361326)
(-5.053785731105141e-05 -6.927698419341817e-05 0.0001116175232424723)
(-0.0001437188671571139 -0.0001209806620580107 0.000442676106781639)
(-0.0001117076972677198 9.88749032048064e-05 -0.0001538986159974182)
(4.728064744327808e-05 5.34303563805279e-05 7.863619711247016e-06)
(6.841163679287085e-06 1.756147493756872e-05 -6.403944854910579e-06)
(-0.0003785979277749084 -0.0001120260225237244 -1.69354372128108e-05)
(0.0008647543651497964 0.000235164420238807 -0.0002039662512857804)
(0.0001761993553786885 -0.0005141567428563565 7.244012820520094e-05)
(-0.002539181958299479 -0.0003373034759724534 -0.0002790808238149192)
(3.143057136502633e-05 7.480531484219721e-06 2.003936180422393e-05)
(-0.0008574419789617278 -3.17218281518162e-05 -6.252222276513594e-05)
(6.884053436053466e-05 1.354431355849534e-05 -5.44655311371848e-05)
(-2.117271866921212e-05 0.0001256689058098104 -8.949736228814741e-06)
(0.02231340580336332 0.0003520608011845158 -0.004987440099351693)
(5.55009079296183e-05 -5.78678683025892e-06 3.859486370700475e-05)
(1.406025170738289e-06 0.0003792131985582573 -0.0001125143316041713)
(-9.122740625926632e-06 1.173040621361782e-05 8.657485515812752e-07)
(3.36344743009772e-05 7.534087237759537e-05 0.0001768817424013981)
(4.049661113362134e-05 -3.58193999971583e-06 -1.334967492750894e-05)
(-0.0005556190808164719 -0.00272079004057169 0.0003276561938592444)
(2.287489065906874e-05 -7.325089928062222e-05 0.0001648594090076211)
(-0.0001507671067665197 7.908622088696328e-05 -6.252646575904122e-06)
(0.003299934048501573 0.0001509755918562854 0.0002021141872006192)
(0.0001901082657614729 -8.544940176241616e-05 2.681420790374817e-05)
(-0.0001431663280001595 2.21623174043933e-05 -6.431787025704522e-05)
(-4.497305045089847e-05 -8.782258747217614e-05 0.0001681167845854894)
(-7.579049577896206e-05 -0.0001258222798216876 -8.078949687891619e-05)
(-5.372700791071863e-06 5.736437989451098e-06 5.018366198383827e-06)
(0.0001261765659277347 6.508812547632251e-05 -9.76229125417603e-05)
(-0.004392357068235822 -0.001057792137894795 -6.180096867274686e-05)
(-5.310736077104546e-05 7.394895047995569e-06 -2.034326665114501e-05)
(5.191351695448221e-05 2.583198289415114e-05 6.110434327331903e-05)
(0.001895106476574511 0.00245668170759637 0.0003438981756413788)
(1.883036499817126e-05 -4.818843448457998e-05 8.094197765045241e-05)
(0.0002271880149452093 -0.002420735809423633 3.048913499435494e-05)
(0.0001387501866527451 -0.0001101202297173888 5.478378826904198e-05)
(0.00034690464817556 0.002413391834984242 -0.0001607860660896864)
(-2.654035189889514e-06 0.0003534427612949311 9.641888717133632e-05)
(0.001496137432947032 -0.002204519932166409 -0.0003483680716198802)
(0.0004038842849808504 0.0001471226141302753 0.00010485034690714)
(-0.0004445935651200141 0.001351722070411141 0.0007212401159133132)
(-0.0001537198312252138 9.020903770146019e-05 -1.110153402790506e-05)
(0.00242099258868913 -0.000535590924914759 0.001363884724291155)
(0.0001412825890711214 -0.0001042278242948755 0.0001301887650961201)
(0.00611140535844077 -0.002566177850396944 -0.0008865425360381015)
(0.0005528801889608672 -3.83549287158104e-05 -6.594182696133352e-05)
(0.0009540850143165515 -0.0004639475118376747 0.0003475738134649535)
(5.038202630553686e-05 2.124668691893913e-05 9.231570101057673e-05)
(9.291994488734245e-06 -1.148024408667645e-05 -0.0001015325180621194)
(0.0007017060607162673 0.000332832563705454 0.0003054500037983798)
(0.001644969017647265 0.0002630363412341181 -0.0002013138977765948)
(-0.003198741226571994 0.001366077049007862 -0.0003432475728927899)
(0.0003916094843007176 -0.0002358163801052567 -0.0002282096189841421)
(1.864017142326687e-05 5.57935540776727e-06 5.628603478231818e-06)
(4.41706712999711e-06 -7.600594236815037e-07 4.699549892663364e-05)
(-3.571850514042932e-05 -7.083782445502506e-05 5.258162463896129e-06)
(0.000583908418790759 5.956438097264208e-05 -8.472760249440055e-05)
(-2.072363193047339e-05 2.73830236841393e-05 -0.0001877140570468759)
(-2.074054646491543e-05 2.870184935564466e-06 -5.303785856407619e-05)
(-0.0001013082332939888 -0.001376859864560681 0.00156530814214933)
(-7.934517982823922e-05 6.452811976220363e-06 2.801173207602487e-05)
(6.263111664530284e-05 9.528485367537331e-06 -8.423174588860006e-05)
(0.000883157123636274 -0.000169042336267127 0.0004193509794111059)
(0.001011553040799255 0.000389487375543558 0.0003287302320683804)
(0.0004788101593629524 -0.000150918385643012 4.599381962956385e-05)
(-0.003421478121059589 0.0001719311779189429 -0.001683911513359578)
(0.0006869339511606353 0.001301639360668234 4.084716465555369e-05)
(5.328946545050205e-05 0.0001064156200990696 6.749257254433889e-05)
(-0.00135333233145363 -0.001408415120742852 0.004225505834352414)
(5.065718645964486e-05 -6.549349119928157e-05 -0.0001470671956645443)
(-5.310070493994403e-05 5.44636058666295e-05 0.0001022526242514244)
(0.0002223011231557075 6.224372912248973e-05 -0.0002427477721694088)
(-0.001095107766433319 -0.000340732470231364 0.0008129949150862677)
(7.676262233141675e-05 -6.058517174088171e-05 -0.0002796464163445046)
(-7.293423977119596e-06 2.204505324431567e-05 -4.462498575803464e-05)
(1.383660687522344e-05 -7.647486967535925e-05 -0.0001554329806697001)
(-0.0001279797737943053 2.381144371418587e-05 -4.624648900066576e-05)
(-0.0002664167662419289 -2.881471400793382e-06 -0.0001564296631420137)
(2.493777058024159e-07 -0.0004607094164181189 -0.0001579681311573069)
(-3.149008877875931e-05 0.001698382069229969 0.0002580077544750236)
(-9.292460744551355e-05 0.0005012054147167638 7.272875811915723e-05)
(1.828948760434544e-05 -7.615343844029972e-05 -0.0004571454900489262)
(-0.003510395963243158 -0.001683013928988756 0.00143874677233898)
(-0.0001048574805953214 3.409023170655259e-05 6.906055807108363e-06)
(0.001584287959207818 -0.001562417594717409 0.0003270411139618816)
(-0.00049130420253243 -0.0004782842019350116 0.0002417887680052617)
(1.914081005711252e-05 4.334395368034998e-05 -6.599528374488059e-07)
(0.00124022175935596 0.0003411665420772595 -3.493040072329388e-05)
(0.00120381474828676 -0.001030399112631798 0.001692868895337106)
(-0.001331299576831931 0.000553865802878954 -0.001516668836086483)
(-0.001449587145019323 0.0006624491423842915 -4.927573935975755e-05)
(0.02115875885667719 -0.0005839263494553919 0.01615735454758261)
(0.0004168757185723001 0.000953235944580745 -0.0007646492951879811)
(-0.002972477937563825 0.0001677025435814502 -0.001035307442004476)
(0.0008141548018559327 -7.98044184779855e-05 0.0004133919301748589)
(-0.0003274448469303439 4.424183093629427e-05 -0.0001088943226830236)
(0.0002190100070171254 0.0001444813307353781 -5.059529473130979e-05)
(2.649269535061885e-05 2.568167171960702e-06 -7.622213292603948e-05)
(0.0008789369568423909 -0.0001235198253866563 -0.001865287281285303)
(-0.001212913647161112 8.233427609353306e-05 -0.0001729354767230337)
(-0.0001412533069147441 0.0001516137344836255 -8.949173269418156e-05)
(-0.0006280808913152296 -0.0003213007950655417 -0.001425723828214034)
(-1.598056085714542e-05 8.795184880654771e-06 1.313798326380765e-05)
(0.0002223680165446586 -0.0001329846097896273 -4.877489565377401e-05)
(-0.0008658008133425205 0.0002346141880779807 0.0007495880445701923)
(8.925505318362639e-05 -8.650287025856491e-05 -9.789209470217211e-06)
(-5.108849365453394e-05 -0.0001939904544966691 0.0002626471714888936)
(-8.70611407615562e-05 -8.065226504375822e-05 -4.182264316126685e-05)
(0.004706710082957385 -0.008318494034797827 -0.001042960023973113)
(2.237236908003579e-05 -3.536665296623951e-05 -3.525254566653165e-05)
(-0.0001076518399832966 9.684208546182138e-05 -0.0002589763564735244)
(-0.0001006011289100784 0.0001178840780840686 0.0001098819849803858)
(-0.002863838711906581 8.811508040690246e-05 -0.001146760534950305)
(0.0001267249858123288 -8.560722456472898e-05 -0.0003231115398406435)
(0.0001765362595991316 -0.0002420435862058807 -0.0005461004698372456)
(0.0002439287709422633 -0.0001643083438411246 -6.759547611788938e-05)
(-0.0005027369911798238 0.002054463849954652 -0.000665338026848402)
(2.732678227770223e-05 2.099950347423396e-05 -1.134921343086191e-06)
(0.001433117653349099 0.002637781210543878 -0.001024609763053554)
(3.729916442259937e-05 0.0001104808750325059 0.0004650089378432336)
(-0.000589196756210869 8.980070860447077e-05 -0.0007437282340277304)
(-6.571886552267774e-05 -7.557121837777176e-05 -2.454597397618742e-05)
(-0.0008825298436987974 0.003066540367943147 0.001519235454507364)
(-0.0001564300370911092 7.71116150896235e-05 -6.023917511332965e-05)
(4.044424785834499e-05 -0.0001523865600860253 -0.0001105523054467616)
(0.0001765019814194042 -0.0002732108825398571 -7.034308723147256e-05)
(4.701217084468739e-05 3.424130057948639e-05 -7.792622379916746e-05)
(-4.359631633169832e-05 6.04353175332745e-05 -1.82734614509945e-05)
(3.007997183116792e-05 2.308627921049511e-05 0.0007894958980500784)
(-0.0003211488319502878 -0.0001552670478933232 -4.554461081472662e-06)
(-0.0002076353618063484 -0.0001272324113752763 -0.0002791347728241221)
(-0.0001473890725403951 5.794046570247023e-05 -2.434137071305347e-06)
(-1.306217032461022e-05 -2.687647709327325e-05 -7.15532469433382e-06)
(0.0001080406315481695 0.0009072685384058524 -0.0008067962664293404)
(-0.0004284814028044241 -6.722888325689464e-05 5.945225071871548e-05)
(-0.0006840092685268384 0.0003433101025728997 9.557403819628478e-05)
(-0.0005203854677272825 -0.0003307395844382926 0.00163890692557082)
(0.0001411549729123886 4.681204681187906e-05 -0.0008933008407489408)
(0.0002160667640100515 -8.592622042285037e-05 2.916329594510906e-05)
(0.0009103737278182243 -0.002677878976419709 -7.169089481018333e-05)
(0.0001507216072260492 -5.545554110269988e-05 0.0001427917214847196)
(-2.609937890073054e-05 5.238364753468363e-05 0.0001107255374318629)
(-1.856669053752989e-06 1.353077727660205e-05 -2.146407311081552e-05)
(-0.0001030622469429945 -6.365764021508795e-05 -0.0001146068706062488)
(-5.804709440339345e-05 -6.246604381655028e-05 6.093967461362727e-05)
(-0.0001277985136285883 -1.913567440634559e-05 2.599119027094546e-05)
(-3.345947478766867e-05 0.0001819071584385029 -5.69788880591159e-05)
(0.0001895557947775049 -0.0001479793823853227 -4.586188319794238e-05)
(1.957547182032095e-06 6.008391221026577e-05 -8.389686110821292e-06)
(-4.324011516757465e-05 -0.0004345718268065238 3.063286503409857e-05)
(-2.375173539283696e-05 -7.658492856326377e-06 1.152815124341821e-05)
(-0.0001408423302242963 -6.611995536562549e-05 -3.7349958973247e-05)
(-9.357454093598455e-05 -2.046937799837182e-05 -1.224321190710269e-05)
(0.0005658755375526389 -0.001854954522386501 -0.0003305936702950489)
(0.0001044073072944994 6.199993066907024e-05 -8.128540094436113e-05)
(-0.0001513571673510707 -7.884227236837081e-05 -1.512007284325986e-05)
(-0.0002522239891884465 -0.0001796587071265072 -0.0001306536997509431)
(0.0001712104788196719 0.0002602438529750945 0.0002842061401220954)
(-0.00147110752574673 0.003814276151716758 -0.003496250840561022)
(-0.0001742611409642176 -9.537598606776683e-05 5.406319606289468e-06)
(-0.0001122910019577672 -5.118676744440328e-05 -0.0001720405321784691)
(-8.997746927289857e-06 0.0003328273603651972 0.0001309381768089989)
(-1.285045278850842e-05 -0.0005660505822841413 -0.0003121997484237336)
(-0.0001530898288848312 1.112100589149801e-05 5.639743224982714e-05)
(-0.001336037108569763 -0.0001000951011049643 -0.001024808123906629)
(-0.0006621544367213391 0.0005772606599177364 0.0001339333645398145)
(3.492547230292561e-06 3.879236557077998e-05 9.863994656664844e-05)
(0.0002830615639573553 -0.003441061378688763 -0.0006978009437060079)
(-0.0006131850596011533 0.0001189689167133813 8.070814056242159e-05)
(0.0001425595871911028 -2.259310872653758e-05 0.0002782253624027076)
(0.0002025187374691762 -0.0003254972634958986 -3.29656620235661e-05)
(8.208235441627895e-05 -0.0004395099542782047 0.0001043808887739897)
(3.745707153927035e-06 1.038439290965555e-05 -3.308351859459042e-05)
(2.221108199563682e-05 -1.658621389134051e-05 1.754429475219277e-05)
(0.0002998903870425463 2.162385096259349e-09 1.929898069907743e-05)
(7.843344994549183e-05 -0.0001701736253999908 -0.0003689078403709624)
(8.560034456454205e-05 4.386519935725737e-05 -3.202623085816026e-05)
(-0.003041821687978161 0.003723460595629067 -0.0007450452817821004)
(-2.639760426293662e-05 1.048145171697472e-05 -3.594246776950141e-05)
(4.049276577302013e-05 -4.207007712159951e-05 0.0001277725969926173)
(0.0002834632273090132 8.67113207998967e-05 -0.0002122811407375954)
(0.0002585739679734447 -0.0005508484580857929 0.0005194081141314138)
(0.0001780237372843803 0.0001448335901300485 -0.0001188083348157332)
(1.788187906745174e-05 4.212206782333847e-05 -1.100807072592793e-05)
(0.0001816876599160564 6.768161051837633e-06 8.754578188323482e-05)
(3.108294887035903e-05 -2.737746546964328e-06 -3.514634103729184e-05)
(3.56706010250397e-05 -1.401439324133631e-05 -3.574836243277417e-06)
(6.76789222023562e-05 8.525985884339686e-05 1.133834778427605e-05)
(1.468413813713142e-05 2.490848627444504e-05 -5.735745206380857e-05)
(-0.002809359930412315 0.003042607558990845 -0.0003470279591625444)
(0.001025753701211931 -0.0008008645802333315 -9.190212950944325e-05)
(0.0001541394484694789 -0.000192785664878247 0.0002314044237623106)
(0.0001824719753718243 -1.49603937626571e-06 0.0001015102722449342)
(0.001311752969950782 -7.673741123357421e-05 0.0006057228235747204)
(-6.726543610535708e-05 3.573523138752214e-05 -3.011447454761969e-05)