/*--------------------------------*- C++ -*----------------------------------*\
| =========                 |                                                 |
| \\      /  F ield         | OpenFOAM: The Open Source CFD Toolbox           |
|  \\    /   O peration     | Version:  v1906                                 |
|   \\  /    A nd           | Web:      www.OpenFOAM.com                      |
|    \\/     M anipulation  |                                                 |
\*---------------------------------------------------------------------------*/
FoamFile
{
    version     2.0;
    format      ascii;
    class       volScalarField;
    location    "1.7";
    object      p;
}
// * * * * * * * * * * * * * * * * * * * * * * * * * * * * * * * * * * * * * //

dimensions      [0 2 -2 0 0 0 0];


internalField   nonuniform List<scalar> 
19631
(
1.196781771672969
-0.5763365417647878
-0.9853115903235696
-0.9537855048150119
0.18054808277536
-0.3643185838868319
-0.03414122884979555
-0.3653476922187595
-0.05838672089127173
-0.04882723131059605
0.00525420170174376
0.006600039879257213
-1.238949996548628
0.1768444324359598
0.1054061457062165
-0.0001421982431143943
-0.3544302060044633
0.07425102517234811
0.7875870107816176
2.359439500692277
0.08168287456063389
0.1147421132054842
-0.07349088092199998
-0.2705471906495473
0.136300609831907
0.08366908561967511
-0.08670398883377722
0.3158284124233209
0.3838289252425352
0.004747886412480928
-0.3225880124435589
-0.4401383112454506
-2.88584663521582
0.03477508013444508
-0.3023843448941275
0.101919577265063
-0.3403769768230185
0.3974871259564789
-0.1757205058230712
-0.1619615751936986
-0.9260826472591895
-0.554336798061815
-0.2734685800344059
-0.2705168587453249
-0.3063840868704313
-0.4547144853928349
-0.4780888399548139
-0.549506915181758
-0.1927346011735522
-0.003654992770309551
0.8980054204868672
-0.009820234775707037
-0.3121873859157629
-0.1330090699018767
0.07051287871391243
-0.285038906342806
-0.296707711032168
0.02493193783849814
-0.1095625723717172
-0.3754313859619757
-0.7316104675918124
-0.6875376274311047
-0.7758131253487898
-0.3498244193686064
-1.160717509166737
-0.5690820136539564
-0.08017988699156034
0.02177474250560831
-0.4796835216957219
-0.2613429963015299
-0.3382655193450445
-0.655590904360857
-0.2463379530865031
-0.7101453438376234
-0.09008674742913894
-0.0209446436812498
-0.05740527962380395
-1.087315453376125
-1.091405923218201
-0.03533591765461384
-0.7524911831847977
-0.880352731882166
0.3745670826588115
-0.2934441126507343
-0.1657367925023236
-0.1694001668515233
-0.3713635539343931
-0.323897769032003
-0.7150917655237957
-0.6710356179261775
-0.699364187970713
0.01917389079791505
-0.9557361100914209
-0.6602935092236111
-0.3315890947934931
-0.2785792724034847
-0.4475146929809325
-0.003790469607259177
-0.6210142591168972
-0.2930893689934764
0.1532991927853224
-1.116937870417849
0.05988636068413186
-1.270899872600942
-0.7617878643132276
-0.6914757352010916
-0.04859658327429826
-0.1155820237061336
-0.001894096262129769
0.1370109072874578
-0.4740349686314114
-1.023750277301838
0.1857569649490134
-0.4341828559467752
0.4828230064918677
-1.303435073417
-0.2532400074497059
-0.104189623282486
-0.8526542232844609
0.1135123502922305
1.860294488819878
0.261892812960892
0.03902315663711324
-0.05030483223840508
26.78898297343058
0.1737743284519318
-0.5293315523656541
0.05713475710842764
0.100760627039222
-0.01789935910058719
1.151009778621041
-0.8543357457198844
-0.8699731802189592
-0.7461218263663776
-0.02018218767131943
-0.04416617505830679
-0.2615508563250579
0.06141626618970116
0.07902241771764379
-0.2003766920123272
0.0554113857760913
8.419895153666753
0.1509112166029595
-0.397813713400426
-0.1148309468850624
-0.158470773315052
-0.08938711052319415
0.2029540581207996
-0.05270041356237175
-0.312473968301587
0.1612275815554134
-0.04619791618230474
-0.01733865603803136
-0.08639611393277676
0.1831190141207013
0.1400729411328683
-0.6028599089101003
-0.2112017361601721
-0.3224879647490171
0.05940370210593619
0.6401600097888044
0.2126728891335059
-0.7694495457044017
0.422081690622967
0.03034070804181731
0.03664738588282661
0.09121450021032318
0.05296824304636645
-1.889611813376443
-0.6697838922882096
-0.397076136623944
-0.6244839959194879
-0.4796739888566168
8.666441739318797
-0.05322953193150599
-0.5472650538967281
-0.2160798656182704
-0.534604071191268
-0.05366480594278189
-7.07175701703161e-06
-0.5720612827489435
0.3337727574479779
0.09320471285365924
0.08129411967605048
0.6883683298060442
-0.5601731630131909
-0.325011036363897
0.09131608875912593
-0.3984159335288096
0.0009032589800377664
-0.5776509424589223
-0.4176229637064629
0.281121899396544
0.0009742426378057617
-0.7420753288792455
-0.4750094177295607
-0.07893009172938906
-0.5342256984646018
-0.9771706396733522
-0.3213725175269035
-27.48392076438578
0.2528512055267905
-0.8226614595125602
-0.3025350226168422
0.07973176282924917
0.1712942678341829
0.1688051844140835
-1.299844367592581
0.8853498793090514
-0.1558623985729497
-0.1705755494162343
0.3868872351557094
-0.3932896206933795
-0.7961698263719327
0.7385262679613789
-0.5768625130258991
-1.523450738687515
-0.3186495710234762
-0.02070480280945124
-0.3620798294543436
0.3737916395360324
-0.4126194972609512
-0.2199810030295089
0.5168458530664705
-1.415496750220078
-1.563743129534439
-0.1987683130669494
-0.1249657351427924
-0.4868035945566906
-0.345884036715352
-0.2725672076038505
-0.6380851786034382
-0.5355636226292303
-0.4117146503796362
1.192103612409712
-0.1787514835116079
-0.237018973158003
-0.3060974760786802
-0.2659646265573454
-0.2701241474858677
0.0693889603427634
-0.1822712674126517
12.01586181009523
0.237063924010109
-1.004496334381952
-0.2762367904822396
0.1268585546591439
-0.3070538322673902
-1.150357215444374
0.02271110625203957
-0.4328596200849877
-0.4127165501766002
-0.6548647771263896
-0.4461399066983515
-0.8454695716210534
0.0178440976986416
-0.2327723899530192
-0.4907009299100272
-0.3204423392406258
-0.3119422873582068
-0.07950797820478452
-0.260961893697265
-0.76934599925451
-7.247892663995417
-0.3339521144320549
-0.003512388093783497
-0.1383418633305053
-0.6408964797071994
-1.454540253976967
-0.4982804396432279
-0.3254125181817247
-0.2494909055389348
-0.332305270474458
0.1949933386069218
0.8934493761659593
-0.3270515113812639
-0.505481797945317
-0.9036112135272156
-0.3554354141009031
0.2369729002723933
-0.9671981318947481
-0.6815732274556741
-0.3246508773521084
0.1223327554175174
-0.8331261484441709
-0.3525809960597057
0.4487267318265261
-0.3233595864980359
-0.1249251943101853
-0.2752183618792517
-0.178345789200382
-0.124163942343372
0.06631316647184846
-0.01329259425315265
0.1623244967880866
-0.9614577807402812
-0.2421238249973319
-0.4516966173188709
-0.4022075621006683
-0.5627844275335923
-0.5514542083288474
0.4710170176008033
0.07248416928561131
-0.2006835071687244
-0.8303014512517112
-0.1893264173901494
-0.8458779068078921
1.552323398290802
1.488831786481821
0.0352494367297919
0.363929328768223
-0.4940689446000662
-0.8559239297373034
-0.1761154668531978
0.06910246446216395
0.04870180466225817
0.09420562921477703
-0.07270496810465475
0.2958587907113809
-0.02744359408857021
-0.3600678412209298
-1.07929504479335
-0.340200999219701
0.3796971994506269
-0.05402288665417758
-0.1457638752948835
0.139049541572941
-0.5129429848002111
-0.2682970356530236
-0.4219723510206307
0.2403256672199911
-0.09399265575545536
-0.04551277432560217
0.08003045503931079
0.2362611977517199
0.3117477372681582
-0.7467904945587807
-0.7243480020698292
-0.1456068698516804
-0.2013882602281932
-0.09980834090690682
-0.602292359791499
-0.1299572810958754
-1.156325011814501
0.3420363202029548
-0.6104610793420842
-1.288994902072733
0.2126488804709665
-0.2636699644525159
-0.01955159180077982
-0.246858898259028
-0.9105591372600982
-0.1519271425178849
-0.6023831455918015
-0.3484869119220906
-0.5912299672972937
-0.1215274176284853
-0.7133315732894935
-0.6638761206617145
-0.2400737675201215
-0.2681936953124924
-1.014521198911781
-0.05746156278707318
0.1157557146308274
0.3926199491062929
-0.2183489453316814
-1.091796815384441
-1.635011219293899
-0.1646136600735562
0.04247152713966846
0.477459847139565
0.4301269091300143
-0.330706017503307
-0.008086246691023024
-0.1558114397539748
0.3184365450052027
15.58953965195583
0.0350263246319226
-0.1483979697986465
-0.04847704286968926
-0.906983034406714
0.0418259260831778
-0.04931367058184647
0.1672923832957349
-0.7492062963650985
-0.6510192307209087
5.699576076230291
7.441527553092211
6.770512402485953
-0.6738445787449212
-0.8278627249714671
0.1546569432793794
-0.4573058621866285
-0.6249489306412471
-0.2637885604712046
0.1713646184059233
0.1942826471970979
-1.875003246632401
-1.001422980112298
-0.2181836818024541
-0.293317052719399
-0.4674575325950255
0.2470617708524074
-0.8409184476000343
-0.7250541581291293
-1.144086953514222
-0.7291279241421454
-0.7914748294250642
-0.7011033966062197
-0.5290040064456021
-0.6794847770753774
0.1788180106659261
0.1492795897404108
-0.4774655654839148
-0.2862284774429938
-0.5108571017583958
-0.6026703187078435
-0.4889826188652243
-1.151560733528609
-0.9767882023186379
0.09912928701088151
-0.01737941892331813
0.4751238001601593
-2.656860838072534
0.2538818202070667
-0.1423147430681708
-0.5484186548259999
-0.2246241157835341
-0.09207535686558763
-0.2198390581876627
0.02050170242443981
-1.895148424791205
-0.2558832930639346
-0.1260817217148534
-0.3116289408511787
-0.930821671352134
-0.03787411694062959
-1.475488746135937
-0.2341716933304889
-0.4903138297879765
-0.05976129619151766
-0.4826253450561182
-0.7205013745180784
-0.3490364955903926
0.03015931925859334
-0.8086468541197217
0.09348399698153122
-0.9514114734499483
-0.9448248087351936
-0.1358402744098035
-0.4409946877396163
-0.474953898561766
-1.034303969267596
-1.126008777587004
0.1005514693737096
0.1167191006160294
-0.004210641502940332
-0.3705925661374748
-0.2139709582552455
-0.9170859443746243
0.0933546271756211
-0.8705877171178167
14.47532966338249
0.1487881069504994
-0.1439912417111022
-0.1496244866988973
-0.8432243981136205
-0.1990410819408272
1.144085143068243
0.1587751798767021
-0.9477408602619766
-0.5911586098004893
0.02402828613420678
0.1183233550764071
-0.08844619221510316
-0.3115736133492324
-0.2256725108649862
-0.3600058917378816
-0.7803487302311647
-0.2374546003585248
-0.7076051011998188
-1.029396059848582
0.00648544866724883
-0.4566084649948279
-0.5188334484073868
-0.3522368198260034
-0.5107470961458568
-0.186383601684965
-0.1569288176341567
-3.306024709042718
0.3591679882242721
-0.3155056862965635
0.1221415225652928
0.1328415302557773
-0.4853323429350167
0.2416110590437652
-0.4018196998300024
-0.4980631156453303
-0.3054899731960881
-0.4316060008995972
-0.2329576353023388
-0.226996594733135
-0.678179493794869
0.03317916897645426
-0.02840643788661473
-1.296884747037107
0.4958644113130354
0.05983865779187313
0.03403196225598541
-0.1325802999274269
-0.9962369947250165
0.1251508116665098
0.1467178941567381
-0.02192421789026483
-0.227943927268607
-0.1858233180062526
-0.0661473362355688
-0.248785464894864
-0.5336354486945187
-0.6459628071093101
-0.4273262410801431
-0.4356349142975041
-0.2033533748534838
-0.2284398325674634
0.346069706961409
-0.03286440499811115
-0.2280511213019066
-0.363401481188458
-0.5112313864557205
-0.1389723944724896
-0.1841701452767422
-0.2912106155856002
-0.2280707951792217
-0.2187956174964818
0.4619996372821362
-0.2424592690357968
-0.1987762279996389
0.1094206031964362
-0.4113354911135035
-0.225998937070311
-0.8758176219661836
-0.2169193693854183
-0.01032024962896744
-0.6971126759006733
-0.1643207688400387
-0.9187653494416754
0.003321977361852875
-0.7676454840645714
-0.4110399124364138
-0.2678033007849941
-0.3059126780925743
-0.2207350259254832
-1.020546132789492
-0.334166081013699
-0.5910237347124286
-0.2443200040149999
-0.6655276369904813
0.1226448573797542
-0.07588409948562454
-0.8566922303140383
-0.212518312697997
-0.1369167919548763
-0.6418590741249394
-0.7142874641658425
-0.223366927300243
-0.3314611850535509
-0.09032251822574391
-1.018362154406077
-0.2116630979365815
-0.2929124578819058
-0.01060621707860873
2.239753211021747
-0.09049835633063792
-0.358002452576237
-0.6292873547217936
-0.04493525740311091
-0.3087003192734992
0.2256072435086976
-1.22520480333395
-0.6033492176374128
0.04704168324426708
-0.9972167201428874
0.3091506253803403
0.4612092260964646
-0.4591434729021662
-0.4385082067746442
-0.4213715768224788
-0.1411955690077111
-0.2773920810255456
-0.3310720707847068
-0.06661014289702441
-0.165180496621227
-0.7024421382869487
-0.3523599188035694
-0.4359731283112282
-0.01624502358028247
-0.4600927774774745
-0.2057689627163061
-0.2040717874410009
-0.6695515590804889
-0.7741466026404227
-0.1043077602790655
-0.995254158068401
-0.3380197950219951
0.07190588464525322
-0.3646687639521279
-0.2947044052186253
-0.03989296082921538
0.08661402786395365
0.2580339016149574
-1.360797997842614
-0.3071349914797266
-0.3878679802450838
0.08397995982544196
-1.232690316156617
-0.3688215288669346
-0.4118414786229203
-0.1808463378183575
-0.8087298631220153
-0.8833159255698604
-0.7294804775119414
-0.4197603972177392
-0.2948479293713966
-0.06641651754490248
-1.612704230157902
-0.185438650377774
0.1105324285938197
0.2232163140531601
0.1163514513907995
0.3684015721674062
-0.2774615033335429
-1.154845127598587
0.5648042012523617
-1.082838723964517
-0.2307473383703763
-0.4677006582304545
-0.731510100403985
-0.9283053435817415
-0.4073153687028958
-0.3367846510600928
-0.1665642985172673
-0.5938776629247942
-0.9945720216104712
-1.352721522998235
-1.317705465767476
-0.700868294200797
-0.5596830943254998
-0.531048952325867
-0.5883275296529814
-0.9331250409314437
-0.678387710849125
-0.4864552326267466
-0.3979604391006856
-0.3392419302547338
-0.4317096341073247
-0.3061732526203307
-0.4014920853548988
-0.2485299294099926
-0.516633192728768
-0.2671124678337067
-0.1179357140350331
-0.004047761302298374
-0.1747171337018457
-0.4975150976774464
-0.3813911471211123
-0.3274407567456332
-0.6406777779338486
-0.5523473874727211
-0.1034743718486183
-0.9879598125145278
-0.06453978598058158
-1.049440367505157
-0.5700293647757874
0.5002830079162645
-0.1733947919736742
-0.4281740664533914
-0.8419497860848274
-0.1602261574010503
-0.580001315538458
-0.4971843452127999
-1.000156660815906
-0.3822286835556157
-0.4938575691718058
-0.5821333907633571
-0.4804322432223396
-0.8651914912322231
-0.0374706458510959
-0.6141023703093813
-0.8061076549824439
-0.4675735242470938
-0.9832577502000953
-0.3691363319549889
-0.4990275996614418
0.03623607338834901
-0.6552612274423616
-0.5149149883768906
-0.425016847111038
-0.8149060519841632
-0.5375956104593649
-10.72705113743952
-1.06529244710311
0.4853916245996344
0.03610868889435211
-1.190336907719767
-0.3314664520855667
-0.9839441381777017
-0.2600897340826145
-1.303371703874515
-0.531016808386594
-0.2022739426735043
-0.9257750770733483
0.8183059933759008
-1.089105584247821
-0.1084760106337454
-0.4406591754323707
-0.631152544292233
-0.2016175372334682
-0.6228084491595196
0.8900226907610008
-0.7216630543626236
-0.6167020060464914
-0.1986731630461824
-0.3260692788654391
-0.5741195818291522
-0.8164177903964726
-0.4488060755044451
-0.2243643883737408
-0.9189649836067026
-0.5107043369749975
-0.361211167468842
-0.05230104687325891
0.3104177991258577
-0.361735507613155
-1.248415790000517
-0.3194766935581728
-0.4481536387688136
-1.618995032667766
-0.0252680162390336
-0.1371846172429362
-0.03820894881230948
0.1324817997421301
-0.422069500103294
-1.003362389583896
-0.2025309101558764
-0.2090619495933236
-1.043391471886536
-0.2353358447906552
-0.555884452895367
-0.4192552581102319
-0.9535823017832178
-0.2117530814079029
-0.6215376742223904
-0.7256896164446013
0.08473200550693118
-0.3677639083613261
-0.1543905151325616
-0.1627263746617856
-0.3835010789854413
-0.7483839506510415
-0.4694507524622332
-0.6094685448225097
-1.260353056006354
-0.369569379355902
-0.1943259916097163
-0.2622406276096978
-0.2343519966889008
-1.045228585391225
-1.551024043012171
-0.5803343979164182
-0.2992613581535702
-0.7394656541702509
28.42559167466204
0.05401857713068537
-0.6002774113487249
-0.382605941094425
-0.2999939165401167
-0.786812255628218
0.1153211012849593
-0.3796119899145823
-0.07165847704995749
-0.7952457466141122
-0.1486960017713606
-0.9493192946899742
-1.847664335594915
-1.115525144792877
-0.1541950512539536
-1.409861554970727
-2.552172455295664
-0.06705026166576324
-0.1955886064218559
-0.1465633136123267
-0.1205869582196358
-0.2560863346448924
0.4830068735340711
0.3250432576157651
-3.665702170198311
-0.4511259600354353
-0.4503363690085155
-0.01324352899476419
-0.8020198790157447
-0.4415614659838951
-0.5765623306584632
-1.202461425028018
-1.507094286378145
-1.011515911392654
-0.1766239505648872
-0.9452143110024668
-0.5678898069250937
-0.4198197380774127
-0.6358192821775116
0.09987248558020125
-0.6044570880041427
0.2723631064461299
0.002384605124095545
4.37632451199275
-0.2235704665611739
-1.037000701567595
-0.5531507605345237
-0.6123218570975891
-0.3361602682181309
-0.3750747561623373
-0.6294091689085687
-0.6412787740340088
-0.4988144275983993
-0.1585941908084154
-1.164485053272364
0.0180072772596647
-0.1552331358266618
-1.222657523105231
-0.929040647136129
-1.483527263168353
-0.5664181624063553
-0.3951671465240795
-0.6057797185046785
0.2061616161755966
0.1573854205811449
-0.2137409148708374
-0.5185251036155925
0.06519551101659719
0.03072701745448424
0.3645169930279556
-0.1946166355165122
-0.02478210789119767
-0.4567174401322749
-0.5228113212261478
0.1148232511832336
-0.3194880580213971
-0.3974771413955911
-0.04215336358213305
0.008245877047466875
-0.290846287517401
-0.3424652409178957
-0.5398186566878226
-0.795902287097816
-0.2406877056813548
0.06129422992417263
-0.1779065465615716
-0.4283505915524883
-0.2840771745538929
0.09259526399682214
-0.8185058351065241
-0.2668459541016617
-0.5198853387891947
-0.2701700088172572
-0.6322671844261749
-0.3757803492722684
0.01642448878378315
-0.558900644509418
-0.6572429696185473
-0.370875750741504
-0.6106510559512223
-0.1754530638192229
-0.7608898643605109
-0.3784116289857316
-0.3712874582373116
-0.4953261763166588
-0.2368815300217907
-0.4490368822372716
-1.081097518740086
-0.3836269263239482
-0.9013197298743152
-0.2058857729548967
-0.1458303417368967
-0.4240381802854762
1.572400662013914
-0.2824753079015329
-0.5610775858792335
-0.240899959057583
-0.1131399863495598
-0.4084602507094807
-1.496651422050478
-0.1465184817776889
-0.1223049558480954
-0.04634704757274836
-0.6264976189535826
-0.8137466425563855
-0.9647769481661991
-0.3632184836699225
-1.055280873755679
-0.5111294444869479
-0.6156864609975067
-0.1530875282104987
-0.3083704993464007
-0.5183254429639373
-0.1307108306108998
-0.1253700419141797
-0.2645825954640534
-0.2383673349920322
-0.2581053981882626
-0.4602453435865119
-0.6537694961175033
-0.1980845371323466
-0.4224445657378418
-0.4753991084459629
-0.81268108511798
-0.9958745365892819
-0.5329918322014185
-0.2961553526405649
0.4737913144431796
-9.341514659476889
-0.1459079648869038
-0.4256512318018286
-0.04205530376957592
-0.5667682221311836
-0.7551121651659127
-0.5926192427427802
-0.1299455487662382
-0.2474092699100469
-0.9998978514480336
-1.182173523479463
-0.1110093359159674
-0.4661027172529306
-0.4298621313021564
0.09570638767960588
-0.03334894907211672
-0.5542914605887274
-11.93632080577726
0.2194999685698742
-0.9382618717984191
-0.6089076016929059
-0.8308425975050343
0.5923941431341249
-0.4542502228356036
-0.6166877802359403
-0.3456803896598415
-0.2793950577666934
-0.4509673321141904
-0.3394950607946624
-0.5390820885016292
-1.270454615985866
-0.3155087776754626
0.7641946742055088
-0.1266323005391267
-0.3047385943226211
-0.08501137337633706
-0.2834211375056101
-1.22684339361799
-1.269555739455744
-2.290545463535863
-0.8050553073975623
10.93600452980889
-0.1171775518005671
-0.4106711172979567
0.3009310771067081
-0.0766825379045058
-0.7139320635250432
-0.2850980115308663
-0.3672707731464313
-0.2798116460772881
-0.6880630818848419
-0.999475032615707
-1.134586396686694
-0.6960513116484128
-0.5469704883506803
-1.40848690316689
0.1402780926540508
-0.5612878283434459
-1.660501720175832
-0.2006269727419306
-0.04791895039841271
0.3169427197551931
-0.04150531957111417
-0.9118668306737798
-0.1183826010428659
-0.8938031593787589
-0.5912680811417554
-0.4873954573767026
-0.3478428597612566
-1.242956168481508
-0.1763666314511509
-0.5945070398085603
-0.06013544777928427
-0.1538359001612332
-0.3506605137997753
-0.6890502265107566
-0.636848464794003
-0.4112328294941871
0.2691021652904238
-0.7947932000393442
-2.294237317110972
0.2070294869513615
-0.6550614507836652
-0.2951033643640859
0.7981104908862094
-0.2006853788029756
-1.191845955051186
-0.09667287520746461
-0.187246638274742
-1.507002293895418
-1.052092781071308
-0.4449237299793291
-0.2417801463016787
-0.1139157954852309
-0.08488830236449919
-0.4228946003920594
-0.0941478811518264
0.05367609465130094
-0.5648165442119693
0.005405781460149047
-0.3440299208135048
0.466323009935074
0.06093796681488346
-0.009558774276901501
-0.6639679628037959
-0.04703614591606818
-0.2184683964731141
-1.39669257242929
-1.542704659455872
-0.2636607524771019
-0.04633862313688196
0.1907868705714958
-0.4367780589049546
-0.07821823054643567
0.03153574353441638
-0.151401177930799
0.07387706009625833
0.131514476673092
-0.0730164271352014
-0.7723720010909071
-0.5565449707736854
-55.51628771508026
0.04147972007229748
-0.498110683522823
-0.395335671691908
-0.1019135772300892
-0.002535568950115345
0.05082101093795608
-0.1430975133895759
-0.7394338847515581
-0.5427853914348902
-0.6687152775901815
-0.7024769183815093
-0.5651346735196831
-0.5054254810747731
-0.03094887907646329
0.03209724253368401
-0.1376447523799946
-0.858978338456068
-0.3443109970139694
-0.4806648291681818
-0.1790125121927457
0.09372465779914735
-0.1764439168070671
-0.9663490394720039
-1.123524481549009
-0.3752299173352786
-0.1688618583244941
0.03267018034455194
-0.4807836539628507
-0.349854612716711
-0.6507638512410111
-0.6812248651225746
-0.6779595656413806
-0.7890431984862071
-0.1297366317006893
-0.4979165207291568
-0.5933139497383246
-0.8946653746144964
-0.5096768198281317
0.2091841644982614
-0.8021897891021125
-1.482048779672712
0.06893989243434866
-0.03952599743927577
-0.4786089614005762
-0.42962173547424
-0.6870022927114878
-1.090031279765774
0.08617416709061002
-0.5325526337512116
-0.0460299769491879
-0.00534665872612013
-0.02905089761693556
-0.01078780552013508
-0.2134031092636263
-0.2889788618874778
-0.8115432718710001
-0.1889901591273103
0.0007202927718021582
0.1121810130983284
-0.4473383415481768
-0.3854956035047713
-0.4154327425476326
-0.5562703426276833
-0.669066662978578
-0.4701664141361209
-0.3719850655624731
-0.7739580453488201
-1.513236081158632
0.1330925901378754
0.5612173426019922
-0.3463880642747775
-1.242458873669068
-0.0725145689608216
-0.5116345759287183
-0.08538226623682396
-0.1939107388067985
-0.50595612476857
-0.05996627157493475
-1.405006243611294
-0.3733280066685196
-0.8643798071634059
-0.1806883413907591
0.9569544579457676
-0.3469104985177747
-1.289955849549137
-0.001518722370145361
0.2788046447153997
-1.839369780820653
-0.0246901745907014
-0.7029771068938038
-0.3642604915514172
-0.2293279680598273
-1.107698660319519
-0.7585555049276844
0.1916622473036223
0.1258427127439059
-0.7688847011006787
-0.5154483063454526
-0.7407525871442835
-0.5806903839139577
-0.006867306628693327
-1.015942370631499
-0.4013545280959568
-1.639810904395722
-0.5189744530465472
-0.6814785013513058
-0.6481689562379471
-0.4798414466530954
-0.1423550036795114
0.1716910382026161
-0.3416674431923484
4.818146733248801
-0.5550517942489075
-0.1501348822709301
-0.1922276167714918
-0.4327018591401329
0.4544348742612793
-1.12296473771918
0.02828668628728762
-0.04159535813900774
-0.7339972854968588
0.2877041596760038
-0.7662228297637984
0.2863731755919015
-0.9677041164355391
1.314725054575074
0.5409608009417027
0.01646554867603821
-1.139309971108454
0.2972101093374453
-1.253118770356104
-0.1958562235669644
-0.4579247869182738
-0.09351632338686787
0.4478542478031666
-0.3007157051101521
-0.3058910080181289
-0.4795613289960717
-0.7390570349744229
-0.559269508554926
-0.1109725066537799
-0.2410384766857265
-0.4513185771701699
-0.4571847308944925
-0.02183931394741133
-1.416060635055903
-1.290041844985549
-0.1339055404947611
-0.2296028673697555
-0.8107515424861769
-0.8322610278431591
-1.158415019677154
-1.067275778482635
-0.5221665215360806
-0.0110239050182136
0.1835260414462104
0.5305464178856376
-0.07306356175713145
-0.4871177791385674
0.05128963155132298
-0.5382690867515104
-0.1391490344377845
0.1422257302578567
-0.1009783383996298
0.1528686135149505
-1.134499237258992
-0.1004839436613282
-0.09369555884138396
-0.542196248946045
-0.09521651536648956
-0.2184938127452372
-0.05958438129032902
-0.2211156138053325
-1.830100089903735
-0.5109114631330576
-0.7351343647644564
-0.3351996368936651
-0.5213035423567681
-2.386593549895712
-1.137003696374247
-0.2582759021836266
0.1748650283221236
0.2590389630402454
0.02260186160950301
1.53323959594272
-0.1516558553716455
0.2966900544656724
-0.3838916766258496
-0.3943274925192383
-0.5714879031686786
0.1335638522100889
-1.135801390154134
0.0006674144225845926
-0.1186431974937901
-0.3927626328674244
0.03642058977879028
-0.1294328119702133
-1.102324514599615
-0.1923160289378327
-0.8636815061827096
-1.093992041289428
-2.628277337200894
-0.1053757270967994
-0.2098720123439494
-1.10918984037228
-0.04628812107439565
-0.3561193339464441
-0.1316567495913701
0.175804900465435
-0.03434931837816434
-0.7983675055238449
1.199438138578605
1.831592950751776
0.1245237210981618
-0.7690740540473378
-1.422836344801585
-1.783769390957008
-2.025850817285921
-0.9449651187609815
-0.3513079515782159
0.321984341985768
-0.6607812987077331
-0.2092529646431458
-0.4616062620598331
-0.2516910906008388
-0.1651665842443092
-0.9095469121256402
-1.173260576994768
-0.08582815265570952
-0.7246184095770047
-0.3771797922418768
0.1164205107656549
-5.682544896439823
-0.7219050695806004
0.3986107762116921
-0.1788087609491593
-0.5910994264761007
-0.1834124077569808
-1.601801407496882
-0.9023572293188417
1.29988237185635
-0.5004572184073069
-0.6503261017492813
0.1551692114919743
0.1144914101386877
-0.3044677957781488
-0.2221437804622826
-0.1398883144330785
-0.1955423221616942
-1.195850260848187
0.09553343072594431
-0.3461481550075625
-0.1938453978431399
-0.2998932662681027
0.1186537910985657
-0.8477920197549687
-0.2533823368713539
-0.3594508444910659
-1.023915586691283
-0.2454230914281919
-0.9462997632298165
0.03355540649050354
-1.098885931522266
0.6357832227246799
-0.5468598721609516
-0.1337157288044452
-0.3499091816893747
-0.2124543689133386
-0.03700981950538915
0.4005976459113838
-0.1790501540177414
0.1091396385507735
0.03390576989525401
0.332060815061076
-1.208929878001571
0.03093945124520852
-1.307306794683967
-0.1375784008714698
-0.03508053490891486
0.3035303453936938
1.110512373832313
-0.1389816469030049
-1.928741995470123
0.329375817413641
-0.6755403204908432
-0.0532793531020322
-0.4907206189506797
-1.336234071214065
-0.02566521180574498
-0.901418073723419
-0.4630022951995396
-0.18781313916222
-2.344348984293214
-1.202928103181727
0.04885923463897343
-0.4515107693494145
-0.180074314680944
-0.3582583727408885
0.01946932495371679
-0.5716391967466695
-1.689339172034034
-0.2333208738048584
-0.6386559773363979
-0.3114061999259348
-0.1214517232358733
0.04410783823526997
-0.7832419862713322
-1.375780285229837
-1.541457352471731
-2.639781190419568
0.06133670465196334
0.2974809926419125
-0.02764006799458102
-0.6124252550265763
0.2354735485328666
-0.8397446774242509
-0.4049319792018432
-0.3259013308385198
-1.178177981354666
0.08932134084380075
-0.6049564598068706
0.281887888567461
0.2661619710256764
2.13142350723707
0.3927763499521367
0.4263920020335004
-0.4512412979568554
0.1375912609829491
0.2380357861131406
0.02169897122533382
-1.603532788886287
-0.6239124986055526
0.02935598731384693
0.01731362071555038
-0.6452594783591447
-0.2864955704008832
-0.0467008425920798
-2.045396288211422
-0.1578325716088078
-0.03822510550285917
-0.01922205267688
-0.1271294555889589
0.1013583241080519
0.9906895705187696
0.1215695930119795
-0.1784251271844836
-0.4476305251966407
0.1603341978944332
0.1611937389350785
-0.3824551695443348
-1.978226694077771
-0.5619822480592774
-0.6340528824483117
-0.9685813835441768
0.167616611456156
0.02833855426491735
-0.4481028691133319
-0.02594205897849863
-0.5844419409065541
-0.1675110195426222
-1.200952693629785
-0.2272559244183809
0.2347380047104238
-1.066278552211275
-0.06046454621369212
-2.721487542925449
-0.09003295104448171
-0.04035845326208765
-0.6725106291182701
-0.9834977321460533
-0.6085499278518344
-0.1707535841096882
-2.094762253543738
-0.2259635571585537
0.01374822264292476
0.4504389110544031
-0.9370393486558761
-0.2024295272067355
-0.04526278023380515
-0.1451930357827919
-0.8321448165387519
-0.08617832888792445
-0.1015485575176287
-0.9426932534138929
1.102922886932869
-0.2849858147709416
-0.09854906948584016
0.1829533913177578
-0.4638426298560843
-1.641571993782036
-0.8772847131381828
-0.4557691677496077
-3.579507232474525
-0.8982572663324101
-1.058792475022063
-0.07665368284766436
-1.715490201705302
0.6052258889896891
-1.226133353686883
-1.000147055219123
0.1562980989029162
-0.8986716786299871
0.7604525779612265
-0.9741741312622364
-0.5414227178583881
-1.810010828892469
-3.453115633897559
-0.4482377001335018
-0.6134491566613073
-0.009993145114412429
0.04480241795171806
-0.104838632961594
-0.4401553533364542
-1.158655961656157
-0.7664407311852403
1.056479401151851
-0.5342729882364781
-1.084410405426625
-0.5826948529918944
-0.7284262722339404
-0.2448507553789808
-1.011994828482756
-0.7001385090134475
-0.8597317058811713
0.4492720632804164
-0.442051236818599
0.2048724284475711
-0.4885500743747748
-0.393001780516254
-0.3180338350191577
0.07463852944266312
-0.7929612114648346
-0.02856910117533745
-0.2540228280522742
-0.5446681324501064